----- GAMESS execution script 'rungms' -----
This job is running on host crcfe02.crc.nd.edu
under operating system Linux at Sun Sep 29 10:43:22 EDT 2019
Available scratch disk space (Kbyte units) at beginning of the job is
Filesystem      1K-blocks  Used  Available Use% Mounted on
AFS            2147483647     0 2147483647   0% /afs
GAMESS temporary binary files will be written to /afs/crc.nd.edu/user/c/cdrisko
GAMESS supplementary output files will be written to /afs/crc.nd.edu/user/c/cdrisko/scr
Copying input file SO2.inp to your run's scratch directory...

 Distributed Data Interface kickoff program.
 Initiating 1 compute processes on 1 nodes to run the following command:
 /afs/crc.nd.edu/x86_64_linux/g/gamess/nov-2017/gamess/gamess.00.x SO2 

          ******************************************************
          *         GAMESS VERSION = 11 NOV 2017 (R3)         *
          *             FROM IOWA STATE UNIVERSITY             *
          * M.W.SCHMIDT, K.K.BALDRIDGE, J.A.BOATZ, S.T.ELBERT, *
          *   M.S.GORDON, J.H.JENSEN, S.KOSEKI, N.MATSUNAGA,   *
          *          K.A.NGUYEN, S.J.SU, T.L.WINDUS,           *
          *       TOGETHER WITH M.DUPUIS, J.A.MONTGOMERY       *
          *         J.COMPUT.CHEM.  14, 1347-1363(1993)        *
          **************** 64 BIT INTEL VERSION ****************

  SINCE 1993, STUDENTS AND POSTDOCS WORKING AT IOWA STATE UNIVERSITY
  AND ALSO IN THEIR VARIOUS JOBS AFTER LEAVING ISU HAVE MADE IMPORTANT
  CONTRIBUTIONS TO THE CODE:
     IVANA ADAMOVIC, CHRISTINE AIKENS, YURI ALEXEEV, POOJA ARORA,
     ANDREY ASADCHEV, ROB BELL, PRADIPTA BANDYOPADHYAY, JONATHAN BENTZ,
     BRETT BODE, KURT BRORSEN, CALEB CARLIN, GALINA CHABAN, WEI CHEN,
     CHEOL HO CHOI, PAUL DAY, ALBERT DEFUSCO, NUWAN DESILVA, TIM DUDLEY,
     DMITRI FEDOROV, ALEX FINDLATER, GRAHAM FLETCHER, MARK FREITAG,
     KURT GLAESEMANN, ANASTASIA GUININA,
     DAN KEMP, GRANT MERRILL, NORIYUKI MINEZAWA, JONATHAN MULLIN,
     TAKESHI NAGATA, SEAN NEDD, HEATHER NETZLOFF, BOSILJKA NJEGIC, RYAN OLSON,
     MIKE PAK, BUU PHAM,
     SPENCER PRUITT, LUKE ROSKOP, JIM SHOEMAKER, LYUDMILA SLIPCHENKO,
     TONY SMITH, SAROM SOK LEANG, JIE SONG, TETSUYA TAKETSUGU, SIMON WEBB,
     PENG XU, SOOHAENG YOO, FEDERICO ZAHARIEV

  ADDITIONAL CODE HAS BEEN PROVIDED BY COLLABORATORS IN OTHER GROUPS:
     IOWA STATE UNIVERSITY:
          JOE IVANIC, AARON WEST, LAIMUTIS BYTAUTAS, KLAUS RUEDENBERG
     UNIVERSITY OF TOKYO: KIMIHIKO HIRAO, TAKAHITO NAKAJIMA,
          TAKAO TSUNEDA, MUNEAKI KAMIYA, SUSUMU YANAGISAWA,
          KIYOSHI YAGI, MAHITO CHIBA, SEIKEN TOKURA, NAOAKI KAWAKAMI
     UNIVERSITY OF AARHUS: FRANK JENSEN
     UNIVERSITY OF IOWA: VISVALDAS KAIRYS, HUI LI
     NATIONAL INST. OF STANDARDS AND TECHNOLOGY: WALT STEVENS, DAVID GARMER
     UNIVERSITY OF PISA: BENEDETTA MENNUCCI, JACOPO TOMASI
     UNIVERSITY OF MEMPHIS: HENRY KURTZ, PRAKASHAN KORAMBATH
     UNIVERSITY OF ALBERTA: TOBY ZENG, MARIUSZ KLOBUKOWSKI
     UNIVERSITY OF NEW ENGLAND: MARK SPACKMAN
     MIE UNIVERSITY: HIROAKI UMEDA
     NAT. INST. OF ADVANCED INDUSTRIAL SCIENCE AND TECHNOLOGY: KAZUO KITAURA
     MICHIGAN STATE UNIVERSITY:
          KAROL KOWALSKI, MARTA WLOCH, JEFFREY GOUR, JESSE LUTZ,
          WEI LI, PIOTR PIECUCH
     UNIVERSITY OF SILESIA: MONIKA MUSIAL, STANISLAW KUCHARSKI
     FACULTES UNIVERSITAIRES NOTRE-DAME DE LA PAIX:
          OLIVIER QUINET, BENOIT CHAMPAGNE
     UNIVERSITY OF CALIFORNIA - SANTA BARBARA: BERNARD KIRTMAN
     INSTITUTE FOR MOLECULAR SCIENCE:
          KAZUYA ISHIMURA, MICHIO KATOUDA, AND SHIGERU NAGASE
     UNIVERSITY OF NOTRE DAME: ANNA POMOGAEVA, DAN CHIPMAN
     KYUSHU UNIVERSITY:
          HARUYUKI NAKANO,
          FENG LONG GU, JACEK KORCHOWIEC, MARCIN MAKOWSKI, AND YURIKO AOKI,
          HIROTOSHI MORI AND EISAKU MIYOSHI
     PENNSYLVANIA STATE UNIVERSITY:
          TZVETELIN IORDANOV, CHET SWALINA, JONATHAN SKONE,
          SHARON HAMMES-SCHIFFER
     WASEDA UNIVERSITY:
          MASATO KOBAYASHI, TOMOKO AKAMA, TSUGUKI TOUMA,
          TAKESHI YOSHIKAWA, YASUHIRO IKABATA, JUNJI SEINO,
          YUYA NAKAJIMA, HIROMI NAKAI
     NANJING UNIVERSITY: SHUHUA LI
     UNIVERSITY OF NEBRASKA:
          PEIFENG SU, DEJUN SI, NANDUN THELLAMUREGE, YALI WANG, HUI LI
     UNIVERSITY OF ZURICH: ROBERTO PEVERATI, KIM BALDRIDGE
     N. COPERNICUS UNIVERSITY AND JACKSON STATE UNIVERSITY:
          MARIA BARYSZ
     UNIVERSITY OF COPENHAGEN: Jimmy Kromann, CASPER STEINMANN
     TOKYO INSTITUTE OF TECHNOLOGY: HIROYA NAKATA
     NAGOYA UNIVERSITY: YOSHIO NISHIMOTO, STEPHAN IRLE
     MOSCOW STATE UNIVERSITY: VLADIMIR MIRONOV

 EXECUTION OF GAMESS BEGUN Sun Sep 29 10:43:22 2019

            ECHO OF THE FIRST FEW INPUT CARDS -
 INPUT CARD> $BASIS GBASIS=PCSEG-1 $END                                                     
 INPUT CARD> $CONTRL COORD=ZMT ISPHER=1 RUNTYP=ENERGY DFTTYP=PBE MULT=1 $END                
 INPUT CARD>                                                                                
 INPUT CARD> $DATA                                                                          
 INPUT CARD>Title SO2 single-point calculation template with Z-Matrix                       
 INPUT CARD>C1                                                                              
 INPUT CARD>S                                                                               
 INPUT CARD>O 1 1.30                                                                        
 INPUT CARD>O 1 1.30 2 130                                                                  
 INPUT CARD> $END                                                                           
    1000000 WORDS OF MEMORY AVAILABLE

     BASIS OPTIONS
     -------------
     GBASIS=PCSEG-1      IGAUSS=       0      POLAR=NONE    
     NDFUNC=       0     NFFUNC=       0     DIFFSP=       F
     NPFUNC=       0      DIFFS=       F     BASNAM=        


     RUN TITLE
     ---------
 Title SO2 single-point calculation template with Z-Matrix                       

 THE POINT GROUP OF THE MOLECULE IS C1      
 THE ORDER OF THE PRINCIPAL AXIS IS     0

 YOUR FULLY SUBSTITUTED Z-MATRIX IS
 S   
 O      1   1.3000000
 O      1   1.3000000  2  130.0000

 THE MOMENTS OF INERTIA ARE (AMU-ANGSTROM**2)
 IXX=     4.827   IYY=    44.407   IZZ=    49.233

 ATOM      ATOMIC                      COORDINATES (BOHR)
           CHARGE         X                   Y                   Z
 S          16.0     0.0000000000       -0.5192553209        0.0000000000
 O           8.0     2.2264753914        0.5189672048        0.0000000000
 O           8.0    -2.2264753914        0.5189672048        0.0000000000

          INTERNUCLEAR DISTANCES (ANGS.)
          ------------------------------

                1 S          2 O          3 O     

   1 S       0.0000000    1.3000000 *  1.3000000 *
   2 O       1.3000000 *  0.0000000    2.3564002 *
   3 O       1.3000000 *  2.3564002 *  0.0000000  

  * ... LESS THAN  3.000


     ATOMIC BASIS SET
     ----------------
 THE CONTRACTED PRIMITIVE FUNCTIONS HAVE BEEN UNNORMALIZED
 THE CONTRACTED BASIS FUNCTIONS ARE NOW NORMALIZED TO UNITY

  SHELL TYPE  PRIMITIVE        EXPONENT          CONTRACTION COEFFICIENT(S)

 S         

      1   S       1         49299.4000000    0.000677492991
      1   S       2          7395.8400000    0.005232317766
      1   S       3          1683.3000000    0.026769459077
      1   S       4           476.1440000    0.102869580705
      1   S       5           154.3290000    0.286438127414
      1   S       6            55.0288000    0.454278639081
      1   S       7            20.5029000    0.271743121997

      2   S       8            45.9596000   -0.088421914560
      2   S       9             4.9274000    0.564350486135
      2   S      10             1.9179900    0.505415953466

      3   S      11             0.3684980    1.000000000000

      4   S      12             0.1291650    1.000000000000

      5   P      13           451.6620000    0.003707705453
      5   P      14           106.0980000    0.029219352245
      5   P      15            33.6996000    0.124444551509
      5   P      16            12.3054000    0.321808587656
      5   P      17             4.7141200    0.462822172957
      5   P      18             1.7810500    0.266513371364

      6   P      19             0.8722350    0.349265132972
      6   P      20             0.3102780    0.717115018770

      7   P      21             0.1001940    1.000000000000

      8   D      22             0.5500000    1.000000000000

 O         

      9   S      23          2288.6400000    0.005451138222
      9   S      24           344.4160000    0.040718922842
      9   S      25            78.2538000    0.181369420873
      9   S      26            21.7195000    0.465536820246
      9   S      27             6.5590700    0.451211321214

     10   S      28            10.4656000   -0.150211201174
     10   S      29             0.9643510    1.052867983385

     11   S      30             0.2851270    1.000000000000

     12   P      31            17.0590000    0.068749256972
     12   P      32             3.6899900    0.351671941499
     12   P      33             0.9929960    0.724532099722

     13   P      34             0.2449240    1.000000000000

     14   D      35             1.0000000    1.000000000000

 O         

     15   S      36          2288.6400000    0.005451138222
     15   S      37           344.4160000    0.040718922842
     15   S      38            78.2538000    0.181369420873
     15   S      39            21.7195000    0.465536820246
     15   S      40             6.5590700    0.451211321214

     16   S      41            10.4656000   -0.150211201174
     16   S      42             0.9643510    1.052867983385

     17   S      43             0.2851270    1.000000000000

     18   P      44            17.0590000    0.068749256972
     18   P      45             3.6899900    0.351671941499
     18   P      46             0.9929960    0.724532099722

     19   P      47             0.2449240    1.000000000000

     20   D      48             1.0000000    1.000000000000

 TOTAL NUMBER OF BASIS SET SHELLS             =   20
 NUMBER OF CARTESIAN GAUSSIAN BASIS FUNCTIONS =   49
 NOTE: THIS RUN WILL RESTRICT THE MO VARIATION SPACE TO SPHERICAL HARMONICS.
 THE NUMBER OF ORBITALS KEPT IN THE VARIATIONAL SPACE WILL BE PRINTED LATER.
 NUMBER OF ELECTRONS                          =   32
 CHARGE OF MOLECULE                           =    0
 SPIN MULTIPLICITY                            =    1
 NUMBER OF OCCUPIED ORBITALS (ALPHA)          =   16
 NUMBER OF OCCUPIED ORBITALS (BETA )          =   16
 TOTAL NUMBER OF ATOMS                        =    3
 THE NUCLEAR REPULSION ENERGY IS      118.5797042695

     LEBEDEV GRID-BASED DFT OPTIONS
     ------------------------------
     DFTTYP=PBE     
     NRAD  =      96     NLEB  =     302
     NRAD0 =      24     NLEB0 =     110
     SWOFF =    5.00E-03 (PURE SCF -> DFT)
     SWITCH=    3.00E-04 (COARSE -> TIGHT GRID)
     THRESH=    0.00E+00 GTHRE=    1.00E+00

 GRIMME'S EMPIRICAL DISPERSION CORRECTION= F

     $CONTRL OPTIONS
     ---------------
 SCFTYP=RHF          RUNTYP=ENERGY       EXETYP=RUN     
 MPLEVL=       0     CITYP =NONE         CCTYP =NONE         VBTYP =NONE    
 DFTTYP=PBE          TDDFT =NONE    
 MULT  =       1     ICHARG=       0     NZVAR =       0     COORD =ZMT     
 PP    =NONE         RELWFN=NONE         LOCAL =NONE         NUMGRD=       F
 ISPHER=       1     NOSYM =       0     MAXIT =      30     UNITS =ANGS    
 PLTORB=       F     MOLPLT=       F     AIMPAC=       F     FRIEND=        
 NPRINT=       7     IREST =       0     GEOM  =INPUT   
 NORMF =       0     NORMP =       0     ITOL  =      20     ICUT  =       9
 INTTYP=BEST         GRDTYP=BEST         QMTTOL= 1.0E-06

     $SYSTEM OPTIONS
     ---------------
  REPLICATED MEMORY=     1000000 WORDS (ON EVERY NODE).
 DISTRIBUTED MEMDDI=           0 MILLION WORDS IN AGGREGATE,
 MEMDDI DISTRIBUTED OVER   1 PROCESSORS IS           0 WORDS/PROCESSOR.
 TOTAL MEMORY REQUESTED ON EACH PROCESSOR=     1000000 WORDS.
 TIMLIM=      525600.00 MINUTES, OR     365.0 DAYS.
 PARALL= F  BALTYP=  DLB     KDIAG=    0  COREFL= F
 MXSEQ2=     300 MXSEQ3=     150  mem10=         0

          ----------------
          PROPERTIES INPUT
          ----------------

     MOMENTS            FIELD           POTENTIAL          DENSITY
 IEMOM =       1   IEFLD =       0   IEPOT =       0   IEDEN =       0
 WHERE =COMASS     WHERE =NUCLEI     WHERE =NUCLEI     WHERE =NUCLEI  
 OUTPUT=BOTH       OUTPUT=BOTH       OUTPUT=BOTH       OUTPUT=BOTH    
 IEMINT=       0   IEFINT=       0                     IEDINT=       0
                                                       MORB  =       0
          EXTRAPOLATION IN EFFECT
          DIIS IN EFFECT
 ORBITAL PRINTING OPTION: NPREO=     1    49     2     1

     -------------------------------
     INTEGRAL TRANSFORMATION OPTIONS
     -------------------------------
     NWORD  =            0
     CUTOFF = 1.0E-09     MPTRAN =       0
     DIRTRF =       F     AOINTS =DUP     

          ----------------------
          INTEGRAL INPUT OPTIONS
          ----------------------
 NOPK  =       1 NORDER=       0 SCHWRZ=       F

   --- ENCODED Z MATRIX ---
 COORD  TYPE   I   J   K   L   M   N
    1      1    2   1
    2      1    3   1
    3      2    3   1   2

 THE DETERMINANT OF THE G MATRIX IS 10**(    -4)

 THE DETERMINANT OF THE G MATRIX IS 10**(    -4)
 * * * WARNING * * *
 YOUR B MATRIX HAS A SMALL DETERMINANT.
 THIS SUGGESTS YOU MAY HAVE BADLY CHOSEN COORDINATES.

     ------------------------------------------
     THE POINT GROUP IS C1 , NAXIS= 0, ORDER= 1
     ------------------------------------------

 -- VARIATIONAL SPACE WILL BE RESTRICTED TO PURE SPHERICAL HARMONICS ONLY --
 AFTER EXCLUDING CONTAMINANT COMBINATIONS FROM THE CARTESIAN GAUSSIAN BASIS
 SET, THE NUMBER OF SPHERICAL HARMONICS KEPT IN THE VARIATION SPACE IS   46

     DIMENSIONS OF THE SYMMETRY SUBSPACES ARE
 A   =   46

 ..... DONE SETTING UP THE RUN .....
 STEP CPU TIME =     0.03 TOTAL CPU TIME =          0.0 (      0.0 MIN)
 TOTAL WALL CLOCK TIME=          0.0 SECONDS, CPU UTILIZATION IS   100.00%

          ********************
          1 ELECTRON INTEGRALS
          ********************
 ...... END OF ONE-ELECTRON INTEGRALS ......
 STEP CPU TIME =     0.00 TOTAL CPU TIME =          0.0 (      0.0 MIN)
 TOTAL WALL CLOCK TIME=          0.0 SECONDS, CPU UTILIZATION IS   100.00%

          -------------
          GUESS OPTIONS
          -------------
          GUESS =HUCKEL            NORB  =       0          NORDER=       0
          MIX   =       F          PRTMO =       F          PUNMO =       F
          TOLZ  = 1.0E-08          TOLE  = 1.0E-05
          SYMDEN=       F          PURIFY=       F

 INITIAL GUESS ORBITALS GENERATED BY HUCKEL   ROUTINE.
 HUCKEL GUESS REQUIRES     21634 WORDS.

 STATISTICS FOR GENERATION OF SYMMETRY ORBITAL -Q- MATRIX
 NUMBER OF CARTESIAN ATOMIC ORBITALS=         49
 NUMBER OF SPHERICAL CONTAMINANTS DROPPED=     3
 NUMBER OF LINEARLY DEPENDENT MOS DROPPED=     0
 TOTAL NUMBER OF MOS IN VARIATION SPACE=      46

 SYMMETRIES FOR INITIAL GUESS ORBITALS FOLLOW.   BOTH SET(S).
    16 ORBITALS ARE OCCUPIED (    7 CORE ORBITALS).
     8=A        9=A       10=A       11=A       12=A       13=A       14=A   
    15=A       16=A       17=A       18=A       19=A       20=A       21=A   
    22=A       23=A       24=A       25=A       26=A   
 ...... END OF INITIAL ORBITAL SELECTION ......
 STEP CPU TIME =     0.00 TOTAL CPU TIME =          0.0 (      0.0 MIN)
 TOTAL WALL CLOCK TIME=          0.0 SECONDS, CPU UTILIZATION IS    80.00%

                    ----------------------
                    AO INTEGRAL TECHNOLOGY
                    ----------------------
     S,P,L SHELL ROTATED AXIS INTEGRALS, REPROGRAMMED BY
        KAZUYA ISHIMURA (IMS) AND JOSE SIERRA (SYNSTAR).
     S,P,D,L SHELL ROTATED AXIS INTEGRALS PROGRAMMED BY
        KAZUYA ISHIMURA (INSTITUTE FOR MOLECULAR SCIENCE).
     S,P,D,F,G SHELL TO TOTAL QUARTET ANGULAR MOMENTUM SUM 5,
        ERIC PROGRAM BY GRAHAM FLETCHER (ELORET AND NASA ADVANCED
        SUPERCOMPUTING DIVISION, AMES RESEARCH CENTER).
     S,P,D,F,G,L SHELL GENERAL RYS QUADRATURE PROGRAMMED BY
        MICHEL DUPUIS (PACIFIC NORTHWEST NATIONAL LABORATORY).

          --------------------
          2 ELECTRON INTEGRALS
          --------------------

 THE -PK- OPTION IS OFF, THE INTEGRALS ARE NOT IN SUPERMATRIX FORM.
 STORING   15000 INTEGRALS/RECORD ON DISK, USING 12 BYTES/INTEGRAL.
 TWO ELECTRON INTEGRAL EVALUATION REQUIRES   90606 WORDS OF MEMORY.
 II,JST,KST,LST =  1  1  1  1 NREC =         1 INTLOC =    1
 II,JST,KST,LST =  2  1  1  1 NREC =         1 INTLOC =    2
 II,JST,KST,LST =  3  1  1  1 NREC =         1 INTLOC =    7
 II,JST,KST,LST =  4  1  1  1 NREC =         1 INTLOC =   22
 II,JST,KST,LST =  5  1  1  1 NREC =         1 INTLOC =   56
 II,JST,KST,LST =  6  1  1  1 NREC =         1 INTLOC =  125
 II,JST,KST,LST =  7  1  1  1 NREC =         1 INTLOC =  329
 II,JST,KST,LST =  8  1  1  1 NREC =         1 INTLOC =  776
 II,JST,KST,LST =  9  1  1  1 NREC =         1 INTLOC = 2864
 II,JST,KST,LST = 10  1  1  1 NREC =         1 INTLOC = 5005
 II,JST,KST,LST = 11  1  1  1 NREC =         1 INTLOC = 7675
 II,JST,KST,LST = 12  1  1  1 NREC =         1 INTLOC =10793
 II,JST,KST,LST = 13  1  1  1 NREC =         2 INTLOC = 6734
 II,JST,KST,LST = 14  1  1  1 NREC =         3 INTLOC = 7009
 II,JST,KST,LST = 15  1  1  1 NREC =         6 INTLOC = 9064
 II,JST,KST,LST = 16  1  1  1 NREC =         7 INTLOC = 2366
 II,JST,KST,LST = 17  1  1  1 NREC =         7 INTLOC =14517
 II,JST,KST,LST = 18  1  1  1 NREC =         8 INTLOC =13043
 II,JST,KST,LST = 19  1  1  1 NREC =        11 INTLOC = 9830
 II,JST,KST,LST = 20  1  1  1 NREC =        15 INTLOC = 2415
 TOTAL NUMBER OF NONZERO TWO-ELECTRON INTEGRALS =              348321
         24 INTEGRAL RECORDS WERE STORED ON DISK FILE  8.
  ...... END OF TWO-ELECTRON INTEGRALS .....
 STEP CPU TIME =     0.11 TOTAL CPU TIME =          0.2 (      0.0 MIN)
 TOTAL WALL CLOCK TIME=          0.2 SECONDS, CPU UTILIZATION IS    93.75%

          --------------------------
               R-PBE SCF CALCULATION
          --------------------------

     NUCLEAR ENERGY =       118.5797042695
     MAXIT =   30     NPUNCH=    2
     EXTRAP=T  DAMP=F  SHIFT=F  RSTRCT=F  DIIS=T  DEM=F  SOSCF=F
         DENSITY MATRIX CONVERGENCE THRESHOLD=  1.00E-05
     COARSE -> FINE DFT GRID SWITCH THRESHOLD=  3.00E-04 (SWITCH IN $DFT)
                   HF -> DFT SWITCH THRESHOLD=  5.00E-03 (SWOFF IN $DFT)
     MEMORY REQUIRED FOR RHF ITERS=    183108 WORDS.

 DFT CODE IS SWITCHING FROM THE FINE GRID NRAD= 96,  NLEB=  302
                      TO THE COARSE GRID NRAD0= 24, NLEB0=  110

     EXCHANGE FUNCTIONAL   =PBE       
     CORRELATION FUNCTIONAL=PBE       
     DFT THRESHOLD         =.460E-07
     GRID CHANGE THRESHOLD =.300E-03
 FOR AN EULER-MACLAURIN QUADRATURE USING  96 RADIAL POINTS:
 SMALLEST GAUSSIAN PRIMITIVE EXPONENT=        0.1001940000 OF TYPE -P-
 ON ATOM NUMBER   1 HAS RADIAL NORMALIZATION=  1.000000
  LARGEST GAUSSIAN PRIMITIVE EXPONENT=    49299.4000000000 OF TYPE -S-
 ON ATOM NUMBER   1 HAS RADIAL NORMALIZATION=  1.000000
 DFT IS SWITCHED OFF, PERFORMING PURE SCF UNTIL SWOFF THRESHOLD IS REACHED.

 ITER EX DEM     TOTAL ENERGY        E CHANGE  DENSITY CHANGE    DIIS ERROR
   1  0  0     -545.9054493639  -545.9054493639   0.596761785   0.911382957
          * * *   INITIATING DIIS PROCEDURE   * * *
   2  1  0     -546.9041574451    -0.9987080811   0.394994774   0.199872655
   3  2  0     -546.9987464928    -0.0945890477   0.116140727   0.122519445
   4  3  0     -547.0415150401    -0.0427685473   0.053353306   0.013912710
   5  4  0     -547.0434304838    -0.0019154438   0.029936986   0.005643725
   6  5  0     -547.0437228268    -0.0002923430   0.007004273   0.001579293
   7  6  0     -547.0437508701    -0.0000280433   0.000290261   0.000180188
 CONVERGED TO SWOFF, SO DFT CALCULATION IS NOW SWITCHED ON.
 DFT CODE IS SWITCHING BACK TO THE FINE GRID
          * * *   INITIATING DIIS PROCEDURE   * * *
   8  7  0     -548.1122843248    -1.0685334548   0.215370807   0.087400488
   9  8  0     -548.1291803157    -0.0168959908   0.155778743   0.053168360
  10  9  0     -548.1269514671     0.0022288486   0.066576999   0.052967755
  11 10  0     -548.1369368523    -0.0099853852   0.016177057   0.008312934
  12 11  0     -548.1371240646    -0.0001872123   0.000588154   0.000532138
  13 12  0     -548.1371246416    -0.0000005770   0.000071126   0.000031709
  14 13  0     -548.1371246450    -0.0000000034   0.000009719   0.000004307
  15 14  0     -548.1371246450     0.0000000000   0.000003965   0.000004606

          -----------------
          DENSITY CONVERGED
          -----------------
     TIME TO FORM FOCK OPERATORS=       2.1 SECONDS (       0.1 SEC/ITER)
     TIME TO SOLVE SCF EQUATIONS=       0.0 SECONDS (       0.0 SEC/ITER)

 FINAL R-PBE ENERGY IS     -548.1371246450 AFTER  15 ITERATIONS
 DFT EXCHANGE + CORRELATION ENERGY =       -42.7985409641
 TOTAL ELECTRON NUMBER             =        31.9999687978

          ------------
          EIGENVECTORS
          ------------

                      1          2          3          4          5
                  -88.1979   -18.7877   -18.7877    -7.8259    -5.8527
                     A          A          A          A          A   
    1  S  1  S    0.997735  -0.000003  -0.000061  -0.308268  -0.000000
    2  S  1  S    0.008461   0.000023   0.000524   1.031058   0.000000
    3  S  1  S   -0.004095   0.000032   0.000715   0.029071  -0.000000
    4  S  1  S    0.000167   0.000372   0.008311  -0.005068  -0.000000
    5  S  1  X   -0.000000  -0.000316   0.000014  -0.000000   0.993471
    6  S  1  Y    0.000193  -0.000003  -0.000069   0.014501  -0.000000
    7  S  1  Z    0.000000   0.000000   0.000000   0.000000   0.000000
    8  S  1  X    0.000000   0.000530  -0.000024   0.000000   0.019798
    9  S  1  Y   -0.000778   0.000049   0.001102   0.001828  -0.000000
   10  S  1  Z    0.000000   0.000000   0.000000   0.000000   0.000000
   11  S  1  X    0.000000  -0.004468   0.000200   0.000000  -0.002201
   12  S  1  Y   -0.000055   0.000135   0.003018  -0.000251  -0.000000
   13  S  1  Z    0.000000   0.000000   0.000000   0.000000   0.000000
   14  S  1 XX   -0.000645  -0.000057  -0.001277   0.001192  -0.000000
   15  S  1 YY    0.000225   0.000036   0.000804  -0.000573   0.000000
   16  S  1 ZZ    0.000420   0.000021   0.000473  -0.000619   0.000000
   17  S  1 XY    0.000000   0.001800  -0.000081   0.000000   0.002303
   18  S  1 XZ    0.000000   0.000000   0.000000   0.000000   0.000000
   19  S  1 YZ    0.000000   0.000000   0.000000   0.000000   0.000000
   20  O  2  S   -0.000032  -0.670101   0.732930  -0.000575  -0.001384
   21  O  2  S   -0.000128  -0.023302   0.025697   0.000088   0.001514
   22  O  2  S    0.001238   0.010331  -0.013311  -0.000959  -0.002455
   23  O  2  X   -0.000247   0.001457  -0.001427  -0.000620  -0.002351
   24  O  2  Y   -0.000131   0.000613  -0.000502  -0.000255  -0.001317
   25  O  2  Z    0.000000   0.000000   0.000000   0.000000   0.000000
   26  O  2  X   -0.000815  -0.000837   0.003065   0.001165   0.001573
   27  O  2  Y   -0.000397  -0.001316   0.000225   0.000599   0.000849
   28  O  2  Z    0.000000   0.000000   0.000000   0.000000   0.000000
   29  O  2 XX    0.000228  -0.000378  -0.000192   0.000928   0.001231
   30  O  2 YY   -0.000042   0.000341   0.000240  -0.000339  -0.000185
   31  O  2 ZZ   -0.000186   0.000037  -0.000048  -0.000589  -0.001045
   32  O  2 XY    0.000262  -0.000009   0.000202   0.000750   0.001577
   33  O  2 XZ    0.000000   0.000000   0.000000   0.000000   0.000000
   34  O  2 YZ    0.000000   0.000000   0.000000   0.000000   0.000000
   35  O  3  S   -0.000032   0.732897   0.670137  -0.000575   0.001384
   36  O  3  S   -0.000128   0.025504   0.023513   0.000088  -0.001514
   37  O  3  S    0.001238  -0.011478  -0.012336  -0.000959   0.002455
   38  O  3  X    0.000247   0.001579   0.001291   0.000620  -0.002351
   39  O  3  Y   -0.000131  -0.000656  -0.000445  -0.000255   0.001317
   40  O  3  Z    0.000000   0.000000   0.000000   0.000000   0.000000
   41  O  3  X    0.000815  -0.001108  -0.002979  -0.001165   0.001573
   42  O  3  Y   -0.000397   0.001331   0.000106   0.000599  -0.000849
   43  O  3  Z    0.000000   0.000000   0.000000   0.000000   0.000000
   44  O  3 XX    0.000228   0.000359  -0.000225   0.000928  -0.001231
   45  O  3 YY   -0.000042  -0.000318   0.000270  -0.000339   0.000185
   46  O  3 ZZ   -0.000186  -0.000041  -0.000044  -0.000589   0.001045
   47  O  3 XY   -0.000262  -0.000027  -0.000201  -0.000750   0.001577
   48  O  3 XZ    0.000000   0.000000   0.000000   0.000000   0.000000
   49  O  3 YZ    0.000000   0.000000   0.000000   0.000000   0.000000

                      6          7          8          9         10
                   -5.8492    -5.8428    -1.1391    -1.0410    -0.5422
                     A          A          A          A          A   
    1  S  1  S    0.000000   0.004730   0.057521   0.000000   0.056903
    2  S  1  S    0.000000  -0.016448  -0.346133  -0.000001  -0.364047
    3  S  1  S    0.000000   0.001138   0.462800  -0.000001   0.569788
    4  S  1  S    0.000000   0.001267   0.043779  -0.000006   0.161931
    5  S  1  X    0.000000   0.000000   0.000000  -0.180974   0.000001
    6  S  1  Y    0.000000   0.994484  -0.072357   0.000000   0.055134
    7  S  1  Z    0.994752   0.000000   0.000000   0.000000   0.000000
    8  S  1  X    0.000000   0.000000   0.000002   0.387165  -0.000002
    9  S  1  Y    0.000000   0.016859   0.143534  -0.000001  -0.134308
   10  S  1  Z    0.016577   0.000000   0.000000   0.000000   0.000000
   11  S  1  X    0.000000   0.000000   0.000002  -0.021492  -0.000001
   12  S  1  Y    0.000000  -0.002519  -0.020315  -0.000002  -0.055203
   13  S  1  Z   -0.003029   0.000000   0.000000   0.000000   0.000000
   14  S  1 XX    0.000000  -0.000566   0.068026  -0.000001  -0.002227
   15  S  1 YY    0.000000   0.001400  -0.021788   0.000000  -0.017770
   16  S  1 ZZ    0.000000  -0.000834  -0.046237   0.000001   0.019997
   17  S  1 XY    0.000000  -0.000000   0.000001   0.095513  -0.000001
   18  S  1 XZ   -0.000000   0.000000   0.000000   0.000000   0.000000
   19  S  1 YZ    0.001136   0.000000   0.000000   0.000000   0.000000
   20  O  2  S    0.000000  -0.000635  -0.135970  -0.158652   0.108944
   21  O  2  S    0.000000   0.000999   0.270005   0.321751  -0.232934
   22  O  2  S    0.000000  -0.001144   0.192935   0.211518  -0.325470
   23  O  2  X    0.000000  -0.001411  -0.132352  -0.123096  -0.185003
   24  O  2  Y    0.000000  -0.000423  -0.050436  -0.061950  -0.157072
   25  O  2  Z    0.000241   0.000000   0.000000   0.000000   0.000000
   26  O  2  X    0.000000   0.000992  -0.022356   0.004034  -0.090221
   27  O  2  Y    0.000000  -0.000275  -0.004551   0.001416  -0.071568
   28  O  2  Z   -0.000471   0.000000   0.000000   0.000000   0.000000
   29  O  2 XX    0.000000   0.000887   0.015852   0.007235   0.006517
   30  O  2 YY    0.000000  -0.000440  -0.008431  -0.001109   0.000858
   31  O  2 ZZ    0.000000  -0.000447  -0.007420  -0.006126  -0.007375
   32  O  2 XY    0.000000   0.000523   0.009238   0.011576   0.012594
   33  O  2 XZ   -0.000324   0.000000   0.000000   0.000000   0.000000
   34  O  2 YZ   -0.000216   0.000000   0.000000   0.000000   0.000000
   35  O  3  S    0.000000  -0.000635  -0.135971   0.158651   0.108944
   36  O  3  S    0.000000   0.000999   0.270006  -0.321752  -0.232935
   37  O  3  S    0.000000  -0.001144   0.192943  -0.211507  -0.325475
   38  O  3  X    0.000000   0.001411   0.132353  -0.123095   0.185005
   39  O  3  Y    0.000000  -0.000423  -0.050436   0.061949  -0.157074
   40  O  3  Z    0.000241   0.000000   0.000000   0.000000   0.000000
   41  O  3  X    0.000000  -0.000992   0.022358   0.004039   0.090222
   42  O  3  Y    0.000000  -0.000275  -0.004553  -0.001418  -0.071568
   43  O  3  Z   -0.000471   0.000000   0.000000   0.000000   0.000000
   44  O  3 XX    0.000000   0.000887   0.015852  -0.007234   0.006517
   45  O  3 YY    0.000000  -0.000440  -0.008431   0.001109   0.000858
   46  O  3 ZZ    0.000000  -0.000447  -0.007421   0.006125  -0.007375
   47  O  3 XY    0.000000  -0.000523  -0.009238   0.011575  -0.012594
   48  O  3 XZ    0.000324   0.000000   0.000000   0.000000   0.000000
   49  O  3 YZ   -0.000216   0.000000   0.000000   0.000000   0.000000

                     11         12         13         14         15
                   -0.4956    -0.4800    -0.4496    -0.3712    -0.3469
                     A          A          A          A          A   
    1  S  1  S    0.000000  -0.001677   0.000000   0.000000   0.000000
    2  S  1  S    0.000000   0.010807  -0.000001   0.000000  -0.000000
    3  S  1  S    0.000000   0.000022   0.000002   0.000000   0.000001
    4  S  1  S    0.000000  -0.086431   0.000000   0.000000   0.000005
    5  S  1  X    0.000000   0.000000  -0.166911   0.000000  -0.006509
    6  S  1  Y    0.000000  -0.190031   0.000000   0.000000   0.000001
    7  S  1  Z   -0.211234   0.000000   0.000000  -0.000001   0.000000
    8  S  1  X    0.000000  -0.000000   0.443869   0.000000   0.008217
    9  S  1  Y    0.000000   0.489298  -0.000001   0.000000  -0.000001
   10  S  1  Z    0.546247   0.000000   0.000000   0.000002   0.000000
   11  S  1  X    0.000000   0.000000  -0.050965   0.000000   0.081059
   12  S  1  Y    0.000000   0.054230  -0.000000   0.000000   0.000001
   13  S  1  Z    0.079865   0.000000   0.000000   0.000000   0.000000
   14  S  1 XX    0.000000  -0.079801  -0.000000   0.000000   0.000001
   15  S  1 YY    0.000000   0.089339   0.000000   0.000000  -0.000000
   16  S  1 ZZ    0.000000  -0.009538   0.000000   0.000000  -0.000000
   17  S  1 XY    0.000000  -0.000000   0.037675   0.000000  -0.156741
   18  S  1 XZ   -0.000000   0.000000   0.000000   0.164895   0.000000
   19  S  1 YZ    0.061660   0.000000   0.000000   0.000000   0.000000
   20  O  2  S    0.000000   0.037777   0.076291   0.000000  -0.001975
   21  O  2  S    0.000000  -0.075737  -0.157549   0.000000   0.008750
   22  O  2  S    0.000000  -0.129457  -0.306104   0.000000   0.008878
   23  O  2  X    0.000000  -0.258366  -0.311920   0.000000   0.299955
   24  O  2  Y    0.000000   0.227285  -0.244068   0.000000  -0.359019
   25  O  2  Z    0.325287   0.000000   0.000000   0.459301   0.000000
   26  O  2  X    0.000000  -0.132158  -0.118133   0.000000   0.174160
   27  O  2  Y    0.000000   0.130180  -0.118061   0.000000  -0.248638
   28  O  2  Z    0.176014   0.000000   0.000000   0.305806   0.000000
   29  O  2 XX    0.000000   0.021996   0.008368   0.000000  -0.018499
   30  O  2 YY    0.000000  -0.016003   0.002090   0.000000   0.017481
   31  O  2 ZZ    0.000000  -0.005992  -0.010458   0.000000   0.001017
   32  O  2 XY    0.000000  -0.008671   0.018030   0.000000   0.016151
   33  O  2 XZ   -0.026036   0.000000   0.000000  -0.021484   0.000000
   34  O  2 YZ   -0.010931   0.000000   0.000000  -0.009303   0.000000
   35  O  3  S    0.000000   0.037777  -0.076290   0.000000   0.001975
   36  O  3  S    0.000000  -0.075738   0.157546   0.000000  -0.008749
   37  O  3  S    0.000000  -0.129457   0.306102   0.000000  -0.008882
   38  O  3  X    0.000000   0.258368  -0.311919   0.000000   0.299954
   39  O  3  Y    0.000000   0.227286   0.244068   0.000000   0.359020
   40  O  3  Z    0.325289   0.000000   0.000000  -0.459300   0.000000
   41  O  3  X    0.000000   0.132160  -0.118130   0.000000   0.174156
   42  O  3  Y    0.000000   0.130180   0.118061   0.000000   0.248639
   43  O  3  Z    0.176015   0.000000   0.000000  -0.305806   0.000000
   44  O  3 XX    0.000000   0.021996  -0.008367   0.000000   0.018498
   45  O  3 YY    0.000000  -0.016004  -0.002090   0.000000  -0.017481
   46  O  3 ZZ    0.000000  -0.005992   0.010458   0.000000  -0.001017
   47  O  3 XY    0.000000   0.008671   0.018029   0.000000   0.016151
   48  O  3 XZ    0.026036   0.000000   0.000000  -0.021484   0.000000
   49  O  3 YZ   -0.010931   0.000000   0.000000   0.009303   0.000000

                     16         17         18         19         20
                   -0.2588    -0.1022     0.0497     0.1169     0.2017
                     A          A          A          A          A   
    1  S  1  S    0.026651   0.000000   0.012457   0.000000   0.000000
    2  S  1  S   -0.175481   0.000000  -0.084332   0.000000   0.000000
    3  S  1  S    0.204456   0.000000  -0.012709  -0.000006   0.000000
    4  S  1  S    0.662396   0.000000   1.165022   0.000001   0.000000
    5  S  1  X    0.000000   0.000000   0.000000  -0.073264   0.000000
    6  S  1  Y    0.140910   0.000000  -0.134176  -0.000000   0.000000
    7  S  1  Z    0.000000  -0.228576   0.000000   0.000000   0.250667
    8  S  1  X   -0.000001   0.000000   0.000001   0.239985   0.000000
    9  S  1  Y   -0.382533   0.000000   0.461000  -0.000001   0.000000
   10  S  1  Z    0.000000   0.706850   0.000000   0.000000  -0.976516
   11  S  1  X   -0.000001   0.000000  -0.000014   1.499197   0.000000
   12  S  1  Y   -0.063129   0.000000   0.902993   0.000007   0.000000
   13  S  1  Z    0.000000   0.460322   0.000000   0.000000   1.277325
   14  S  1 XX   -0.196949   0.000000  -0.152480  -0.000003   0.000000
   15  S  1 YY    0.101980   0.000000  -0.064413  -0.000000   0.000000
   16  S  1 ZZ    0.094969   0.000000   0.216893   0.000004   0.000000
   17  S  1 XY    0.000000   0.000000   0.000001  -0.157917   0.000000
   18  S  1 XZ    0.000000  -0.000000   0.000000   0.000000   0.000000
   19  S  1 YZ    0.000000  -0.083691   0.000000   0.000000  -0.074409
   20  O  2  S    0.020514   0.000000   0.061595   0.064241   0.000000
   21  O  2  S   -0.043432   0.000000  -0.123478  -0.110843   0.000000
   22  O  2  S   -0.108711   0.000000  -0.593724  -0.751846   0.000000
   23  O  2  X    0.136599   0.000000   0.249022  -0.033991   0.000000
   24  O  2  Y    0.349821   0.000000  -0.156261   0.187017   0.000000
   25  O  2  Z    0.000000  -0.382911   0.000000   0.000000   0.002355
   26  O  2  X    0.071200   0.000000   0.322643  -0.031108   0.000000
   27  O  2  Y    0.252815   0.000000  -0.187348   0.215848   0.000000
   28  O  2  Z    0.000000  -0.369589   0.000000   0.000000  -0.073473
   29  O  2 XX   -0.006085   0.000000  -0.008035  -0.005106   0.000000
   30  O  2 YY    0.001246   0.000000  -0.003275   0.002872   0.000000
   31  O  2 ZZ    0.004839   0.000000   0.011310   0.002234   0.000000
   32  O  2 XY   -0.009885   0.000000  -0.006025  -0.007435   0.000000
   33  O  2 XZ    0.000000   0.002876   0.000000   0.000000   0.025698
   34  O  2 YZ    0.000000  -0.001855   0.000000   0.000000   0.009322
   35  O  3  S    0.020514   0.000000   0.061597  -0.064240   0.000000
   36  O  3  S   -0.043433   0.000000  -0.123482   0.110834   0.000000
   37  O  3  S   -0.108713   0.000000  -0.593733   0.751854   0.000000
   38  O  3  X   -0.136600   0.000000  -0.249023  -0.033997   0.000000
   39  O  3  Y    0.349819   0.000000  -0.156258  -0.187020   0.000000
   40  O  3  Z    0.000000  -0.382911   0.000000   0.000000   0.002355
   41  O  3  X   -0.071201   0.000000  -0.322638  -0.031101   0.000000
   42  O  3  Y    0.252814   0.000000  -0.187345  -0.215854   0.000000
   43  O  3  Z    0.000000  -0.369588   0.000000   0.000000  -0.073473
   44  O  3 XX   -0.006085   0.000000  -0.008035   0.005107   0.000000
   45  O  3 YY    0.001246   0.000000  -0.003276  -0.002873   0.000000
   46  O  3 ZZ    0.004839   0.000000   0.011310  -0.002234   0.000000
   47  O  3 XY    0.009884   0.000000   0.006025  -0.007436   0.000000
   48  O  3 XZ    0.000000  -0.002876   0.000000   0.000000  -0.025698
   49  O  3 YZ    0.000000  -0.001855   0.000000   0.000000   0.009322

                     21         22         23         24         25
                    0.2282     0.3183     0.4182     0.5431     0.5612
                     A          A          A          A          A   
    1  S  1  S    0.027109  -0.063925  -0.000000   0.000000   0.015659
    2  S  1  S   -0.196951   0.461956   0.000001   0.000000  -0.120157
    3  S  1  S    0.708721  -1.570060  -0.000008   0.000000   0.486209
    4  S  1  S   -0.914620   2.007309  -0.000004   0.000000   0.251735
    5  S  1  X    0.000000  -0.000002   0.246027   0.000000  -0.000000
    6  S  1  Y    0.254857   0.095671   0.000000   0.000000  -0.041794
    7  S  1  Z    0.000000   0.000000   0.000000   0.008474   0.000000
    8  S  1  X   -0.000001   0.000010  -0.871910   0.000000   0.000002
    9  S  1  Y   -1.001146  -0.306198  -0.000003   0.000000   0.208528
   10  S  1  Z    0.000000   0.000000   0.000000  -0.049326   0.000000
   11  S  1  X   -0.000001   0.000001   0.905516   0.000000   0.000002
   12  S  1  Y    1.038216   0.498755  -0.000001   0.000000   0.163197
   13  S  1  Z    0.000000   0.000000   0.000000   0.165369   0.000000
   14  S  1 XX    0.118021   0.393031  -0.000001   0.000000  -0.042346
   15  S  1 YY   -0.063880  -0.105262  -0.000000   0.000000   0.835107
   16  S  1 ZZ   -0.054141  -0.287769   0.000002   0.000000  -0.792761
   17  S  1 XY    0.000001   0.000002   0.622690   0.000000   0.000001
   18  S  1 XZ    0.000000   0.000000   0.000000  -0.000001   0.000000
   19  S  1 YZ    0.000000   0.000000   0.000000   0.969363   0.000000
   20  O  2  S   -0.010099   0.004400  -0.009925   0.000000   0.029730
   21  O  2  S    0.038406   0.059275   0.090011   0.000000  -0.103064
   22  O  2  S    0.068096  -0.597567  -0.329740   0.000000  -0.239831
   23  O  2  X   -0.054878  -0.279469  -0.210319   0.000000   0.089633
   24  O  2  Y    0.035651  -0.088369  -0.231638   0.000000  -0.215840
   25  O  2  Z    0.000000   0.000000   0.000000  -0.229242   0.000000
   26  O  2  X   -0.092529   0.095615   0.079537   0.000000   0.321459
   27  O  2  Y   -0.048870   0.101149  -0.097472   0.000000   0.099760
   28  O  2  Z    0.000000   0.000000   0.000000  -0.020666   0.000000
   29  O  2 XX   -0.012650  -0.046962  -0.014073   0.000000   0.023937
   30  O  2 YY    0.016156   0.022423  -0.013710   0.000000   0.014321
   31  O  2 ZZ   -0.003506   0.024539   0.027784   0.000000  -0.038258
   32  O  2 XY    0.020147  -0.030463  -0.041586   0.000000  -0.038258
   33  O  2 XZ    0.000000   0.000000   0.000000  -0.035342   0.000000
   34  O  2 YZ    0.000000   0.000000   0.000000   0.036877   0.000000
   35  O  3  S   -0.010099   0.004400   0.009925   0.000000   0.029730
   36  O  3  S    0.038406   0.059269  -0.090015   0.000000  -0.103065
   37  O  3  S    0.068094  -0.597549   0.329752   0.000000  -0.239824
   38  O  3  X    0.054878   0.279466  -0.210322   0.000000  -0.089636
   39  O  3  Y    0.035651  -0.088369   0.231638   0.000000  -0.215840
   40  O  3  Z    0.000000   0.000000   0.000000  -0.229243   0.000000
   41  O  3  X    0.092528  -0.095600   0.079548   0.000000  -0.321452
   42  O  3  Y   -0.048870   0.101144   0.097468   0.000000   0.099758
   43  O  3  Z    0.000000   0.000000   0.000000  -0.020666   0.000000
   44  O  3 XX   -0.012650  -0.046961   0.014073   0.000000   0.023937
   45  O  3 YY    0.016156   0.022423   0.013710   0.000000   0.014320
   46  O  3 ZZ   -0.003506   0.024539  -0.027784   0.000000  -0.038258
   47  O  3 XY   -0.020148   0.030463  -0.041586   0.000000   0.038258
   48  O  3 XZ    0.000000   0.000000   0.000000   0.035342   0.000000
   49  O  3 YZ    0.000000   0.000000   0.000000   0.036877   0.000000

                     26         27         28         29         30
                    0.6130     0.6490     0.6500     0.7371     0.7996
                     A          A          A          A          A   
    1  S  1  S    0.031167   0.000000   0.000000   0.000000   0.010158
    2  S  1  S   -0.253533   0.000000  -0.000000   0.000000  -0.082819
    3  S  1  S    1.439428   0.000000  -0.000004   0.000000   0.455267
    4  S  1  S    0.742791   0.000000  -0.000012   0.000000  -0.009110
    5  S  1  X   -0.000001   0.000000  -0.232754   0.000000  -0.000001
    6  S  1  Y   -0.093395   0.000000   0.000000   0.000000  -0.018728
    7  S  1  Z    0.000000  -0.000000   0.000000  -0.000000   0.000000
    8  S  1  X    0.000008   0.000000   1.416339   0.000000   0.000004
    9  S  1  Y    0.615152   0.000000  -0.000003   0.000000   0.049569
   10  S  1  Z    0.000000   0.000000   0.000000  -0.000000   0.000000
   11  S  1  X    0.000005   0.000000  -0.157037   0.000000  -0.000003
   12  S  1  Y    0.003779   0.000000  -0.000002   0.000000  -0.699562
   13  S  1  Z    0.000000   0.000000   0.000000  -0.000002   0.000000
   14  S  1 XX    0.411733   0.000000  -0.000001   0.000000   0.302662
   15  S  1 YY   -0.318143   0.000000  -0.000000   0.000000  -0.375792
   16  S  1 ZZ   -0.093590   0.000000   0.000001   0.000000   0.073130
   17  S  1 XY    0.000002   0.000000   0.253027   0.000000   0.000001
   18  S  1 XZ    0.000000   1.007406   0.000000   0.267177   0.000000
   19  S  1 YZ    0.000000   0.000001   0.000000  -0.000001   0.000000
   20  O  2  S    0.054552   0.000000   0.058217   0.000000  -0.005543
   21  O  2  S   -0.068399   0.000000  -0.111037   0.000000   0.092155
   22  O  2  S   -0.777909   0.000000  -0.668678   0.000000  -0.153331
   23  O  2  X   -0.337221   0.000000  -0.160854   0.000000   0.255943
   24  O  2  Y    0.048339   0.000000  -0.227709   0.000000  -0.496294
   25  O  2  Z    0.000000  -0.293762   0.000000   0.597181   0.000000
   26  O  2  X    1.143696   0.000000   1.097480   0.000000  -0.157003
   27  O  2  Y    0.419124   0.000000   0.675719   0.000000   0.980717
   28  O  2  Z    0.000000  -0.161728   0.000000  -0.833842   0.000000
   29  O  2 XX    0.000189   0.000000   0.008363   0.000000  -0.012500
   30  O  2 YY   -0.008284   0.000000   0.005646   0.000000   0.014268
   31  O  2 ZZ    0.008096   0.000000  -0.014009   0.000000  -0.001768
   32  O  2 XY    0.008973   0.000000   0.025810   0.000000   0.029340
   33  O  2 XZ    0.000000  -0.046594   0.000000  -0.029290   0.000000
   34  O  2 YZ    0.000000  -0.050710   0.000000  -0.012014   0.000000
   35  O  3  S    0.054551   0.000000  -0.058218   0.000000  -0.005543
   36  O  3  S   -0.068401   0.000000   0.111038   0.000000   0.092153
   37  O  3  S   -0.777891   0.000000   0.668690   0.000000  -0.153328
   38  O  3  X    0.337211   0.000000  -0.160864   0.000000  -0.255946
   39  O  3  Y    0.048339   0.000000   0.227713   0.000000  -0.496301
   40  O  3  Z    0.000000   0.293762   0.000000  -0.597183   0.000000
   41  O  3  X   -1.143674   0.000000   1.097499   0.000000   0.157014
   42  O  3  Y    0.419117   0.000000  -0.675727   0.000000   0.980724
   43  O  3  Z    0.000000   0.161727   0.000000   0.833846   0.000000
   44  O  3 XX    0.000189   0.000000  -0.008362   0.000000  -0.012501
   45  O  3 YY   -0.008284   0.000000  -0.005646   0.000000   0.014268
   46  O  3 ZZ    0.008096   0.000000   0.014009   0.000000  -0.001768
   47  O  3 XY   -0.008973   0.000000   0.025810   0.000000  -0.029340
   48  O  3 XZ    0.000000  -0.046594   0.000000  -0.029290   0.000000
   49  O  3 YZ    0.000000   0.050710   0.000000   0.012014   0.000000

                     31         32         33         34         35
                    0.8329     0.8602     1.2405     1.2798     1.4544
                     A          A          A          A          A   
    1  S  1  S    0.000000   0.000000   0.027266  -0.000000   0.000000
    2  S  1  S   -0.000000   0.000000  -0.200038   0.000002  -0.000001
    3  S  1  S   -0.000002   0.000000   0.238057  -0.000008  -0.000008
    4  S  1  S   -0.000001   0.000000   0.720077  -0.000041  -0.000024
    5  S  1  X   -0.082237   0.000000  -0.000001  -0.237100  -0.003993
    6  S  1  Y   -0.000000   0.000000  -0.119882   0.000002  -0.000001
    7  S  1  Z    0.000000   0.006540   0.000000   0.000000   0.000000
    8  S  1  X    0.454036   0.000000   0.000012   1.021782  -0.369198
    9  S  1  Y    0.000000   0.000000   0.507065  -0.000012  -0.000001
   10  S  1  Z    0.000000  -0.121540   0.000000   0.000000   0.000000
   11  S  1  X   -0.432467   0.000000   0.000019   0.545870  -1.003717
   12  S  1  Y    0.000004   0.000000   0.084104  -0.000014  -0.000011
   13  S  1  Z    0.000000  -0.755459   0.000000   0.000000   0.000000
   14  S  1 XX   -0.000000   0.000000   1.068455  -0.000010   0.000012
   15  S  1 YY    0.000002   0.000000  -0.363861   0.000002  -0.000005
   16  S  1 ZZ   -0.000001   0.000000  -0.704594   0.000009  -0.000007
   17  S  1 XY    0.261398   0.000000   0.000004   0.908336   0.150322
   18  S  1 XZ    0.000000  -0.000000   0.000000   0.000000   0.000000
   19  S  1 YZ    0.000000  -0.267407   0.000000   0.000000   0.000000
   20  O  2  S   -0.000612   0.000000   0.042011   0.025761   0.084879
   21  O  2  S    0.088016   0.000000  -0.222879   0.050596  -1.297989
   22  O  2  S   -0.229549   0.000000  -0.579598  -1.028955   1.987214
   23  O  2  X   -0.209799   0.000000   0.493249   0.663325   0.066107
   24  O  2  Y    0.557121   0.000000   0.400345   0.104487   0.074852
   25  O  2  Z    0.000000  -0.601700   0.000000   0.000000   0.000000
   26  O  2  X    0.705904   0.000000  -0.024515  -0.089067  -0.275446
   27  O  2  Y   -0.634776   0.000000  -0.050744   0.120711  -0.385242
   28  O  2  Z    0.000000   1.028625   0.000000   0.000000   0.000000
   29  O  2 XX    0.044943   0.000000  -0.030933   0.112446  -0.008973
   30  O  2 YY   -0.026745   0.000000   0.096407  -0.120836  -0.079602
   31  O  2 ZZ   -0.018198   0.000000  -0.065474   0.008390   0.088575
   32  O  2 XY   -0.016702   0.000000   0.057727   0.031550  -0.112379
   33  O  2 XZ    0.000000   0.047185   0.000000   0.000000   0.000000
   34  O  2 YZ    0.000000   0.011683   0.000000   0.000000   0.000000
   35  O  3  S    0.000611   0.000000   0.042014  -0.025758  -0.084875
   36  O  3  S   -0.088012   0.000000  -0.222918  -0.050641   1.297933
   37  O  3  S    0.229545   0.000000  -0.579527   1.029051  -1.987139
   38  O  3  X   -0.209802   0.000000  -0.493238   0.663335   0.066097
   39  O  3  Y   -0.557111   0.000000   0.400347  -0.104497  -0.074846
   40  O  3  Z    0.000000  -0.601697   0.000000   0.000000   0.000000
   41  O  3  X    0.705908   0.000000   0.024514  -0.089046  -0.275421
   42  O  3  Y    0.634760   0.000000  -0.050757  -0.120709   0.385240
   43  O  3  Z    0.000000   1.028622   0.000000   0.000000   0.000000
   44  O  3 XX   -0.044943   0.000000  -0.030932  -0.112447   0.008967
   45  O  3 YY    0.026745   0.000000   0.096406   0.120836   0.079610
   46  O  3 ZZ    0.018198   0.000000  -0.065474  -0.008388  -0.088577
   47  O  3 XY   -0.016701   0.000000  -0.057726   0.031551  -0.112381
   48  O  3 XZ    0.000000  -0.047185   0.000000   0.000000   0.000000
   49  O  3 YZ    0.000000   0.011683   0.000000   0.000000   0.000000

                     36         37         38         39         40
                    1.4873     2.0224     2.0309     2.0561     2.0936
                     A          A          A          A          A   
    1  S  1  S   -0.003869   0.000000   0.000000   0.000000   0.001492
    2  S  1  S    0.043512   0.000000   0.000000   0.000000  -0.006559
    3  S  1  S   -0.374827   0.000000  -0.000001   0.000000  -0.070105
    4  S  1  S   -2.040188   0.000000   0.000002   0.000000  -0.004958
    5  S  1  X    0.000004   0.000000  -0.012337   0.000000  -0.000000
    6  S  1  Y    0.048639   0.000000  -0.000000   0.000000  -0.002616
    7  S  1  Z    0.000000  -0.000000   0.000000  -0.033426   0.000000
    8  S  1  X   -0.000008   0.000000   0.010407   0.000000   0.000001
    9  S  1  Y   -0.430485   0.000000   0.000000   0.000000  -0.016995
   10  S  1  Z    0.000000   0.000001   0.000000   0.156640   0.000000
   11  S  1  X    0.000004   0.000000   0.028197   0.000000  -0.000001
   12  S  1  Y   -0.712182   0.000000   0.000001   0.000000  -0.000130
   13  S  1  Z    0.000000  -0.000000   0.000000  -0.010978   0.000000
   14  S  1 XX   -0.134145   0.000000   0.000001   0.000000   0.129453
   15  S  1 YY   -0.039950   0.000000   0.000001   0.000000   0.106766
   16  S  1 ZZ    0.174096   0.000000  -0.000001   0.000000  -0.236219
   17  S  1 XY   -0.000018   0.000000  -0.022203   0.000000   0.000001
   18  S  1 XZ    0.000000   0.041739   0.000000  -0.000001   0.000000
   19  S  1 YZ    0.000000  -0.000001   0.000000  -0.088784   0.000000
   20  O  2  S    0.068922   0.000000   0.003199   0.000000   0.008225
   21  O  2  S   -1.288003   0.000000  -0.040199   0.000000  -0.109763
   22  O  2  S    2.403243   0.000000   0.040855   0.000000   0.076345
   23  O  2  X   -0.030511   0.000000   0.045653   0.000000   0.068033
   24  O  2  Y   -0.083752   0.000000  -0.025386   0.000000   0.025611
   25  O  2  Z    0.000000   0.018758   0.000000   0.032874   0.000000
   26  O  2  X   -0.684223   0.000000  -0.082905   0.000000  -0.065655
   27  O  2  Y   -0.007160   0.000000   0.036656   0.000000  -0.016950
   28  O  2  Z    0.000000  -0.033632   0.000000  -0.054390   0.000000
   29  O  2 XX   -0.150872   0.000000   0.267676   0.000000  -0.066026
   30  O  2 YY    0.100643   0.000000   0.333959   0.000000  -0.530622
   31  O  2 ZZ    0.050229   0.000000  -0.601635   0.000000   0.596648
   32  O  2 XY   -0.040695   0.000000  -0.371140   0.000000   0.271615
   33  O  2 XZ    0.000000   0.439300   0.000000  -0.047143   0.000000
   34  O  2 YZ    0.000000  -0.555257   0.000000   0.709279   0.000000
   35  O  3  S    0.068926   0.000000  -0.003198   0.000000   0.008224
   36  O  3  S   -1.288051   0.000000   0.040199   0.000000  -0.109762
   37  O  3  S    2.403283   0.000000  -0.040856   0.000000   0.076343
   38  O  3  X    0.030486   0.000000   0.045652   0.000000  -0.068033
   39  O  3  Y   -0.083748   0.000000   0.025387   0.000000   0.025611
   40  O  3  Z    0.000000  -0.018758   0.000000   0.032874   0.000000
   41  O  3  X    0.684242   0.000000  -0.082905   0.000000   0.065657
   42  O  3  Y   -0.007168   0.000000  -0.036657   0.000000  -0.016950
   43  O  3  Z    0.000000   0.033631   0.000000  -0.054391   0.000000
   44  O  3 XX   -0.150867   0.000000  -0.267676   0.000000  -0.066022
   45  O  3 YY    0.100633   0.000000  -0.333964   0.000000  -0.530620
   46  O  3 ZZ    0.050233   0.000000   0.601640   0.000000   0.596642
   47  O  3 XY    0.040698   0.000000  -0.371143   0.000000  -0.271612
   48  O  3 XZ    0.000000   0.439302   0.000000   0.047134   0.000000
   49  O  3 YZ    0.000000   0.555270   0.000000   0.709269   0.000000

                     41         42         43         44         45
                    2.3054     2.3106     2.4875     2.6237     2.8671
                     A          A          A          A          A   
    1  S  1  S    0.000000   0.000000   0.000000  -0.003474   0.042397
    2  S  1  S   -0.000001   0.000000   0.000000   0.049350  -0.422848
    3  S  1  S    0.000003   0.000000   0.000000  -0.405175   2.031790
    4  S  1  S   -0.000002   0.000000   0.000000  -0.394367   1.022286
    5  S  1  X   -0.018145   0.000000   0.000000  -0.000001  -0.000001
    6  S  1  Y   -0.000000   0.000000   0.000000   0.107363  -0.088345
    7  S  1  Z    0.000000   0.095699  -0.000000   0.000000   0.000000
    8  S  1  X    0.248771   0.000000   0.000000   0.000011   0.000002
    9  S  1  Y    0.000001   0.000000   0.000000  -0.629987   0.848457
   10  S  1  Z    0.000000  -0.450841   0.000001   0.000000   0.000000
   11  S  1  X    0.072074   0.000000   0.000000  -0.000002   0.000001
   12  S  1  Y   -0.000001   0.000000   0.000000  -0.205729   0.060576
   13  S  1  Z    0.000000  -0.070790   0.000000   0.000000   0.000000
   14  S  1 XX   -0.000000   0.000000   0.000000   0.514719   0.891264
   15  S  1 YY    0.000001   0.000000   0.000000  -0.549971  -0.375473
   16  S  1 ZZ   -0.000000   0.000000   0.000000   0.035252  -0.515791
   17  S  1 XY   -0.587082   0.000000   0.000000   0.000002   0.000003
   18  S  1 XZ    0.000000   0.000001   0.723563   0.000000   0.000000
   19  S  1 YZ    0.000000  -0.364643   0.000001   0.000000   0.000000
   20  O  2  S   -0.016627   0.000000   0.000000   0.011262   0.015733
   21  O  2  S    0.310546   0.000000   0.000000  -0.370102   0.421438
   22  O  2  S   -0.314123   0.000000   0.000000   0.630229  -1.707672
   23  O  2  X   -0.123161   0.000000   0.000000   0.082247   0.203584
   24  O  2  Y   -0.096167   0.000000   0.000000   0.037166   0.122177
   25  O  2  Z    0.000000  -0.057661  -0.008036   0.000000   0.000000
   26  O  2  X    0.065593   0.000000   0.000000  -0.401033   0.844929
   27  O  2  Y    0.270958   0.000000   0.000000   0.178028   0.461329
   28  O  2  Z    0.000000   0.249103  -0.246478   0.000000   0.000000
   29  O  2 XX    0.388900   0.000000   0.000000   0.653157  -0.513759
   30  O  2 YY   -0.594446   0.000000   0.000000  -0.518953   0.041782
   31  O  2 ZZ    0.205547   0.000000   0.000000  -0.134204   0.471977
   32  O  2 XY   -0.436699   0.000000   0.000000  -0.407183  -0.725439
   33  O  2 XZ    0.000000  -0.759710   0.644310   0.000000   0.000000
   34  O  2 YZ    0.000000  -0.067544   0.483355   0.000000   0.000000
   35  O  3  S    0.016627   0.000000   0.000000   0.011262   0.015733
   36  O  3  S   -0.310546   0.000000   0.000000  -0.370105   0.421442
   37  O  3  S    0.314123   0.000000   0.000000   0.630242  -1.707672
   38  O  3  X   -0.123161   0.000000   0.000000  -0.082246  -0.203581
   39  O  3  Y    0.096167   0.000000   0.000000   0.037165   0.122176
   40  O  3  Z    0.000000  -0.057661   0.008037   0.000000   0.000000
   41  O  3  X    0.065591   0.000000   0.000000   0.401043  -0.844931
   42  O  3  Y   -0.270958   0.000000   0.000000   0.178024   0.461329
   43  O  3  Z    0.000000   0.249103   0.246478   0.000000   0.000000
   44  O  3 XX   -0.388903   0.000000   0.000000   0.653164  -0.513757
   45  O  3 YY    0.594448   0.000000   0.000000  -0.518956   0.041780
   46  O  3 ZZ   -0.205544   0.000000   0.000000  -0.134209   0.471977
   47  O  3 XY   -0.436698   0.000000   0.000000   0.407175   0.725439
   48  O  3 XZ    0.000000   0.759712   0.644307   0.000000   0.000000
   49  O  3 YZ    0.000000  -0.067546  -0.483355   0.000000   0.000000

                     46
                    2.9746
                     A   
    1  S  1  S   -0.000000
    2  S  1  S    0.000000
    3  S  1  S    0.000001
    4  S  1  S   -0.000000
    5  S  1  X   -0.266224
    6  S  1  Y   -0.000000
    7  S  1  Z    0.000000
    8  S  1  X    2.213175
    9  S  1  Y    0.000002
   10  S  1  Z    0.000000
   11  S  1  X    0.116825
   12  S  1  Y    0.000001
   13  S  1  Z    0.000000
   14  S  1 XX   -0.000006
   15  S  1 YY    0.000004
   16  S  1 ZZ    0.000002
   17  S  1 XY    0.801236
   18  S  1 XZ    0.000000
   19  S  1 YZ    0.000000
   20  O  2  S    0.021463
   21  O  2  S    0.362280
   22  O  2  S   -1.722741
   23  O  2  X    0.244305
   24  O  2  Y    0.092041
   25  O  2  Z    0.000000
   26  O  2  X    0.962462
   27  O  2  Y    0.422488
   28  O  2  Z    0.000000
   29  O  2 XX   -0.743397
   30  O  2 YY    0.326077
   31  O  2 ZZ    0.417320
   32  O  2 XY   -0.567697
   33  O  2 XZ    0.000000
   34  O  2 YZ    0.000000
   35  O  3  S   -0.021463
   36  O  3  S   -0.362274
   37  O  3  S    1.722736
   38  O  3  X    0.244308
   39  O  3  Y   -0.092043
   40  O  3  Z    0.000000
   41  O  3  X    0.962458
   42  O  3  Y   -0.422491
   43  O  3  Z    0.000000
   44  O  3 XX    0.743391
   45  O  3 YY   -0.326071
   46  O  3 ZZ   -0.417320
   47  O  3 XY   -0.567702
   48  O  3 XZ    0.000000
   49  O  3 YZ    0.000000
 ...... END OF RHF CALCULATION ......
 STEP CPU TIME =     2.17 TOTAL CPU TIME =          2.3 (      0.0 MIN)
 TOTAL WALL CLOCK TIME=          2.3 SECONDS, CPU UTILIZATION IS    99.15%

     ---------------------------------------------------------------------
     PROPERTIES FOR THE PBE      DFT FUNCTIONAL (RHF  TYPE) DENSITY MATRIX
     ---------------------------------------------------------------------

          -----------------
          ENERGY COMPONENTS
          -----------------

         WAVEFUNCTION NORMALIZATION =       1.0000000000

                ONE ELECTRON ENERGY =    -990.5201548398
                TWO ELECTRON ENERGY =     323.8033259253
           NUCLEAR REPULSION ENERGY =     118.5797042695
                                      ------------------
                       TOTAL ENERGY =    -548.1371246450

 ELECTRON-ELECTRON POTENTIAL ENERGY =     323.8033259253
  NUCLEUS-ELECTRON POTENTIAL ENERGY =   -1539.3862872117
   NUCLEUS-NUCLEUS POTENTIAL ENERGY =     118.5797042695
                                      ------------------
             TOTAL POTENTIAL ENERGY =   -1097.0032570169
               TOTAL KINETIC ENERGY =     548.8661323719
                 VIRIAL RATIO (V/T) =       1.9986717932

          ---------------------------------------
          MULLIKEN AND LOWDIN POPULATION ANALYSES
          ---------------------------------------

     ATOMIC MULLIKEN POPULATION IN EACH MOLECULAR ORBITAL

                      1          2          3          4          5

                  2.000000   2.000000   2.000000   2.000000   2.000000

    1             1.999812   0.000472   0.001354   2.001182   1.999747
    2             0.000094   0.910470   1.088618  -0.000591   0.000126
    3             0.000094   1.089059   0.910029  -0.000591   0.000126

                      6          7          8          9         10

                  2.000000   2.000000   2.000000   2.000000   2.000000

    1             2.000040   1.999981   0.787413   0.625921   0.687945
    2            -0.000020   0.000009   0.606285   0.687048   0.656021
    3            -0.000020   0.000009   0.606302   0.687031   0.656034

                     11         12         13         14         15

                  2.000000   2.000000   2.000000   2.000000   2.000000

    1             0.937573   0.754938   0.291739   0.175443   0.189635
    2             0.531210   0.622527   0.854136   0.912281   0.905185
    3             0.531217   0.622535   0.854125   0.912276   0.905181

                     16

                  2.000000

    1             1.161588
    2             0.419208
    3             0.419204

               ----- POPULATIONS IN EACH AO -----
                             MULLIKEN      LOWDIN
              1  S  1  S      1.99978     1.99919
              2  S  1  S      1.99160     1.87535
              3  S  1  S      1.20431     0.57765
              4  S  1  S      0.73027     0.54396
              5  S  1  X      1.99476     1.96042
              6  S  1  Y      1.99532     1.96826
              7  S  1  Z      1.99367     1.95937
              8  S  1  X      0.86461     0.65048
              9  S  1  Y      1.05067     0.94656
             10  S  1  Z      0.81894     0.70578
             11  S  1  X      0.04042     0.19743
             12  S  1  Y      0.09907     0.24027
             13  S  1  Z      0.10342     0.21634
             14  S  1 XX      0.06685     0.39880
             15  S  1 YY      0.25635     0.33034
             16  S  1 ZZ      0.20772     0.28541
             17  S  1 XY      0.17544     0.24010
             18  S  1 XZ      0.02159     0.21816
             19  S  1 YZ      0.00000     0.02099
             20  O  2  S      1.99535     1.97212
             21  O  2  S      0.93231     0.66793
             22  O  2  S      0.81101     0.48542
             23  O  2  X      0.99521     0.96193
             24  O  2  Y      1.08733     1.05506
             25  O  2  Z      0.89343     0.84602
             26  O  2  X      0.35349     0.52126
             27  O  2  Y      0.55326     0.62110
             28  O  2  Z      0.53901     0.57831
             29  O  2 XX      0.00284     0.21187
             30  O  2 YY      0.00971     0.18886
             31  O  2 ZZ      0.00862     0.18936
             32  O  2 XY      0.00922     0.01800
             33  O  2 XZ      0.00181     0.01291
             34  O  2 YZ      0.00000     0.00243
             35  O  3  S      1.99535     1.97212
             36  O  3  S      0.93231     0.66793
             37  O  3  S      0.81101     0.48542
             38  O  3  X      0.99522     0.96193
             39  O  3  Y      1.08733     1.05506
             40  O  3  Z      0.89344     0.84603
             41  O  3  X      0.35349     0.52126
             42  O  3  Y      0.55326     0.62110
             43  O  3  Z      0.53901     0.57831
             44  O  3 XX      0.00284     0.21187
             45  O  3 YY      0.00971     0.18886
             46  O  3 ZZ      0.00862     0.18936
             47  O  3 XY      0.00922     0.01800
             48  O  3 XZ      0.00181     0.01291
             49  O  3 YZ      0.00000     0.00243

          ----- MULLIKEN ATOMIC OVERLAP POPULATIONS -----
          (OFF-DIAGONAL ELEMENTS NEED TO BE MULTIPLIED BY 2)

             1           2           3

    1   14.8174352
    2    0.3986731   7.8123777
    3    0.3986743  -0.0184430   7.8123785

          TOTAL MULLIKEN AND LOWDIN ATOMIC POPULATIONS
       ATOM         MULL.POP.    CHARGE          LOW.POP.     CHARGE
    1 S            15.614783    0.385217        15.334861    0.665139
    2 O             8.192608   -0.192608         8.332568   -0.332568
    3 O             8.192610   -0.192610         8.332571   -0.332571

          MULLIKEN SPHERICAL HARMONIC POPULATIONS
       ATOM           S       P       D      F      G      H      I    TOTAL
    1 S             5.93    8.96    0.73   0.00   0.00   0.00   0.00   15.61
    2 O             3.74    4.42    0.03   0.00   0.00   0.00   0.00    8.19
    3 O             3.74    4.42    0.03   0.00   0.00   0.00   0.00    8.19

          -------------------------------
          BOND ORDER AND VALENCE ANALYSIS     BOND ORDER THRESHOLD=0.050
          -------------------------------

                   BOND                       BOND                       BOND
  ATOM PAIR DIST  ORDER      ATOM PAIR DIST  ORDER      ATOM PAIR DIST  ORDER
    1   2  1.300  2.064        1   3  1.300  2.064        2   3  2.356  0.148

                       TOTAL       BONDED        FREE
      ATOM            VALENCE     VALENCE     VALENCE
    1 S                 4.128       4.128       0.000
    2 O                 2.212       2.212      -0.000
    3 O                 2.212       2.212       0.000

          ---------------------
          ELECTROSTATIC MOMENTS
          ---------------------

 POINT   1           X           Y           Z (BOHR)    CHARGE
                -0.000000    0.000000    0.000000        0.00 (A.U.)
         DX          DY          DZ         /D/  (DEBYE)
     0.000014   -0.610516    0.000000    0.610516
 ...... END OF PROPERTY EVALUATION ......
 STEP CPU TIME =     0.00 TOTAL CPU TIME =          2.3 (      0.0 MIN)
 TOTAL WALL CLOCK TIME=          2.3 SECONDS, CPU UTILIZATION IS    98.72%
                580000  WORDS OF DYNAMIC MEMORY USED
 EXECUTION OF GAMESS TERMINATED NORMALLY Sun Sep 29 10:43:24 2019
 DDI: 263640 bytes (0.3 MB / 0 MWords) used by master data server.

 ----------------------------------------
 CPU timing information for all processes
 ========================================
 0: 2.259 + 0.72 = 2.331
 ----------------------------------------
 ddikick.x: exited gracefully.
----- accounting info -----
Files used on the master node crcfe02.crc.nd.edu were:
-rw-r--r-- 1 cdrisko campus     208 Sep 29 10:43 /afs/crc.nd.edu/user/c/cdrisko/SO2.F05
-rw-r--r-- 1 cdrisko campus   37566 Sep 29 10:43 /afs/crc.nd.edu/user/c/cdrisko/SO2.F07
-rw-r--r-- 1 cdrisko campus 4320384 Sep 29 10:43 /afs/crc.nd.edu/user/c/cdrisko/SO2.F08
-rw-r--r-- 1 cdrisko campus 1766880 Sep 29 10:43 /afs/crc.nd.edu/user/c/cdrisko/SO2.F10
Sun Sep 29 10:43:27 EDT 2019
0.466u 0.233s 0:06.02 11.4%	0+0k 0+32io 0pf+0w
