   4   4   0   0
  0.1176147E+02  0.3610000E-09  0.3610000E-09  0.3610000E-09  0.5000000E-15
  1.000000000000000E-004
  CAR 
 unknown system                          
     46.29740630     -4.03409554  301      7.48768130      1.00000000
     -4.034  0.0000E+00  0.0000E+00
     -3.866  0.0000E+00  0.0000E+00
     -3.699  0.0000E+00  0.0000E+00
     -3.531  0.0000E+00  0.0000E+00
     -3.363  0.0000E+00  0.0000E+00
     -3.195  0.0000E+00  0.0000E+00
     -3.027  0.0000E+00  0.0000E+00
     -2.860  0.0000E+00  0.0000E+00
     -2.692 -0.3723E-39 -0.6245E-40
     -2.524 -0.1106E-26 -0.1855E-27
     -2.356 -0.1124E-16 -0.1886E-17
     -2.189 -0.3605E-09 -0.6049E-10
     -2.021 -0.3444E-04 -0.5778E-05
     -1.853 -0.2903E-02 -0.4928E-03
     -1.685  0.9110E-01  0.1479E-01
     -1.518  0.6945E-02  0.1596E-01
     -1.350 -0.3441E-02  0.1538E-01
     -1.182  0.5709E+00  0.1112E+00
     -1.014  0.1684E-02  0.1114E+00
     -0.846  0.1206E+00  0.1317E+00
     -0.679  0.1066E+01  0.3105E+00
     -0.511 -0.5171E-01  0.3018E+00
     -0.343  0.3662E+00  0.3632E+00
     -0.175  0.4262E+00  0.4347E+00
     -0.008 -0.3650E-01  0.4286E+00
      0.160  0.5130E+00  0.5147E+00
      0.328  0.6901E-01  0.5263E+00
      0.496  0.4087E+00  0.5948E+00
      0.664  0.1969E+01  0.9252E+00
      0.831 -0.9582E-01  0.9091E+00
      0.999  0.2282E+01  0.1292E+01
      1.167  0.2638E-01  0.1296E+01
      1.335 -0.2944E-02  0.1296E+01
      1.502 -0.1266E-01  0.1294E+01
      1.670  0.3692E+00  0.1356E+01
      1.838  0.1140E+01  0.1547E+01
      2.006  0.2599E+01  0.1983E+01
      2.173 -0.1262E-01  0.1981E+01
      2.341  0.2856E+01  0.2460E+01
      2.509  0.1955E+01  0.2788E+01
      2.677  0.9810E+00  0.2953E+01
      2.845  0.3378E+01  0.3519E+01
      3.012  0.7880E+01  0.4841E+01
      3.180  0.5156E+01  0.5706E+01
      3.348  0.3229E+01  0.6248E+01
      3.516  0.1141E+02  0.8163E+01
      3.683  0.7472E+01  0.9416E+01
      3.851  0.1076E+02  0.1122E+02
      4.019  0.6568E+01  0.1232E+02
      4.187  0.7750E+01  0.1362E+02
      4.354  0.1244E+02  0.1571E+02
      4.522  0.1757E+02  0.1866E+02
      4.690  0.1393E+02  0.2100E+02
      4.858  0.1470E+02  0.2346E+02
      5.026  0.1032E+02  0.2519E+02
      5.193  0.1318E+02  0.2740E+02
      5.361  0.1385E+02  0.2973E+02
      5.529  0.1537E+02  0.3231E+02
      5.697  0.1310E+02  0.3450E+02
      5.864  0.1088E+02  0.3633E+02
      6.032  0.2299E+02  0.4019E+02
      6.200  0.8630E+01  0.4163E+02
      6.368  0.4500E+01  0.4239E+02
      6.536  0.2235E+01  0.4276E+02
      6.703  0.6241E+00  0.4287E+02
      6.871 -0.2595E-01  0.4286E+02
      7.039  0.1601E+00  0.4289E+02
      7.207  0.4192E+00  0.4296E+02
      7.374  0.3088E+00  0.4301E+02
      7.542  0.8150E+01  0.4438E+02
      7.710  0.7278E+00  0.4450E+02
      7.878 -0.3711E-01  0.4450E+02
      8.045  0.4963E-01  0.4450E+02
      8.213  0.2275E+01  0.4489E+02
      8.381 -0.3019E-01  0.4488E+02
      8.549 -0.1182E-01  0.4488E+02
      8.717  0.3144E+00  0.4493E+02
      8.884  0.2057E+01  0.4528E+02
      9.052  0.1103E+00  0.4529E+02
      9.220  0.3222E+01  0.4584E+02
      9.388  0.3292E+00  0.4589E+02
      9.555 -0.1488E-01  0.4589E+02
      9.723 -0.7932E-01  0.4587E+02
      9.891  0.1903E+01  0.4619E+02
     10.059  0.4746E+00  0.4627E+02
     10.226  0.4999E+01  0.4711E+02
     10.394  0.7486E+00  0.4724E+02
     10.562 -0.3502E-01  0.4723E+02
     10.730 -0.3286E-04  0.4723E+02
     10.898 -0.3049E-02  0.4723E+02
     11.065  0.8182E-01  0.4725E+02
     11.233  0.1100E+01  0.4743E+02
     11.401 -0.3357E-01  0.4742E+02
     11.569 -0.1039E-02  0.4742E+02
     11.736 -0.7722E-01  0.4741E+02
     11.904  0.2084E+01  0.4776E+02
     12.072  0.1314E+01  0.4798E+02
     12.240  0.1526E+01  0.4824E+02
     12.408  0.2066E+01  0.4858E+02
     12.575  0.1038E+01  0.4876E+02
     12.743 -0.9274E-01  0.4874E+02
     12.911  0.4242E+01  0.4945E+02
     13.079  0.4243E+00  0.4953E+02
     13.246  0.1993E+01  0.4986E+02
     13.414  0.3674E+00  0.4992E+02
     13.582  0.1482E+00  0.4995E+02
     13.750  0.6345E+00  0.5005E+02
     13.917 -0.2641E-01  0.5005E+02
     14.085 -0.4587E-01  0.5004E+02
     14.253  0.1396E+01  0.5027E+02
     14.421  0.3368E+01  0.5084E+02
     14.589 -0.1431E+00  0.5082E+02
     14.756  0.2572E-01  0.5082E+02
     14.924  0.1441E+01  0.5106E+02
     15.092  0.2289E+01  0.5145E+02
     15.260  0.4663E-02  0.5145E+02
     15.427  0.1869E+01  0.5176E+02
     15.595  0.9808E+00  0.5192E+02
     15.763  0.2816E+01  0.5240E+02
     15.931  0.1640E+01  0.5267E+02
     16.099  0.3079E+01  0.5319E+02
     16.266 -0.1248E+00  0.5317E+02
     16.434 -0.3845E-01  0.5316E+02
     16.602  0.2267E+01  0.5354E+02
     16.770  0.4236E-01  0.5355E+02
     16.937  0.5573E+00  0.5364E+02
     17.105  0.1531E+01  0.5390E+02
     17.273  0.2045E+01  0.5424E+02
     17.441  0.1577E+01  0.5451E+02
     17.608  0.2894E+01  0.5499E+02
     17.776  0.6202E+00  0.5510E+02
     17.944  0.5298E+00  0.5519E+02
     18.112  0.1781E+00  0.5522E+02
     18.280  0.2165E+01  0.5558E+02
     18.447  0.1318E+00  0.5560E+02
     18.615  0.3122E+01  0.5612E+02
     18.783  0.2300E+01  0.5651E+02
     18.951  0.2592E-01  0.5651E+02
     19.118  0.1979E+01  0.5685E+02
     19.286  0.2915E+01  0.5734E+02
     19.454  0.8219E+00  0.5747E+02
     19.622  0.3329E+01  0.5803E+02
     19.789  0.5562E+01  0.5897E+02
     19.957  0.5091E+00  0.5905E+02
     20.125  0.1024E+01  0.5922E+02
     20.293 -0.3975E-01  0.5922E+02
     20.461 -0.2879E-02  0.5922E+02
     20.628 -0.3022E-01  0.5921E+02
     20.796  0.3280E+01  0.5976E+02
     20.964  0.3106E+01  0.6028E+02
     21.132  0.2130E+01  0.6064E+02
     21.299  0.1312E+01  0.6086E+02
     21.467  0.1982E+01  0.6119E+02
     21.635  0.4943E+01  0.6202E+02
     21.803 -0.1227E+00  0.6200E+02
     21.971 -0.3830E-01  0.6199E+02
     22.138  0.8562E+00  0.6214E+02
     22.306  0.3350E+00  0.6219E+02
     22.474 -0.3616E-01  0.6219E+02
     22.642  0.4941E+00  0.6227E+02
     22.809  0.2908E+01  0.6276E+02
     22.977  0.4360E+01  0.6349E+02
     23.145  0.2119E+01  0.6385E+02
     23.313  0.6180E+00  0.6395E+02
     23.480  0.1035E+01  0.6412E+02
     23.648  0.5120E+00  0.6421E+02
     23.816  0.4287E+01  0.6493E+02
     23.984  0.1145E+01  0.6512E+02
     24.152  0.1089E+01  0.6530E+02
     24.319 -0.4176E-01  0.6530E+02
     24.487 -0.2172E-01  0.6529E+02
     24.655  0.2240E+01  0.6567E+02
     24.823  0.1120E+01  0.6586E+02
     24.990  0.1490E+01  0.6611E+02
     25.158  0.2889E+01  0.6659E+02
     25.326  0.4143E+01  0.6729E+02
     25.494  0.2731E+00  0.6733E+02
     25.661  0.1885E+00  0.6736E+02
     25.829  0.1109E+01  0.6755E+02
     25.997  0.5808E+00  0.6765E+02
     26.165  0.2554E+01  0.6807E+02
     26.333  0.3770E+01  0.6871E+02
     26.500  0.5752E+00  0.6880E+02
     26.668  0.8697E-01  0.6882E+02
     26.836  0.1881E+01  0.6913E+02
     27.004  0.2563E+01  0.6956E+02
     27.171 -0.5175E-02  0.6956E+02
     27.339  0.8681E+00  0.6971E+02
     27.507  0.2004E+01  0.7004E+02
     27.675  0.2560E+01  0.7047E+02
     27.843  0.2103E+01  0.7083E+02
     28.010  0.6915E-01  0.7084E+02
     28.178  0.2800E+01  0.7131E+02
     28.346  0.3026E+01  0.7182E+02
     28.514  0.4426E+01  0.7256E+02
     28.681  0.1111E+01  0.7275E+02
     28.849  0.1388E+01  0.7298E+02
     29.017  0.1172E+01  0.7317E+02
     29.185  0.7513E+00  0.7330E+02
     29.352 -0.1025E+00  0.7328E+02
     29.520  0.1757E+01  0.7358E+02
     29.688  0.5701E+00  0.7367E+02
     29.856  0.3269E+01  0.7422E+02
     30.024  0.1794E+01  0.7452E+02
     30.191  0.3815E-01  0.7453E+02
     30.359  0.2541E+01  0.7496E+02
     30.527  0.7221E+01  0.7617E+02
     30.695  0.1239E+01  0.7638E+02
     30.862  0.7200E+01  0.7758E+02
     31.030  0.4998E+01  0.7842E+02
     31.198  0.3619E+01  0.7903E+02
     31.366  0.2355E+01  0.7942E+02
     31.533  0.3489E+00  0.7948E+02
     31.701  0.4792E+00  0.7956E+02
     31.869  0.2110E+01  0.7992E+02
     32.037 -0.7764E-01  0.7990E+02
     32.205 -0.6028E-03  0.7990E+02
     32.372 -0.2863E-01  0.7990E+02
     32.540  0.6883E+00  0.8001E+02
     32.708  0.1302E+01  0.8023E+02
     32.876  0.1549E+01  0.8049E+02
     33.043  0.3183E+00  0.8055E+02
     33.211  0.1049E+01  0.8072E+02
     33.379  0.5316E+00  0.8081E+02
     33.547  0.3313E+01  0.8137E+02
     33.715  0.2314E+01  0.8176E+02
     33.882 -0.8590E-01  0.8174E+02
     34.050  0.5412E+00  0.8183E+02
     34.218  0.3041E+01  0.8234E+02
     34.386  0.1604E+01  0.8261E+02
     34.553  0.1973E+01  0.8294E+02
     34.721  0.3498E+01  0.8353E+02
     34.889  0.8634E+00  0.8367E+02
     35.057  0.4500E+01  0.8443E+02
     35.224  0.8718E+00  0.8458E+02
     35.392  0.4410E+01  0.8532E+02
     35.560  0.3308E+01  0.8587E+02
     35.728  0.5681E+01  0.8682E+02
     35.896  0.1145E+01  0.8702E+02
     36.063  0.9508E+00  0.8717E+02
     36.231 -0.4029E-01  0.8717E+02
     36.399 -0.1559E-03  0.8717E+02
     36.567 -0.1615E-07  0.8717E+02
     36.734 -0.1538E-02  0.8717E+02
     36.902 -0.1434E+00  0.8714E+02
     37.070  0.4341E+01  0.8787E+02
     37.238  0.5403E+00  0.8796E+02
     37.406  0.2049E+01  0.8831E+02
     37.573  0.4764E+01  0.8911E+02
     37.741  0.7765E+00  0.8924E+02
     37.909  0.2120E+00  0.8927E+02
     38.077  0.1670E+01  0.8955E+02
     38.244  0.4293E+01  0.9027E+02
     38.412  0.2169E+01  0.9064E+02
     38.580  0.2088E+01  0.9099E+02
     38.748  0.3864E+01  0.9163E+02
     38.915  0.2093E+01  0.9199E+02
     39.083  0.1044E+01  0.9216E+02
     39.251  0.3994E+00  0.9223E+02
     39.419  0.3710E+01  0.9285E+02
     39.587  0.2581E+01  0.9328E+02
     39.754  0.1875E+01  0.9360E+02
     39.922  0.3098E+01  0.9412E+02
     40.090 -0.2136E+00  0.9408E+02
     40.258  0.2278E+01  0.9446E+02
     40.425  0.3400E+01  0.9503E+02
     40.593  0.1636E+01  0.9531E+02
     40.761  0.2271E-01  0.9531E+02
     40.929 -0.2150E-02  0.9531E+02
     41.096 -0.1045E-06  0.9531E+02
     41.264 -0.1087E-02  0.9531E+02
     41.432 -0.4743E-02  0.9531E+02
     41.600  0.1141E+01  0.9550E+02
     41.768  0.5001E-02  0.9550E+02
     41.935  0.1141E+01  0.9569E+02
     42.103  0.5957E-02  0.9570E+02
     42.271  0.9336E-01  0.9571E+02
     42.439  0.6717E+00  0.9582E+02
     42.606  0.3858E+00  0.9589E+02
     42.774  0.3138E+00  0.9594E+02
     42.942  0.2633E+00  0.9599E+02
     43.110 -0.9523E-02  0.9598E+02
     43.278 -0.4155E-05  0.9598E+02
     43.445 -0.4009E-11  0.9598E+02
     43.613 -0.1483E-07  0.9598E+02
     43.781 -0.2702E-03  0.9598E+02
     43.949  0.7472E-02  0.9599E+02
     44.116  0.9110E-01  0.9600E+02
     44.284 -0.2903E-02  0.9600E+02
     44.452 -0.3444E-04  0.9600E+02
     44.620 -0.3605E-09  0.9600E+02
     44.787 -0.2118E-16  0.9600E+02
     44.955  0.0000E+00  0.9600E+02
     45.123  0.0000E+00  0.9600E+02
     45.291  0.0000E+00  0.9600E+02
     45.459  0.0000E+00  0.9600E+02
     45.626  0.0000E+00  0.9600E+02
     45.794  0.0000E+00  0.9600E+02
     45.962  0.0000E+00  0.9600E+02
     46.130  0.0000E+00  0.9600E+02
     46.297  0.0000E+00  0.9600E+02
