    4    4    1    1
  0.1176147E+02  0.3610000E-09  0.3610000E-09  0.3610000E-09  0.5000000E-15
  1.000000000000000E-004
  CAR 
 unknown system                          
     44     10     48
 
  0.0000000E+00  0.0000000E+00  0.0000000E+00  0.8000000E-02
    1       -1.746300   1.000000
    2        2.750784   1.000000
    3        2.750784   1.000000
    4        2.750784   1.000000
    5        3.212396   1.000000
    6        3.212396   1.000000
    7        3.212396   1.000000
    8        4.618677   1.000000
    9        4.618677   1.000000
   10        4.618677   1.000000
   11        5.451958   1.000000
   12        5.451958   1.000000
   13        6.004922   1.000000
   14        6.004922   1.000000
   15        6.004922   1.000000
   16        6.161537   1.000000
   17        6.161537   1.000000
   18        6.161537   1.000000
   19        6.161537   1.000000
   20        6.161537   1.000000
   21        6.161537   1.000000
   22        9.132377  -0.000000
   23        9.132377  -0.000000
   24        9.132377  -0.000000
   25       14.788066   0.000000
   26       14.788066   0.000000
   27       14.788066   0.000000
   28       20.750348   0.000000
   29       20.750348   0.000000
   30       20.750348   0.000000
   31       20.750348   0.000000
   32       20.750348   0.000000
   33       20.750348   0.000000
   34       25.261233   0.000000
   35       25.261233   0.000000
   36       25.261233   0.000000
   37       27.965559   0.000000
   38       27.965559   0.000000
   39       27.965559   0.000000
   40       30.267077   0.000000
   41       32.940099   0.000000
   42       32.940099   0.000000
   43       32.940099   0.000000
   44       35.439166   0.000000
   45       35.439166   0.000000
   46       35.439166   0.000000
   47       39.204303   0.000000
   48       44.009611   0.000000
 
  0.2000000E+00  0.0000000E+00  0.0000000E+00  0.4800000E-01
    1       -1.262437   1.000000
    2        2.704211   1.000000
    3        2.966698   1.000000
    4        2.966698   1.000000
    5        3.339783   1.000000
    6        3.351043   1.000000
    7        3.351043   1.000000
    8        4.476282   1.000000
    9        4.732212   1.000000
   10        4.732212   1.000000
   11        5.324806   1.000000
   12        5.487375   1.000000
   13        5.487375   1.000000
   14        5.502749   1.000000
   15        5.840281   1.000000
   16        5.840281   1.000000
   17        5.950840   1.000000
   18        5.971022   1.000000
   19        5.971022   1.000000
   20        6.162080   1.000000
   21        6.162080   1.000000
   22        7.067137   1.000000
   23       10.241612   0.000000
   24       10.241612   0.000000
   25       14.969809   0.000000
   26       14.969809   0.000000
   27       17.842739   0.000000
   28       18.483093   0.000000
   29       18.483093   0.000000
   30       19.169684   0.000000
   31       19.169684   0.000000
   32       21.457126   0.000000
   33       21.457126   0.000000
   34       25.469149   0.000000
   35       28.127431   0.000000
   36       28.127431   0.000000
   37       28.164052   0.000000
   38       28.998206   0.000000
   39       29.895894   0.000000
   40       29.895894   0.000000
   41       30.604897   0.000000
   42       30.604897   0.000000
   43       31.311124   0.000000
   44       37.414275   0.000000
   45       37.740811   0.000000
   46       38.693221   0.000000
   47       38.693221   0.000000
   48       42.313976   0.000000
 
  0.4000000E+00  0.0000000E+00  0.0000000E+00  0.4800000E-01
    1        0.111772   1.000000
    2        1.905434   1.000000
    3        3.402370   1.000000
    4        3.402370   1.000000
    5        3.679518   1.000000
    6        3.777197   1.000000
    7        3.777197   1.000000
    8        4.113259   1.000000
    9        4.507644   1.000000
   10        4.507644   1.000000
   11        5.050931   1.000000
   12        5.058877   1.000000
   13        5.058877   1.000000
   14        5.169472   1.000000
   15        5.486509   1.000000
   16        5.486509   1.000000
   17        5.525532   1.000000
   18        5.525532   1.000000
   19        5.639399   1.000000
   20        5.810494   1.000000
   21        6.162669   1.000000
   22        6.162669   1.000000
   23       12.508636   0.000000
   24       12.508636   0.000000
   25       15.324189   0.000000
   26       15.324189   0.000000
   27       15.596550   0.000000
   28       15.596550   0.000000
   29       17.057067   0.000000
   30       17.057067   0.000000
   31       23.207690   0.000000
   32       23.424355   0.000000
   33       23.424355   0.000000
   34       26.124678   0.000000
   35       26.341545   0.000000
   36       26.341545   0.000000
   37       27.302916   0.000000
   38       28.371593   0.000000
   39       28.958361   0.000000
   40       31.518743   0.000000
   41       33.101546   0.000000
   42       33.101546   0.000000
   43       35.590143   0.000000
   44       35.590143   0.000000
   45       38.989453   0.000000
   46       38.989453   0.000000
   47       42.463279   0.000000
   48       42.767515   0.000000
 
  0.2000000E+00  0.2000000E+00  0.0000000E+00  0.9600000E-01
    1       -0.791191   1.000000
    2        2.952807   1.000000
    3        2.952807   1.000000
    4        3.154870   1.000000
    5        3.459196   1.000000
    6        3.463581   1.000000
    7        3.463581   1.000000
    8        4.415579   1.000000
    9        4.773149   1.000000
   10        4.782929   1.000000
   11        5.152022   1.000000
   12        5.152022   1.000000
   13        5.168017   1.000000
   14        5.304088   1.000000
   15        5.523689   1.000000
   16        5.711732   1.000000
   17        5.832802   1.000000
   18        5.832802   1.000000
   19        5.968964   1.000000
   20        5.968964   1.000000
   21        6.034075   1.000000
   22        8.121714  -0.000000
   23        8.121714  -0.000000
   24       11.127914   0.000000
   25       14.873728   0.000000
   26       15.408064   0.000000
   27       18.171472   0.000000
   28       18.171472   0.000000
   29       19.081120   0.000000
   30       19.081120   0.000000
   31       19.753641   0.000000
   32       19.753641   0.000000
   33       22.111649   0.000000
   34       25.989604   0.000000
   35       26.718199   0.000000
   36       26.808014   0.000000
   37       28.460914   0.000000
   38       28.460914   0.000000
   39       30.859051   0.000000
   40       30.859051   0.000000
   41       32.528101   0.000000
   42       34.112703   0.000000
   43       34.289959   0.000000
   44       35.210812   0.000000
   45       35.937952   0.000000
   46       37.485741   0.000000
   47       41.518645   0.000000
   48       41.854070   0.000000
 
  0.4000000E+00  0.2000000E+00  0.0000000E+00  0.1920000E+00
    1        0.538205   1.000000
    2        2.242060   1.000000
    3        3.488353   1.000000
    4        3.573500   1.000000
    5        3.727866   1.000000
    6        3.761495   1.000000
    7        3.839274   1.000000
    8        4.133883   1.000000
    9        4.270756   1.000000
   10        4.455816   1.000000
   11        4.669043   1.000000
   12        4.776187   1.000000
   13        5.069938   1.000000
   14        5.241091   1.000000
   15        5.430027   1.000000
   16        5.490304   1.000000
   17        5.524389   1.000000
   18        5.582563   1.000000
   19        5.776969   1.000000
   20        5.965652   1.000000
   21        5.972023   1.000000
   22        6.322235   1.000000
   23        9.852711  -0.000000
   24       12.077867   0.000000
   25       13.201216   0.000000
   26       15.929943   0.000000
   27       15.968989   0.000000
   28       17.439171   0.000000
   29       19.276694   0.000000
   30       20.711546   0.000000
   31       21.056215   0.000000
   32       21.294253   0.000000
   33       23.076159   0.000000
   34       23.704922   0.000000
   35       23.710161   0.000000
   36       29.490996   0.000000
   37       29.776428   0.000000
   38       30.258377   0.000000
   39       31.222647   0.000000
   40       31.755201   0.000000
   41       33.481269   0.000000
   42       33.611627   0.000000
   43       34.707252   0.000000
   44       38.148456   0.000000
   45       38.317266   0.000000
   46       39.293539   0.000000
   47       39.387154   0.000000
   48       39.530935   0.000000
 
  0.4000000E+00  0.4000000E+00  0.0000000E+00  0.9600000E-01
    1        1.691835   1.000000
    2        3.021284   1.000000
    3        3.021284   1.000000
    4        3.547900   1.000000
    5        3.973430   1.000000
    6        3.987669   1.000000
    7        3.987669   1.000000
    8        4.116957   1.000000
    9        4.258836   1.000000
   10        4.258836   1.000000
   11        4.269582   1.000000
   12        4.600331   1.000000
   13        5.108946   1.000000
   14        5.199782   1.000000
   15        5.243431   1.000000
   16        5.295887   1.000000
   17        5.295887   1.000000
   18        5.547172   1.000000
   19        5.547172   1.000000
   20        5.678648   1.000000
   21        6.322933   1.000000
   22        7.425438   0.929828
   23        7.425438   0.929828
   24        9.200858  -0.000000
   25       15.010957   0.000000
   26       16.936675   0.000000
   27       17.579652   0.000000
   28       17.579652   0.000000
   29       18.714987   0.000000
   30       18.714987   0.000000
   31       20.008086   0.000000
   32       20.817208   0.000000
   33       24.827397   0.000000
   34       24.827397   0.000000
   35       25.741444   0.000000
   36       28.125620   0.000000
   37       30.969514   0.000000
   38       31.047886   0.000000
   39       32.725952   0.000000
   40       32.725952   0.000000
   41       34.606523   0.000000
   42       34.606523   0.000000
   43       35.627509   0.000000
   44       37.564225   0.000000
   45       38.077141   0.000000
   46       38.491759   0.000000
   47       38.491759   0.000000
   48       40.522027   0.000000
 
  0.2000000E+00  0.2000000E+00  0.2000000E+00  0.6400000E-01
    1       -0.338713   1.000000
    2        3.133682   1.000000
    3        3.133682   1.000000
    4        3.133682   1.000000
    5        3.572658   1.000000
    6        3.572658   1.000000
    7        3.572658   1.000000
    8        4.393746   1.000000
    9        4.779768   1.000000
   10        4.779768   1.000000
   11        4.908100   1.000000
   12        4.908100   1.000000
   13        4.908100   1.000000
   14        5.448960   1.000000
   15        5.448960   1.000000
   16        5.491922   1.000000
   17        5.491922   1.000000
   18        5.491922   1.000000
   19        6.075296   1.000000
   20        6.075296   1.000000
   21        6.075296   1.000000
   22        8.765998  -0.000000
   23        8.765998  -0.000000
   24        8.765998  -0.000000
   25       15.674522   0.000000
   26       15.674522   0.000000
   27       15.674522   0.000000
   28       18.545864   0.000000
   29       18.545864   0.000000
   30       18.545864   0.000000
   31       22.612680   0.000000
   32       22.750606   0.000000
   33       22.750606   0.000000
   34       22.750606   0.000000
   35       26.925624   0.000000
   36       26.925624   0.000000
   37       26.925624   0.000000
   38       30.513052   0.000000
   39       30.935567   0.000000
   40       30.935567   0.000000
   41       34.416490   0.000000
   42       34.416490   0.000000
   43       34.416490   0.000000
   44       37.265482   0.000000
   45       37.369793   0.000000
   46       37.369793   0.000000
   47       40.411074   0.000000
   48       40.411074   0.000000
 
  0.4000000E+00  0.2000000E+00  0.2000000E+00  0.1920000E+00
    1        0.919167   1.000000
    2        2.469312   1.000000
    3        3.471661   1.000000
    4        3.471661   1.000000
    5        3.822236   1.000000
    6        3.822236   1.000000
    7        3.887877   1.000000
    8        4.210072   1.000000
    9        4.448652   1.000000
   10        4.448652   1.000000
   11        4.578307   1.000000
   12        4.733138   1.000000
   13        4.877374   1.000000
   14        5.139278   1.000000
   15        5.271780   1.000000
   16        5.271780   1.000000
   17        5.554531   1.000000
   18        5.735772   1.000000
   19        5.983246   1.000000
   20        5.987352   1.000000
   21        5.987352   1.000000
   22        6.507287   1.000000
   23       10.141988  -0.000000
   24       10.141988  -0.000000
   25       12.856439   0.000000
   26       12.856439   0.000000
   27       17.232111   0.000000
   28       19.567205   0.000000
   29       19.648928   0.000000
   30       19.648928   0.000000
   31       21.536466   0.000000
   32       21.536466   0.000000
   33       23.978921   0.000000
   34       24.576469   0.000000
   35       27.382308   0.000000
   36       27.677571   0.000000
   37       28.392425   0.000000
   38       30.432347   0.000000
   39       30.432347   0.000000
   40       30.760074   0.000000
   41       35.364607   0.000000
   42       35.706727   0.000000
   43       37.010384   0.000000
   44       37.010384   0.000000
   45       37.489850   0.000000
   46       38.744930   0.000000
   47       40.259089   0.000000
   48       40.259097   0.000000
 
  0.4000000E+00  0.4000000E+00  0.2000000E+00  0.1920000E+00
    1        1.888498   1.000000
    2        2.886740   1.000000
    3        2.886740   1.000000
    4        3.206882   1.000000
    5        4.137516   1.000000
    6        4.241950   1.000000
    7        4.241950   1.000000
    8        4.398376   1.000000
    9        4.478837   1.000000
   10        4.478837   1.000000
   11        4.619324   1.000000
   12        4.631834   1.000000
   13        4.797316   1.000000
   14        4.971918   1.000000
   15        4.971918   1.000000
   16        4.988684   1.000000
   17        5.578534   1.000000
   18        5.866856   1.000000
   19        5.866856   1.000000
   20        5.885003   1.000000
   21        6.198344   1.000000
   22        7.450945   0.788852
   23        7.450945   0.788852
   24        9.109352  -0.000000
   25       12.296427   0.000000
   26       14.278091   0.000000
   27       14.278091   0.000000
   28       16.527795   0.000000
   29       20.864997   0.000000
   30       22.862613   0.000000
   31       22.862613   0.000000
   32       25.046512   0.000000
   33       25.201218   0.000000
   34       25.201218   0.000000
   35       26.227159   0.000000
   36       28.227691   0.000000
   37       30.429349   0.000000
   38       30.826255   0.000000
   39       30.826255   0.000000
   40       31.138701   0.000000
   41       34.089120   0.000000
   42       34.970572   0.000000
   43       34.970572   0.000000
   44       35.467738   0.000000
   45       38.085184   0.000000
   46       38.728289   0.000000
   47       39.772444   0.000000
   48       39.772444   0.000000
 
  0.4000000E+00  0.4000000E+00  0.4000000E+00  0.6400000E-01
    1        2.289944   1.000000
    2        2.720890   1.000000
    3        2.720890   1.000000
    4        2.720890   1.000000
    5        4.459837   1.000000
    6        4.459837   1.000000
    7        4.459837   1.000000
    8        4.632447   1.000000
    9        4.632447   1.000000
   10        4.707976   1.000000
   11        4.707976   1.000000
   12        4.707976   1.000000
   13        5.175064   1.000000
   14        5.175064   1.000000
   15        5.175064   1.000000
   16        5.383888   1.000000
   17        5.911967   1.000000
   18        5.911967   1.000000
   19        6.027180   1.000000
   20        6.027180   1.000000
   21        6.027180   1.000000
   22        7.525971   0.200800
   23        7.525971   0.200800
   24        7.525971   0.200800
   25       11.849735   0.000000
   26       11.849735   0.000000
   27       11.849735   0.000000
   28       13.619870   0.000000
   29       26.154242   0.000000
   30       26.154242   0.000000
   31       26.154242   0.000000
   32       27.658670   0.000000
   33       27.658670   0.000000
   34       27.658670   0.000000
   35       28.693889   0.000000
   36       28.693889   0.000000
   37       28.693889   0.000000
   38       29.031749   0.000000
   39       29.856393   0.000000
   40       29.856393   0.000000
   41       33.390663   0.000000
   42       33.390663   0.000000
   43       35.280735   0.000000
   44       35.280735   0.000000
   45       35.280735   0.000000
   46       35.671785   0.000000
   47       35.671785   0.000000
   48       35.671785   0.000000
