       N       E                     dE             d eps       ncg     rms          rms(c)
DAV:   1     0.151010990940E+03    0.15101E+03   -0.16586E+04  1104   0.135E+03
DAV:   2    -0.136672896760E+02   -0.16468E+03   -0.14794E+03   984   0.197E+02
DAV:   3    -0.184127513263E+02   -0.47455E+01   -0.47154E+01  1320   0.390E+01
DAV:   4    -0.184477246587E+02   -0.34973E-01   -0.34971E-01  1008   0.287E+00
DAV:   5    -0.184482407648E+02   -0.51611E-03   -0.51609E-03  1368   0.381E-01    0.154E+01
DAV:   6    -0.163479657407E+02    0.21003E+01   -0.32852E+01  1152   0.715E+01    0.814E+00
DAV:   7    -0.148126273408E+02    0.15353E+01   -0.58124E+00  1176   0.292E+01    0.125E+00
DAV:   8    -0.147670839783E+02    0.45543E-01   -0.26037E-02  1080   0.758E-01    0.493E-01
DAV:   9    -0.147630446941E+02    0.40393E-02   -0.12962E-02  1272   0.121E+00    0.730E-02
DAV:  10    -0.147630512225E+02   -0.65284E-05   -0.52457E-04  1176   0.253E-01
   1 F= -.14763051E+02 E0= -.14759370E+02  d E =-.110440E-01
