<?xml version="1.0" encoding="ISO-8859-1"?>
<modeling>
 <generator>
  <i name="program" type="string">vasp </i>
  <i name="version" type="string">5.4.1  </i>
  <i name="subversion" type="string">05Feb16 (build Feb 08 2018 09:21:51) complex                          parallel </i>
  <i name="platform" type="string">LinuxIFC </i>
  <i name="date" type="string">2019 11 21 </i>
  <i name="time" type="string">13:18:32 </i>
 </generator>
 <incar>
  <i type="string" name="PREC">normal</i>
  <i name="ENCUT">    400.00000000</i>
  <i type="int" name="ISMEAR">     1</i>
  <i name="SIGMA">      0.10000000</i>
  <i type="logical" name="LWAVE"> F  </i>
  <i type="logical" name="LCHARG"> F  </i>
  <v type="int" name="KPOINT_BSE">    -1     0     0     0</v>
 </incar>
 <kpoints>
  <generation param="Monkhorst-Pack">
   <v type="int" name="divisions">       5        5        5 </v>
   <v name="usershift">      0.00000000       0.00000000       0.00000000 </v>
   <v name="genvec1">      0.20000000       0.00000000       0.00000000 </v>
   <v name="genvec2">      0.00000000       0.20000000       0.00000000 </v>
   <v name="genvec3">      0.00000000       0.00000000       0.20000000 </v>
   <v name="shift">      0.00000000       0.00000000       0.00000000 </v>
  </generation>
  <varray name="kpointlist" >
   <v>       0.00000000       0.00000000       0.00000000 </v>
   <v>       0.20000000       0.00000000       0.00000000 </v>
   <v>       0.40000000       0.00000000       0.00000000 </v>
   <v>       0.20000000       0.20000000       0.00000000 </v>
   <v>       0.40000000       0.20000000       0.00000000 </v>
   <v>       0.40000000       0.40000000       0.00000000 </v>
   <v>       0.20000000       0.20000000       0.20000000 </v>
   <v>       0.40000000       0.20000000       0.20000000 </v>
   <v>       0.40000000       0.40000000       0.20000000 </v>
   <v>       0.40000000       0.40000000       0.40000000 </v>
  </varray>
  <varray name="weights" >
   <v>       0.00800000 </v>
   <v>       0.04800000 </v>
   <v>       0.04800000 </v>
   <v>       0.09600000 </v>
   <v>       0.19200000 </v>
   <v>       0.09600000 </v>
   <v>       0.06400000 </v>
   <v>       0.19200000 </v>
   <v>       0.19200000 </v>
   <v>       0.06400000 </v>
  </varray>
 </kpoints>
 <parameters>
  <separator name="general" >
   <i type="string" name="SYSTEM">unknown system</i>
   <i type="logical" name="LCOMPAT"> F  </i>
  </separator>
  <separator name="electronic" >
   <i type="string" name="PREC">normal</i>
   <i name="ENMAX">    400.00000000</i>
   <i name="ENAUG">    586.98000000</i>
   <i name="EDIFF">      0.00010000</i>
   <i type="int" name="IALGO">    38</i>
   <i type="int" name="IWAVPR">    10</i>
   <i type="int" name="NBANDS">    48</i>
   <i name="NELECT">     44.00000000</i>
   <i type="int" name="TURBO">     0</i>
   <i type="int" name="IRESTART">     0</i>
   <i type="int" name="NREBOOT">     0</i>
   <i type="int" name="NMIN">     0</i>
   <i name="EREF">      0.00000000</i>
   <separator name="electronic smearing" >
    <i type="int" name="ISMEAR">     1</i>
    <i name="SIGMA">      0.10000000</i>
    <i name="KSPACING">      0.50000000</i>
    <i type="logical" name="KGAMMA"> T  </i>
   </separator>
   <separator name="electronic projectors" >
    <i type="logical" name="LREAL"> F  </i>
    <v name="ROPT">      0.00000000</v>
    <i type="int" name="LMAXPAW">  -100</i>
    <i type="int" name="LMAXMIX">     2</i>
    <i type="logical" name="NLSPLINE"> F  </i>
   </separator>
   <separator name="electronic startup" >
    <i type="int" name="ISTART">     0</i>
    <i type="int" name="ICHARG">     2</i>
    <i type="int" name="INIWAV">     1</i>
   </separator>
   <separator name="electronic spin" >
    <i type="int" name="ISPIN">     1</i>
    <i type="logical" name="LNONCOLLINEAR"> F  </i>
    <v name="MAGMOM">      1.00000000      1.00000000      1.00000000      1.00000000</v>
    <i name="NUPDOWN">     -1.00000000</i>
    <i type="logical" name="LSORBIT"> F  </i>
    <v name="SAXIS">      0.00000000      0.00000000      1.00000000</v>
    <i type="logical" name="LSPIRAL"> F  </i>
    <v name="QSPIRAL">      0.00000000      0.00000000      0.00000000</v>
    <i type="logical" name="LZEROZ"> F  </i>
   </separator>
   <separator name="electronic exchange-correlation" >
    <i type="logical" name="LASPH"> F  </i>
    <i type="logical" name="LMETAGGA"> F  </i>
   </separator>
   <separator name="electronic convergence" >
    <i type="int" name="NELM">    60</i>
    <i type="int" name="NELMDL">    -5</i>
    <i type="int" name="NELMIN">     2</i>
    <i name="ENINI">    400.00000000</i>
    <separator name="electronic convergence detail" >
     <i type="logical" name="LDIAG"> T  </i>
     <i type="logical" name="LSUBROT"> F  </i>
     <i name="WEIMIN">      0.00000000</i>
     <i name="EBREAK">      0.00000052</i>
     <i name="DEPER">      0.30000000</i>
     <i type="int" name="NRMM">     4</i>
     <i name="TIME">      0.40000000</i>
    </separator>
   </separator>
   <separator name="electronic mixer" >
    <i name="AMIX">      0.40000000</i>
    <i name="BMIX">      1.00000000</i>
    <i name="AMIN">      0.10000000</i>
    <i name="AMIX_MAG">      1.60000000</i>
    <i name="BMIX_MAG">      1.00000000</i>
    <separator name="electronic mixer details" >
     <i type="int" name="IMIX">     4</i>
     <i type="logical" name="MIXFIRST"> F  </i>
     <i type="int" name="MAXMIX">   -45</i>
     <i name="WC">    100.00000000</i>
     <i type="int" name="INIMIX">     1</i>
     <i type="int" name="MIXPRE">     1</i>
     <i type="int" name="MREMOVE">     5</i>
    </separator>
   </separator>
   <separator name="electronic dipolcorrection" >
    <i type="logical" name="LDIPOL"> F  </i>
    <i type="logical" name="LMONO"> F  </i>
    <i type="int" name="IDIPOL">     0</i>
    <i name="EPSILON">      1.00000000</i>
    <v name="DIPOL">   -100.00000000   -100.00000000   -100.00000000</v>
    <i name="EFIELD">      0.00000000</i>
   </separator>
  </separator>
  <separator name="grids" >
   <i type="int" name="NGX">    18</i>
   <i type="int" name="NGY">    18</i>
   <i type="int" name="NGZ">    18</i>
   <i type="int" name="NGXF">    36</i>
   <i type="int" name="NGYF">    36</i>
   <i type="int" name="NGZF">    36</i>
   <i type="logical" name="ADDGRID"> F  </i>
  </separator>
  <separator name="ionic" >
   <i type="int" name="NSW">     0</i>
   <i type="int" name="IBRION">    -1</i>
   <i type="int" name="ISIF">     2</i>
   <i name="PSTRESS">      0.00000000</i>
   <i name="EDIFFG">      0.00100000</i>
   <i type="int" name="NFREE">     0</i>
   <i name="POTIM">      0.50000000</i>
   <i name="SMASS">     -3.00000000</i>
   <i name="SCALEE">      1.00000000</i>
  </separator>
  <separator name="ionic md" >
   <i name="TEBEG">      0.00010000</i>
   <i name="TEEND">      0.00010000</i>
   <i type="int" name="NBLOCK">     1</i>
   <i type="int" name="KBLOCK">     1</i>
   <i type="int" name="NPACO">   256</i>
   <i name="APACO">     16.00000000</i>
  </separator>
  <separator name="symmetry" >
   <i type="int" name="ISYM">     2</i>
   <i name="SYMPREC">      0.00001000</i>
  </separator>
  <separator name="dos" >
   <i type="logical" name="LORBIT"> F  </i>
   <v name="RWIGS">     -1.00000000</v>
   <i type="int" name="NEDOS">   301</i>
   <i name="EMIN">     10.00000000</i>
   <i name="EMAX">    -10.00000000</i>
   <i name="EFERMI">      0.00000000</i>
  </separator>
  <separator name="writing" >
   <i type="int" name="NWRITE">     2</i>
   <i type="logical" name="LWAVE"> F  </i>
   <i type="logical" name="LCHARG"> F  </i>
   <i type="logical" name="LPARD"> F  </i>
   <i type="logical" name="LVTOT"> F  </i>
   <i type="logical" name="LVHAR"> F  </i>
   <i type="logical" name="LELF"> F  </i>
   <i type="logical" name="LOPTICS"> F  </i>
   <v name="STM">      0.00000000      0.00000000      0.00000000      0.00000000      0.00000000      0.00000000      0.00000000</v>
  </separator>
  <separator name="performance" >
   <i type="int" name="NPAR">    24</i>
   <i type="int" name="NSIM">     4</i>
   <i type="int" name="NBLK">    -1</i>
   <i type="logical" name="LPLANE"> T  </i>
   <i type="logical" name="LSCALAPACK"> F  </i>
   <i type="logical" name="LSCAAWARE"> F  </i>
   <i type="logical" name="LSCALU"> F  </i>
   <i type="logical" name="LASYNC"> F  </i>
   <i type="logical" name="LORBITALREAL"> F  </i>
  </separator>
  <separator name="miscellaneous" >
   <i type="int" name="IDIOT">     3</i>
   <i type="logical" name="LMUSIC"> F  </i>
   <v name="POMASS">     63.54600000</v>
   <v name="DARWINR">      0.00000000</v>
   <v name="DARWINV">      1.00000000</v>
   <i type="logical" name="LCORR"> T  </i>
  </separator>
  <i type="logical" name="GGA_COMPAT"> T  </i>
  <i type="logical" name="LBERRY"> F  </i>
  <i type="int" name="ICORELEVEL">     0</i>
  <i type="logical" name="LDAU"> F  </i>
  <i type="int" name="I_CONSTRAINED_M">     0</i>
  <separator name="electronic exchange-correlation" >
   <i type="string" name="GGA">--</i>
   <i type="int" name="VOSKOWN">     0</i>
   <i type="logical" name="LHFCALC"> F  </i>
   <i type="string" name="PRECFOCK"></i>
   <i type="logical" name="LSYMGRAD"> F  </i>
   <i type="logical" name="LHFONE"> F  </i>
   <i type="logical" name="LRHFCALC"> F  </i>
   <i type="logical" name="LTHOMAS"> F  </i>
   <i type="logical" name="LMODELHF"> F  </i>
   <i name="ENCUT4O">     -1.00000000</i>
   <i type="int" name="EXXOEP">     0</i>
   <i type="int" name="FOURORBIT">     0</i>
   <i name="AEXX">      0.00000000</i>
   <i name="HFALPHA">      0.00000000</i>
   <i name="MCALPHA">      0.00000000</i>
   <i name="ALDAX">      1.00000000</i>
   <i name="AGGAX">      1.00000000</i>
   <i name="ALDAC">      1.00000000</i>
   <i name="AGGAC">      1.00000000</i>
   <i type="int" name="NKREDX">     1</i>
   <i type="int" name="NKREDY">     1</i>
   <i type="int" name="NKREDZ">     1</i>
   <i type="logical" name="SHIFTRED"> F  </i>
   <i type="logical" name="ODDONLY"> F  </i>
   <i type="logical" name="EVENONLY"> F  </i>
   <i type="int" name="LMAXFOCK">     0</i>
   <i type="int" name="NMAXFOCKAE">     0</i>
   <i type="logical" name="LFOCKAEDFT"> F  </i>
   <i name="HFSCREEN">      0.00000000</i>
   <i name="HFSCREENC">      0.00000000</i>
   <i type="int" name="NBANDSGWLOW">     0</i>
  </separator>
  <separator name="vdW DFT" >
   <i type="logical" name="LUSE_VDW"> F  </i>
   <i name="Zab_VDW">     -0.84910000</i>
   <i name="PARAM1">      0.12340000</i>
   <i name="PARAM2">      1.00000000</i>
   <i name="PARAM3">      0.00000000</i>
  </separator>
  <separator name="model GW" >
   <i type="int" name="MODEL_GW">     0</i>
   <i name="MODEL_EPS0">      7.05688215</i>
   <i name="MODEL_ALPHA">      1.00000000</i>
  </separator>
  <separator name="linear response parameters" >
   <i type="logical" name="LEPSILON"> F  </i>
   <i type="logical" name="LRPA"> F  </i>
   <i type="logical" name="LNABLA"> F  </i>
   <i type="logical" name="LVEL"> F  </i>
   <i type="int" name="KINTER">     0</i>
   <i name="CSHIFT">      0.10000000</i>
   <i name="OMEGAMAX">     -1.00000000</i>
   <i name="DEG_THRESHOLD">      0.00200000</i>
  </separator>
  <separator name="orbital magnetization" >
   <i type="logical" name="NUCIND"> F  </i>
   <v name="MAGPOS">      0.00000000      0.00000000      0.00000000</v>
   <i type="logical" name="LNICSALL"> T  </i>
   <i type="logical" name="ORBITALMAG"> F  </i>
   <i type="logical" name="LMAGBLOCH"> F  </i>
   <i type="logical" name="LCHIMAG"> F  </i>
   <i type="logical" name="LGAUGE"> T  </i>
   <i type="int" name="MAGATOM">     0</i>
   <v name="MAGDIPOL">      0.00000000      0.00000000      0.00000000</v>
   <v name="AVECCONST">      0.00000000      0.00000000      0.00000000</v>
  </separator>
  <separator name="response functions" >
   <i type="logical" name="LADDER"> F  </i>
   <i type="logical" name="LFXC"> F  </i>
   <i type="logical" name="LHARTREE"> T  </i>
   <i type="int" name="IBSE">     0</i>
   <v type="int" name="KPOINT">    -1     0     0     0</v>
   <i type="logical" name="LTCTE"> F  </i>
   <i type="logical" name="LTETE"> F  </i>
   <i type="logical" name="LTRIPLET"> F  </i>
   <i type="logical" name="LFXCEPS"> F  </i>
   <i type="logical" name="LFXHEG"> F  </i>
   <i type="int" name="NATURALO">     0</i>
   <i type="logical" name="L2ORDER"> F  </i>
   <i type="logical" name="LUSEW"> F  </i>
   <i name="ENCUTGW">     -2.00000000</i>
   <i name="ENCUTGWSOFT">     -2.00000000</i>
   <i name="ENCUTLF">     -1.00000000</i>
   <i type="int" name="LMAXMP2">    -1</i>
   <i name="SCISSOR">      0.00000000</i>
   <i type="int" name="NOMEGA">     0</i>
   <i type="int" name="NOMEGAR">     0</i>
   <i type="int" name="NBANDSGW">    -1</i>
   <i type="int" name="NBANDSO">    -1</i>
   <i type="int" name="NBANDSV">    -1</i>
   <i type="int" name="NELM">     1</i>
   <i type="int" name="NELMHF">     1</i>
   <i type="int" name="DIM">     3</i>
   <i type="int" name="ANTIRES">     0</i>
   <i name="OMEGAMAX">    -30.00000000</i>
   <i name="OMEGAMIN">    -30.00000000</i>
   <i name="OMEGATL">   -200.00000000</i>
   <i type="int" name="OMEGAGRID">     0</i>
   <i name="CSHIFT">     -0.10000000</i>
   <i type="logical" name="SELFENERGY"> F  </i>
   <i type="logical" name="LSPECTRAL"> F  </i>
   <i type="logical" name="LSPECTRALGW"> F  </i>
   <i type="logical" name="LSINGLES"> F  </i>
   <i type="logical" name="LFERMIGW"> F  </i>
   <i type="logical" name="ODDONLYGW"> F  </i>
   <i type="logical" name="EVENONLYGW"> F  </i>
   <i type="int" name="NKREDLFX">     1</i>
   <i type="int" name="NKREDLFY">     1</i>
   <i type="int" name="NKREDLFZ">     1</i>
   <i type="int" name="MAXMEM">  1800</i>
   <i type="int" name="TELESCOPE">     0</i>
   <i type="int" name="TAUPAR">     1</i>
   <i type="int" name="OMEGAPAR">    -1</i>
   <i name="LAMBDA">      1.00000000</i>
  </separator>
  <separator name="External order field" >
   <i name="OFIELD_KAPPA">      0.00000000</i>
   <v name="OFIELD_K">      0.00000000      0.00000000      0.00000000</v>
   <i name="OFIELD_Q6_NEAR">      0.00000000</i>
   <i name="OFIELD_Q6_FAR">      0.00000000</i>
   <i name="OFIELD_A">      0.00000000</i>
  </separator>
 </parameters>
 <atominfo>
  <atoms>       4 </atoms>
  <types>       1 </types>
  <array name="atoms" >
   <dimension dim="1">ion</dimension>
   <field type="string">element</field>
   <field type="int">atomtype</field>
   <set>
    <rc><c>Cu</c><c>   1</c></rc>
    <rc><c>Cu</c><c>   1</c></rc>
    <rc><c>Cu</c><c>   1</c></rc>
    <rc><c>Cu</c><c>   1</c></rc>
   </set>
  </array>
  <array name="atomtypes" >
   <dimension dim="1">type</dimension>
   <field type="int">atomspertype</field>
   <field type="string">element</field>
   <field>mass</field>
   <field>valence</field>
   <field type="string">pseudopotential</field>
   <set>
    <rc><c>   4</c><c>Cu</c><c>     63.54600000</c><c>     11.00000000</c><c>  PAW_PBE Cu 22Jun2005                  </c></rc>
   </set>
  </array>
 </atominfo>
 <structure name="initialpos" >
  <crystal>
   <varray name="basis" >
    <v>       3.61000000       0.00000000       0.00000000 </v>
    <v>       0.00000000       3.61000000       0.00000000 </v>
    <v>       0.00000000       0.00000000       3.61000000 </v>
   </varray>
   <i name="volume">     47.04588100 </i>
   <varray name="rec_basis" >
    <v>       0.27700831       0.00000000       0.00000000 </v>
    <v>       0.00000000       0.27700831       0.00000000 </v>
    <v>       0.00000000       0.00000000       0.27700831 </v>
   </varray>
  </crystal>
  <varray name="positions" >
   <v>       0.00000000       0.00000000       0.00000000 </v>
   <v>       0.00000000       0.50000000       0.50000000 </v>
   <v>       0.50000000       0.00000000       0.50000000 </v>
   <v>       0.50000000       0.50000000       0.00000000 </v>
  </varray>
 </structure>
 <calculation>
  <scstep>
   <time name="dav">    0.17    0.17</time>
   <time name="total">    0.18    0.19</time>
   <energy>
    <i name="alphaZ">    248.71993771 </i>
    <i name="ewald">  -4425.78708566 </i>
    <i name="hartreedc">  -1444.32473403 </i>
    <i name="XCdc">    183.18686199 </i>
    <i name="pawpsdc">   4912.82663951 </i>
    <i name="pawaedc">  -5336.19386850 </i>
    <i name="eentropy">     -0.00518255 </i>
    <i name="bandstr">    448.75786167 </i>
    <i name="atom">   5563.83056080 </i>
    <i name="e_fr_energy">    151.01099094 </i>
    <i name="e_wo_entrp">    151.01617349 </i>
    <i name="e_0_energy">    151.01271846 </i>
   </energy>
  </scstep>
  <scstep>
   <time name="dav">    0.13    0.13</time>
   <time name="total">    0.13    0.13</time>
   <energy>
    <i name="e_fr_energy">    -13.66728968 </i>
    <i name="e_wo_entrp">    -13.66189403 </i>
    <i name="e_0_energy">    -13.66549113 </i>
   </energy>
  </scstep>
  <scstep>
   <time name="dav">    0.20    0.20</time>
   <time name="total">    0.21    0.21</time>
   <energy>
    <i name="e_fr_energy">    -18.41275133 </i>
    <i name="e_wo_entrp">    -18.40452843 </i>
    <i name="e_0_energy">    -18.41001036 </i>
   </energy>
  </scstep>
  <scstep>
   <time name="dav">    0.16    0.16</time>
   <time name="total">    0.17    0.18</time>
   <energy>
    <i name="e_fr_energy">    -18.44772466 </i>
    <i name="e_wo_entrp">    -18.43950941 </i>
    <i name="e_0_energy">    -18.44498624 </i>
   </energy>
  </scstep>
  <scstep>
   <time name="dav">    0.22    0.22</time>
   <time name="total">    0.22    0.23</time>
   <energy>
    <i name="e_fr_energy">    -18.44824076 </i>
    <i name="e_wo_entrp">    -18.44002582 </i>
    <i name="e_0_energy">    -18.44550245 </i>
   </energy>
  </scstep>
  <scstep>
   <time name="dav">    0.15    0.15</time>
   <time name="total">    0.16    0.17</time>
   <energy>
    <i name="e_fr_energy">    -16.34796574 </i>
    <i name="e_wo_entrp">    -16.34661200 </i>
    <i name="e_0_energy">    -16.34751449 </i>
   </energy>
  </scstep>
  <scstep>
   <time name="dav">    0.16    0.16</time>
   <time name="total">    0.17    0.17</time>
   <energy>
    <i name="e_fr_energy">    -14.81262734 </i>
    <i name="e_wo_entrp">    -14.79741568 </i>
    <i name="e_0_energy">    -14.80755679 </i>
   </energy>
  </scstep>
  <scstep>
   <time name="dav">    0.15    0.15</time>
   <time name="total">    0.16    0.16</time>
   <energy>
    <i name="e_fr_energy">    -14.76708398 </i>
    <i name="e_wo_entrp">    -14.75359763 </i>
    <i name="e_0_energy">    -14.76258853 </i>
   </energy>
  </scstep>
  <scstep>
   <time name="dav">    0.20    0.20</time>
   <time name="total">    0.21    0.22</time>
   <energy>
    <i name="e_fr_energy">    -14.76304469 </i>
    <i name="e_wo_entrp">    -14.75252941 </i>
    <i name="e_0_energy">    -14.75953960 </i>
   </energy>
  </scstep>
  <scstep>
   <time name="dav">    0.17    0.17</time>
   <time name="total">    0.18    0.20</time>
   <energy>
    <i name="alphaZ">    248.71993771 </i>
    <i name="ewald">  -4425.78708566 </i>
    <i name="hartreedc">  -1351.49798485 </i>
    <i name="XCdc">    178.77448257 </i>
    <i name="pawpsdc">   5273.87758342 </i>
    <i name="pawaedc">  -5705.55904760 </i>
    <i name="eentropy">     -0.01104404 </i>
    <i name="bandstr">    202.88954642 </i>
    <i name="atom">   5563.83056080 </i>
    <i name="e_fr_energy">    -14.76305122 </i>
    <i name="e_wo_entrp">    -14.75200718 </i>
    <i name="e_0_energy">    -14.75936987 </i>
   </energy>
  </scstep>
  <structure>
   <crystal>
    <varray name="basis" >
     <v>       3.61000000       0.00000000       0.00000000 </v>
     <v>       0.00000000       3.61000000       0.00000000 </v>
     <v>       0.00000000       0.00000000       3.61000000 </v>
    </varray>
    <i name="volume">     47.04588100 </i>
    <varray name="rec_basis" >
     <v>       0.27700831       0.00000000       0.00000000 </v>
     <v>       0.00000000       0.27700831       0.00000000 </v>
     <v>       0.00000000       0.00000000       0.27700831 </v>
    </varray>
   </crystal>
   <varray name="positions" >
    <v>       0.00000000       0.00000000       0.00000000 </v>
    <v>       0.00000000       0.50000000       0.50000000 </v>
    <v>       0.50000000       0.00000000       0.50000000 </v>
    <v>       0.50000000       0.50000000       0.00000000 </v>
   </varray>
  </structure>
  <varray name="forces" >
   <v>       0.00000000      -0.00000000       0.00000000 </v>
   <v>      -0.00000000      -0.00000000      -0.00000000 </v>
   <v>      -0.00000000      -0.00000000      -0.00000000 </v>
   <v>      -0.00000000       0.00000000       0.00000000 </v>
  </varray>
  <varray name="stress" >
   <v>       7.17623557      -0.00000000       0.00000000 </v>
   <v>      -0.00000000       7.17623557       0.00000000 </v>
   <v>      -0.00000000      -0.00000000       7.17623557 </v>
  </varray>
  <energy>
   <i name="e_fr_energy">    -14.76305122 </i>
   <i name="e_wo_entrp">    -14.75936987 </i>
   <i name="e_0_energy">     -0.01104404 </i>
  </energy>
  <time name="totalsc">    1.88    1.94</time>
  <eigenvalues>
   <array>
    <dimension dim="1">band</dimension>
    <dimension dim="2">kpoint</dimension>
    <dimension dim="3">spin</dimension>
    <field>eigene</field>
    <field>occ</field>
    <set>
     <set comment="spin 1">
      <set comment="kpoint 1">
       <r>   -1.7463    1.0000 </r>
       <r>    2.7508    1.0000 </r>
       <r>    2.7508    1.0000 </r>
       <r>    2.7508    1.0000 </r>
       <r>    3.2124    1.0000 </r>
       <r>    3.2124    1.0000 </r>
       <r>    3.2124    1.0000 </r>
       <r>    4.6187    1.0000 </r>
       <r>    4.6187    1.0000 </r>
       <r>    4.6187    1.0000 </r>
       <r>    5.4520    1.0000 </r>
       <r>    5.4520    1.0000 </r>
       <r>    6.0049    1.0000 </r>
       <r>    6.0049    1.0000 </r>
       <r>    6.0049    1.0000 </r>
       <r>    6.1615    1.0000 </r>
       <r>    6.1615    1.0000 </r>
       <r>    6.1615    1.0000 </r>
       <r>    6.1615    1.0000 </r>
       <r>    6.1615    1.0000 </r>
       <r>    6.1615    1.0000 </r>
       <r>    9.1324   -0.0000 </r>
       <r>    9.1324   -0.0000 </r>
       <r>    9.1324   -0.0000 </r>
       <r>   14.7881    0.0000 </r>
       <r>   14.7881    0.0000 </r>
       <r>   14.7881    0.0000 </r>
       <r>   20.7503    0.0000 </r>
       <r>   20.7503    0.0000 </r>
       <r>   20.7503    0.0000 </r>
       <r>   20.7503    0.0000 </r>
       <r>   20.7503    0.0000 </r>
       <r>   20.7503    0.0000 </r>
       <r>   25.2612    0.0000 </r>
       <r>   25.2612    0.0000 </r>
       <r>   25.2612    0.0000 </r>
       <r>   27.9656    0.0000 </r>
       <r>   27.9656    0.0000 </r>
       <r>   27.9656    0.0000 </r>
       <r>   30.2671    0.0000 </r>
       <r>   32.9401    0.0000 </r>
       <r>   32.9401    0.0000 </r>
       <r>   32.9401    0.0000 </r>
       <r>   35.4392    0.0000 </r>
       <r>   35.4392    0.0000 </r>
       <r>   35.4392    0.0000 </r>
       <r>   39.2043    0.0000 </r>
       <r>   44.0096    0.0000 </r>
      </set>
      <set comment="kpoint 2">
       <r>   -1.2624    1.0000 </r>
       <r>    2.7042    1.0000 </r>
       <r>    2.9667    1.0000 </r>
       <r>    2.9667    1.0000 </r>
       <r>    3.3398    1.0000 </r>
       <r>    3.3510    1.0000 </r>
       <r>    3.3510    1.0000 </r>
       <r>    4.4763    1.0000 </r>
       <r>    4.7322    1.0000 </r>
       <r>    4.7322    1.0000 </r>
       <r>    5.3248    1.0000 </r>
       <r>    5.4874    1.0000 </r>
       <r>    5.4874    1.0000 </r>
       <r>    5.5027    1.0000 </r>
       <r>    5.8403    1.0000 </r>
       <r>    5.8403    1.0000 </r>
       <r>    5.9508    1.0000 </r>
       <r>    5.9710    1.0000 </r>
       <r>    5.9710    1.0000 </r>
       <r>    6.1621    1.0000 </r>
       <r>    6.1621    1.0000 </r>
       <r>    7.0671    1.0000 </r>
       <r>   10.2416    0.0000 </r>
       <r>   10.2416    0.0000 </r>
       <r>   14.9698    0.0000 </r>
       <r>   14.9698    0.0000 </r>
       <r>   17.8427    0.0000 </r>
       <r>   18.4831    0.0000 </r>
       <r>   18.4831    0.0000 </r>
       <r>   19.1697    0.0000 </r>
       <r>   19.1697    0.0000 </r>
       <r>   21.4571    0.0000 </r>
       <r>   21.4571    0.0000 </r>
       <r>   25.4691    0.0000 </r>
       <r>   28.1274    0.0000 </r>
       <r>   28.1274    0.0000 </r>
       <r>   28.1641    0.0000 </r>
       <r>   28.9982    0.0000 </r>
       <r>   29.8959    0.0000 </r>
       <r>   29.8959    0.0000 </r>
       <r>   30.6049    0.0000 </r>
       <r>   30.6049    0.0000 </r>
       <r>   31.3111    0.0000 </r>
       <r>   37.4143    0.0000 </r>
       <r>   37.7408    0.0000 </r>
       <r>   38.6932    0.0000 </r>
       <r>   38.6932    0.0000 </r>
       <r>   42.3140    0.0000 </r>
      </set>
      <set comment="kpoint 3">
       <r>    0.1118    1.0000 </r>
       <r>    1.9054    1.0000 </r>
       <r>    3.4024    1.0000 </r>
       <r>    3.4024    1.0000 </r>
       <r>    3.6795    1.0000 </r>
       <r>    3.7772    1.0000 </r>
       <r>    3.7772    1.0000 </r>
       <r>    4.1133    1.0000 </r>
       <r>    4.5076    1.0000 </r>
       <r>    4.5076    1.0000 </r>
       <r>    5.0509    1.0000 </r>
       <r>    5.0589    1.0000 </r>
       <r>    5.0589    1.0000 </r>
       <r>    5.1695    1.0000 </r>
       <r>    5.4865    1.0000 </r>
       <r>    5.4865    1.0000 </r>
       <r>    5.5255    1.0000 </r>
       <r>    5.5255    1.0000 </r>
       <r>    5.6394    1.0000 </r>
       <r>    5.8105    1.0000 </r>
       <r>    6.1627    1.0000 </r>
       <r>    6.1627    1.0000 </r>
       <r>   12.5086    0.0000 </r>
       <r>   12.5086    0.0000 </r>
       <r>   15.3242    0.0000 </r>
       <r>   15.3242    0.0000 </r>
       <r>   15.5966    0.0000 </r>
       <r>   15.5966    0.0000 </r>
       <r>   17.0571    0.0000 </r>
       <r>   17.0571    0.0000 </r>
       <r>   23.2077    0.0000 </r>
       <r>   23.4244    0.0000 </r>
       <r>   23.4244    0.0000 </r>
       <r>   26.1247    0.0000 </r>
       <r>   26.3415    0.0000 </r>
       <r>   26.3415    0.0000 </r>
       <r>   27.3029    0.0000 </r>
       <r>   28.3716    0.0000 </r>
       <r>   28.9584    0.0000 </r>
       <r>   31.5187    0.0000 </r>
       <r>   33.1015    0.0000 </r>
       <r>   33.1015    0.0000 </r>
       <r>   35.5901    0.0000 </r>
       <r>   35.5901    0.0000 </r>
       <r>   38.9895    0.0000 </r>
       <r>   38.9895    0.0000 </r>
       <r>   42.4633    0.0000 </r>
       <r>   42.7675    0.0000 </r>
      </set>
      <set comment="kpoint 4">
       <r>   -0.7912    1.0000 </r>
       <r>    2.9528    1.0000 </r>
       <r>    2.9528    1.0000 </r>
       <r>    3.1549    1.0000 </r>
       <r>    3.4592    1.0000 </r>
       <r>    3.4636    1.0000 </r>
       <r>    3.4636    1.0000 </r>
       <r>    4.4156    1.0000 </r>
       <r>    4.7731    1.0000 </r>
       <r>    4.7829    1.0000 </r>
       <r>    5.1520    1.0000 </r>
       <r>    5.1520    1.0000 </r>
       <r>    5.1680    1.0000 </r>
       <r>    5.3041    1.0000 </r>
       <r>    5.5237    1.0000 </r>
       <r>    5.7117    1.0000 </r>
       <r>    5.8328    1.0000 </r>
       <r>    5.8328    1.0000 </r>
       <r>    5.9690    1.0000 </r>
       <r>    5.9690    1.0000 </r>
       <r>    6.0341    1.0000 </r>
       <r>    8.1217   -0.0000 </r>
       <r>    8.1217   -0.0000 </r>
       <r>   11.1279    0.0000 </r>
       <r>   14.8737    0.0000 </r>
       <r>   15.4081    0.0000 </r>
       <r>   18.1715    0.0000 </r>
       <r>   18.1715    0.0000 </r>
       <r>   19.0811    0.0000 </r>
       <r>   19.0811    0.0000 </r>
       <r>   19.7536    0.0000 </r>
       <r>   19.7536    0.0000 </r>
       <r>   22.1116    0.0000 </r>
       <r>   25.9896    0.0000 </r>
       <r>   26.7182    0.0000 </r>
       <r>   26.8080    0.0000 </r>
       <r>   28.4609    0.0000 </r>
       <r>   28.4609    0.0000 </r>
       <r>   30.8591    0.0000 </r>
       <r>   30.8591    0.0000 </r>
       <r>   32.5281    0.0000 </r>
       <r>   34.1127    0.0000 </r>
       <r>   34.2900    0.0000 </r>
       <r>   35.2108    0.0000 </r>
       <r>   35.9380    0.0000 </r>
       <r>   37.4857    0.0000 </r>
       <r>   41.5186    0.0000 </r>
       <r>   41.8541    0.0000 </r>
      </set>
      <set comment="kpoint 5">
       <r>    0.5382    1.0000 </r>
       <r>    2.2421    1.0000 </r>
       <r>    3.4884    1.0000 </r>
       <r>    3.5735    1.0000 </r>
       <r>    3.7279    1.0000 </r>
       <r>    3.7615    1.0000 </r>
       <r>    3.8393    1.0000 </r>
       <r>    4.1339    1.0000 </r>
       <r>    4.2708    1.0000 </r>
       <r>    4.4558    1.0000 </r>
       <r>    4.6690    1.0000 </r>
       <r>    4.7762    1.0000 </r>
       <r>    5.0699    1.0000 </r>
       <r>    5.2411    1.0000 </r>
       <r>    5.4300    1.0000 </r>
       <r>    5.4903    1.0000 </r>
       <r>    5.5244    1.0000 </r>
       <r>    5.5826    1.0000 </r>
       <r>    5.7770    1.0000 </r>
       <r>    5.9657    1.0000 </r>
       <r>    5.9720    1.0000 </r>
       <r>    6.3222    1.0000 </r>
       <r>    9.8527   -0.0000 </r>
       <r>   12.0779    0.0000 </r>
       <r>   13.2012    0.0000 </r>
       <r>   15.9299    0.0000 </r>
       <r>   15.9690    0.0000 </r>
       <r>   17.4392    0.0000 </r>
       <r>   19.2767    0.0000 </r>
       <r>   20.7115    0.0000 </r>
       <r>   21.0562    0.0000 </r>
       <r>   21.2943    0.0000 </r>
       <r>   23.0762    0.0000 </r>
       <r>   23.7049    0.0000 </r>
       <r>   23.7102    0.0000 </r>
       <r>   29.4910    0.0000 </r>
       <r>   29.7764    0.0000 </r>
       <r>   30.2584    0.0000 </r>
       <r>   31.2226    0.0000 </r>
       <r>   31.7552    0.0000 </r>
       <r>   33.4813    0.0000 </r>
       <r>   33.6116    0.0000 </r>
       <r>   34.7073    0.0000 </r>
       <r>   38.1485    0.0000 </r>
       <r>   38.3173    0.0000 </r>
       <r>   39.2935    0.0000 </r>
       <r>   39.3872    0.0000 </r>
       <r>   39.5309    0.0000 </r>
      </set>
      <set comment="kpoint 6">
       <r>    1.6918    1.0000 </r>
       <r>    3.0213    1.0000 </r>
       <r>    3.0213    1.0000 </r>
       <r>    3.5479    1.0000 </r>
       <r>    3.9734    1.0000 </r>
       <r>    3.9877    1.0000 </r>
       <r>    3.9877    1.0000 </r>
       <r>    4.1170    1.0000 </r>
       <r>    4.2588    1.0000 </r>
       <r>    4.2588    1.0000 </r>
       <r>    4.2696    1.0000 </r>
       <r>    4.6003    1.0000 </r>
       <r>    5.1089    1.0000 </r>
       <r>    5.1998    1.0000 </r>
       <r>    5.2434    1.0000 </r>
       <r>    5.2959    1.0000 </r>
       <r>    5.2959    1.0000 </r>
       <r>    5.5472    1.0000 </r>
       <r>    5.5472    1.0000 </r>
       <r>    5.6786    1.0000 </r>
       <r>    6.3229    1.0000 </r>
       <r>    7.4254    0.9298 </r>
       <r>    7.4254    0.9298 </r>
       <r>    9.2009   -0.0000 </r>
       <r>   15.0110    0.0000 </r>
       <r>   16.9367    0.0000 </r>
       <r>   17.5797    0.0000 </r>
       <r>   17.5797    0.0000 </r>
       <r>   18.7150    0.0000 </r>
       <r>   18.7150    0.0000 </r>
       <r>   20.0081    0.0000 </r>
       <r>   20.8172    0.0000 </r>
       <r>   24.8274    0.0000 </r>
       <r>   24.8274    0.0000 </r>
       <r>   25.7414    0.0000 </r>
       <r>   28.1256    0.0000 </r>
       <r>   30.9695    0.0000 </r>
       <r>   31.0479    0.0000 </r>
       <r>   32.7260    0.0000 </r>
       <r>   32.7260    0.0000 </r>
       <r>   34.6065    0.0000 </r>
       <r>   34.6065    0.0000 </r>
       <r>   35.6275    0.0000 </r>
       <r>   37.5642    0.0000 </r>
       <r>   38.0771    0.0000 </r>
       <r>   38.4918    0.0000 </r>
       <r>   38.4918    0.0000 </r>
       <r>   40.5220    0.0000 </r>
      </set>
      <set comment="kpoint 7">
       <r>   -0.3387    1.0000 </r>
       <r>    3.1337    1.0000 </r>
       <r>    3.1337    1.0000 </r>
       <r>    3.1337    1.0000 </r>
       <r>    3.5727    1.0000 </r>
       <r>    3.5727    1.0000 </r>
       <r>    3.5727    1.0000 </r>
       <r>    4.3937    1.0000 </r>
       <r>    4.7798    1.0000 </r>
       <r>    4.7798    1.0000 </r>
       <r>    4.9081    1.0000 </r>
       <r>    4.9081    1.0000 </r>
       <r>    4.9081    1.0000 </r>
       <r>    5.4490    1.0000 </r>
       <r>    5.4490    1.0000 </r>
       <r>    5.4919    1.0000 </r>
       <r>    5.4919    1.0000 </r>
       <r>    5.4919    1.0000 </r>
       <r>    6.0753    1.0000 </r>
       <r>    6.0753    1.0000 </r>
       <r>    6.0753    1.0000 </r>
       <r>    8.7660   -0.0000 </r>
       <r>    8.7660   -0.0000 </r>
       <r>    8.7660   -0.0000 </r>
       <r>   15.6745    0.0000 </r>
       <r>   15.6745    0.0000 </r>
       <r>   15.6745    0.0000 </r>
       <r>   18.5459    0.0000 </r>
       <r>   18.5459    0.0000 </r>
       <r>   18.5459    0.0000 </r>
       <r>   22.6127    0.0000 </r>
       <r>   22.7506    0.0000 </r>
       <r>   22.7506    0.0000 </r>
       <r>   22.7506    0.0000 </r>
       <r>   26.9256    0.0000 </r>
       <r>   26.9256    0.0000 </r>
       <r>   26.9256    0.0000 </r>
       <r>   30.5131    0.0000 </r>
       <r>   30.9356    0.0000 </r>
       <r>   30.9356    0.0000 </r>
       <r>   34.4165    0.0000 </r>
       <r>   34.4165    0.0000 </r>
       <r>   34.4165    0.0000 </r>
       <r>   37.2655    0.0000 </r>
       <r>   37.3698    0.0000 </r>
       <r>   37.3698    0.0000 </r>
       <r>   40.4111    0.0000 </r>
       <r>   40.4111    0.0000 </r>
      </set>
      <set comment="kpoint 8">
       <r>    0.9192    1.0000 </r>
       <r>    2.4693    1.0000 </r>
       <r>    3.4717    1.0000 </r>
       <r>    3.4717    1.0000 </r>
       <r>    3.8222    1.0000 </r>
       <r>    3.8222    1.0000 </r>
       <r>    3.8879    1.0000 </r>
       <r>    4.2101    1.0000 </r>
       <r>    4.4487    1.0000 </r>
       <r>    4.4487    1.0000 </r>
       <r>    4.5783    1.0000 </r>
       <r>    4.7331    1.0000 </r>
       <r>    4.8774    1.0000 </r>
       <r>    5.1393    1.0000 </r>
       <r>    5.2718    1.0000 </r>
       <r>    5.2718    1.0000 </r>
       <r>    5.5545    1.0000 </r>
       <r>    5.7358    1.0000 </r>
       <r>    5.9832    1.0000 </r>
       <r>    5.9874    1.0000 </r>
       <r>    5.9874    1.0000 </r>
       <r>    6.5073    1.0000 </r>
       <r>   10.1420   -0.0000 </r>
       <r>   10.1420   -0.0000 </r>
       <r>   12.8564    0.0000 </r>
       <r>   12.8564    0.0000 </r>
       <r>   17.2321    0.0000 </r>
       <r>   19.5672    0.0000 </r>
       <r>   19.6489    0.0000 </r>
       <r>   19.6489    0.0000 </r>
       <r>   21.5365    0.0000 </r>
       <r>   21.5365    0.0000 </r>
       <r>   23.9789    0.0000 </r>
       <r>   24.5765    0.0000 </r>
       <r>   27.3823    0.0000 </r>
       <r>   27.6776    0.0000 </r>
       <r>   28.3924    0.0000 </r>
       <r>   30.4323    0.0000 </r>
       <r>   30.4323    0.0000 </r>
       <r>   30.7601    0.0000 </r>
       <r>   35.3646    0.0000 </r>
       <r>   35.7067    0.0000 </r>
       <r>   37.0104    0.0000 </r>
       <r>   37.0104    0.0000 </r>
       <r>   37.4898    0.0000 </r>
       <r>   38.7449    0.0000 </r>
       <r>   40.2591    0.0000 </r>
       <r>   40.2591    0.0000 </r>
      </set>
      <set comment="kpoint 9">
       <r>    1.8885    1.0000 </r>
       <r>    2.8867    1.0000 </r>
       <r>    2.8867    1.0000 </r>
       <r>    3.2069    1.0000 </r>
       <r>    4.1375    1.0000 </r>
       <r>    4.2419    1.0000 </r>
       <r>    4.2419    1.0000 </r>
       <r>    4.3984    1.0000 </r>
       <r>    4.4788    1.0000 </r>
       <r>    4.4788    1.0000 </r>
       <r>    4.6193    1.0000 </r>
       <r>    4.6318    1.0000 </r>
       <r>    4.7973    1.0000 </r>
       <r>    4.9719    1.0000 </r>
       <r>    4.9719    1.0000 </r>
       <r>    4.9887    1.0000 </r>
       <r>    5.5785    1.0000 </r>
       <r>    5.8669    1.0000 </r>
       <r>    5.8669    1.0000 </r>
       <r>    5.8850    1.0000 </r>
       <r>    6.1983    1.0000 </r>
       <r>    7.4509    0.7889 </r>
       <r>    7.4509    0.7889 </r>
       <r>    9.1094   -0.0000 </r>
       <r>   12.2964    0.0000 </r>
       <r>   14.2781    0.0000 </r>
       <r>   14.2781    0.0000 </r>
       <r>   16.5278    0.0000 </r>
       <r>   20.8650    0.0000 </r>
       <r>   22.8626    0.0000 </r>
       <r>   22.8626    0.0000 </r>
       <r>   25.0465    0.0000 </r>
       <r>   25.2012    0.0000 </r>
       <r>   25.2012    0.0000 </r>
       <r>   26.2272    0.0000 </r>
       <r>   28.2277    0.0000 </r>
       <r>   30.4293    0.0000 </r>
       <r>   30.8263    0.0000 </r>
       <r>   30.8263    0.0000 </r>
       <r>   31.1387    0.0000 </r>
       <r>   34.0891    0.0000 </r>
       <r>   34.9706    0.0000 </r>
       <r>   34.9706    0.0000 </r>
       <r>   35.4677    0.0000 </r>
       <r>   38.0852    0.0000 </r>
       <r>   38.7283    0.0000 </r>
       <r>   39.7724    0.0000 </r>
       <r>   39.7724    0.0000 </r>
      </set>
      <set comment="kpoint 10">
       <r>    2.2899    1.0000 </r>
       <r>    2.7209    1.0000 </r>
       <r>    2.7209    1.0000 </r>
       <r>    2.7209    1.0000 </r>
       <r>    4.4598    1.0000 </r>
       <r>    4.4598    1.0000 </r>
       <r>    4.4598    1.0000 </r>
       <r>    4.6324    1.0000 </r>
       <r>    4.6324    1.0000 </r>
       <r>    4.7080    1.0000 </r>
       <r>    4.7080    1.0000 </r>
       <r>    4.7080    1.0000 </r>
       <r>    5.1751    1.0000 </r>
       <r>    5.1751    1.0000 </r>
       <r>    5.1751    1.0000 </r>
       <r>    5.3839    1.0000 </r>
       <r>    5.9120    1.0000 </r>
       <r>    5.9120    1.0000 </r>
       <r>    6.0272    1.0000 </r>
       <r>    6.0272    1.0000 </r>
       <r>    6.0272    1.0000 </r>
       <r>    7.5260    0.2008 </r>
       <r>    7.5260    0.2008 </r>
       <r>    7.5260    0.2008 </r>
       <r>   11.8497    0.0000 </r>
       <r>   11.8497    0.0000 </r>
       <r>   11.8497    0.0000 </r>
       <r>   13.6199    0.0000 </r>
       <r>   26.1542    0.0000 </r>
       <r>   26.1542    0.0000 </r>
       <r>   26.1542    0.0000 </r>
       <r>   27.6587    0.0000 </r>
       <r>   27.6587    0.0000 </r>
       <r>   27.6587    0.0000 </r>
       <r>   28.6939    0.0000 </r>
       <r>   28.6939    0.0000 </r>
       <r>   28.6939    0.0000 </r>
       <r>   29.0317    0.0000 </r>
       <r>   29.8564    0.0000 </r>
       <r>   29.8564    0.0000 </r>
       <r>   33.3907    0.0000 </r>
       <r>   33.3907    0.0000 </r>
       <r>   35.2807    0.0000 </r>
       <r>   35.2807    0.0000 </r>
       <r>   35.2807    0.0000 </r>
       <r>   35.6718    0.0000 </r>
       <r>   35.6718    0.0000 </r>
       <r>   35.6718    0.0000 </r>
      </set>
     </set>
    </set>
   </array>
  </eigenvalues>
  <separator name="orbital magnetization" >
   <v name="MAGDIPOLOUT">      0.00000000      0.00000000      0.00000000</v>
  </separator>
  <dos>
   <i name="efermi">      7.48768130 </i>
   <total>
    <array>
     <dimension dim="1">gridpoints</dimension>
     <dimension dim="2">spin</dimension>
     <field>energy</field>
     <field>total</field>
     <field>integrated</field>
     <set>
      <set comment="spin 1">
       <r>    -4.0341     0.0000     0.0000 </r>
       <r>    -3.8663     0.0000     0.0000 </r>
       <r>    -3.6986     0.0000     0.0000 </r>
       <r>    -3.5308     0.0000     0.0000 </r>
       <r>    -3.3630     0.0000     0.0000 </r>
       <r>    -3.1952     0.0000     0.0000 </r>
       <r>    -3.0275     0.0000     0.0000 </r>
       <r>    -2.8597     0.0000     0.0000 </r>
       <r>    -2.6919    -0.0000    -0.0000 </r>
       <r>    -2.5242    -0.0000    -0.0000 </r>
       <r>    -2.3564    -0.0000    -0.0000 </r>
       <r>    -2.1886    -0.0000    -0.0000 </r>
       <r>    -2.0208    -0.0000    -0.0000 </r>
       <r>    -1.8531    -0.0029    -0.0005 </r>
       <r>    -1.6853     0.0911     0.0148 </r>
       <r>    -1.5175     0.0069     0.0160 </r>
       <r>    -1.3497    -0.0034     0.0154 </r>
       <r>    -1.1820     0.5709     0.1112 </r>
       <r>    -1.0142     0.0017     0.1114 </r>
       <r>    -0.8464     0.1206     0.1317 </r>
       <r>    -0.6787     1.0657     0.3105 </r>
       <r>    -0.5109    -0.0517     0.3018 </r>
       <r>    -0.3431     0.3662     0.3632 </r>
       <r>    -0.1753     0.4262     0.4347 </r>
       <r>    -0.0076    -0.0365     0.4286 </r>
       <r>     0.1602     0.5130     0.5147 </r>
       <r>     0.3280     0.0690     0.5263 </r>
       <r>     0.4957     0.4087     0.5948 </r>
       <r>     0.6635     1.9693     0.9252 </r>
       <r>     0.8313    -0.0958     0.9091 </r>
       <r>     0.9991     2.2824     1.2921 </r>
       <r>     1.1668     0.0264     1.2965 </r>
       <r>     1.3346    -0.0029     1.2960 </r>
       <r>     1.5024    -0.0127     1.2939 </r>
       <r>     1.6701     0.3692     1.3558 </r>
       <r>     1.8379     1.1395     1.5470 </r>
       <r>     2.0057     2.5991     1.9831 </r>
       <r>     2.1735    -0.0126     1.9809 </r>
       <r>     2.3412     2.8562     2.4601 </r>
       <r>     2.5090     1.9549     2.7881 </r>
       <r>     2.6768     0.9810     2.9527 </r>
       <r>     2.8445     3.3775     3.5193 </r>
       <r>     3.0123     7.8798     4.8413 </r>
       <r>     3.1801     5.1560     5.7064 </r>
       <r>     3.3479     3.2292     6.2481 </r>
       <r>     3.5156    11.4112     8.1626 </r>
       <r>     3.6834     7.4720     9.4162 </r>
       <r>     3.8512    10.7628    11.2219 </r>
       <r>     4.0189     6.5679    12.3238 </r>
       <r>     4.1867     7.7496    13.6240 </r>
       <r>     4.3545    12.4366    15.7105 </r>
       <r>     4.5223    17.5708    18.6584 </r>
       <r>     4.6900    13.9283    20.9951 </r>
       <r>     4.8578    14.6952    23.4606 </r>
       <r>     5.0256    10.3200    25.1920 </r>
       <r>     5.1933    13.1821    27.4036 </r>
       <r>     5.3611    13.8462    29.7266 </r>
       <r>     5.5289    15.3695    32.3051 </r>
       <r>     5.6967    13.1029    34.5034 </r>
       <r>     5.8644    10.8781    36.3284 </r>
       <r>     6.0322    22.9872    40.1850 </r>
       <r>     6.2000     8.6297    41.6329 </r>
       <r>     6.3677     4.4999    42.3878 </r>
       <r>     6.5355     2.2349    42.7628 </r>
       <r>     6.7033     0.6241    42.8675 </r>
       <r>     6.8711    -0.0260    42.8631 </r>
       <r>     7.0388     0.1601    42.8900 </r>
       <r>     7.2066     0.4192    42.9603 </r>
       <r>     7.3744     0.3088    43.0121 </r>
       <r>     7.5421     8.1504    44.3795 </r>
       <r>     7.7099     0.7278    44.5016 </r>
       <r>     7.8777    -0.0371    44.4954 </r>
       <r>     8.0455     0.0496    44.5037 </r>
       <r>     8.2132     2.2746    44.8854 </r>
       <r>     8.3810    -0.0302    44.8803 </r>
       <r>     8.5488    -0.0118    44.8783 </r>
       <r>     8.7166     0.3144    44.9311 </r>
       <r>     8.8843     2.0571    45.2762 </r>
       <r>     9.0521     0.1103    45.2947 </r>
       <r>     9.2199     3.2219    45.8352 </r>
       <r>     9.3876     0.3292    45.8905 </r>
       <r>     9.5554    -0.0149    45.8880 </r>
       <r>     9.7232    -0.0793    45.8747 </r>
       <r>     9.8910     1.9030    46.1939 </r>
       <r>    10.0587     0.4746    46.2735 </r>
       <r>    10.2265     4.9993    47.1123 </r>
       <r>    10.3943     0.7486    47.2379 </r>
       <r>    10.5620    -0.0350    47.2320 </r>
       <r>    10.7298    -0.0000    47.2320 </r>
       <r>    10.8976    -0.0030    47.2315 </r>
       <r>    11.0654     0.0818    47.2452 </r>
       <r>    11.2331     1.0997    47.4297 </r>
       <r>    11.4009    -0.0336    47.4241 </r>
       <r>    11.5687    -0.0010    47.4239 </r>
       <r>    11.7364    -0.0772    47.4109 </r>
       <r>    11.9042     2.0845    47.7607 </r>
       <r>    12.0720     1.3136    47.9810 </r>
       <r>    12.2398     1.5263    48.2371 </r>
       <r>    12.4075     2.0659    48.5837 </r>
       <r>    12.5753     1.0382    48.7579 </r>
       <r>    12.7431    -0.0927    48.7423 </r>
       <r>    12.9108     4.2421    49.4540 </r>
       <r>    13.0786     0.4243    49.5252 </r>
       <r>    13.2464     1.9926    49.8595 </r>
       <r>    13.4142     0.3674    49.9211 </r>
       <r>    13.5819     0.1482    49.9460 </r>
       <r>    13.7497     0.6345    50.0524 </r>
       <r>    13.9175    -0.0264    50.0480 </r>
       <r>    14.0852    -0.0459    50.0403 </r>
       <r>    14.2530     1.3963    50.2746 </r>
       <r>    14.4208     3.3679    50.8396 </r>
       <r>    14.5886    -0.1431    50.8156 </r>
       <r>    14.7563     0.0257    50.8199 </r>
       <r>    14.9241     1.4406    51.0616 </r>
       <r>    15.0919     2.2892    51.4457 </r>
       <r>    15.2596     0.0047    51.4465 </r>
       <r>    15.4274     1.8692    51.7601 </r>
       <r>    15.5952     0.9808    51.9246 </r>
       <r>    15.7630     2.8157    52.3970 </r>
       <r>    15.9307     1.6396    52.6721 </r>
       <r>    16.0985     3.0793    53.1887 </r>
       <r>    16.2663    -0.1248    53.1678 </r>
       <r>    16.4340    -0.0384    53.1613 </r>
       <r>    16.6018     2.2671    53.5417 </r>
       <r>    16.7696     0.0424    53.5488 </r>
       <r>    16.9374     0.5573    53.6423 </r>
       <r>    17.1051     1.5311    53.8992 </r>
       <r>    17.2729     2.0449    54.2422 </r>
       <r>    17.4407     1.5773    54.5069 </r>
       <r>    17.6085     2.8943    54.9924 </r>
       <r>    17.7762     0.6202    55.0965 </r>
       <r>    17.9440     0.5298    55.1854 </r>
       <r>    18.1118     0.1781    55.2153 </r>
       <r>    18.2795     2.1654    55.5786 </r>
       <r>    18.4473     0.1318    55.6007 </r>
       <r>    18.6151     3.1223    56.1245 </r>
       <r>    18.7829     2.3002    56.5104 </r>
       <r>    18.9506     0.0259    56.5148 </r>
       <r>    19.1184     1.9789    56.8467 </r>
       <r>    19.2862     2.9151    57.3358 </r>
       <r>    19.4539     0.8219    57.4737 </r>
       <r>    19.6217     3.3291    58.0322 </r>
       <r>    19.7895     5.5623    58.9654 </r>
       <r>    19.9573     0.5091    59.0508 </r>
       <r>    20.1250     1.0244    59.2227 </r>
       <r>    20.2928    -0.0398    59.2160 </r>
       <r>    20.4606    -0.0029    59.2156 </r>
       <r>    20.6283    -0.0302    59.2105 </r>
       <r>    20.7961     3.2797    59.7607 </r>
       <r>    20.9639     3.1059    60.2818 </r>
       <r>    21.1317     2.1299    60.6391 </r>
       <r>    21.2994     1.3116    60.8592 </r>
       <r>    21.4672     1.9819    61.1917 </r>
       <r>    21.6350     4.9429    62.0210 </r>
       <r>    21.8027    -0.1227    62.0004 </r>
       <r>    21.9705    -0.0383    61.9940 </r>
       <r>    22.1383     0.8562    62.1376 </r>
       <r>    22.3061     0.3350    62.1938 </r>
       <r>    22.4738    -0.0362    62.1878 </r>
       <r>    22.6416     0.4941    62.2706 </r>
       <r>    22.8094     2.9082    62.7586 </r>
       <r>    22.9771     4.3603    63.4901 </r>
       <r>    23.1449     2.1187    63.8455 </r>
       <r>    23.3127     0.6180    63.9492 </r>
       <r>    23.4805     1.0348    64.1228 </r>
       <r>    23.6482     0.5120    64.2087 </r>
       <r>    23.8160     4.2869    64.9280 </r>
       <r>    23.9838     1.1446    65.1200 </r>
       <r>    24.1515     1.0889    65.3027 </r>
       <r>    24.3193    -0.0418    65.2957 </r>
       <r>    24.4871    -0.0217    65.2920 </r>
       <r>    24.6549     2.2400    65.6679 </r>
       <r>    24.8226     1.1199    65.8557 </r>
       <r>    24.9904     1.4902    66.1058 </r>
       <r>    25.1582     2.8887    66.5904 </r>
       <r>    25.3259     4.1430    67.2855 </r>
       <r>    25.4937     0.2731    67.3313 </r>
       <r>    25.6615     0.1885    67.3629 </r>
       <r>    25.8293     1.1093    67.5490 </r>
       <r>    25.9970     0.5808    67.6465 </r>
       <r>    26.1648     2.5536    68.0749 </r>
       <r>    26.3326     3.7698    68.7073 </r>
       <r>    26.5003     0.5752    68.8038 </r>
       <r>    26.6681     0.0870    68.8184 </r>
       <r>    26.8359     1.8806    69.1339 </r>
       <r>    27.0037     2.5632    69.5640 </r>
       <r>    27.1714    -0.0052    69.5631 </r>
       <r>    27.3392     0.8681    69.7087 </r>
       <r>    27.5070     2.0037    70.0449 </r>
       <r>    27.6748     2.5600    70.4744 </r>
       <r>    27.8425     2.1028    70.8272 </r>
       <r>    28.0103     0.0691    70.8388 </r>
       <r>    28.1781     2.8002    71.3086 </r>
       <r>    28.3458     3.0259    71.8162 </r>
       <r>    28.5136     4.4261    72.5588 </r>
       <r>    28.6814     1.1111    72.7452 </r>
       <r>    28.8492     1.3885    72.9782 </r>
       <r>    29.0169     1.1716    73.1748 </r>
       <r>    29.1847     0.7513    73.3008 </r>
       <r>    29.3525    -0.1025    73.2836 </r>
       <r>    29.5202     1.7568    73.5783 </r>
       <r>    29.6880     0.5701    73.6740 </r>
       <r>    29.8558     3.2694    74.2225 </r>
       <r>    30.0236     1.7938    74.5234 </r>
       <r>    30.1913     0.0382    74.5298 </r>
       <r>    30.3591     2.5411    74.9562 </r>
       <r>    30.5269     7.2214    76.1677 </r>
       <r>    30.6946     1.2390    76.3756 </r>
       <r>    30.8624     7.2001    77.5835 </r>
       <r>    31.0302     4.9980    78.4221 </r>
       <r>    31.1980     3.6186    79.0292 </r>
       <r>    31.3657     2.3549    79.4243 </r>
       <r>    31.5335     0.3489    79.4828 </r>
       <r>    31.7013     0.4792    79.5632 </r>
       <r>    31.8690     2.1097    79.9171 </r>
       <r>    32.0368    -0.0776    79.9041 </r>
       <r>    32.2046    -0.0006    79.9040 </r>
       <r>    32.3724    -0.0286    79.8992 </r>
       <r>    32.5401     0.6883    80.0147 </r>
       <r>    32.7079     1.3017    80.2331 </r>
       <r>    32.8757     1.5494    80.4930 </r>
       <r>    33.0434     0.3183    80.5464 </r>
       <r>    33.2112     1.0487    80.7223 </r>
       <r>    33.3790     0.5316    80.8115 </r>
       <r>    33.5468     3.3128    81.3673 </r>
       <r>    33.7145     2.3145    81.7556 </r>
       <r>    33.8823    -0.0859    81.7412 </r>
       <r>    34.0501     0.5412    81.8320 </r>
       <r>    34.2178     3.0411    82.3422 </r>
       <r>    34.3856     1.6036    82.6113 </r>
       <r>    34.5534     1.9729    82.9422 </r>
       <r>    34.7212     3.4976    83.5290 </r>
       <r>    34.8889     0.8634    83.6739 </r>
       <r>    35.0567     4.5000    84.4289 </r>
       <r>    35.2245     0.8718    84.5751 </r>
       <r>    35.3922     4.4104    85.3151 </r>
       <r>    35.5600     3.3079    85.8700 </r>
       <r>    35.7278     5.6814    86.8232 </r>
       <r>    35.8956     1.1447    87.0153 </r>
       <r>    36.0633     0.9508    87.1748 </r>
       <r>    36.2311    -0.0403    87.1680 </r>
       <r>    36.3989    -0.0002    87.1680 </r>
       <r>    36.5666    -0.0000    87.1680 </r>
       <r>    36.7344    -0.0015    87.1677 </r>
       <r>    36.9022    -0.1434    87.1437 </r>
       <r>    37.0700     4.3406    87.8719 </r>
       <r>    37.2377     0.5403    87.9626 </r>
       <r>    37.4055     2.0487    88.3063 </r>
       <r>    37.5733     4.7639    89.1055 </r>
       <r>    37.7411     0.7765    89.2358 </r>
       <r>    37.9088     0.2120    89.2714 </r>
       <r>    38.0766     1.6704    89.5516 </r>
       <r>    38.2444     4.2925    90.2718 </r>
       <r>    38.4121     2.1688    90.6357 </r>
       <r>    38.5799     2.0879    90.9860 </r>
       <r>    38.7477     3.8642    91.6343 </r>
       <r>    38.9155     2.0933    91.9854 </r>
       <r>    39.0832     1.0439    92.1606 </r>
       <r>    39.2510     0.3994    92.2276 </r>
       <r>    39.4188     3.7099    92.8500 </r>
       <r>    39.5865     2.5814    93.2831 </r>
       <r>    39.7543     1.8747    93.5976 </r>
       <r>    39.9221     3.0979    94.1174 </r>
       <r>    40.0899    -0.2136    94.0815 </r>
       <r>    40.2576     2.2778    94.4637 </r>
       <r>    40.4254     3.4000    95.0341 </r>
       <r>    40.5932     1.6359    95.3086 </r>
       <r>    40.7609     0.0227    95.3124 </r>
       <r>    40.9287    -0.0022    95.3120 </r>
       <r>    41.0965    -0.0000    95.3120 </r>
       <r>    41.2643    -0.0011    95.3118 </r>
       <r>    41.4320    -0.0047    95.3110 </r>
       <r>    41.5998     1.1411    95.5025 </r>
       <r>    41.7676     0.0050    95.5033 </r>
       <r>    41.9353     1.1408    95.6947 </r>
       <r>    42.1031     0.0060    95.6957 </r>
       <r>    42.2709     0.0934    95.7114 </r>
       <r>    42.4387     0.6717    95.8240 </r>
       <r>    42.6064     0.3858    95.8888 </r>
       <r>    42.7742     0.3138    95.9414 </r>
       <r>    42.9420     0.2633    95.9856 </r>
       <r>    43.1097    -0.0095    95.9840 </r>
       <r>    43.2775    -0.0000    95.9840 </r>
       <r>    43.4453    -0.0000    95.9840 </r>
       <r>    43.6131    -0.0000    95.9840 </r>
       <r>    43.7808    -0.0003    95.9840 </r>
       <r>    43.9486     0.0075    95.9852 </r>
       <r>    44.1164     0.0911    96.0005 </r>
       <r>    44.2841    -0.0029    96.0000 </r>
       <r>    44.4519    -0.0000    96.0000 </r>
       <r>    44.6197    -0.0000    96.0000 </r>
       <r>    44.7875    -0.0000    96.0000 </r>
       <r>    44.9552     0.0000    96.0000 </r>
       <r>    45.1230     0.0000    96.0000 </r>
       <r>    45.2908     0.0000    96.0000 </r>
       <r>    45.4585     0.0000    96.0000 </r>
       <r>    45.6263     0.0000    96.0000 </r>
       <r>    45.7941     0.0000    96.0000 </r>
       <r>    45.9619     0.0000    96.0000 </r>
       <r>    46.1296     0.0000    96.0000 </r>
       <r>    46.2974     0.0000    96.0000 </r>
      </set>
     </set>
    </array>
   </total>
  </dos>
 </calculation>
 <structure name="finalpos" >
  <crystal>
   <varray name="basis" >
    <v>       3.61000000       0.00000000       0.00000000 </v>
    <v>       0.00000000       3.61000000       0.00000000 </v>
    <v>       0.00000000       0.00000000       3.61000000 </v>
   </varray>
   <i name="volume">     47.04588100 </i>
   <varray name="rec_basis" >
    <v>       0.27700831       0.00000000       0.00000000 </v>
    <v>       0.00000000       0.27700831       0.00000000 </v>
    <v>       0.00000000       0.00000000       0.27700831 </v>
   </varray>
  </crystal>
  <varray name="positions" >
   <v>       0.00000000       0.00000000       0.00000000 </v>
   <v>       0.00000000       0.50000000       0.50000000 </v>
   <v>       0.50000000       0.00000000       0.50000000 </v>
   <v>       0.50000000       0.50000000       0.00000000 </v>
  </varray>
 </structure>
</modeling>
