----- GAMESS execution script 'rungms' -----
This job is running on host crcfe02.crc.nd.edu
under operating system Linux at Sun Sep 29 10:54:33 EDT 2019
Available scratch disk space (Kbyte units) at beginning of the job is
Filesystem      1K-blocks  Used  Available Use% Mounted on
AFS            2147483647     0 2147483647   0% /afs
GAMESS temporary binary files will be written to /afs/crc.nd.edu/user/c/cdrisko
GAMESS supplementary output files will be written to /afs/crc.nd.edu/user/c/cdrisko/scr
Copying input file SO2.inp to your run's scratch directory...

 Distributed Data Interface kickoff program.
 Initiating 1 compute processes on 1 nodes to run the following command:
 /afs/crc.nd.edu/x86_64_linux/g/gamess/nov-2017/gamess/gamess.00.x SO2 

          ******************************************************
          *         GAMESS VERSION = 11 NOV 2017 (R3)         *
          *             FROM IOWA STATE UNIVERSITY             *
          * M.W.SCHMIDT, K.K.BALDRIDGE, J.A.BOATZ, S.T.ELBERT, *
          *   M.S.GORDON, J.H.JENSEN, S.KOSEKI, N.MATSUNAGA,   *
          *          K.A.NGUYEN, S.J.SU, T.L.WINDUS,           *
          *       TOGETHER WITH M.DUPUIS, J.A.MONTGOMERY       *
          *         J.COMPUT.CHEM.  14, 1347-1363(1993)        *
          **************** 64 BIT INTEL VERSION ****************

  SINCE 1993, STUDENTS AND POSTDOCS WORKING AT IOWA STATE UNIVERSITY
  AND ALSO IN THEIR VARIOUS JOBS AFTER LEAVING ISU HAVE MADE IMPORTANT
  CONTRIBUTIONS TO THE CODE:
     IVANA ADAMOVIC, CHRISTINE AIKENS, YURI ALEXEEV, POOJA ARORA,
     ANDREY ASADCHEV, ROB BELL, PRADIPTA BANDYOPADHYAY, JONATHAN BENTZ,
     BRETT BODE, KURT BRORSEN, CALEB CARLIN, GALINA CHABAN, WEI CHEN,
     CHEOL HO CHOI, PAUL DAY, ALBERT DEFUSCO, NUWAN DESILVA, TIM DUDLEY,
     DMITRI FEDOROV, ALEX FINDLATER, GRAHAM FLETCHER, MARK FREITAG,
     KURT GLAESEMANN, ANASTASIA GUININA,
     DAN KEMP, GRANT MERRILL, NORIYUKI MINEZAWA, JONATHAN MULLIN,
     TAKESHI NAGATA, SEAN NEDD, HEATHER NETZLOFF, BOSILJKA NJEGIC, RYAN OLSON,
     MIKE PAK, BUU PHAM,
     SPENCER PRUITT, LUKE ROSKOP, JIM SHOEMAKER, LYUDMILA SLIPCHENKO,
     TONY SMITH, SAROM SOK LEANG, JIE SONG, TETSUYA TAKETSUGU, SIMON WEBB,
     PENG XU, SOOHAENG YOO, FEDERICO ZAHARIEV

  ADDITIONAL CODE HAS BEEN PROVIDED BY COLLABORATORS IN OTHER GROUPS:
     IOWA STATE UNIVERSITY:
          JOE IVANIC, AARON WEST, LAIMUTIS BYTAUTAS, KLAUS RUEDENBERG
     UNIVERSITY OF TOKYO: KIMIHIKO HIRAO, TAKAHITO NAKAJIMA,
          TAKAO TSUNEDA, MUNEAKI KAMIYA, SUSUMU YANAGISAWA,
          KIYOSHI YAGI, MAHITO CHIBA, SEIKEN TOKURA, NAOAKI KAWAKAMI
     UNIVERSITY OF AARHUS: FRANK JENSEN
     UNIVERSITY OF IOWA: VISVALDAS KAIRYS, HUI LI
     NATIONAL INST. OF STANDARDS AND TECHNOLOGY: WALT STEVENS, DAVID GARMER
     UNIVERSITY OF PISA: BENEDETTA MENNUCCI, JACOPO TOMASI
     UNIVERSITY OF MEMPHIS: HENRY KURTZ, PRAKASHAN KORAMBATH
     UNIVERSITY OF ALBERTA: TOBY ZENG, MARIUSZ KLOBUKOWSKI
     UNIVERSITY OF NEW ENGLAND: MARK SPACKMAN
     MIE UNIVERSITY: HIROAKI UMEDA
     NAT. INST. OF ADVANCED INDUSTRIAL SCIENCE AND TECHNOLOGY: KAZUO KITAURA
     MICHIGAN STATE UNIVERSITY:
          KAROL KOWALSKI, MARTA WLOCH, JEFFREY GOUR, JESSE LUTZ,
          WEI LI, PIOTR PIECUCH
     UNIVERSITY OF SILESIA: MONIKA MUSIAL, STANISLAW KUCHARSKI
     FACULTES UNIVERSITAIRES NOTRE-DAME DE LA PAIX:
          OLIVIER QUINET, BENOIT CHAMPAGNE
     UNIVERSITY OF CALIFORNIA - SANTA BARBARA: BERNARD KIRTMAN
     INSTITUTE FOR MOLECULAR SCIENCE:
          KAZUYA ISHIMURA, MICHIO KATOUDA, AND SHIGERU NAGASE
     UNIVERSITY OF NOTRE DAME: ANNA POMOGAEVA, DAN CHIPMAN
     KYUSHU UNIVERSITY:
          HARUYUKI NAKANO,
          FENG LONG GU, JACEK KORCHOWIEC, MARCIN MAKOWSKI, AND YURIKO AOKI,
          HIROTOSHI MORI AND EISAKU MIYOSHI
     PENNSYLVANIA STATE UNIVERSITY:
          TZVETELIN IORDANOV, CHET SWALINA, JONATHAN SKONE,
          SHARON HAMMES-SCHIFFER
     WASEDA UNIVERSITY:
          MASATO KOBAYASHI, TOMOKO AKAMA, TSUGUKI TOUMA,
          TAKESHI YOSHIKAWA, YASUHIRO IKABATA, JUNJI SEINO,
          YUYA NAKAJIMA, HIROMI NAKAI
     NANJING UNIVERSITY: SHUHUA LI
     UNIVERSITY OF NEBRASKA:
          PEIFENG SU, DEJUN SI, NANDUN THELLAMUREGE, YALI WANG, HUI LI
     UNIVERSITY OF ZURICH: ROBERTO PEVERATI, KIM BALDRIDGE
     N. COPERNICUS UNIVERSITY AND JACKSON STATE UNIVERSITY:
          MARIA BARYSZ
     UNIVERSITY OF COPENHAGEN: Jimmy Kromann, CASPER STEINMANN
     TOKYO INSTITUTE OF TECHNOLOGY: HIROYA NAKATA
     NAGOYA UNIVERSITY: YOSHIO NISHIMOTO, STEPHAN IRLE
     MOSCOW STATE UNIVERSITY: VLADIMIR MIRONOV

 EXECUTION OF GAMESS BEGUN Sun Sep 29 10:54:33 2019

            ECHO OF THE FIRST FEW INPUT CARDS -
 INPUT CARD> $BASIS GBASIS=PCSEG-1 $END                                                     
 INPUT CARD> $CONTRL COORD=ZMT ISPHER=1 RUNTYP=ENERGY DFTTYP=PBE MULT=1 $END                
 INPUT CARD>                                                                                
 INPUT CARD> $DATA                                                                          
 INPUT CARD>Title SO2 single-point calculation template with Z-Matrix                       
 INPUT CARD>C1                                                                              
 INPUT CARD>S                                                                               
 INPUT CARD>O 1 1.70                                                                        
 INPUT CARD>O 1 1.70 2 135                                                                  
 INPUT CARD> $END                                                                           
    1000000 WORDS OF MEMORY AVAILABLE

     BASIS OPTIONS
     -------------
     GBASIS=PCSEG-1      IGAUSS=       0      POLAR=NONE    
     NDFUNC=       0     NFFUNC=       0     DIFFSP=       F
     NPFUNC=       0      DIFFS=       F     BASNAM=        


     RUN TITLE
     ---------
 Title SO2 single-point calculation template with Z-Matrix                       

 THE POINT GROUP OF THE MOLECULE IS C1      
 THE ORDER OF THE PRINCIPAL AXIS IS     0

 YOUR FULLY SUBSTITUTED Z-MATRIX IS
 S   
 O      1   1.7000000
 O      1   1.7000000  2  135.0000

 THE MOMENTS OF INERTIA ARE (AMU-ANGSTROM**2)
 IXX=     6.768   IYY=    78.912   IZZ=    85.679

 ATOM      ATOMIC                      COORDINATES (BOHR)
           CHARGE         X                   Y                   Z
 S          16.0     0.0000000000       -0.6148623856        0.0000000000
 O           8.0     2.9679945756        0.6145212206        0.0000000000
 O           8.0    -2.9679945756        0.6145212206        0.0000000000

          INTERNUCLEAR DISTANCES (ANGS.)
          ------------------------------

                1 S          2 O          3 O     

   1 S       0.0000000    1.7000000 *  1.7000000 *
   2 O       1.7000000 *  0.0000000    3.1411904  
   3 O       1.7000000 *  3.1411904    0.0000000  

  * ... LESS THAN  3.000


     ATOMIC BASIS SET
     ----------------
 THE CONTRACTED PRIMITIVE FUNCTIONS HAVE BEEN UNNORMALIZED
 THE CONTRACTED BASIS FUNCTIONS ARE NOW NORMALIZED TO UNITY

  SHELL TYPE  PRIMITIVE        EXPONENT          CONTRACTION COEFFICIENT(S)

 S         

      1   S       1         49299.4000000    0.000677492991
      1   S       2          7395.8400000    0.005232317766
      1   S       3          1683.3000000    0.026769459077
      1   S       4           476.1440000    0.102869580705
      1   S       5           154.3290000    0.286438127414
      1   S       6            55.0288000    0.454278639081
      1   S       7            20.5029000    0.271743121997

      2   S       8            45.9596000   -0.088421914560
      2   S       9             4.9274000    0.564350486135
      2   S      10             1.9179900    0.505415953466

      3   S      11             0.3684980    1.000000000000

      4   S      12             0.1291650    1.000000000000

      5   P      13           451.6620000    0.003707705453
      5   P      14           106.0980000    0.029219352245
      5   P      15            33.6996000    0.124444551509
      5   P      16            12.3054000    0.321808587656
      5   P      17             4.7141200    0.462822172957
      5   P      18             1.7810500    0.266513371364

      6   P      19             0.8722350    0.349265132972
      6   P      20             0.3102780    0.717115018770

      7   P      21             0.1001940    1.000000000000

      8   D      22             0.5500000    1.000000000000

 O         

      9   S      23          2288.6400000    0.005451138222
      9   S      24           344.4160000    0.040718922842
      9   S      25            78.2538000    0.181369420873
      9   S      26            21.7195000    0.465536820246
      9   S      27             6.5590700    0.451211321214

     10   S      28            10.4656000   -0.150211201174
     10   S      29             0.9643510    1.052867983385

     11   S      30             0.2851270    1.000000000000

     12   P      31            17.0590000    0.068749256972
     12   P      32             3.6899900    0.351671941499
     12   P      33             0.9929960    0.724532099722

     13   P      34             0.2449240    1.000000000000

     14   D      35             1.0000000    1.000000000000

 O         

     15   S      36          2288.6400000    0.005451138222
     15   S      37           344.4160000    0.040718922842
     15   S      38            78.2538000    0.181369420873
     15   S      39            21.7195000    0.465536820246
     15   S      40             6.5590700    0.451211321214

     16   S      41            10.4656000   -0.150211201174
     16   S      42             0.9643510    1.052867983385

     17   S      43             0.2851270    1.000000000000

     18   P      44            17.0590000    0.068749256972
     18   P      45             3.6899900    0.351671941499
     18   P      46             0.9929960    0.724532099722

     19   P      47             0.2449240    1.000000000000

     20   D      48             1.0000000    1.000000000000

 TOTAL NUMBER OF BASIS SET SHELLS             =   20
 NUMBER OF CARTESIAN GAUSSIAN BASIS FUNCTIONS =   49
 NOTE: THIS RUN WILL RESTRICT THE MO VARIATION SPACE TO SPHERICAL HARMONICS.
 THE NUMBER OF ORBITALS KEPT IN THE VARIATIONAL SPACE WILL BE PRINTED LATER.
 NUMBER OF ELECTRONS                          =   32
 CHARGE OF MOLECULE                           =    0
 SPIN MULTIPLICITY                            =    1
 NUMBER OF OCCUPIED ORBITALS (ALPHA)          =   16
 NUMBER OF OCCUPIED ORBITALS (BETA )          =   16
 TOTAL NUMBER OF ATOMS                        =    3
 THE NUCLEAR REPULSION ENERGY IS       90.4695589848

     LEBEDEV GRID-BASED DFT OPTIONS
     ------------------------------
     DFTTYP=PBE     
     NRAD  =      96     NLEB  =     302
     NRAD0 =      24     NLEB0 =     110
     SWOFF =    5.00E-03 (PURE SCF -> DFT)
     SWITCH=    3.00E-04 (COARSE -> TIGHT GRID)
     THRESH=    0.00E+00 GTHRE=    1.00E+00

 GRIMME'S EMPIRICAL DISPERSION CORRECTION= F

     $CONTRL OPTIONS
     ---------------
 SCFTYP=RHF          RUNTYP=ENERGY       EXETYP=RUN     
 MPLEVL=       0     CITYP =NONE         CCTYP =NONE         VBTYP =NONE    
 DFTTYP=PBE          TDDFT =NONE    
 MULT  =       1     ICHARG=       0     NZVAR =       0     COORD =ZMT     
 PP    =NONE         RELWFN=NONE         LOCAL =NONE         NUMGRD=       F
 ISPHER=       1     NOSYM =       0     MAXIT =      30     UNITS =ANGS    
 PLTORB=       F     MOLPLT=       F     AIMPAC=       F     FRIEND=        
 NPRINT=       7     IREST =       0     GEOM  =INPUT   
 NORMF =       0     NORMP =       0     ITOL  =      20     ICUT  =       9
 INTTYP=BEST         GRDTYP=BEST         QMTTOL= 1.0E-06

     $SYSTEM OPTIONS
     ---------------
  REPLICATED MEMORY=     1000000 WORDS (ON EVERY NODE).
 DISTRIBUTED MEMDDI=           0 MILLION WORDS IN AGGREGATE,
 MEMDDI DISTRIBUTED OVER   1 PROCESSORS IS           0 WORDS/PROCESSOR.
 TOTAL MEMORY REQUESTED ON EACH PROCESSOR=     1000000 WORDS.
 TIMLIM=      525600.00 MINUTES, OR     365.0 DAYS.
 PARALL= F  BALTYP=  DLB     KDIAG=    0  COREFL= F
 MXSEQ2=     300 MXSEQ3=     150  mem10=         0

          ----------------
          PROPERTIES INPUT
          ----------------

     MOMENTS            FIELD           POTENTIAL          DENSITY
 IEMOM =       1   IEFLD =       0   IEPOT =       0   IEDEN =       0
 WHERE =COMASS     WHERE =NUCLEI     WHERE =NUCLEI     WHERE =NUCLEI  
 OUTPUT=BOTH       OUTPUT=BOTH       OUTPUT=BOTH       OUTPUT=BOTH    
 IEMINT=       0   IEFINT=       0                     IEDINT=       0
                                                       MORB  =       0
          EXTRAPOLATION IN EFFECT
          DIIS IN EFFECT
 ORBITAL PRINTING OPTION: NPREO=     1    49     2     1

     -------------------------------
     INTEGRAL TRANSFORMATION OPTIONS
     -------------------------------
     NWORD  =            0
     CUTOFF = 1.0E-09     MPTRAN =       0
     DIRTRF =       F     AOINTS =DUP     

          ----------------------
          INTEGRAL INPUT OPTIONS
          ----------------------
 NOPK  =       1 NORDER=       0 SCHWRZ=       F

   --- ENCODED Z MATRIX ---
 COORD  TYPE   I   J   K   L   M   N
    1      1    2   1
    2      1    3   1
    3      2    3   1   2

 THE DETERMINANT OF THE G MATRIX IS 10**(    -4)

 THE DETERMINANT OF THE G MATRIX IS 10**(    -4)
 * * * WARNING * * *
 YOUR B MATRIX HAS A SMALL DETERMINANT.
 THIS SUGGESTS YOU MAY HAVE BADLY CHOSEN COORDINATES.

     ------------------------------------------
     THE POINT GROUP IS C1 , NAXIS= 0, ORDER= 1
     ------------------------------------------

 -- VARIATIONAL SPACE WILL BE RESTRICTED TO PURE SPHERICAL HARMONICS ONLY --
 AFTER EXCLUDING CONTAMINANT COMBINATIONS FROM THE CARTESIAN GAUSSIAN BASIS
 SET, THE NUMBER OF SPHERICAL HARMONICS KEPT IN THE VARIATION SPACE IS   46

     DIMENSIONS OF THE SYMMETRY SUBSPACES ARE
 A   =   46

 ..... DONE SETTING UP THE RUN .....
 STEP CPU TIME =     0.04 TOTAL CPU TIME =          0.0 (      0.0 MIN)
 TOTAL WALL CLOCK TIME=          0.0 SECONDS, CPU UTILIZATION IS    80.00%

          ********************
          1 ELECTRON INTEGRALS
          ********************
 ...... END OF ONE-ELECTRON INTEGRALS ......
 STEP CPU TIME =     0.01 TOTAL CPU TIME =          0.0 (      0.0 MIN)
 TOTAL WALL CLOCK TIME=          0.0 SECONDS, CPU UTILIZATION IS   100.00%

          -------------
          GUESS OPTIONS
          -------------
          GUESS =HUCKEL            NORB  =       0          NORDER=       0
          MIX   =       F          PRTMO =       F          PUNMO =       F
          TOLZ  = 1.0E-08          TOLE  = 1.0E-05
          SYMDEN=       F          PURIFY=       F

 INITIAL GUESS ORBITALS GENERATED BY HUCKEL   ROUTINE.
 HUCKEL GUESS REQUIRES     21634 WORDS.

 STATISTICS FOR GENERATION OF SYMMETRY ORBITAL -Q- MATRIX
 NUMBER OF CARTESIAN ATOMIC ORBITALS=         49
 NUMBER OF SPHERICAL CONTAMINANTS DROPPED=     3
 NUMBER OF LINEARLY DEPENDENT MOS DROPPED=     0
 TOTAL NUMBER OF MOS IN VARIATION SPACE=      46

 SYMMETRIES FOR INITIAL GUESS ORBITALS FOLLOW.   BOTH SET(S).
    16 ORBITALS ARE OCCUPIED (    7 CORE ORBITALS).
     8=A        9=A       10=A       11=A       12=A       13=A       14=A   
    15=A       16=A       17=A       18=A       19=A       20=A       21=A   
    22=A       23=A       24=A       25=A       26=A   
 ...... END OF INITIAL ORBITAL SELECTION ......
 STEP CPU TIME =     0.00 TOTAL CPU TIME =          0.0 (      0.0 MIN)
 TOTAL WALL CLOCK TIME=          0.1 SECONDS, CPU UTILIZATION IS    83.33%

                    ----------------------
                    AO INTEGRAL TECHNOLOGY
                    ----------------------
     S,P,L SHELL ROTATED AXIS INTEGRALS, REPROGRAMMED BY
        KAZUYA ISHIMURA (IMS) AND JOSE SIERRA (SYNSTAR).
     S,P,D,L SHELL ROTATED AXIS INTEGRALS PROGRAMMED BY
        KAZUYA ISHIMURA (INSTITUTE FOR MOLECULAR SCIENCE).
     S,P,D,F,G SHELL TO TOTAL QUARTET ANGULAR MOMENTUM SUM 5,
        ERIC PROGRAM BY GRAHAM FLETCHER (ELORET AND NASA ADVANCED
        SUPERCOMPUTING DIVISION, AMES RESEARCH CENTER).
     S,P,D,F,G,L SHELL GENERAL RYS QUADRATURE PROGRAMMED BY
        MICHEL DUPUIS (PACIFIC NORTHWEST NATIONAL LABORATORY).

          --------------------
          2 ELECTRON INTEGRALS
          --------------------

 THE -PK- OPTION IS OFF, THE INTEGRALS ARE NOT IN SUPERMATRIX FORM.
 STORING   15000 INTEGRALS/RECORD ON DISK, USING 12 BYTES/INTEGRAL.
 TWO ELECTRON INTEGRAL EVALUATION REQUIRES   90606 WORDS OF MEMORY.
 II,JST,KST,LST =  1  1  1  1 NREC =         1 INTLOC =    1
 II,JST,KST,LST =  2  1  1  1 NREC =         1 INTLOC =    2
 II,JST,KST,LST =  3  1  1  1 NREC =         1 INTLOC =    7
 II,JST,KST,LST =  4  1  1  1 NREC =         1 INTLOC =   22
 II,JST,KST,LST =  5  1  1  1 NREC =         1 INTLOC =   56
 II,JST,KST,LST =  6  1  1  1 NREC =         1 INTLOC =  125
 II,JST,KST,LST =  7  1  1  1 NREC =         1 INTLOC =  329
 II,JST,KST,LST =  8  1  1  1 NREC =         1 INTLOC =  776
 II,JST,KST,LST =  9  1  1  1 NREC =         1 INTLOC = 2864
 II,JST,KST,LST = 10  1  1  1 NREC =         1 INTLOC = 4832
 II,JST,KST,LST = 11  1  1  1 NREC =         1 INTLOC = 7482
 II,JST,KST,LST = 12  1  1  1 NREC =         1 INTLOC =10588
 II,JST,KST,LST = 13  1  1  1 NREC =         2 INTLOC = 6414
 II,JST,KST,LST = 14  1  1  1 NREC =         3 INTLOC = 6632
 II,JST,KST,LST = 15  1  1  1 NREC =         6 INTLOC = 8378
 II,JST,KST,LST = 16  1  1  1 NREC =         6 INTLOC =14980
 II,JST,KST,LST = 17  1  1  1 NREC =         7 INTLOC = 9943
 II,JST,KST,LST = 18  1  1  1 NREC =         8 INTLOC = 8132
 II,JST,KST,LST = 19  1  1  1 NREC =        10 INTLOC =11724
 II,JST,KST,LST = 20  1  1  1 NREC =        14 INTLOC = 2210
 TOTAL NUMBER OF NONZERO TWO-ELECTRON INTEGRALS =              310805
         21 INTEGRAL RECORDS WERE STORED ON DISK FILE  8.
  ...... END OF TWO-ELECTRON INTEGRALS .....
 STEP CPU TIME =     0.11 TOTAL CPU TIME =          0.2 (      0.0 MIN)
 TOTAL WALL CLOCK TIME=          0.2 SECONDS, CPU UTILIZATION IS    94.12%

          --------------------------
               R-PBE SCF CALCULATION
          --------------------------

     NUCLEAR ENERGY =        90.4695589848
     MAXIT =   30     NPUNCH=    2
     EXTRAP=T  DAMP=F  SHIFT=F  RSTRCT=F  DIIS=T  DEM=F  SOSCF=F
         DENSITY MATRIX CONVERGENCE THRESHOLD=  1.00E-05
     COARSE -> FINE DFT GRID SWITCH THRESHOLD=  3.00E-04 (SWITCH IN $DFT)
                   HF -> DFT SWITCH THRESHOLD=  5.00E-03 (SWOFF IN $DFT)
     MEMORY REQUIRED FOR RHF ITERS=    183108 WORDS.

 DFT CODE IS SWITCHING FROM THE FINE GRID NRAD= 96,  NLEB=  302
                      TO THE COARSE GRID NRAD0= 24, NLEB0=  110

     EXCHANGE FUNCTIONAL   =PBE       
     CORRELATION FUNCTIONAL=PBE       
     DFT THRESHOLD         =.460E-07
     GRID CHANGE THRESHOLD =.300E-03
 FOR AN EULER-MACLAURIN QUADRATURE USING  96 RADIAL POINTS:
 SMALLEST GAUSSIAN PRIMITIVE EXPONENT=        0.1001940000 OF TYPE -P-
 ON ATOM NUMBER   1 HAS RADIAL NORMALIZATION=  1.000000
  LARGEST GAUSSIAN PRIMITIVE EXPONENT=    49299.4000000000 OF TYPE -S-
 ON ATOM NUMBER   1 HAS RADIAL NORMALIZATION=  1.000000
 DFT IS SWITCHED OFF, PERFORMING PURE SCF UNTIL SWOFF THRESHOLD IS REACHED.

 ITER EX DEM     TOTAL ENERGY        E CHANGE  DENSITY CHANGE    DIIS ERROR
   1  0  0     -545.9379941289  -545.9379941289   0.704268682   0.831385312
          * * *   INITIATING DIIS PROCEDURE   * * *
   2  1  0     -546.3748411313    -0.4368470024   0.853576694   0.377604719
   3  2  0     -546.3052783118     0.0695628194   0.367001368   0.397125791
   4  3  0     -546.9538842781    -0.6486059663   0.047659351   0.012914102
   5  4  0     -546.9552562726    -0.0013719945   0.012040941   0.007551315
   6  5  0     -546.9555013983    -0.0002451257   0.005244903   0.002590609
   7  6  0     -546.9555596380    -0.0000582397   0.004097076   0.001063648
 CONVERGED TO SWOFF, SO DFT CALCULATION IS NOW SWITCHED ON.
          * * *   INITIATING DIIS PROCEDURE   * * *
   8  7  0     -548.1219629376    -1.1664032997   0.525122905   0.104113187
   9  8  0     -548.0966671062     0.0252958314   0.454902785   0.158022705
  10  9  0     -548.1093084565    -0.0126413502   0.140253137   0.156703809
  11 10  0     -548.1732843728    -0.0639759163   0.035319715   0.014745922
  12 11  0     -548.1741689955    -0.0008846227   0.003413905   0.001931266
  13 12  0     -548.1741814218    -0.0000124263   0.000862837   0.000406527
  14 13  0     -548.1741820083    -0.0000005865   0.000373082   0.000176165
  15 14  0     -548.1741816649     0.0000003433   0.000281860   0.000515168
 DFT CODE IS SWITCHING BACK TO THE FINE GRID
          * * *   INITIATING DIIS PROCEDURE   * * *
  16 15  0     -548.1842019629    -0.0100202980   0.024444665   0.014015821
  17 16  0     -548.1843182235    -0.0001162606   0.030448330   0.008769297
  18 17  0     -548.1839084957     0.0004097278   0.020776472   0.016110026
  19 18  0     -548.1845656728    -0.0006571772   0.001250041   0.000782247
  20 19  0     -548.1845615753     0.0000040976   0.001372473   0.002005020
  21 20  0     -548.1845669753    -0.0000054000   0.000341594   0.000613742
  22 21  0     -548.1845675878    -0.0000006125   0.000066129   0.000029239
  23 22  0     -548.1845675903    -0.0000000025   0.000010201   0.000006058
  24 23  0     -548.1845675904    -0.0000000001   0.000000519   0.000000423
  25 24  0     -548.1845675904    -0.0000000000   0.000000040   0.000000019

          -----------------
          DENSITY CONVERGED
          -----------------
     TIME TO FORM FOCK OPERATORS=       2.6 SECONDS (       0.1 SEC/ITER)
     TIME TO SOLVE SCF EQUATIONS=       0.0 SECONDS (       0.0 SEC/ITER)

 FINAL R-PBE ENERGY IS     -548.1845675904 AFTER  25 ITERATIONS
 DFT EXCHANGE + CORRELATION ENERGY =       -42.2444942638
 TOTAL ELECTRON NUMBER             =        32.0000129801

          ------------
          EIGENVECTORS
          ------------

                      1          2          3          4          5
                  -88.2324   -18.8311   -18.8311    -7.8447    -5.8713
                     A          A          A          A          A   
    1  S  1  S    0.997765   0.000000   0.000004  -0.308400  -0.000000
    2  S  1  S    0.008203  -0.000000  -0.000099   1.031849   0.000000
    3  S  1  S   -0.002832  -0.000003  -0.000594   0.027459   0.000000
    4  S  1  S    0.001011   0.000028   0.006183  -0.005662  -0.000000
    5  S  1  X   -0.000000   0.000178  -0.000001  -0.000000   0.994697
    6  S  1  Y    0.000100  -0.000000  -0.000107   0.010152  -0.000001
    7  S  1  Z    0.000000   0.000000   0.000000   0.000000   0.000000
    8  S  1  X    0.000000  -0.001722   0.000008  -0.000000   0.017085
    9  S  1  Y   -0.000174   0.000004   0.000883   0.000881  -0.000000
   10  S  1  Z    0.000000   0.000000   0.000000   0.000000   0.000000
   11  S  1  X    0.000000  -0.004568   0.000021  -0.000000  -0.002406
   12  S  1  Y    0.000021   0.000009   0.001974  -0.000161   0.000000
   13  S  1  Z    0.000000   0.000000   0.000000   0.000000   0.000000
   14  S  1 XX   -0.000171   0.000004   0.000971   0.000757  -0.000000
   15  S  1 YY    0.000063  -0.000001  -0.000251  -0.000352  -0.000000
   16  S  1 ZZ    0.000108  -0.000003  -0.000720  -0.000405   0.000000
   17  S  1 XY    0.000000  -0.000728   0.000003  -0.000000   0.001180
   18  S  1 XZ    0.000000   0.000000   0.000000   0.000000   0.000000
   19  S  1 YZ    0.000000   0.000000   0.000000   0.000000   0.000000
   20  O  2  S   -0.000007  -0.699087   0.705565   0.000027  -0.000071
   21  O  2  S   -0.000115  -0.023465   0.023549   0.000079  -0.000053
   22  O  2  S    0.000165   0.010986  -0.010499  -0.000356  -0.000801
   23  O  2  X    0.000013   0.000693  -0.000892   0.000188   0.000083
   24  O  2  Y    0.000008   0.000407  -0.000174   0.000068   0.000055
   25  O  2  Z    0.000000   0.000000   0.000000   0.000000   0.000000
   26  O  2  X   -0.000273  -0.001789   0.002687   0.000823   0.001103
   27  O  2  Y   -0.000122  -0.001366   0.000440   0.000388   0.000471
   28  O  2  Z    0.000000   0.000000   0.000000   0.000000   0.000000
   29  O  2 XX    0.000148   0.000164  -0.000312  -0.000343   0.000142
   30  O  2 YY   -0.000051  -0.000022   0.000116   0.000115  -0.000057
   31  O  2 ZZ   -0.000097  -0.000142   0.000196   0.000228  -0.000085
   32  O  2 XY    0.000121   0.000203  -0.000176  -0.000290   0.000080
   33  O  2 XZ    0.000000   0.000000   0.000000   0.000000   0.000000
   34  O  2 YZ    0.000000   0.000000   0.000000   0.000000   0.000000
   35  O  3  S   -0.000007   0.705565   0.699087   0.000027   0.000071
   36  O  3  S   -0.000115   0.023681   0.023332   0.000079   0.000053
   37  O  3  S    0.000165  -0.011082  -0.010398  -0.000356   0.000801
   38  O  3  X   -0.000013   0.000701   0.000885  -0.000188   0.000083
   39  O  3  Y    0.000008  -0.000408  -0.000170   0.000068  -0.000055
   40  O  3  Z    0.000000   0.000000   0.000000   0.000000   0.000000
   41  O  3  X    0.000273  -0.001814  -0.002671  -0.000823   0.001103
   42  O  3  Y   -0.000122   0.001370   0.000427   0.000388  -0.000471
   43  O  3  Z    0.000000   0.000000   0.000000   0.000000   0.000000
   44  O  3 XX    0.000148  -0.000167  -0.000310  -0.000343  -0.000142
   45  O  3 YY   -0.000051   0.000023   0.000116   0.000115   0.000057
   46  O  3 ZZ   -0.000097   0.000144   0.000194   0.000228   0.000085
   47  O  3 XY   -0.000121   0.000204   0.000175   0.000290   0.000080
   48  O  3 XZ    0.000000   0.000000   0.000000   0.000000   0.000000
   49  O  3 YZ    0.000000   0.000000   0.000000   0.000000   0.000000

                      6          7          8          9         10
                   -5.8691    -5.8660    -0.9556    -0.9100    -0.6365
                     A          A          A          A          A   
    1  S  1  S    0.000000   0.003164   0.044744  -0.000000   0.072607
    2  S  1  S    0.000000  -0.010880  -0.276910   0.000000  -0.463251
    3  S  1  S    0.000000  -0.000012   0.392590  -0.000001   0.704576
    4  S  1  S    0.000000   0.000504   0.086527   0.000003   0.262632
    5  S  1  X    0.000000   0.000001  -0.000000   0.093593  -0.000000
    6  S  1  Y    0.000000   0.994977  -0.036151  -0.000000   0.011227
    7  S  1  Z    0.995026   0.000000   0.000000   0.000000   0.000000
    8  S  1  X    0.000000   0.000000   0.000000  -0.211487   0.000000
    9  S  1  Y    0.000000   0.015740   0.082459   0.000000  -0.021401
   10  S  1  Z    0.015722   0.000000   0.000000   0.000000   0.000000
   11  S  1  X    0.000000  -0.000000   0.000002   0.004751  -0.000001
   12  S  1  Y    0.000000  -0.002923  -0.007024   0.000001  -0.021171
   13  S  1  Z   -0.003096   0.000000   0.000000   0.000000   0.000000
   14  S  1 XX    0.000000  -0.000148   0.042204   0.000000  -0.013111
   15  S  1 YY    0.000000   0.000615  -0.015281  -0.000000   0.001772
   16  S  1 ZZ    0.000000  -0.000466  -0.026923  -0.000000   0.011339
   17  S  1 XY    0.000000   0.000000   0.000000  -0.042867  -0.000000
   18  S  1 XZ   -0.000000   0.000000   0.000000   0.000000   0.000000
   19  S  1 YZ    0.000575   0.000000   0.000000   0.000000   0.000000
   20  O  2  S    0.000000  -0.000035  -0.143546   0.166543   0.109054
   21  O  2  S    0.000000  -0.000069   0.295272  -0.345596  -0.233274
   22  O  2  S    0.000000  -0.000144   0.287550  -0.341630  -0.288835
   23  O  2  X    0.000000   0.000020  -0.080777   0.071533  -0.113358
   24  O  2  Y    0.000000  -0.000038  -0.030663   0.029372  -0.047344
   25  O  2  Z   -0.000062   0.000000   0.000000   0.000000   0.000000
   26  O  2  X    0.000000   0.000408  -0.038397   0.028123  -0.053601
   27  O  2  Y    0.000000   0.000048  -0.012749   0.012965  -0.017780
   28  O  2  Z   -0.000048   0.000000   0.000000   0.000000   0.000000
   29  O  2 XX    0.000000  -0.000012   0.008934  -0.007082   0.004856
   30  O  2 YY    0.000000   0.000076  -0.005110   0.004327  -0.000497
   31  O  2 ZZ    0.000000  -0.000063  -0.003823   0.002756  -0.004360
   32  O  2 XY    0.000000   0.000226   0.005275  -0.005130   0.004393
   33  O  2 XZ    0.000184   0.000000   0.000000   0.000000   0.000000
   34  O  2 YZ    0.000069   0.000000   0.000000   0.000000   0.000000
   35  O  3  S    0.000000  -0.000035  -0.143546  -0.166543   0.109054
   36  O  3  S    0.000000  -0.000069   0.295272   0.345596  -0.233275
   37  O  3  S    0.000000  -0.000144   0.287555   0.341626  -0.288836
   38  O  3  X    0.000000  -0.000020   0.080776   0.071533   0.113359
   39  O  3  Y    0.000000  -0.000038  -0.030663  -0.029372  -0.047344
   40  O  3  Z   -0.000062   0.000000   0.000000   0.000000   0.000000
   41  O  3  X    0.000000  -0.000408   0.038398   0.028122   0.053602
   42  O  3  Y    0.000000   0.000048  -0.012750  -0.012965  -0.017780
   43  O  3  Z   -0.000048   0.000000   0.000000   0.000000   0.000000
   44  O  3 XX    0.000000  -0.000012   0.008934   0.007082   0.004856
   45  O  3 YY    0.000000   0.000076  -0.005111  -0.004327  -0.000497
   46  O  3 ZZ    0.000000  -0.000063  -0.003823  -0.002756  -0.004360
   47  O  3 XY    0.000000  -0.000226  -0.005275  -0.005129  -0.004393
   48  O  3 XZ   -0.000184   0.000000   0.000000   0.000000   0.000000
   49  O  3 YZ    0.000069   0.000000   0.000000   0.000000   0.000000

                     11         12         13         14         15
                   -0.4398    -0.3996    -0.3995    -0.3190    -0.3072
                     A          A          A          A          A   
    1  S  1  S    0.000000  -0.011340   0.000000   0.000000  -0.000000
    2  S  1  S   -0.000000   0.072490   0.000000   0.000000   0.000000
    3  S  1  S    0.000001  -0.095450   0.000000   0.000000  -0.000001
    4  S  1  S   -0.000002  -0.142869   0.000000   0.000000   0.000003
    5  S  1  X   -0.186409  -0.000000   0.000000   0.000000  -0.020756
    6  S  1  Y    0.000000  -0.218332   0.000000   0.000000   0.000000
    7  S  1  Z    0.000000   0.000000  -0.218602  -0.000000   0.000000
    8  S  1  X    0.500697   0.000000   0.000000   0.000000   0.056474
    9  S  1  Y   -0.000000   0.590656   0.000000   0.000000  -0.000001
   10  S  1  Z    0.000000   0.000000   0.594708   0.000000   0.000000
   11  S  1  X    0.009228   0.000002   0.000000   0.000000   0.088252
   12  S  1  Y   -0.000001   0.155825   0.000000   0.000000   0.000001
   13  S  1  Z    0.000000   0.000000   0.181722   0.000000   0.000000
   14  S  1 XX   -0.000000  -0.010420   0.000000   0.000000   0.000000
   15  S  1 YY    0.000000   0.031668   0.000000   0.000000  -0.000000
   16  S  1 ZZ    0.000000  -0.021248   0.000000   0.000000  -0.000000
   17  S  1 XY    0.039697   0.000000   0.000000   0.000000  -0.085442
   18  S  1 XZ    0.000000   0.000000  -0.000000   0.091937   0.000000
   19  S  1 YZ    0.000000   0.000000   0.031036   0.000000   0.000000
   20  O  2  S    0.063599   0.018195   0.000000   0.000000   0.002094
   21  O  2  S   -0.138572  -0.039148   0.000000   0.000000  -0.001328
   22  O  2  S   -0.193302  -0.061575   0.000000   0.000000  -0.038784
   23  O  2  X   -0.323500  -0.243040   0.000000   0.000000   0.245268
   24  O  2  Y   -0.162842   0.168333   0.000000   0.000000  -0.400152
   25  O  2  Z    0.000000   0.000000   0.293679   0.470062   0.000000
   26  O  2  X   -0.176141  -0.153153   0.000000   0.000000   0.172284
   27  O  2  Y   -0.096489   0.108706   0.000000   0.000000  -0.279653
   28  O  2  Z    0.000000   0.000000   0.183339   0.334476   0.000000
   29  O  2 XX    0.008893   0.014050   0.000000   0.000000  -0.009210
   30  O  2 YY   -0.001392  -0.010077   0.000000   0.000000   0.009496
   31  O  2 ZZ   -0.007500  -0.003973   0.000000   0.000000  -0.000286
   32  O  2 XY    0.010669  -0.005913   0.000000   0.000000   0.010656
   33  O  2 XZ    0.000000   0.000000  -0.014852  -0.014319   0.000000
   34  O  2 YZ    0.000000   0.000000  -0.005766  -0.006187   0.000000
   35  O  3  S   -0.063599   0.018195   0.000000   0.000000  -0.002094
   36  O  3  S    0.138570  -0.039149   0.000000   0.000000   0.001328
   37  O  3  S    0.193305  -0.061572   0.000000   0.000000   0.038782
   38  O  3  X   -0.323499   0.243041   0.000000   0.000000   0.245267
   39  O  3  Y    0.162841   0.168334   0.000000   0.000000   0.400152
   40  O  3  Z    0.000000   0.000000   0.293680  -0.470062   0.000000
   41  O  3  X   -0.176138   0.153155   0.000000   0.000000   0.172282
   42  O  3  Y    0.096489   0.108706   0.000000   0.000000   0.279654
   43  O  3  Z    0.000000   0.000000   0.183339  -0.334476   0.000000
   44  O  3 XX   -0.008892   0.014050   0.000000   0.000000   0.009210
   45  O  3 YY    0.001392  -0.010077   0.000000   0.000000  -0.009496
   46  O  3 ZZ    0.007500  -0.003973   0.000000   0.000000   0.000286
   47  O  3 XY    0.010669   0.005913   0.000000   0.000000   0.010657
   48  O  3 XZ    0.000000   0.000000   0.014852  -0.014319   0.000000
   49  O  3 YZ    0.000000   0.000000  -0.005766   0.006187   0.000000

                     16         17         18         19         20
                   -0.2830    -0.2187    -0.1448    -0.0103     0.2184
                     A          A          A          A          A   
    1  S  1  S    0.021548   0.000000   0.024213  -0.000000   0.000000
    2  S  1  S   -0.139940   0.000000  -0.161667   0.000000   0.000000
    3  S  1  S    0.181564   0.000000   0.258775  -0.000001   0.000000
    4  S  1  S    0.353162   0.000000   0.342526   0.000001   0.000000
    5  S  1  X   -0.000000   0.000000   0.000000  -0.229423   0.000000
    6  S  1  Y    0.075382   0.000000  -0.203903  -0.000000   0.000000
    7  S  1  Z    0.000000  -0.218701   0.000000   0.000000   0.251107
    8  S  1  X    0.000000   0.000000   0.000000   0.713242   0.000000
    9  S  1  Y   -0.209125   0.000000   0.613902   0.000000   0.000000
   10  S  1  Z    0.000000   0.637435   0.000000   0.000000  -0.995289
   11  S  1  X   -0.000002   0.000000  -0.000008   0.793881   0.000000
   12  S  1  Y   -0.003130   0.000000   0.344066   0.000002   0.000000
   13  S  1  Z    0.000000   0.243887   0.000000   0.000000   1.305487
   14  S  1 XX   -0.124822   0.000000  -0.105400  -0.000002   0.000000
   15  S  1 YY    0.069570   0.000000   0.016816   0.000000   0.000000
   16  S  1 ZZ    0.055252   0.000000   0.088584   0.000001   0.000000
   17  S  1 XY    0.000000   0.000000   0.000000  -0.158318   0.000000
   18  S  1 XZ    0.000000   0.000000   0.000000   0.000000  -0.000000
   19  S  1 YZ    0.000000  -0.027005   0.000000   0.000000  -0.074028
   20  O  2  S    0.000549   0.000000   0.030107   0.057262   0.000000
   21  O  2  S    0.000886   0.000000  -0.067077  -0.115950   0.000000
   22  O  2  S   -0.044581   0.000000  -0.185436  -0.454625   0.000000
   23  O  2  X    0.166473   0.000000   0.388405   0.215385   0.000000
   24  O  2  Y    0.426366   0.000000  -0.121409   0.248344   0.000000
   25  O  2  Z    0.000000  -0.397808   0.000000   0.000000  -0.070889
   26  O  2  X    0.121826   0.000000   0.318806   0.240927   0.000000
   27  O  2  Y    0.303917   0.000000  -0.092273   0.218482   0.000000
   28  O  2  Z    0.000000  -0.298974   0.000000   0.000000  -0.126074
   29  O  2 XX   -0.000285   0.000000   0.000917  -0.003078   0.000000
   30  O  2 YY   -0.003284   0.000000  -0.002326   0.005233   0.000000
   31  O  2 ZZ    0.003569   0.000000   0.001409  -0.002155   0.000000
   32  O  2 XY   -0.010336   0.000000  -0.004024   0.006589   0.000000
   33  O  2 XZ    0.000000   0.001377   0.000000   0.000000   0.011475
   34  O  2 YZ    0.000000   0.000239   0.000000   0.000000   0.003535
   35  O  3  S    0.000549   0.000000   0.030108  -0.057262   0.000000
   36  O  3  S    0.000886   0.000000  -0.067077   0.115945   0.000000
   37  O  3  S   -0.044582   0.000000  -0.185443   0.454629   0.000000
   38  O  3  X   -0.166475   0.000000  -0.388407   0.215379   0.000000
   39  O  3  Y    0.426365   0.000000  -0.121407  -0.248345   0.000000
   40  O  3  Z    0.000000  -0.397808   0.000000   0.000000  -0.070890
   41  O  3  X   -0.121827   0.000000  -0.318808   0.240928   0.000000
   42  O  3  Y    0.303917   0.000000  -0.092270  -0.218484   0.000000
   43  O  3  Z    0.000000  -0.298974   0.000000   0.000000  -0.126074
   44  O  3 XX   -0.000285   0.000000   0.000917   0.003078   0.000000
   45  O  3 YY   -0.003284   0.000000  -0.002326  -0.005233   0.000000
   46  O  3 ZZ    0.003569   0.000000   0.001409   0.002155   0.000000
   47  O  3 XY    0.010336   0.000000   0.004025   0.006589   0.000000
   48  O  3 XZ    0.000000  -0.001376   0.000000   0.000000  -0.011475
   49  O  3 YZ    0.000000   0.000239   0.000000   0.000000   0.003535

                     21         22         23         24         25
                    0.2237     0.2362     0.2385     0.4784     0.4969
                     A          A          A          A          A   
    1  S  1  S    0.015765  -0.065051  -0.000013   0.000000   0.000000
    2  S  1  S   -0.114684   0.480172   0.000094   0.000000   0.000000
    3  S  1  S    0.377365  -1.871389  -0.000365   0.000000   0.000000
    4  S  1  S   -0.298780   2.138828   0.000411   0.000000   0.000000
    5  S  1  X   -0.000003  -0.000052   0.263264   0.000000   0.000000
    6  S  1  Y    0.247144   0.034600   0.000009   0.000000   0.000000
    7  S  1  Z    0.000000   0.000000   0.000000   0.000000   0.022368
    8  S  1  X    0.000011   0.000204  -1.023630   0.000000   0.000000
    9  S  1  Y   -0.977615  -0.136644  -0.000038   0.000000   0.000000
   10  S  1  Z    0.000000   0.000000   0.000000  -0.000000  -0.088496
   11  S  1  X   -0.000015  -0.000302   1.534987   0.000000   0.000000
   12  S  1  Y    1.296137   0.419097   0.000094   0.000000   0.000000
   13  S  1  Z    0.000000   0.000000   0.000000   0.000000   0.050320
   14  S  1 XX    0.078454  -0.078520  -0.000019   0.000000   0.000000
   15  S  1 YY   -0.097962   0.000026   0.000000   0.000000   0.000000
   16  S  1 ZZ    0.019508   0.078494   0.000019   0.000000   0.000000
   17  S  1 XY    0.000000  -0.000003   0.027045   0.000000   0.000000
   18  S  1 XZ    0.000000   0.000000   0.000000   0.851294   0.000001
   19  S  1 YZ    0.000000   0.000000   0.000000  -0.000001   0.961576
   20  O  2  S    0.004796   0.022191   0.014226   0.000000   0.000000
   21  O  2  S    0.007184  -0.030398   0.025407   0.000000   0.000000
   22  O  2  S   -0.132176  -0.385193  -0.488648   0.000000   0.000000
   23  O  2  X   -0.029201  -0.095699  -0.236513   0.000000   0.000000
   24  O  2  Y   -0.065977  -0.107177  -0.050238   0.000000   0.000000
   25  O  2  Z    0.000000   0.000000   0.000000  -0.345970  -0.172813
   26  O  2  X    0.036694   0.162718  -0.020447   0.000000   0.000000
   27  O  2  Y   -0.112332   0.025211   0.047256   0.000000   0.000000
   28  O  2  Z    0.000000   0.000000   0.000000   0.176787   0.095206
   29  O  2 XX   -0.013031  -0.027751  -0.025146   0.000000   0.000000
   30  O  2 YY    0.008978   0.008102   0.007314   0.000000   0.000000
   31  O  2 ZZ    0.004053   0.019648   0.017832   0.000000   0.000000
   32  O  2 XY    0.005623  -0.024154  -0.024036   0.000000   0.000000
   33  O  2 XZ    0.000000   0.000000   0.000000  -0.052191  -0.031512
   34  O  2 YZ    0.000000   0.000000   0.000000  -0.028774   0.007498
   35  O  3  S    0.004796   0.022197  -0.014217   0.000000   0.000000
   36  O  3  S    0.007182  -0.030394  -0.025428   0.000000   0.000000
   37  O  3  S   -0.132183  -0.385378   0.488507   0.000000   0.000000
   38  O  3  X    0.029204   0.095788  -0.236482   0.000000   0.000000
   39  O  3  Y   -0.065979  -0.107197   0.050194   0.000000   0.000000
   40  O  3  Z    0.000000   0.000000   0.000000   0.345970  -0.172812
   41  O  3  X   -0.036691  -0.162704  -0.020501   0.000000   0.000000
   42  O  3  Y   -0.112331   0.025229  -0.047251   0.000000   0.000000
   43  O  3  Z    0.000000   0.000000   0.000000  -0.176787   0.095205
   44  O  3 XX   -0.013032  -0.027761   0.025135   0.000000   0.000000
   45  O  3 YY    0.008978   0.008105  -0.007311   0.000000   0.000000
   46  O  3 ZZ    0.004054   0.019655  -0.017824   0.000000   0.000000
   47  O  3 XY   -0.005622   0.024164  -0.024027   0.000000   0.000000
   48  O  3 XZ    0.000000   0.000000   0.000000  -0.052191   0.031512
   49  O  3 YZ    0.000000   0.000000   0.000000   0.028774   0.007498

                     26         27         28         29         30
                    0.4971     0.6022     0.6618     0.7927     0.7938
                     A          A          A          A          A   
    1  S  1  S    0.000303  -0.000000   0.002539   0.000000   0.000000
    2  S  1  S   -0.002064   0.000000  -0.018568  -0.000000   0.000000
    3  S  1  S    0.006934   0.000001  -0.086242   0.000000   0.000000
    4  S  1  S   -0.017729  -0.000007   0.827138  -0.000006   0.000000
    5  S  1  X   -0.000000  -0.076941  -0.000000  -0.060013   0.000000
    6  S  1  Y    0.026162   0.000000  -0.050794   0.000000   0.000000
    7  S  1  Z    0.000000   0.000000   0.000000   0.000000   0.000000
    8  S  1  X    0.000000   0.335933   0.000003   0.385218   0.000000
    9  S  1  Y   -0.104378  -0.000002   0.232337  -0.000001   0.000000
   10  S  1  Z    0.000000   0.000000   0.000000   0.000000  -0.000000
   11  S  1  X   -0.000001   0.384094   0.000006  -0.250377   0.000000
   12  S  1  Y    0.059540  -0.000002   0.191254   0.000000   0.000000
   13  S  1  Z    0.000000   0.000000   0.000000   0.000000   0.000000
   14  S  1 XX   -0.155106  -0.000003   0.827700  -0.000004   0.000000
   15  S  1 YY    0.887593   0.000001  -0.201852   0.000002   0.000000
   16  S  1 ZZ   -0.732487   0.000003  -0.625848   0.000001   0.000000
   17  S  1 XY    0.000000   0.870761   0.000005   0.273666   0.000000
   18  S  1 XZ    0.000000   0.000000   0.000000   0.000000  -0.539765
   19  S  1 YZ    0.000000   0.000000   0.000000   0.000000  -0.000000
   20  O  2  S   -0.000921   0.062575   0.075726   0.011817   0.000000
   21  O  2  S    0.002438  -0.257805  -0.342256  -0.030283   0.000000
   22  O  2  S    0.001011  -0.151511  -0.106164   0.001282   0.000000
   23  O  2  X    0.073999   0.089036  -0.192438  -0.481960   0.000000
   24  O  2  Y   -0.188045  -0.255374   0.126993   0.354328   0.000000
   25  O  2  Z    0.000000   0.000000   0.000000   0.000000  -0.551770
   26  O  2  X   -0.054052   0.323631   0.672982   0.762550   0.000000
   27  O  2  Y    0.095807   0.362162   0.077398  -0.386985   0.000000
   28  O  2  Z    0.000000   0.000000   0.000000   0.000000   0.746149
   29  O  2 XX    0.019493   0.047769   0.005122   0.045619   0.000000
   30  O  2 YY   -0.004647  -0.040362   0.015783  -0.024433   0.000000
   31  O  2 ZZ   -0.014846  -0.007407  -0.020905  -0.021186   0.000000
   32  O  2 XY   -0.028990  -0.015324   0.033690   0.011782   0.000000
   33  O  2 XZ    0.000000   0.000000   0.000000   0.000000   0.052870
   34  O  2 YZ    0.000000   0.000000   0.000000   0.000000   0.027396
   35  O  3  S   -0.000921  -0.062575   0.075725  -0.011818   0.000000
   36  O  3  S    0.002438   0.257804  -0.342254   0.030295   0.000000
   37  O  3  S    0.001010   0.151518  -0.106157  -0.001289   0.000000
   38  O  3  X   -0.073999   0.089030   0.192430  -0.481966   0.000000
   39  O  3  Y   -0.188045   0.255374   0.126993  -0.354320   0.000000
   40  O  3  Z    0.000000   0.000000   0.000000   0.000000   0.551769
   41  O  3  X    0.054052   0.323643  -0.672966   0.762561   0.000000
   42  O  3  Y    0.095807  -0.362164   0.077396   0.386973   0.000000
   43  O  3  Z    0.000000   0.000000   0.000000   0.000000  -0.746148
   44  O  3 XX    0.019493  -0.047769   0.005121  -0.045619   0.000000
   45  O  3 YY   -0.004647   0.040362   0.015784   0.024432   0.000000
   46  O  3 ZZ   -0.014846   0.007407  -0.020905   0.021186   0.000000
   47  O  3 XY    0.028990  -0.015324  -0.033690   0.011783   0.000000
   48  O  3 XZ    0.000000   0.000000   0.000000   0.000000   0.052870
   49  O  3 YZ    0.000000   0.000000   0.000000   0.000000  -0.027396

                     31         32         33         34         35
                    0.8166     0.8313     0.8380     0.8548     1.4315
                     A          A          A          A          A   
    1  S  1  S    0.014863   0.000000   0.000000  -0.006934  -0.001771
    2  S  1  S   -0.123883  -0.000000   0.000000   0.058927   0.017297
    3  S  1  S    0.556467   0.000001   0.000000  -0.314495   0.266515
    4  S  1  S   -0.083541  -0.000001   0.000000   0.232709  -1.555223
    5  S  1  X   -0.000000  -0.047937   0.000000  -0.000000  -0.000008
    6  S  1  Y   -0.019946   0.000000   0.000000  -0.007260   0.037548
    7  S  1  Z    0.000000   0.000000  -0.002534   0.000000   0.000000
    8  S  1  X    0.000001   0.373105   0.000000   0.000001   0.000044
    9  S  1  Y    0.163879  -0.000000   0.000000  -0.001055  -0.218428
   10  S  1  Z    0.000000   0.000000   0.019628   0.000000   0.000000
   11  S  1  X   -0.000000  -0.148011   0.000000  -0.000002   0.000092
   12  S  1  Y   -0.343605  -0.000001   0.000000  -0.313743  -0.506955
   13  S  1  Z    0.000000   0.000000  -0.520938   0.000000   0.000000
   14  S  1 XX   -0.125893  -0.000000   0.000000   0.614609  -0.379778
   15  S  1 YY   -0.116989  -0.000001   0.000000  -0.418352   0.089560
   16  S  1 ZZ    0.242882   0.000001   0.000000  -0.196257   0.290217
   17  S  1 XY    0.000003  -0.471926   0.000000   0.000001   0.000027
   18  S  1 XZ    0.000000   0.000000   0.000000   0.000000   0.000000
   19  S  1 YZ    0.000000   0.000000  -0.272444   0.000000   0.000000
   20  O  2  S    0.004632   0.010222   0.000000   0.000715   0.073646
   21  O  2  S   -0.034008  -0.113686   0.000000   0.082052  -1.172268
   22  O  2  S    0.070093   0.148078   0.000000  -0.155790   1.733471
   23  O  2  X   -0.332968  -0.385504   0.000000   0.475799   0.151720
   24  O  2  Y   -0.531963  -0.446015   0.000000  -0.278648  -0.041253
   25  O  2  Z    0.000000   0.000000  -0.616791   0.000000   0.000000
   26  O  2  X    0.414837   0.438264   0.000000  -0.468368  -0.697411
   27  O  2  Y    0.696033   0.590791   0.000000   0.528778  -0.054142
   28  O  2  Z    0.000000   0.000000   0.872008   0.000000   0.000000
   29  O  2 XX    0.021414  -0.014070   0.000000  -0.027525  -0.146934
   30  O  2 YY   -0.011972   0.028200   0.000000   0.035026   0.052586
   31  O  2 ZZ   -0.009442  -0.014130   0.000000  -0.007501   0.094348
   32  O  2 XY    0.022842   0.043365   0.000000   0.054750  -0.086033
   33  O  2 XZ    0.000000   0.000000   0.032631   0.000000   0.000000
   34  O  2 YZ    0.000000   0.000000   0.005168   0.000000   0.000000
   35  O  3  S    0.004632  -0.010222   0.000000   0.000716   0.073660
   36  O  3  S   -0.034002   0.113691   0.000000   0.082047  -1.172499
   37  O  3  S    0.070088  -0.148082   0.000000  -0.155787   1.733816
   38  O  3  X    0.332962  -0.385506   0.000000  -0.475798  -0.151731
   39  O  3  Y   -0.531968   0.446012   0.000000  -0.278652  -0.041232
   40  O  3  Z    0.000000   0.000000  -0.616793   0.000000   0.000000
   41  O  3  X   -0.414826   0.438267   0.000000   0.468367   0.697491
   42  O  3  Y    0.696039  -0.590787   0.000000   0.528782  -0.054210
   43  O  3  Z    0.000000   0.000000   0.872009   0.000000   0.000000
   44  O  3 XX    0.021413   0.014070   0.000000  -0.027526  -0.146956
   45  O  3 YY   -0.011971  -0.028200   0.000000   0.035026   0.052594
   46  O  3 ZZ   -0.009442   0.014130   0.000000  -0.007501   0.094362
   47  O  3 XY   -0.022842   0.043364   0.000000  -0.054750   0.086051
   48  O  3 XZ    0.000000   0.000000  -0.032631   0.000000   0.000000
   49  O  3 YZ    0.000000   0.000000   0.005168   0.000000   0.000000

                     36         37         38         39         40
                    1.4475     2.0751     2.0753     2.0789     2.0822
                     A          A          A          A          A   
    1  S  1  S   -0.000000  -0.000000   0.000000   0.000000  -0.000780
    2  S  1  S    0.000003   0.000000   0.000000   0.000000   0.005977
    3  S  1  S    0.000020  -0.000000   0.000000   0.000000  -0.021000
    4  S  1  S   -0.000140   0.000000   0.000000   0.000000   0.015525
    5  S  1  X    0.074141  -0.002022   0.000000   0.000000  -0.000000
    6  S  1  Y    0.000004   0.000000   0.000000   0.000000   0.003793
    7  S  1  Z    0.000000   0.000000  -0.000000  -0.014400   0.000000
    8  S  1  X   -0.434877   0.005817   0.000000   0.000000   0.000000
    9  S  1  Y   -0.000021  -0.000000   0.000000   0.000000  -0.014092
   10  S  1  Z    0.000000   0.000000   0.000000   0.044862   0.000000
   11  S  1  X   -1.084086   0.015116   0.000000   0.000000  -0.000000
   12  S  1  Y   -0.000045   0.000000   0.000000   0.000000   0.005805
   13  S  1  Z    0.000000   0.000000   0.000000   0.021747   0.000000
   14  S  1 XX   -0.000034   0.000000   0.000000   0.000000   0.016377
   15  S  1 YY    0.000008   0.000000   0.000000   0.000000   0.034011
   16  S  1 ZZ    0.000026  -0.000000   0.000000   0.000000  -0.050388
   17  S  1 XY   -0.298541  -0.031486   0.000000   0.000000   0.000000
   18  S  1 XZ    0.000000   0.000000   0.026305  -0.000000   0.000000
   19  S  1 YZ    0.000000   0.000000  -0.000000  -0.003942   0.000000
   20  O  2  S    0.077658  -0.001196   0.000000   0.000000   0.001114
   21  O  2  S   -1.228230   0.010294   0.000000   0.000000  -0.003082
   22  O  2  S    1.872502  -0.012941   0.000000   0.000000  -0.004916
   23  O  2  X    0.044653   0.000708   0.000000   0.000000   0.006770
   24  O  2  Y    0.116447  -0.008300   0.000000   0.000000   0.001667
   25  O  2  Z    0.000000   0.000000   0.004791   0.014312   0.000000
   26  O  2  X   -0.411373  -0.004008   0.000000   0.000000  -0.003684
   27  O  2  Y   -0.378984   0.011883   0.000000   0.000000  -0.002057
   28  O  2  Z    0.000000   0.000000  -0.007714  -0.023220   0.000000
   29  O  2 XX   -0.115907   0.186968   0.000000   0.000000  -0.040643
   30  O  2 YY    0.043221   0.414413   0.000000   0.000000  -0.557569
   31  O  2 ZZ    0.072686  -0.601382   0.000000   0.000000   0.598212
   32  O  2 XY   -0.096534  -0.348287   0.000000   0.000000   0.230204
   33  O  2 XZ    0.000000   0.000000   0.371844  -0.005455   0.000000
   34  O  2 YZ    0.000000   0.000000  -0.601549   0.707724   0.000000
   35  O  3  S   -0.077645   0.001196   0.000000   0.000000   0.001114
   36  O  3  S    1.228012  -0.010294   0.000000   0.000000  -0.003082
   37  O  3  S   -1.872181   0.012941   0.000000   0.000000  -0.004916
   38  O  3  X    0.044624   0.000708   0.000000   0.000000  -0.006770
   39  O  3  Y   -0.116453   0.008300   0.000000   0.000000   0.001667
   40  O  3  Z    0.000000   0.000000  -0.004791   0.014312   0.000000
   41  O  3  X   -0.411242  -0.004008   0.000000   0.000000   0.003684
   42  O  3  Y    0.378973  -0.011883   0.000000   0.000000  -0.002057
   43  O  3  Z    0.000000   0.000000   0.007714  -0.023220   0.000000
   44  O  3 XX    0.115879  -0.186969   0.000000   0.000000  -0.040641
   45  O  3 YY   -0.043211  -0.414420   0.000000   0.000000  -0.557564
   46  O  3 ZZ   -0.072668   0.601389   0.000000   0.000000   0.598204
   47  O  3 XY   -0.096517  -0.348290   0.000000   0.000000  -0.230200
   48  O  3 XZ    0.000000   0.000000   0.371846   0.005449   0.000000
   49  O  3 YZ    0.000000   0.000000   0.601562   0.707713   0.000000

                     41         42         43         44         45
                    2.1016     2.1222     2.1593     2.1758     2.5189
                     A          A          A          A          A   
    1  S  1  S    0.000000  -0.000000  -0.004871   0.000000  -0.000000
    2  S  1  S    0.000000   0.000000   0.037123   0.000000   0.000002
    3  S  1  S    0.000000  -0.000001  -0.069060   0.000000  -0.000002
    4  S  1  S    0.000000   0.000000  -0.164380   0.000000  -0.000009
    5  S  1  X    0.000000   0.041271  -0.000000   0.000000  -0.178671
    6  S  1  Y    0.000000   0.000000   0.048595   0.000000   0.000001
    7  S  1  Z   -0.035365   0.000000   0.000000  -0.000000   0.000000
    8  S  1  X    0.000000  -0.176475   0.000000   0.000000   0.824849
    9  S  1  Y    0.000000  -0.000000  -0.175066   0.000000  -0.000003
   10  S  1  Z    0.108887   0.000000   0.000000   0.000000   0.000000
   11  S  1  X    0.000000  -0.032380  -0.000001   0.000000   0.163956
   12  S  1  Y    0.000000  -0.000000  -0.123010   0.000000  -0.000002
   13  S  1  Z    0.073980   0.000000   0.000000  -0.000000   0.000000
   14  S  1 XX    0.000000   0.000000   0.112086   0.000000  -0.000007
   15  S  1 YY    0.000000  -0.000000  -0.184865   0.000000   0.000003
   16  S  1 ZZ    0.000000   0.000000   0.072779   0.000000   0.000004
   17  S  1 XY    0.000000   0.179813  -0.000001   0.000000   0.462503
   18  S  1 XZ   -0.000000   0.000000   0.000000   0.320407   0.000000
   19  S  1 YZ    0.146549   0.000000   0.000000   0.000000   0.000000
   20  O  2  S    0.000000   0.005863   0.008742   0.000000  -0.009127
   21  O  2  S    0.000000  -0.087620  -0.143647   0.000000   0.398216
   22  O  2  S    0.000000   0.123000   0.218262   0.000000  -0.732322
   23  O  2  X    0.000000   0.027349   0.066964   0.000000  -0.060278
   24  O  2  Y    0.000000   0.047043  -0.032185   0.000000  -0.024473
   25  O  2  Z    0.044166   0.000000   0.000000   0.038217   0.000000
   26  O  2  X    0.000000  -0.054222  -0.160793   0.000000   0.456500
   27  O  2  Y    0.000000  -0.087402   0.066291   0.000000   0.180272
   28  O  2  Z   -0.083859   0.000000   0.000000  -0.085814   0.000000
   29  O  2 XX    0.000000  -0.308015   0.537346   0.000000  -0.652941
   30  O  2 YY    0.000000   0.496491  -0.426459   0.000000   0.307691
   31  O  2 ZZ    0.000000  -0.188476  -0.110887   0.000000   0.345250
   32  O  2 XY    0.000000   0.503167  -0.431846   0.000000  -0.380491
   33  O  2 XZ    0.712501   0.000000   0.000000   0.609224   0.000000
   34  O  2 YZ    0.009258   0.000000   0.000000   0.374405   0.000000
   35  O  3  S    0.000000  -0.005862   0.008742   0.000000   0.009128
   36  O  3  S    0.000000   0.087620  -0.143647   0.000000  -0.398226
   37  O  3  S    0.000000  -0.123000   0.218262   0.000000   0.732341
   38  O  3  X    0.000000   0.027349  -0.066964   0.000000  -0.060279
   39  O  3  Y    0.000000  -0.047043  -0.032185   0.000000   0.024474
   40  O  3  Z    0.044166   0.000000   0.000000  -0.038217   0.000000
   41  O  3  X    0.000000  -0.054222   0.160793   0.000000   0.456511
   42  O  3  Y    0.000000   0.087403   0.066291   0.000000  -0.180276
   43  O  3  Z   -0.083859   0.000000   0.000000   0.085814   0.000000
   44  O  3 XX    0.000000   0.308017   0.537344   0.000000   0.652952
   45  O  3 YY    0.000000  -0.496493  -0.426457   0.000000  -0.307693
   46  O  3 ZZ    0.000000   0.188476  -0.110887   0.000000  -0.345258
   47  O  3 XY    0.000000   0.503168   0.431844   0.000000  -0.380502
   48  O  3 XZ   -0.712500   0.000000   0.000000   0.609224   0.000000
   49  O  3 YZ    0.009260   0.000000   0.000000  -0.374405   0.000000

                     46
                    2.5265
                     A   
    1  S  1  S   -0.025610
    2  S  1  S    0.191609
    3  S  1  S   -0.352390
    4  S  1  S   -0.712434
    5  S  1  X    0.000002
    6  S  1  Y    0.071965
    7  S  1  Z    0.000000
    8  S  1  X   -0.000008
    9  S  1  Y   -0.343728
   10  S  1  Z    0.000000
   11  S  1  X   -0.000005
   12  S  1  Y   -0.083504
   13  S  1  Z    0.000000
   14  S  1 XX   -0.616340
   15  S  1 YY    0.245335
   16  S  1 ZZ    0.371005
   17  S  1 XY   -0.000005
   18  S  1 XZ    0.000000
   19  S  1 YZ    0.000000
   20  O  2  S    0.009823
   21  O  2  S   -0.453688
   22  O  2  S    0.833791
   23  O  2  X    0.066083
   24  O  2  Y    0.028871
   25  O  2  Z    0.000000
   26  O  2  X   -0.499006
   27  O  2  Y   -0.217319
   28  O  2  Z    0.000000
   29  O  2 XX    0.491841
   30  O  2 YY   -0.108607
   31  O  2 ZZ   -0.383234
   32  O  2 XY    0.552291
   33  O  2 XZ    0.000000
   34  O  2 YZ    0.000000
   35  O  3  S    0.009822
   36  O  3  S   -0.453678
   37  O  3  S    0.833771
   38  O  3  X   -0.066082
   39  O  3  Y    0.028870
   40  O  3  Z    0.000000
   41  O  3  X    0.498996
   42  O  3  Y   -0.217314
   43  O  3  Z    0.000000
   44  O  3 XX    0.491827
   45  O  3 YY   -0.108600
   46  O  3 ZZ   -0.383227
   47  O  3 XY   -0.552284
   48  O  3 XZ    0.000000
   49  O  3 YZ    0.000000
 ...... END OF RHF CALCULATION ......
 STEP CPU TIME =     2.70 TOTAL CPU TIME =          2.9 (      0.0 MIN)
 TOTAL WALL CLOCK TIME=          2.9 SECONDS, CPU UTILIZATION IS    98.28%

     ---------------------------------------------------------------------
     PROPERTIES FOR THE PBE      DFT FUNCTIONAL (RHF  TYPE) DENSITY MATRIX
     ---------------------------------------------------------------------

          -----------------
          ENERGY COMPONENTS
          -----------------

         WAVEFUNCTION NORMALIZATION =       1.0000000000

                ONE ELECTRON ENERGY =    -935.3067237175
                TWO ELECTRON ENERGY =     296.6525971423
           NUCLEAR REPULSION ENERGY =      90.4695589848
                                      ------------------
                       TOTAL ENERGY =    -548.1845675904

 ELECTRON-ELECTRON POTENTIAL ENERGY =     296.6525971423
  NUCLEUS-ELECTRON POTENTIAL ENERGY =   -1482.0259804996
   NUCLEUS-NUCLEUS POTENTIAL ENERGY =      90.4695589848
                                      ------------------
             TOTAL POTENTIAL ENERGY =   -1094.9038243725
               TOTAL KINETIC ENERGY =     546.7192567821
                 VIRIAL RATIO (V/T) =       2.0026801888

          ---------------------------------------
          MULLIKEN AND LOWDIN POPULATION ANALYSES
          ---------------------------------------

     ATOMIC MULLIKEN POPULATION IN EACH MOLECULAR ORBITAL

                      1          2          3          4          5

                  2.000000   2.000000   2.000000   2.000000   2.000000

    1             1.999979   0.000888   0.000690   2.000522   2.000355
    2             0.000010   0.990337   1.008874  -0.000261  -0.000177
    3             0.000010   1.008775   0.990436  -0.000261  -0.000177

                      6          7          8          9         10

                  2.000000   2.000000   2.000000   2.000000   2.000000

    1             2.000005   2.000049   0.572174   0.228649   1.166260
    2            -0.000003  -0.000024   0.713909   0.885679   0.416869
    3            -0.000003  -0.000024   0.713917   0.885672   0.416872

                     11         12         13         14         15

                  2.000000   2.000000   2.000000   2.000000   2.000000

    1             0.568619   1.115373   1.132063   0.050315   0.084384
    2             0.715693   0.442312   0.433968   0.974843   0.957808
    3             0.715688   0.442315   0.433969   0.974842   0.957808

                     16

                  2.000000

    1             0.359432
    2             0.820285
    3             0.820283

               ----- POPULATIONS IN EACH AO -----
                             MULLIKEN      LOWDIN
              1  S  1  S      1.99984     1.99929
              2  S  1  S      1.99281     1.89005
              3  S  1  S      1.37312     0.70602
              4  S  1  S      0.55306     0.47010
              5  S  1  X      1.99341     1.95629
              6  S  1  Y      1.99454     1.96454
              7  S  1  Z      1.99391     1.96101
              8  S  1  X      0.79352     0.67913
              9  S  1  Y      0.97891     0.90012
             10  S  1  Z      0.87711     0.79614
             11  S  1  X      0.02707     0.20234
             12  S  1  Y      0.19970     0.32682
             13  S  1  Z      0.25642     0.36166
             14  S  1 XX      0.02976     0.30526
             15  S  1 YY      0.09275     0.30675
             16  S  1 ZZ      0.06890     0.31004
             17  S  1 XY      0.05032     0.08193
             18  S  1 XZ      0.00463     0.05892
             19  S  1 YZ      0.00000     0.00445
             20  O  2  S      1.99572     1.97304
             21  O  2  S      0.96973     0.71346
             22  O  2  S      0.98224     0.55675
             23  O  2  X      0.78615     0.74637
             24  O  2  Y      1.08374     1.05277
             25  O  2  Z      0.83811     0.80586
             26  O  2  X      0.44958     0.55794
             27  O  2  Y      0.67575     0.71718
             28  O  2  Z      0.56761     0.59905
             29  O  2 XX      0.00140     0.21316
             30  O  2 YY      0.00381     0.20459
             31  O  2 ZZ      0.00320     0.20999
             32  O  2 XY      0.00265     0.00541
             33  O  2 XZ      0.00044     0.00344
             34  O  2 YZ      0.00000     0.00057
             35  O  3  S      1.99572     1.97304
             36  O  3  S      0.96973     0.71346
             37  O  3  S      0.98224     0.55675
             38  O  3  X      0.78615     0.74637
             39  O  3  Y      1.08374     1.05277
             40  O  3  Z      0.83811     0.80586
             41  O  3  X      0.44957     0.55794
             42  O  3  Y      0.67575     0.71718
             43  O  3  Z      0.56761     0.59905
             44  O  3 XX      0.00140     0.21316
             45  O  3 YY      0.00381     0.20459
             46  O  3 ZZ      0.00320     0.20999
             47  O  3 XY      0.00265     0.00541
             48  O  3 XZ      0.00044     0.00344
             49  O  3 YZ      0.00000     0.00057

          ----- MULLIKEN ATOMIC OVERLAP POPULATIONS -----
          (OFF-DIAGONAL ELEMENTS NEED TO BE MULTIPLIED BY 2)

             1           2           3

    1   14.8108088
    2    0.2344754   8.1305698
    3    0.2344742  -0.0049243   8.1305708

          TOTAL MULLIKEN AND LOWDIN ATOMIC POPULATIONS
       ATOM         MULL.POP.    CHARGE          LOW.POP.     CHARGE
    1 S            15.279758    0.720242        15.280857    0.719143
    2 O             8.360121   -0.360121         8.359572   -0.359572
    3 O             8.360121   -0.360121         8.359572   -0.359572

          MULLIKEN SPHERICAL HARMONIC POPULATIONS
       ATOM           S       P       D      F      G      H      I    TOTAL
    1 S             5.92    9.11    0.25   0.00   0.00   0.00   0.00   15.28
    2 O             3.95    4.40    0.01   0.00   0.00   0.00   0.00    8.36
    3 O             3.95    4.40    0.01   0.00   0.00   0.00   0.00    8.36

          -------------------------------
          BOND ORDER AND VALENCE ANALYSIS     BOND ORDER THRESHOLD=0.050
          -------------------------------

                   BOND                       BOND                       BOND
  ATOM PAIR DIST  ORDER      ATOM PAIR DIST  ORDER      ATOM PAIR DIST  ORDER
    1   2  1.700  1.673        1   3  1.700  1.673        2   3  3.141  0.465

                       TOTAL       BONDED        FREE
      ATOM            VALENCE     VALENCE     VALENCE
    1 S                 3.346       3.346       0.000
    2 O                 2.138       2.138      -0.000
    3 O                 2.138       2.138       0.000

          ---------------------
          ELECTROSTATIC MOMENTS
          ---------------------

 POINT   1           X           Y           Z (BOHR)    CHARGE
                 0.000000   -0.000000    0.000000        0.00 (A.U.)
         DX          DY          DZ         /D/  (DEBYE)
     0.000000   -1.401147    0.000000    1.401147
 ...... END OF PROPERTY EVALUATION ......
 STEP CPU TIME =     0.00 TOTAL CPU TIME =          2.9 (      0.0 MIN)
 TOTAL WALL CLOCK TIME=          2.9 SECONDS, CPU UTILIZATION IS    98.28%
                580000  WORDS OF DYNAMIC MEMORY USED
 EXECUTION OF GAMESS TERMINATED NORMALLY Sun Sep 29 10:54:36 2019
 DDI: 263640 bytes (0.3 MB / 0 MWords) used by master data server.

 ----------------------------------------
 CPU timing information for all processes
 ========================================
 0: 2.785 + 0.90 = 2.876
 ----------------------------------------
 ddikick.x: exited gracefully.
----- accounting info -----
Files used on the master node crcfe02.crc.nd.edu were:
-rw-r--r-- 1 cdrisko campus     208 Sep 29 10:54 /afs/crc.nd.edu/user/c/cdrisko/SO2.F05
-rw-r--r-- 1 cdrisko campus   37566 Sep 29 10:54 /afs/crc.nd.edu/user/c/cdrisko/SO2.F07
-rw-r--r-- 1 cdrisko campus 3780336 Sep 29 10:54 /afs/crc.nd.edu/user/c/cdrisko/SO2.F08
-rw-r--r-- 1 cdrisko campus 1766880 Sep 29 10:54 /afs/crc.nd.edu/user/c/cdrisko/SO2.F10
Sun Sep 29 10:54:39 EDT 2019
0.455u 0.243s 0:06.58 10.4%	0+0k 0+24io 0pf+0w
