   4   4   0   0
  0.1062409E+02  0.3489667E-09  0.3489667E-09  0.3489667E-09  0.5000000E-15
  1.000000000000000E-004
  CAR 
 unknown system                          
     50.44187003     -3.67657729  301      9.00404115      1.00000000
     -3.677  0.0000E+00  0.0000E+00
     -3.496  0.0000E+00  0.0000E+00
     -3.316  0.0000E+00  0.0000E+00
     -3.135  0.0000E+00  0.0000E+00
     -2.955  0.0000E+00  0.0000E+00
     -2.775  0.0000E+00  0.0000E+00
     -2.594  0.0000E+00  0.0000E+00
     -2.414  0.0000E+00  0.0000E+00
     -2.233  0.0000E+00  0.0000E+00
     -2.053 -0.1496E-31 -0.2698E-32
     -1.873 -0.5770E-20 -0.1041E-20
     -1.692 -0.2934E-11 -0.5293E-12
     -1.512 -0.1854E-05 -0.3344E-06
     -1.331 -0.5516E-03 -0.9984E-04
     -1.151  0.1285E-01  0.2217E-02
     -0.971  0.9747E-01  0.1980E-01
     -0.790  0.1966E+00  0.5526E-01
     -0.610  0.1258E+00  0.7796E-01
     -0.429  0.2177E+00  0.1172E+00
     -0.249  0.4568E+00  0.1996E+00
     -0.069  0.1221E+00  0.2217E+00
      0.112  0.1854E+00  0.2551E+00
      0.292  0.5141E+00  0.3479E+00
      0.473  0.4547E+00  0.4299E+00
      0.653  0.3044E+00  0.4848E+00
      0.833  0.3725E+00  0.5520E+00
      1.014  0.7760E+00  0.6920E+00
      1.194  0.6352E-02  0.6931E+00
      1.374  0.7294E+00  0.8247E+00
      1.555  0.7243E+00  0.9554E+00
      1.735  0.4520E+00  0.1037E+01
      1.916  0.1133E+01  0.1241E+01
      2.096  0.1663E+00  0.1271E+01
      2.276  0.3964E+00  0.1343E+01
      2.457  0.1570E+01  0.1626E+01
      2.637  0.9490E+00  0.1797E+01
      2.818  0.1052E+01  0.1987E+01
      2.998  0.7166E+00  0.2116E+01
      3.178  0.1880E+01  0.2455E+01
      3.359  0.3041E+01  0.3004E+01
      3.539  0.3388E+01  0.3615E+01
      3.720  0.3661E+01  0.4276E+01
      3.900  0.5543E+01  0.5276E+01
      4.080  0.5022E+01  0.6181E+01
      4.261  0.7650E+01  0.7562E+01
      4.441  0.8223E+01  0.9045E+01
      4.622  0.7372E+01  0.1037E+02
      4.802  0.7593E+01  0.1174E+02
      4.982  0.7465E+01  0.1309E+02
      5.163  0.7986E+01  0.1453E+02
      5.343  0.1178E+02  0.1666E+02
      5.524  0.1022E+02  0.1850E+02
      5.704  0.1457E+02  0.2113E+02
      5.884  0.1458E+02  0.2376E+02
      6.065  0.9871E+01  0.2554E+02
      6.245  0.9141E+01  0.2719E+02
      6.426  0.1116E+02  0.2920E+02
      6.606  0.1277E+02  0.3151E+02
      6.786  0.1028E+02  0.3336E+02
      6.967  0.1160E+02  0.3545E+02
      7.147  0.1413E+02  0.3800E+02
      7.328  0.1709E+02  0.4108E+02
      7.508  0.5952E+01  0.4216E+02
      7.688  0.1235E+01  0.4238E+02
      7.869  0.3283E+00  0.4244E+02
      8.049  0.2246E+01  0.4285E+02
      8.229  0.1455E+01  0.4311E+02
      8.410  0.8078E+00  0.4325E+02
      8.590  0.1197E+01  0.4347E+02
      8.771  0.1797E+01  0.4379E+02
      8.951  0.7632E+00  0.4393E+02
      9.131  0.1194E+01  0.4415E+02
      9.312  0.8135E+00  0.4429E+02
      9.492  0.5877E+00  0.4440E+02
      9.673  0.1539E+01  0.4468E+02
      9.853  0.1177E+01  0.4489E+02
     10.033  0.2032E+01  0.4526E+02
     10.214  0.3643E+00  0.4532E+02
     10.394  0.5277E+00  0.4542E+02
     10.575  0.9233E+00  0.4558E+02
     10.755  0.4850E+00  0.4567E+02
     10.935  0.1319E+01  0.4591E+02
     11.116  0.1485E+01  0.4618E+02
     11.296  0.1125E+01  0.4638E+02
     11.477  0.1664E+00  0.4641E+02
     11.657  0.1732E+01  0.4672E+02
     11.837 -0.1465E-01  0.4672E+02
     12.018  0.5283E+00  0.4682E+02
     12.198  0.4558E+00  0.4690E+02
     12.379  0.1244E+01  0.4712E+02
     12.559  0.2554E+00  0.4717E+02
     12.739  0.9657E+00  0.4734E+02
     12.920  0.9376E+00  0.4751E+02
     13.100  0.1276E+00  0.4753E+02
     13.281  0.1455E+00  0.4756E+02
     13.461  0.8562E+00  0.4771E+02
     13.641  0.2009E+01  0.4808E+02
     13.822  0.3843E+00  0.4815E+02
     14.002  0.7722E+00  0.4829E+02
     14.183  0.9783E+00  0.4846E+02
     14.363  0.1731E+01  0.4877E+02
     14.543  0.8398E+00  0.4893E+02
     14.724  0.1258E+01  0.4915E+02
     14.904  0.1409E+01  0.4941E+02
     15.084  0.3089E+00  0.4946E+02
     15.265  0.1407E+01  0.4972E+02
     15.445  0.1439E+01  0.4998E+02
     15.626  0.3451E+00  0.5004E+02
     15.806  0.1784E+01  0.5036E+02
     15.986  0.1903E-02  0.5036E+02
     16.167  0.8022E+00  0.5051E+02
     16.347  0.5896E+00  0.5061E+02
     16.528  0.8795E+00  0.5077E+02
     16.708  0.1883E+01  0.5111E+02
     16.888  0.6745E+00  0.5123E+02
     17.069  0.1324E+01  0.5147E+02
     17.249  0.1322E+01  0.5171E+02
     17.430  0.9741E+00  0.5188E+02
     17.610  0.3320E+00  0.5194E+02
     17.790  0.1205E+01  0.5216E+02
     17.971  0.7523E+00  0.5230E+02
     18.151  0.1733E+01  0.5261E+02
     18.332  0.2089E+01  0.5299E+02
     18.512  0.1345E+01  0.5323E+02
     18.692  0.8824E+00  0.5339E+02
     18.873  0.1473E+01  0.5365E+02
     19.053  0.2754E+01  0.5415E+02
     19.234  0.8805E+00  0.5431E+02
     19.414  0.1449E+01  0.5457E+02
     19.594  0.3412E+00  0.5463E+02
     19.775  0.1008E+01  0.5482E+02
     19.955  0.1802E+01  0.5514E+02
     20.136  0.1667E+01  0.5544E+02
     20.316  0.9273E+00  0.5561E+02
     20.496  0.1071E+01  0.5580E+02
     20.677  0.1717E+01  0.5611E+02
     20.857  0.1992E+01  0.5647E+02
     21.038  0.1324E+01  0.5671E+02
     21.218  0.3178E+01  0.5728E+02
     21.398  0.3129E+00  0.5734E+02
     21.579  0.4512E+00  0.5742E+02
     21.759  0.1313E+01  0.5766E+02
     21.939  0.2351E+01  0.5808E+02
     22.120  0.2194E+01  0.5848E+02
     22.300  0.1056E+01  0.5867E+02
     22.481  0.1020E+01  0.5885E+02
     22.661  0.2655E+01  0.5933E+02
     22.841  0.1163E+01  0.5954E+02
     23.022  0.1670E+01  0.5984E+02
     23.202  0.1696E+01  0.6015E+02
     23.383  0.1047E+01  0.6034E+02
     23.563  0.1398E+01  0.6059E+02
     23.743  0.2062E+01  0.6096E+02
     23.924  0.1680E+01  0.6126E+02
     24.104  0.1339E+01  0.6151E+02
     24.285  0.2080E+01  0.6188E+02
     24.465  0.1770E+01  0.6220E+02
     24.645  0.1575E+01  0.6248E+02
     24.826  0.1548E+01  0.6276E+02
     25.006  0.2183E+01  0.6316E+02
     25.187  0.1592E+01  0.6344E+02
     25.367  0.1060E+01  0.6364E+02
     25.547  0.5151E+00  0.6373E+02
     25.728  0.2031E+01  0.6409E+02
     25.908  0.2254E+01  0.6450E+02
     26.089  0.6192E+00  0.6461E+02
     26.269  0.1337E+01  0.6485E+02
     26.449  0.5217E+00  0.6495E+02
     26.630  0.1429E+01  0.6521E+02
     26.810  0.1377E+01  0.6545E+02
     26.991  0.1749E+01  0.6577E+02
     27.171  0.1477E+01  0.6604E+02
     27.351  0.1659E+01  0.6634E+02
     27.532  0.5892E+00  0.6644E+02
     27.712  0.1274E+01  0.6667E+02
     27.893  0.1257E+01  0.6690E+02
     28.073  0.1370E+01  0.6715E+02
     28.253  0.4454E+00  0.6723E+02
     28.434  0.1890E+01  0.6757E+02
     28.614  0.1336E+01  0.6781E+02
     28.794  0.1630E+01  0.6810E+02
     28.975  0.1723E+01  0.6841E+02
     29.155  0.1098E+01  0.6861E+02
     29.336  0.9424E+00  0.6878E+02
     29.516  0.1320E+01  0.6902E+02
     29.696  0.2831E+01  0.6953E+02
     29.877  0.1023E+01  0.6971E+02
     30.057  0.6107E+00  0.6982E+02
     30.238  0.3513E+01  0.7046E+02
     30.418  0.1455E+01  0.7072E+02
     30.598  0.1394E+01  0.7097E+02
     30.779  0.1581E+01  0.7126E+02
     30.959  0.1149E+01  0.7146E+02
     31.140  0.2801E+01  0.7197E+02
     31.320  0.3288E+01  0.7256E+02
     31.500  0.9485E+00  0.7273E+02
     31.681  0.1617E+01  0.7303E+02
     31.861  0.3193E+01  0.7360E+02
     32.042  0.1183E+01  0.7381E+02
     32.222  0.2392E+01  0.7425E+02
     32.402  0.2436E+01  0.7469E+02
     32.583  0.1728E+01  0.7500E+02
     32.763  0.2439E+01  0.7544E+02
     32.944  0.1851E+01  0.7577E+02
     33.124  0.1690E+01  0.7608E+02
     33.304  0.3375E+01  0.7669E+02
     33.485  0.6983E+00  0.7681E+02
     33.665  0.2073E+01  0.7719E+02
     33.846  0.3008E+01  0.7773E+02
     34.026  0.1952E+01  0.7808E+02
     34.206  0.1064E+01  0.7827E+02
     34.387  0.1266E+01  0.7850E+02
     34.567  0.1482E+01  0.7877E+02
     34.748  0.9668E+00  0.7894E+02
     34.928  0.1019E+01  0.7913E+02
     35.108  0.2698E+01  0.7961E+02
     35.289  0.7042E+00  0.7974E+02
     35.469  0.7478E+00  0.7987E+02
     35.649  0.9778E+00  0.8005E+02
     35.830  0.2057E+01  0.8042E+02
     36.010  0.2410E+01  0.8086E+02
     36.191  0.1570E+01  0.8114E+02
     36.371  0.1147E+01  0.8135E+02
     36.551 -0.6931E-02  0.8135E+02
     36.732  0.1172E+01  0.8156E+02
     36.912  0.2033E+01  0.8192E+02
     37.093  0.1373E+01  0.8217E+02
     37.273  0.2065E+01  0.8254E+02
     37.453  0.1472E+01  0.8281E+02
     37.634  0.2392E+01  0.8324E+02
     37.814  0.2485E+01  0.8369E+02
     37.995  0.1344E+01  0.8393E+02
     38.175  0.2006E+01  0.8429E+02
     38.355  0.2806E+01  0.8480E+02
     38.536  0.1567E+01  0.8508E+02
     38.716  0.2506E+01  0.8553E+02
     38.897  0.2920E+01  0.8606E+02
     39.077  0.1114E+01  0.8626E+02
     39.257  0.2269E+01  0.8667E+02
     39.438  0.1808E+01  0.8700E+02
     39.618  0.3407E+01  0.8761E+02
     39.799  0.8381E+00  0.8776E+02
     39.979  0.1230E+01  0.8799E+02
     40.159  0.1796E+01  0.8831E+02
     40.340  0.1364E+01  0.8856E+02
     40.520  0.6480E+00  0.8867E+02
     40.701  0.1089E+01  0.8887E+02
     40.881  0.1777E+01  0.8919E+02
     41.061  0.1901E+01  0.8953E+02
     41.242  0.2222E+01  0.8993E+02
     41.422  0.1621E+01  0.9023E+02
     41.603  0.2686E+01  0.9071E+02
     41.783  0.3166E+01  0.9128E+02
     41.963  0.2292E+01  0.9169E+02
     42.144  0.6211E+00  0.9181E+02
     42.324  0.1103E+01  0.9201E+02
     42.504  0.1443E+01  0.9227E+02
     42.685  0.2984E+01  0.9280E+02
     42.865  0.1810E+01  0.9313E+02
     43.046  0.2092E+01  0.9351E+02
     43.226  0.1291E+01  0.9374E+02
     43.406  0.2643E+01  0.9422E+02
     43.587  0.1242E+01  0.9444E+02
     43.767  0.1231E+01  0.9466E+02
     43.948  0.1015E+01  0.9485E+02
     44.128  0.6336E+00  0.9496E+02
     44.308  0.1268E+01  0.9519E+02
     44.489  0.8048E+00  0.9534E+02
     44.669  0.5633E+00  0.9544E+02
     44.850  0.5356E+00  0.9553E+02
     45.030  0.2198E+00  0.9557E+02
     45.210  0.4046E+00  0.9565E+02
     45.391  0.3024E+00  0.9570E+02
     45.571  0.3902E+00  0.9577E+02
     45.752  0.1793E+00  0.9580E+02
     45.932  0.1030E+00  0.9582E+02
     46.112  0.4294E+00  0.9590E+02
     46.293  0.2920E-01  0.9590E+02
     46.473  0.2872E+00  0.9596E+02
     46.654  0.2347E+00  0.9600E+02
     46.834 -0.7764E-02  0.9600E+02
     47.014 -0.2314E-05  0.9600E+02
     47.195 -0.5754E-12  0.9600E+02
     47.375 -0.2663E-17  0.9600E+02
     47.556 -0.2201E-09  0.9600E+02
     47.736 -0.2102E-04  0.9600E+02
     47.916  0.8794E-03  0.9600E+02
     48.097  0.1487E-01  0.9600E+02
     48.277 -0.5221E-03  0.9600E+02
     48.458 -0.1854E-05  0.9600E+02
     48.638 -0.2934E-11  0.9600E+02
     48.818  0.0000E+00  0.9600E+02
     48.999  0.0000E+00  0.9600E+02
     49.179  0.0000E+00  0.9600E+02
     49.360  0.0000E+00  0.9600E+02
     49.540  0.0000E+00  0.9600E+02
     49.720  0.0000E+00  0.9600E+02
     49.901  0.0000E+00  0.9600E+02
     50.081  0.0000E+00  0.9600E+02
     50.261  0.0000E+00  0.9600E+02
     50.442  0.0000E+00  0.9600E+02
