    4    4    1    1
  0.1062409E+02  0.3489667E-09  0.3489667E-09  0.3489667E-09  0.5000000E-15
  1.000000000000000E-004
  CAR 
 unknown system                          
     44     35     48
 
  0.0000000E+00  0.0000000E+00  0.0000000E+00  0.1371742E-02
    1       -1.216648   1.000000
    2        3.431696   1.000000
    3        3.431696   1.000000
    4        3.431696   1.000000
    5        3.961819   1.000000
    6        3.961819   1.000000
    7        3.961819   1.000000
    8        5.603377   1.000000
    9        5.603377   1.000000
   10        5.603377   1.000000
   11        6.577773   1.000000
   12        6.577773   1.000000
   13        7.223544   1.000000
   14        7.223544   1.000000
   15        7.223544   1.000000
   16        7.407254   1.000000
   17        7.407254   1.000000
   18        7.407254   1.000000
   19        7.407254   1.000000
   20        7.407254   1.000000
   21        7.407254   1.000000
   22       10.393080  -0.000000
   23       10.393080  -0.000000
   24       10.393080  -0.000000
   25       16.860725   0.000000
   26       16.860725   0.000000
   27       16.860725   0.000000
   28       22.900403   0.000000
   29       22.900403   0.000000
   30       22.900403   0.000000
   31       22.900403   0.000000
   32       22.900403   0.000000
   33       22.900403   0.000000
   34       27.677030   0.000000
   35       27.677030   0.000000
   36       27.677030   0.000000
   37       31.068850   0.000000
   38       31.068850   0.000000
   39       31.068850   0.000000
   40       32.408581   0.000000
   41       35.891847   0.000000
   42       35.891847   0.000000
   43       35.891847   0.000000
   44       38.522856   0.000000
   45       38.522856   0.000000
   46       38.522856   0.000000
   47       42.273069   0.000000
   48       47.981941   0.000000
 
  0.1111111E+00  0.0000000E+00  0.0000000E+00  0.8230453E-02
    1       -1.054740   1.000000
    2        3.432847   1.000000
    3        3.510595   1.000000
    4        3.510595   1.000000
    5        4.008070   1.000000
    6        4.010868   1.000000
    7        4.010868   1.000000
    8        5.550382   1.000000
    9        5.645065   1.000000
   10        5.645065   1.000000
   11        6.529824   1.000000
   12        6.596894   1.000000
   13        7.094996   1.000000
   14        7.094996   1.000000
   15        7.161323   1.000000
   16        7.161323   1.000000
   17        7.203511   1.000000
   18        7.334165   1.000000
   19        7.334165   1.000000
   20        7.407329   1.000000
   21        7.407329   1.000000
   22        9.539731  -0.000000
   23       10.846274  -0.000000
   24       10.846274  -0.000000
   25       16.909816   0.000000
   26       16.909816   0.000000
   27       18.016767   0.000000
   28       21.939634   0.000000
   29       21.939634   0.000000
   30       22.304764   0.000000
   31       22.304764   0.000000
   32       23.143808   0.000000
   33       23.143808   0.000000
   34       27.737317   0.000000
   35       28.825419   0.000000
   36       28.825419   0.000000
   37       31.130507   0.000000
   38       31.969414   0.000000
   39       32.024260   0.000000
   40       32.024260   0.000000
   41       34.465515   0.000000
   42       34.465515   0.000000
   43       35.172758   0.000000
   44       39.309394   0.000000
   45       39.977418   0.000000
   46       39.977418   0.000000
   47       42.780128   0.000000
   48       45.436382   0.000000
 
  0.2222222E+00  0.0000000E+00  0.0000000E+00  0.8230453E-02
    1       -0.576233   1.000000
    2        3.378340   1.000000
    3        3.727134   1.000000
    4        3.727134   1.000000
    5        4.142224   1.000000
    6        4.160220   1.000000
    7        4.160220   1.000000
    8        5.399081   1.000000
    9        5.767670   1.000000
   10        5.767670   1.000000
   11        6.396022   1.000000
   12        6.464787   1.000000
   13        6.464787   1.000000
   14        6.651705   1.000000
   15        6.986292   1.000000
   16        6.986292   1.000000
   17        7.133125   1.000000
   18        7.133125   1.000000
   19        7.146005   1.000000
   20        7.407389   1.000000
   21        7.407389   1.000000
   22        7.965567   1.000000
   23       11.897403   0.000000
   24       11.897403   0.000000
   25       17.065364   0.000000
   26       17.065364   0.000000
   27       20.145646   0.000000
   28       20.145646   0.000000
   29       20.540988   0.000000
   30       21.072413   0.000000
   31       21.072413   0.000000
   32       23.853243   0.000000
   33       23.853243   0.000000
   34       27.921562   0.000000
   35       31.060080   0.000000
   36       31.185137   0.000000
   37       31.185137   0.000000
   38       31.339197   0.000000
   39       32.300906   0.000000
   40       32.300906   0.000000
   41       33.681826   0.000000
   42       34.319921   0.000000
   43       34.319921   0.000000
   44       40.414802   0.000000
   45       41.252077   0.000000
   46       42.223682   0.000000
   47       42.223682   0.000000
   48       46.054213   0.000000
 
  0.3333333E+00  0.0000000E+00  0.0000000E+00  0.8230453E-02
    1        0.192999   1.000000
    2        3.059109   1.000000
    3        4.014036   1.000000
    4        4.014036   1.000000
    5        4.351022   1.000000
    6        4.413020   1.000000
    7        4.413020   1.000000
    8        5.170927   1.000000
    9        5.815597   1.000000
   10        5.815597   1.000000
   11        5.965277   1.000000
   12        5.965277   1.000000
   13        6.210790   1.000000
   14        6.674555   1.000000
   15        6.736120   1.000000
   16        6.746047   1.000000
   17        6.746047   1.000000
   18        6.848749   1.000000
   19        6.848749   1.000000
   20        7.058490   1.000000
   21        7.407385   1.000000
   22        7.407385   1.000000
   23       13.242516   0.000000
   24       13.242516   0.000000
   25       17.345737   0.000000
   26       17.345737   0.000000
   27       18.265903   0.000000
   28       18.265903   0.000000
   29       19.851452   0.000000
   30       19.851452   0.000000
   31       23.578845   0.000000
   32       24.975914   0.000000
   33       24.975914   0.000000
   34       28.239474   0.000000
   35       30.129875   0.000000
   36       30.171775   0.000000
   37       30.171775   0.000000
   38       31.771588   0.000000
   39       31.935922   0.000000
   40       34.015798   0.000000
   41       34.015798   0.000000
   42       36.908176   0.000000
   43       37.231961   0.000000
   44       37.231961   0.000000
   45       43.876839   0.000000
   46       44.288083   0.000000
   47       44.288490   0.000000
   48       44.504397   0.000000
 
  0.4444444E+00  0.0000000E+00  0.0000000E+00  0.8230453E-02
    1        1.190029   1.000000
    2        2.256977   1.000000
    3        4.238103   1.000000
    4        4.238103   1.000000
    5        4.611973   1.000000
    6        4.773564   1.000000
    7        4.773564   1.000000
    8        4.896960   1.000000
    9        5.243077   1.000000
   10        5.243077   1.000000
   11        6.052787   1.000000
   12        6.095010   1.000000
   13        6.227147   1.000000
   14        6.227147   1.000000
   15        6.531732   1.000000
   16        6.531732   1.000000
   17        6.551317   1.000000
   18        6.551317   1.000000
   19        6.840590   1.000000
   20        6.952013   1.000000
   21        7.407687   1.000000
   22        7.407687   1.000000
   23       14.777228   0.000000
   24       14.777228   0.000000
   25       16.460943   0.000000
   26       16.460943   0.000000
   27       17.719327   0.000000
   28       17.719327   0.000000
   29       18.958573   0.000000
   30       18.958573   0.000000
   31       26.445915   0.000000
   32       26.445915   0.000000
   33       26.770403   0.000000
   34       28.198259   0.000000
   35       28.198259   0.000000
   36       28.705278   0.000000
   37       29.333920   0.000000
   38       29.705635   0.000000
   39       32.592687   0.000000
   40       34.169204   0.000000
   41       37.166733   0.000000
   42       37.166733   0.000000
   43       40.073021   0.000000
   44       40.073021   0.000000
   45       40.600232   0.000000
   46       40.600232   0.000000
   47       46.331319   0.000000
   48       46.331324   0.000000
 
  0.1111111E+00  0.1111111E+00  0.0000000E+00  0.1646091E-01
    1       -0.894179   1.000000
    2        3.514864   1.000000
    3        3.514864   1.000000
    4        3.586396   1.000000
    5        4.055496   1.000000
    6        4.055496   1.000000
    7        4.057166   1.000000
    8        5.521612   1.000000
    9        5.664563   1.000000
   10        5.678702   1.000000
   11        6.517477   1.000000
   12        6.588065   1.000000
   13        6.889237   1.000000
   14        6.962907   1.000000
   15        6.962907   1.000000
   16        7.103763   1.000000
   17        7.174686   1.000000
   18        7.174686   1.000000
   19        7.333927   1.000000
   20        7.333927   1.000000
   21        7.360589   1.000000
   22        9.989655  -0.000000
   23        9.989655  -0.000000
   24       11.240113  -0.000000
   25       16.954945   0.000000
   26       18.095161   0.000000
   27       18.095161   0.000000
   28       20.201546   0.000000
   29       22.158584   0.000000
   30       22.158584   0.000000
   31       22.530032   0.000000
   32       22.530032   0.000000
   33       23.375125   0.000000
   34       28.795253   0.000000
   35       28.912084   0.000000
   36       28.912084   0.000000
   37       31.075521   0.000000
   38       32.097193   0.000000
   39       32.097193   0.000000
   40       32.696564   0.000000
   41       33.275592   0.000000
   42       34.705300   0.000000
   43       36.348241   0.000000
   44       38.671860   0.000000
   45       39.285379   0.000000
   46       41.622202   0.000000
   47       44.199159   0.000000
   48       44.421650   0.000000
 
  0.2222222E+00  0.1111111E+00  0.0000000E+00  0.3292181E-01
    1       -0.419912   1.000000
    2        3.470012   1.000000
    3        3.741155   1.000000
    4        3.795162   1.000000
    5        4.185142   1.000000
    6        4.195931   1.000000
    7        4.199834   1.000000
    8        5.388351   1.000000
    9        5.774832   1.000000
   10        5.774945   1.000000
   11        6.332861   1.000000
   12        6.365298   1.000000
   13        6.407980   1.000000
   14        6.645070   1.000000
   15        6.649816   1.000000
   16        6.941395   1.000000
   17        6.996647   1.000000
   18        7.121014   1.000000
   19        7.132416   1.000000
   20        7.333246   1.000000
   21        7.335535   1.000000
   22        8.500299   1.000000
   23       10.955091  -0.000000
   24       12.211610   0.000000
   25       17.057789   0.000000
   26       18.338410   0.000000
   27       18.347499   0.000000
   28       20.349005   0.000000
   29       20.637168   0.000000
   30       21.270880   0.000000
   31       22.790727   0.000000
   32       23.006317   0.000000
   33       23.193790   0.000000
   34       29.179000   0.000000
   35       29.539256   0.000000
   36       30.174754   0.000000
   37       30.649007   0.000000
   38       31.293281   0.000000
   39       32.338226   0.000000
   40       33.885060   0.000000
   41       34.395098   0.000000
   42       35.404238   0.000000
   43       35.808953   0.000000
   44       39.672615   0.000000
   45       39.909030   0.000000
   46       41.668510   0.000000
   47       43.785254   0.000000
   48       46.489663   0.000000
 
  0.3333333E+00  0.1111111E+00  0.0000000E+00  0.3292181E-01
    1        0.341701   1.000000
    2        3.165153   1.000000
    3        4.044295   1.000000
    4        4.076966   1.000000
    5        4.386238   1.000000
    6        4.422705   1.000000
    7        4.443801   1.000000
    8        5.172731   1.000000
    9        5.703310   1.000000
   10        5.775341   1.000000
   11        5.894391   1.000000
   12        5.968380   1.000000
   13        6.181167   1.000000
   14        6.280747   1.000000
   15        6.717114   1.000000
   16        6.750355   1.000000
   17        6.758066   1.000000
   18        6.847676   1.000000
   19        6.967437   1.000000
   20        7.330050   1.000000
   21        7.332261   1.000000
   22        7.451590   1.000000
   23       12.124894   0.000000
   24       13.505427   0.000000
   25       16.337265   0.000000
   26       17.624901   0.000000
   27       18.469104   0.000000
   28       18.738541   0.000000
   29       20.058319   0.000000
   30       21.821288   0.000000
   31       23.546272   0.000000
   32       23.771344   0.000000
   33       24.380880   0.000000
   34       27.962150   0.000000
   35       28.726171   0.000000
   36       29.646452   0.000000
   37       32.532829   0.000000
   38       32.755910   0.000000
   39       32.813819   0.000000
   40       33.237391   0.000000
   41       34.134404   0.000000
   42       37.225297   0.000000
   43       37.306181   0.000000
   44       38.798765   0.000000
   45       42.328807   0.000000
   46       42.715591   0.000000
   47       43.628550   0.000000
   48       44.415345   0.000000
 
  0.4444444E+00  0.1111111E+00  0.0000000E+00  0.3292181E-01
    1        1.327031   1.000000
    2        2.378665   1.000000
    3        4.290698   1.000000
    4        4.304752   1.000000
    5        4.637631   1.000000
    6        4.733649   1.000000
    7        4.790036   1.000000
    8        4.910772   1.000000
    9        5.160211   1.000000
   10        5.237473   1.000000
   11        5.880985   1.000000
   12        5.886124   1.000000
   13        6.227603   1.000000
   14        6.361005   1.000000
   15        6.531248   1.000000
   16        6.540086   1.000000
   17        6.556811   1.000000
   18        6.652393   1.000000
   19        6.886787   1.000000
   20        7.062030   1.000000
   21        7.329539   1.000000
   22        7.330949   1.000000
   23       13.419291   0.000000
   24       14.829262   0.000000
   25       15.008784   0.000000
   26       16.673660   0.000000
   27       18.059912   0.000000
   28       18.715424   0.000000
   29       19.752303   0.000000
   30       20.633789   0.000000
   31       25.015757   0.000000
   32       25.371909   0.000000
   33       26.437030   0.000000
   34       26.964784   0.000000
   35       27.177198   0.000000
   36       30.345665   0.000000
   37       30.414253   0.000000
   38       31.308219   0.000000
   39       33.641915   0.000000
   40       35.034543   0.000000
   41       35.809483   0.000000
   42       37.291405   0.000000
   43       38.622086   0.000000
   44       40.728638   0.000000
   45       41.613059   0.000000
   46       41.664952   0.000000
   47       44.585778   0.000000
   48       45.190389   0.000000
 
  0.2222222E+00  0.2222222E+00  0.0000000E+00  0.1646091E-01
    1        0.040966   1.000000
    2        3.725038   1.000000
    3        3.725038   1.000000
    4        3.981224   1.000000
    5        4.303168   1.000000
    6        4.314474   1.000000
    7        4.314474   1.000000
    8        5.318278   1.000000
    9        5.798065   1.000000
   10        5.838161   1.000000
   11        6.013633   1.000000
   12        6.013633   1.000000
   13        6.067923   1.000000
   14        6.370997   1.000000
   15        6.703185   1.000000
   16        6.811146   1.000000
   17        6.964285   1.000000
   18        6.964285   1.000000
   19        7.130270   1.000000
   20        7.130270   1.000000
   21        7.223232   1.000000
   22        9.384193  -0.000001
   23        9.384193  -0.000001
   24       13.048059   0.000000
   25       16.029278   0.000000
   26       17.527445   0.000000
   27       20.875028   0.000000
   28       20.875028   0.000000
   29       20.936228   0.000000
   30       20.936228   0.000000
   31       21.925670   0.000000
   32       21.925670   0.000000
   33       24.728932   0.000000
   34       27.687193   0.000000
   35       28.624964   0.000000
   36       29.429629   0.000000
   37       31.621181   0.000000
   38       31.621181   0.000000
   39       34.638340   0.000000
   40       34.638340   0.000000
   41       35.392564   0.000000
   42       37.564774   0.000000
   43       37.569174   0.000000
   44       38.503100   0.000000
   45       39.134596   0.000000
   46       40.338482   0.000000
   47       45.560229   0.000000
   48       45.739898   0.000000
 
  0.3333333E+00  0.2222222E+00  0.0000000E+00  0.3292181E-01
    1        0.778029   1.000000
    2        3.462247   1.000000
    3        4.077491   1.000000
    4        4.240682   1.000000
    5        4.462187   1.000000
    6        4.491602   1.000000
    7        4.531626   1.000000
    8        5.160126   1.000000
    9        5.447047   1.000000
   10        5.648365   1.000000
   11        5.681699   1.000000
   12        5.803776   1.000000
   13        5.998079   1.000000
   14        6.297582   1.000000
   15        6.626967   1.000000
   16        6.739446   1.000000
   17        6.827749   1.000000
   18        6.846023   1.000000
   19        6.870433   1.000000
   20        7.128001   1.000000
   21        7.160281   1.000000
   22        8.161133   1.000000
   23       10.380616  -0.000000
   24       14.235620   0.000000
   25       14.296422   0.000000
   26       17.836983   0.000000
   27       19.055582   0.000000
   28       20.308111   0.000000
   29       21.701599   0.000000
   30       21.850984   0.000000
   31       22.541061   0.000000
   32       24.268064   0.000000
   33       24.559088   0.000000
   34       25.971507   0.000000
   35       26.778173   0.000000
   36       30.974517   0.000000
   37       32.177110   0.000000
   38       34.490871   0.000000
   39       34.580682   0.000000
   40       35.043792   0.000000
   41       35.098054   0.000000
   42       37.186046   0.000000
   43       38.447960   0.000000
   44       39.526300   0.000000
   45       40.698786   0.000000
   46       41.561879   0.000000
   47       42.442163   0.000000
   48       44.301999   0.000000
 
  0.4444444E+00  0.2222222E+00  0.0000000E+00  0.3292181E-01
    1        1.724611   1.000000
    2        2.724604   1.000000
    3        4.398389   1.000000
    4        4.490117   1.000000
    5        4.624546   1.000000
    6        4.710643   1.000000
    7        4.835173   1.000000
    8        4.944688   1.000000
    9        4.975231   1.000000
   10        5.216238   1.000000
   11        5.590427   1.000000
   12        5.704159   1.000000
   13        6.239519   1.000000
   14        6.369399   1.000000
   15        6.489078   1.000000
   16        6.534039   1.000000
   17        6.534881   1.000000
   18        6.591805   1.000000
   19        7.112391   1.000000
   20        7.127979   1.000000
   21        7.135283   1.000000
   22        7.475681   1.000000
   23       11.496829  -0.000000
   24       12.783481   0.000000
   25       15.666503   0.000000
   26       17.284788   0.000000
   27       18.408788   0.000000
   28       19.239521   0.000000
   29       22.465247   0.000000
   30       23.028000   0.000000
   31       23.494890   0.000000
   32       23.738049   0.000000
   33       24.412987   0.000000
   34       25.146539   0.000000
   35       27.620715   0.000000
   36       31.135406   0.000000
   37       32.966003   0.000000
   38       33.852357   0.000000
   39       33.967304   0.000000
   40       35.840688   0.000000
   41       36.864099   0.000000
   42       36.937803   0.000000
   43       37.664687   0.000000
   44       41.113287   0.000000
   45       41.180635   0.000000
   46       42.378095   0.000000
   47       42.733610   0.000000
   48       43.493916   0.000000
 
  0.3333333E+00  0.3333333E+00  0.0000000E+00  0.1646091E-01
    1        1.468201   1.000000
    2        3.878854   1.000000
    3        3.878854   1.000000
    4        4.405635   1.000000
    5        4.575557   1.000000
    6        4.664538   1.000000
    7        4.664538   1.000000
    8        5.098527   1.000000
    9        5.273081   1.000000
   10        5.273081   1.000000
   11        5.434223   1.000000
   12        5.725808   1.000000
   13        6.098244   1.000000
   14        6.222467   1.000000
   15        6.485901   1.000000
   16        6.621332   1.000000
   17        6.621332   1.000000
   18        6.848438   1.000000
   19        6.848438   1.000000
   20        7.004326   1.000000
   21        7.130388   1.000000
   22        8.958344   0.845556
   23        8.958344   0.845556
   24       12.507767   0.000000
   25       15.320767   0.000000
   26       18.278842   0.000000
   27       19.970712   0.000000
   28       19.970712   0.000000
   29       21.122247   0.000000
   30       21.122247   0.000000
   31       24.173154   0.000000
   32       24.822605   0.000000
   33       24.822605   0.000000
   34       24.995790   0.000000
   35       26.807321   0.000000
   36       30.110846   0.000000
   37       35.079329   0.000000
   38       35.084415   0.000000
   39       35.084415   0.000000
   40       36.032890   0.000000
   41       37.047349   0.000000
   42       37.047349   0.000000
   43       37.084881   0.000000
   44       39.955148   0.000000
   45       40.114977   0.000000
   46       41.472612   0.000000
   47       41.472612   0.000000
   48       44.672292   0.000000
 
  0.4444444E+00  0.3333333E+00  0.0000000E+00  0.3292181E-01
    1        2.336802   1.000000
    2        3.229518   1.000000
    3        4.271979   1.000000
    4        4.451341   1.000000
    5        4.754194   1.000000
    6        4.822495   1.000000
    7        4.896400   1.000000
    8        4.966416   1.000000
    9        4.978001   1.000000
   10        5.166032   1.000000
   11        5.366878   1.000000
   12        5.576191   1.000000
   13        6.242769   1.000000
   14        6.288843   1.000000
   15        6.375190   1.000000
   16        6.416196   1.000000
   17        6.428573   1.000000
   18        6.551868   1.000000
   19        6.864086   1.000000
   20        6.908666   1.000000
   21        7.495119   1.000000
   22        8.038980   1.000000
   23        9.891867  -0.000000
   24       11.048006  -0.000000
   25       16.671311   0.000000
   26       18.232714   0.000000
   27       18.956526   0.000000
   28       19.901528   0.000000
   29       21.155494   0.000000
   30       22.159505   0.000000
   31       22.564866   0.000000
   32       23.451234   0.000000
   33       25.656976   0.000000
   34       26.636620   0.000000
   35       28.249242   0.000000
   36       31.846399   0.000000
   37       32.122161   0.000000
   38       35.246970   0.000000
   39       35.899904   0.000000
   40       36.213272   0.000000
   41       36.719817   0.000000
   42       36.842146   0.000000
   43       38.280536   0.000000
   44       40.761771   0.000000
   45       40.966642   0.000000
   46       41.748899   0.000000
   47       41.971298   0.000000
   48       42.959293   0.000000
 
  0.4444444E+00  0.4444444E+00  0.0000000E+00  0.1646091E-01
    1        3.068174   1.000000
    2        3.766839   1.000000
    3        3.766839   1.000000
    4        4.186964   1.000000
    5        4.953751   1.000000
    6        4.953751   1.000000
    7        4.984920   1.000000
    8        5.015341   1.000000
    9        5.076556   1.000000
   10        5.204218   1.000000
   11        5.204218   1.000000
   12        5.436936   1.000000
   13        6.162864   1.000000
   14        6.248920   1.000000
   15        6.257194   1.000000
   16        6.257194   1.000000
   17        6.406919   1.000000
   18        6.606288   1.000000
   19        6.606288   1.000000
   20        6.722130   1.000000
   21        8.006003   1.000000
   22        8.748366   1.000895
   23        8.748366   1.000895
   24        9.712020  -0.000000
   25       17.950727   0.000000
   26       19.455418   0.000000
   27       19.455418   0.000000
   28       19.750383   0.000000
   29       20.815963   0.000000
   30       20.815963   0.000000
   31       20.908152   0.000000
   32       21.998667   0.000000
   33       29.093246   0.000000
   34       29.093246   0.000000
   35       29.460367   0.000000
   36       31.199634   0.000000
   37       32.575880   0.000000
   38       32.854870   0.000000
   39       33.865312   0.000000
   40       33.865312   0.000000
   41       39.098247   0.000000
   42       39.098247   0.000000
   43       39.426495   0.000000
   44       41.196974   0.000000
   45       42.330435   0.000000
   46       42.822385   0.000000
   47       42.928740   0.000000
   48       43.372710   0.000000
 
  0.1111111E+00  0.1111111E+00  0.1111111E+00  0.1097394E-01
    1       -0.735155   1.000000
    2        3.593030   1.000000
    3        3.593030   1.000000
    4        3.593030   1.000000
    5        4.100408   1.000000
    6        4.100408   1.000000
    7        4.100408   1.000000
    8        5.496178   1.000000
    9        5.693467   1.000000
   10        5.693467   1.000000
   11        6.546091   1.000000
   12        6.546091   1.000000
   13        6.777446   1.000000
   14        6.777446   1.000000
   15        6.777446   1.000000
   16        7.036246   1.000000
   17        7.036246   1.000000
   18        7.036246   1.000000
   19        7.343935   1.000000
   20        7.343935   1.000000
   21        7.343935   1.000000
   22       10.357410  -0.000000
   23       10.357410  -0.000000
   24       10.357410  -0.000000
   25       18.168009   0.000000
   26       18.168009   0.000000
   27       18.168009   0.000000
   28       20.411808   0.000000
   29       20.411808   0.000000
   30       20.411808   0.000000
   31       23.609608   0.000000
   32       23.609608   0.000000
   33       23.609608   0.000000
   34       28.866049   0.000000
   35       28.866049   0.000000
   36       28.866049   0.000000
   37       29.675143   0.000000
   38       33.362334   0.000000
   39       33.362334   0.000000
   40       33.362334   0.000000
   41       33.397451   0.000000
   42       34.853089   0.000000
   43       34.853089   0.000000
   44       40.103144   0.000000
   45       40.103144   0.000000
   46       40.232913   0.000000
   47       44.791697   0.000000
   48       44.791697   0.000000
 
  0.2222222E+00  0.1111111E+00  0.1111111E+00  0.3292181E-01
    1       -0.265735   1.000000
    2        3.554630   1.000000
    3        3.808217   1.000000
    4        3.808217   1.000000
    5        4.226380   1.000000
    6        4.234951   1.000000
    7        4.234951   1.000000
    8        5.379408   1.000000
    9        5.775285   1.000000
   10        5.781208   1.000000
   11        6.248740   1.000000
   12        6.248740   1.000000
   13        6.438969   1.000000
   14        6.449754   1.000000
   15        6.627666   1.000000
   16        6.860183   1.000000
   17        6.893089   1.000000
   18        6.893089   1.000000
   19        7.285020   1.000000
   20        7.316662   1.000000
   21        7.316662   1.000000
   22        8.839736   1.021089
   23       11.223996  -0.000000
   24       11.223996  -0.000000
   25       18.179576   0.000000
   26       18.179576   0.000000
   27       18.737188   0.000000
   28       18.737188   0.000000
   29       20.622622   0.000000
   30       21.128995   0.000000
   31       23.210912   0.000000
   32       23.210912   0.000000
   33       24.295737   0.000000
   34       27.806594   0.000000
   35       29.086785   0.000000
   36       30.260405   0.000000
   37       30.260405   0.000000
   38       32.416250   0.000000
   39       32.660565   0.000000
   40       33.639830   0.000000
   41       35.897894   0.000000
   42       35.897894   0.000000
   43       36.276629   0.000000
   44       38.275321   0.000000
   45       41.570963   0.000000
   46       42.006395   0.000000
   47       42.266986   0.000000
   48       45.990145   0.000000
 
  0.3333333E+00  0.1111111E+00  0.1111111E+00  0.3292181E-01
    1        0.486992   1.000000
    2        3.260706   1.000000
    3        4.101685   1.000000
    4        4.101685   1.000000
    5        4.422698   1.000000
    6        4.449951   1.000000
    7        4.449951   1.000000
    8        5.178244   1.000000
    9        5.682076   1.000000
   10        5.682076   1.000000
   11        5.868465   1.000000
   12        5.926789   1.000000
   13        6.008780   1.000000
   14        6.363871   1.000000
   15        6.622575   1.000000
   16        6.695377   1.000000
   17        6.695377   1.000000
   18        6.749445   1.000000
   19        7.181751   1.000000
   20        7.291932   1.000000
   21        7.291932   1.000000
   22        7.659077   1.000000
   23       12.323546   0.000000
   24       12.323546   0.000000
   25       16.659883   0.000000
   26       16.659883   0.000000
   27       18.979112   0.000000
   28       18.979112   0.000000
   29       21.862664   0.000000
   30       21.998268   0.000000
   31       21.998268   0.000000
   32       23.884848   0.000000
   33       25.388600   0.000000
   34       26.054753   0.000000
   35       29.489519   0.000000
   36       30.526044   0.000000
   37       31.182540   0.000000
   38       32.846180   0.000000
   39       32.846180   0.000000
   40       34.154921   0.000000
   41       34.567636   0.000000
   42       37.666296   0.000000
   43       38.811383   0.000000
   44       38.811383   0.000000
   45       41.086995   0.000000
   46       43.590434   0.000000
   47       43.754661   0.000000
   48       43.754661   0.000000
 
  0.4444444E+00  0.1111111E+00  0.1111111E+00  0.3292181E-01
    1        1.458327   1.000000
    2        2.491213   1.000000