       N       E                     dE             d eps       ncg     rms          rms(c)
DAV:   1     0.148997576598E+03    0.14900E+03   -0.16332E+04  4056   0.140E+03
DAV:   2    -0.137723627044E+02   -0.16277E+03   -0.14904E+03  3456   0.202E+02
DAV:   3    -0.182747676270E+02   -0.45024E+01   -0.44776E+01  4560   0.385E+01
DAV:   4    -0.183051370409E+02   -0.30369E-01   -0.30368E-01  3624   0.273E+00
DAV:   5    -0.183055352415E+02   -0.39820E-03   -0.39820E-03  4656   0.339E-01    0.155E+01
DAV:   6    -0.157506608077E+02    0.25549E+01   -0.28977E+01  4224   0.691E+01    0.650E+00
DAV:   7    -0.146331539715E+02    0.11175E+01   -0.43151E+00  4152   0.261E+01    0.135E+00
DAV:   8    -0.145752001271E+02    0.57954E-01   -0.22773E-02  4440   0.750E-01    0.504E-01
DAV:   9    -0.145705171515E+02    0.46830E-02   -0.12604E-02  4704   0.130E+00    0.346E-02
DAV:  10    -0.145705632800E+02   -0.46129E-04   -0.14241E-04  3552   0.691E-02
   1 F= -.14570563E+02 E0= -.14570166E+02  d E =-.119271E-02
