<?xml version="1.0" encoding="ISO-8859-1"?>
<modeling>
 <generator>
  <i name="program" type="string">vasp </i>
  <i name="version" type="string">5.4.1  </i>
  <i name="subversion" type="string">05Feb16 (build Feb 08 2018 09:21:51) complex                          parallel </i>
  <i name="platform" type="string">LinuxIFC </i>
  <i name="date" type="string">2019 11 21 </i>
  <i name="time" type="string">15:53:35 </i>
 </generator>
 <incar>
  <i type="string" name="PREC">normal</i>
  <i name="ENCUT">    400.00000000</i>
  <i type="int" name="ISMEAR">     1</i>
  <i name="SIGMA">      0.10000000</i>
  <i type="logical" name="LWAVE"> F  </i>
  <i type="logical" name="LCHARG"> F  </i>
  <v type="int" name="KPOINT_BSE">    -1     0     0     0</v>
 </incar>
 <kpoints>
  <generation param="Monkhorst-Pack">
   <v type="int" name="divisions">       9        9        9 </v>
   <v name="usershift">      0.00000000       0.00000000       0.00000000 </v>
   <v name="genvec1">      0.11111111       0.00000000       0.00000000 </v>
   <v name="genvec2">      0.00000000       0.11111111       0.00000000 </v>
   <v name="genvec3">      0.00000000       0.00000000       0.11111111 </v>
   <v name="shift">      0.00000000       0.00000000       0.00000000 </v>
  </generation>
  <varray name="kpointlist" >
   <v>       0.00000000       0.00000000       0.00000000 </v>
   <v>       0.11111111       0.00000000       0.00000000 </v>
   <v>       0.22222222       0.00000000       0.00000000 </v>
   <v>       0.33333333       0.00000000       0.00000000 </v>
   <v>       0.44444444       0.00000000       0.00000000 </v>
   <v>       0.11111111       0.11111111       0.00000000 </v>
   <v>       0.22222222       0.11111111       0.00000000 </v>
   <v>       0.33333333       0.11111111       0.00000000 </v>
   <v>       0.44444444       0.11111111       0.00000000 </v>
   <v>       0.22222222       0.22222222       0.00000000 </v>
   <v>       0.33333333       0.22222222       0.00000000 </v>
   <v>       0.44444444       0.22222222       0.00000000 </v>
   <v>       0.33333333       0.33333333       0.00000000 </v>
   <v>       0.44444444       0.33333333       0.00000000 </v>
   <v>       0.44444444       0.44444444       0.00000000 </v>
   <v>       0.11111111       0.11111111       0.11111111 </v>
   <v>       0.22222222       0.11111111       0.11111111 </v>
   <v>       0.33333333       0.11111111       0.11111111 </v>
   <v>       0.44444444       0.11111111       0.11111111 </v>
   <v>       0.22222222       0.22222222       0.11111111 </v>
   <v>       0.33333333       0.22222222       0.11111111 </v>
   <v>       0.44444444       0.22222222       0.11111111 </v>
   <v>       0.33333333       0.33333333       0.11111111 </v>
   <v>       0.44444444       0.33333333       0.11111111 </v>
   <v>       0.44444444       0.44444444       0.11111111 </v>
   <v>       0.22222222       0.22222222       0.22222222 </v>
   <v>       0.33333333       0.22222222       0.22222222 </v>
   <v>       0.44444444       0.22222222       0.22222222 </v>
   <v>       0.33333333       0.33333333       0.22222222 </v>
   <v>       0.44444444       0.33333333       0.22222222 </v>
   <v>       0.44444444       0.44444444       0.22222222 </v>
   <v>       0.33333333       0.33333333       0.33333333 </v>
   <v>       0.44444444       0.33333333       0.33333333 </v>
   <v>       0.44444444       0.44444444       0.33333333 </v>
   <v>       0.44444444       0.44444444       0.44444444 </v>
  </varray>
  <varray name="weights" >
   <v>       0.00137174 </v>
   <v>       0.00823045 </v>
   <v>       0.00823045 </v>
   <v>       0.00823045 </v>
   <v>       0.00823045 </v>
   <v>       0.01646091 </v>
   <v>       0.03292181 </v>
   <v>       0.03292181 </v>
   <v>       0.03292181 </v>
   <v>       0.01646091 </v>
   <v>       0.03292181 </v>
   <v>       0.03292181 </v>
   <v>       0.01646091 </v>
   <v>       0.03292181 </v>
   <v>       0.01646091 </v>
   <v>       0.01097394 </v>
   <v>       0.03292181 </v>
   <v>       0.03292181 </v>
   <v>       0.03292181 </v>
   <v>       0.03292181 </v>
   <v>       0.06584362 </v>
   <v>       0.06584362 </v>
   <v>       0.03292181 </v>
   <v>       0.06584362 </v>
   <v>       0.03292181 </v>
   <v>       0.01097394 </v>
   <v>       0.03292181 </v>
   <v>       0.03292181 </v>
   <v>       0.03292181 </v>
   <v>       0.06584362 </v>
   <v>       0.03292181 </v>
   <v>       0.01097394 </v>
   <v>       0.03292181 </v>
   <v>       0.03292181 </v>
   <v>       0.01097394 </v>
  </varray>
 </kpoints>
 <parameters>
  <separator name="general" >
   <i type="string" name="SYSTEM">unknown system</i>
   <i type="logical" name="LCOMPAT"> F  </i>
  </separator>
  <separator name="electronic" >
   <i type="string" name="PREC">normal</i>
   <i name="ENMAX">    400.00000000</i>
   <i name="ENAUG">    586.98000000</i>
   <i name="EDIFF">      0.00010000</i>
   <i type="int" name="IALGO">    38</i>
   <i type="int" name="IWAVPR">    10</i>
   <i type="int" name="NBANDS">    48</i>
   <i name="NELECT">     44.00000000</i>
   <i type="int" name="TURBO">     0</i>
   <i type="int" name="IRESTART">     0</i>
   <i type="int" name="NREBOOT">     0</i>
   <i type="int" name="NMIN">     0</i>
   <i name="EREF">      0.00000000</i>
   <separator name="electronic smearing" >
    <i type="int" name="ISMEAR">     1</i>
    <i name="SIGMA">      0.10000000</i>
    <i name="KSPACING">      0.50000000</i>
    <i type="logical" name="KGAMMA"> T  </i>
   </separator>
   <separator name="electronic projectors" >
    <i type="logical" name="LREAL"> F  </i>
    <v name="ROPT">      0.00000000</v>
    <i type="int" name="LMAXPAW">  -100</i>
    <i type="int" name="LMAXMIX">     2</i>
    <i type="logical" name="NLSPLINE"> F  </i>
   </separator>
   <separator name="electronic startup" >
    <i type="int" name="ISTART">     0</i>
    <i type="int" name="ICHARG">     2</i>
    <i type="int" name="INIWAV">     1</i>
   </separator>
   <separator name="electronic spin" >
    <i type="int" name="ISPIN">     1</i>
    <i type="logical" name="LNONCOLLINEAR"> F  </i>
    <v name="MAGMOM">      1.00000000      1.00000000      1.00000000      1.00000000</v>
    <i name="NUPDOWN">     -1.00000000</i>
    <i type="logical" name="LSORBIT"> F  </i>
    <v name="SAXIS">      0.00000000      0.00000000      1.00000000</v>
    <i type="logical" name="LSPIRAL"> F  </i>
    <v name="QSPIRAL">      0.00000000      0.00000000      0.00000000</v>
    <i type="logical" name="LZEROZ"> F  </i>
   </separator>
   <separator name="electronic exchange-correlation" >
    <i type="logical" name="LASPH"> F  </i>
    <i type="logical" name="LMETAGGA"> F  </i>
   </separator>
   <separator name="electronic convergence" >
    <i type="int" name="NELM">    60</i>
    <i type="int" name="NELMDL">    -5</i>
    <i type="int" name="NELMIN">     2</i>
    <i name="ENINI">    400.00000000</i>
    <separator name="electronic convergence detail" >
     <i type="logical" name="LDIAG"> T  </i>
     <i type="logical" name="LSUBROT"> F  </i>
     <i name="WEIMIN">      0.00000000</i>
     <i name="EBREAK">      0.00000052</i>
     <i name="DEPER">      0.30000000</i>
     <i type="int" name="NRMM">     4</i>
     <i name="TIME">      0.40000000</i>
    </separator>
   </separator>
   <separator name="electronic mixer" >
    <i name="AMIX">      0.40000000</i>
    <i name="BMIX">      1.00000000</i>
    <i name="AMIN">      0.10000000</i>
    <i name="AMIX_MAG">      1.60000000</i>
    <i name="BMIX_MAG">      1.00000000</i>
    <separator name="electronic mixer details" >
     <i type="int" name="IMIX">     4</i>
     <i type="logical" name="MIXFIRST"> F  </i>
     <i type="int" name="MAXMIX">   -45</i>
     <i name="WC">    100.00000000</i>
     <i type="int" name="INIMIX">     1</i>
     <i type="int" name="MIXPRE">     1</i>
     <i type="int" name="MREMOVE">     5</i>
    </separator>
   </separator>
   <separator name="electronic dipolcorrection" >
    <i type="logical" name="LDIPOL"> F  </i>
    <i type="logical" name="LMONO"> F  </i>
    <i type="int" name="IDIPOL">     0</i>
    <i name="EPSILON">      1.00000000</i>
    <v name="DIPOL">   -100.00000000   -100.00000000   -100.00000000</v>
    <i name="EFIELD">      0.00000000</i>
   </separator>
  </separator>
  <separator name="grids" >
   <i type="int" name="NGX">    18</i>
   <i type="int" name="NGY">    18</i>
   <i type="int" name="NGZ">    18</i>
   <i type="int" name="NGXF">    36</i>
   <i type="int" name="NGYF">    36</i>
   <i type="int" name="NGZF">    36</i>
   <i type="logical" name="ADDGRID"> F  </i>
  </separator>
  <separator name="ionic" >
   <i type="int" name="NSW">     0</i>
   <i type="int" name="IBRION">    -1</i>
   <i type="int" name="ISIF">     2</i>
   <i name="PSTRESS">      0.00000000</i>
   <i name="EDIFFG">      0.00100000</i>
   <i type="int" name="NFREE">     0</i>
   <i name="POTIM">      0.50000000</i>
   <i name="SMASS">     -3.00000000</i>
   <i name="SCALEE">      1.00000000</i>
  </separator>
  <separator name="ionic md" >
   <i name="TEBEG">      0.00010000</i>
   <i name="TEEND">      0.00010000</i>
   <i type="int" name="NBLOCK">     1</i>
   <i type="int" name="KBLOCK">     1</i>
   <i type="int" name="NPACO">   256</i>
   <i name="APACO">     16.00000000</i>
  </separator>
  <separator name="symmetry" >
   <i type="int" name="ISYM">     2</i>
   <i name="SYMPREC">      0.00001000</i>
  </separator>
  <separator name="dos" >
   <i type="logical" name="LORBIT"> F  </i>
   <v name="RWIGS">     -1.00000000</v>
   <i type="int" name="NEDOS">   301</i>
   <i name="EMIN">     10.00000000</i>
   <i name="EMAX">    -10.00000000</i>
   <i name="EFERMI">      0.00000000</i>
  </separator>
  <separator name="writing" >
   <i type="int" name="NWRITE">     2</i>
   <i type="logical" name="LWAVE"> F  </i>
   <i type="logical" name="LCHARG"> F  </i>
   <i type="logical" name="LPARD"> F  </i>
   <i type="logical" name="LVTOT"> F  </i>
   <i type="logical" name="LVHAR"> F  </i>
   <i type="logical" name="LELF"> F  </i>
   <i type="logical" name="LOPTICS"> F  </i>
   <v name="STM">      0.00000000      0.00000000      0.00000000      0.00000000      0.00000000      0.00000000      0.00000000</v>
  </separator>
  <separator name="performance" >
   <i type="int" name="NPAR">    24</i>
   <i type="int" name="NSIM">     4</i>
   <i type="int" name="NBLK">    -1</i>
   <i type="logical" name="LPLANE"> T  </i>
   <i type="logical" name="LSCALAPACK"> F  </i>
   <i type="logical" name="LSCAAWARE"> F  </i>
   <i type="logical" name="LSCALU"> F  </i>
   <i type="logical" name="LASYNC"> F  </i>
   <i type="logical" name="LORBITALREAL"> F  </i>
  </separator>
  <separator name="miscellaneous" >
   <i type="int" name="IDIOT">     3</i>
   <i type="logical" name="LMUSIC"> F  </i>
   <v name="POMASS">     63.54600000</v>
   <v name="DARWINR">      0.00000000</v>
   <v name="DARWINV">      1.00000000</v>
   <i type="logical" name="LCORR"> T  </i>
  </separator>
  <i type="logical" name="GGA_COMPAT"> T  </i>
  <i type="logical" name="LBERRY"> F  </i>
  <i type="int" name="ICORELEVEL">     0</i>
  <i type="logical" name="LDAU"> F  </i>
  <i type="int" name="I_CONSTRAINED_M">     0</i>
  <separator name="electronic exchange-correlation" >
   <i type="string" name="GGA">--</i>
   <i type="int" name="VOSKOWN">     0</i>
   <i type="logical" name="LHFCALC"> F  </i>
   <i type="string" name="PRECFOCK"></i>
   <i type="logical" name="LSYMGRAD"> F  </i>
   <i type="logical" name="LHFONE"> F  </i>
   <i type="logical" name="LRHFCALC"> F  </i>
   <i type="logical" name="LTHOMAS"> F  </i>
   <i type="logical" name="LMODELHF"> F  </i>
   <i name="ENCUT4O">     -1.00000000</i>
   <i type="int" name="EXXOEP">     0</i>
   <i type="int" name="FOURORBIT">     0</i>
   <i name="AEXX">      0.00000000</i>
   <i name="HFALPHA">      0.00000000</i>
   <i name="MCALPHA">      0.00000000</i>
   <i name="ALDAX">      1.00000000</i>
   <i name="AGGAX">      1.00000000</i>
   <i name="ALDAC">      1.00000000</i>
   <i name="AGGAC">      1.00000000</i>
   <i type="int" name="NKREDX">     1</i>
   <i type="int" name="NKREDY">     1</i>
   <i type="int" name="NKREDZ">     1</i>
   <i type="logical" name="SHIFTRED"> F  </i>
   <i type="logical" name="ODDONLY"> F  </i>
   <i type="logical" name="EVENONLY"> F  </i>
   <i type="int" name="LMAXFOCK">     0</i>
   <i type="int" name="NMAXFOCKAE">     0</i>
   <i type="logical" name="LFOCKAEDFT"> F  </i>
   <i name="HFSCREEN">      0.00000000</i>
   <i name="HFSCREENC">      0.00000000</i>
   <i type="int" name="NBANDSGWLOW">     0</i>
  </separator>
  <separator name="vdW DFT" >
   <i type="logical" name="LUSE_VDW"> F  </i>
   <i name="Zab_VDW">     -0.84910000</i>
   <i name="PARAM1">      0.12340000</i>
   <i name="PARAM2">      1.00000000</i>
   <i name="PARAM3">      0.00000000</i>
  </separator>
  <separator name="model GW" >
   <i type="int" name="MODEL_GW">     0</i>
   <i name="MODEL_EPS0">      6.37445551</i>
   <i name="MODEL_ALPHA">      1.00000000</i>
  </separator>
  <separator name="linear response parameters" >
   <i type="logical" name="LEPSILON"> F  </i>
   <i type="logical" name="LRPA"> F  </i>
   <i type="logical" name="LNABLA"> F  </i>
   <i type="logical" name="LVEL"> F  </i>
   <i type="int" name="KINTER">     0</i>
   <i name="CSHIFT">      0.10000000</i>
   <i name="OMEGAMAX">     -1.00000000</i>
   <i name="DEG_THRESHOLD">      0.00200000</i>
  </separator>
  <separator name="orbital magnetization" >
   <i type="logical" name="NUCIND"> F  </i>
   <v name="MAGPOS">      0.00000000      0.00000000      0.00000000</v>
   <i type="logical" name="LNICSALL"> T  </i>
   <i type="logical" name="ORBITALMAG"> F  </i>
   <i type="logical" name="LMAGBLOCH"> F  </i>
   <i type="logical" name="LCHIMAG"> F  </i>
   <i type="logical" name="LGAUGE"> T  </i>
   <i type="int" name="MAGATOM">     0</i>
   <v name="MAGDIPOL">      0.00000000      0.00000000      0.00000000</v>
   <v name="AVECCONST">      0.00000000      0.00000000      0.00000000</v>
  </separator>
  <separator name="response functions" >
   <i type="logical" name="LADDER"> F  </i>
   <i type="logical" name="LFXC"> F  </i>
   <i type="logical" name="LHARTREE"> T  </i>
   <i type="int" name="IBSE">     0</i>
   <v type="int" name="KPOINT">    -1     0     0     0</v>
   <i type="logical" name="LTCTE"> F  </i>
   <i type="logical" name="LTETE"> F  </i>
   <i type="logical" name="LTRIPLET"> F  </i>
   <i type="logical" name="LFXCEPS"> F  </i>
   <i type="logical" name="LFXHEG"> F  </i>
   <i type="int" name="NATURALO">     0</i>
   <i type="logical" name="L2ORDER"> F  </i>
   <i type="logical" name="LUSEW"> F  </i>
   <i name="ENCUTGW">     -2.00000000</i>
   <i name="ENCUTGWSOFT">     -2.00000000</i>
   <i name="ENCUTLF">     -1.00000000</i>
   <i type="int" name="LMAXMP2">    -1</i>
   <i name="SCISSOR">      0.00000000</i>
   <i type="int" name="NOMEGA">     0</i>
   <i type="int" name="NOMEGAR">     0</i>
   <i type="int" name="NBANDSGW">    -1</i>
   <i type="int" name="NBANDSO">    -1</i>
   <i type="int" name="NBANDSV">    -1</i>
   <i type="int" name="NELM">     1</i>
   <i type="int" name="NELMHF">     1</i>
   <i type="int" name="DIM">     3</i>
   <i type="int" name="ANTIRES">     0</i>
   <i name="OMEGAMAX">    -30.00000000</i>
   <i name="OMEGAMIN">    -30.00000000</i>
   <i name="OMEGATL">   -200.00000000</i>
   <i type="int" name="OMEGAGRID">     0</i>
   <i name="CSHIFT">     -0.10000000</i>
   <i type="logical" name="SELFENERGY"> F  </i>
   <i type="logical" name="LSPECTRAL"> F  </i>
   <i type="logical" name="LSPECTRALGW"> F  </i>
   <i type="logical" name="LSINGLES"> F  </i>
   <i type="logical" name="LFERMIGW"> F  </i>
   <i type="logical" name="ODDONLYGW"> F  </i>
   <i type="logical" name="EVENONLYGW"> F  </i>
   <i type="int" name="NKREDLFX">     1</i>
   <i type="int" name="NKREDLFY">     1</i>
   <i type="int" name="NKREDLFZ">     1</i>
   <i type="int" name="MAXMEM">  1800</i>
   <i type="int" name="TELESCOPE">     0</i>
   <i type="int" name="TAUPAR">     1</i>
   <i type="int" name="OMEGAPAR">    -1</i>
   <i name="LAMBDA">      1.00000000</i>
  </separator>
  <separator name="External order field" >
   <i name="OFIELD_KAPPA">      0.00000000</i>
   <v name="OFIELD_K">      0.00000000      0.00000000      0.00000000</v>
   <i name="OFIELD_Q6_NEAR">      0.00000000</i>
   <i name="OFIELD_Q6_FAR">      0.00000000</i>
   <i name="OFIELD_A">      0.00000000</i>
  </separator>
 </parameters>
 <atominfo>
  <atoms>       4 </atoms>
  <types>       1 </types>
  <array name="atoms" >
   <dimension dim="1">ion</dimension>
   <field type="string">element</field>
   <field type="int">atomtype</field>
   <set>
    <rc><c>Cu</c><c>   1</c></rc>
    <rc><c>Cu</c><c>   1</c></rc>
    <rc><c>Cu</c><c>   1</c></rc>
    <rc><c>Cu</c><c>   1</c></rc>
   </set>
  </array>
  <array name="atomtypes" >
   <dimension dim="1">type</dimension>
   <field type="int">atomspertype</field>
   <field type="string">element</field>
   <field>mass</field>
   <field>valence</field>
   <field type="string">pseudopotential</field>
   <set>
    <rc><c>   4</c><c>Cu</c><c>     63.54600000</c><c>     11.00000000</c><c>  PAW_PBE Cu 22Jun2005                  </c></rc>
   </set>
  </array>
 </atominfo>
 <structure name="initialpos" >
  <crystal>
   <varray name="basis" >
    <v>       3.48966667       0.00000000       0.00000000 </v>
    <v>       0.00000000       3.48966667       0.00000000 </v>
    <v>       0.00000000       0.00000000       3.48966667 </v>
   </varray>
   <i name="volume">     42.49637006 </i>
   <varray name="rec_basis" >
    <v>       0.28656032       0.00000000       0.00000000 </v>
    <v>       0.00000000       0.28656032       0.00000000 </v>
    <v>       0.00000000       0.00000000       0.28656032 </v>
   </varray>
  </crystal>
  <varray name="positions" >
   <v>       0.00000000       0.00000000       0.00000000 </v>
   <v>       0.00000000       0.50000000       0.50000000 </v>
   <v>       0.50000000       0.00000000       0.50000000 </v>
   <v>       0.50000000       0.50000000       0.00000000 </v>
  </varray>
 </structure>
 <calculation>
  <scstep>
   <time name="dav">    0.61    0.62</time>
   <time name="total">    0.66    0.66</time>
   <energy>
    <i name="alphaZ">    275.34701375 </i>
    <i name="ewald">  -4578.40043344 </i>
    <i name="hartreedc">  -1364.23857661 </i>
    <i name="XCdc">    184.39568602 </i>
    <i name="pawpsdc">   4912.82663951 </i>
    <i name="pawaedc">  -5336.19386850 </i>
    <i name="eentropy">      0.00014922 </i>
    <i name="bandstr">    491.43040585 </i>
    <i name="atom">   5563.83056080 </i>
    <i name="e_fr_energy">    148.99757660 </i>
    <i name="e_wo_entrp">    148.99742738 </i>
    <i name="e_0_energy">    148.99752686 </i>
   </energy>
  </scstep>
  <scstep>
   <time name="dav">    0.44    0.45</time>
   <time name="total">    0.45    0.45</time>
   <energy>
    <i name="e_fr_energy">    -13.77236270 </i>
    <i name="e_wo_entrp">    -13.77307437 </i>
    <i name="e_0_energy">    -13.77259992 </i>
   </energy>
  </scstep>
  <scstep>
   <time name="dav">    0.70    0.70</time>
   <time name="total">    0.70    0.71</time>
   <energy>
    <i name="e_fr_energy">    -18.27476763 </i>
    <i name="e_wo_entrp">    -18.27513889 </i>
    <i name="e_0_energy">    -18.27489138 </i>
   </energy>
  </scstep>
  <scstep>
   <time name="dav">    0.48    0.48</time>
   <time name="total">    0.48    0.49</time>
   <energy>
    <i name="e_fr_energy">    -18.30513704 </i>
    <i name="e_wo_entrp">    -18.30548844 </i>
    <i name="e_0_energy">    -18.30525417 </i>
   </energy>
  </scstep>
  <scstep>
   <time name="dav">    0.73    0.73</time>
   <time name="total">    0.75    0.75</time>
   <energy>
    <i name="e_fr_energy">    -18.30553524 </i>
    <i name="e_wo_entrp">    -18.30588654 </i>
    <i name="e_0_energy">    -18.30565234 </i>
   </energy>
  </scstep>
  <scstep>
   <time name="dav">    0.64    0.64</time>
   <time name="total">    0.65    0.66</time>
   <energy>
    <i name="e_fr_energy">    -15.75066081 </i>
    <i name="e_wo_entrp">    -15.74853152 </i>
    <i name="e_0_energy">    -15.74995105 </i>
   </energy>
  </scstep>
  <scstep>
   <time name="dav">    0.58    0.58</time>
   <time name="total">    0.59    0.60</time>
   <energy>
    <i name="e_fr_energy">    -14.63315397 </i>
    <i name="e_wo_entrp">    -14.63167498 </i>
    <i name="e_0_energy">    -14.63266097 </i>
   </energy>
  </scstep>
  <scstep>
   <time name="dav">    0.63    0.63</time>
   <time name="total">    0.64    0.65</time>
   <energy>
    <i name="e_fr_energy">    -14.57520013 </i>
    <i name="e_wo_entrp">    -14.57387415 </i>
    <i name="e_0_energy">    -14.57475814 </i>
   </energy>
  </scstep>
  <scstep>
   <time name="dav">    0.72    0.72</time>
   <time name="total">    0.79    0.86</time>
   <energy>
    <i name="e_fr_energy">    -14.57051715 </i>
    <i name="e_wo_entrp">    -14.56932536 </i>
    <i name="e_0_energy">    -14.57011989 </i>
   </energy>
  </scstep>
  <scstep>
   <time name="dav">    0.48    0.48</time>
   <time name="total">    0.48    0.49</time>
   <energy>
    <i name="alphaZ">    275.34701375 </i>
    <i name="ewald">  -4578.40043344 </i>
    <i name="hartreedc">  -1267.04259645 </i>
    <i name="XCdc">    179.67420857 </i>
    <i name="pawpsdc">   5438.71119808 </i>
    <i name="pawaedc">  -5873.28798962 </i>
    <i name="eentropy">     -0.00119271 </i>
    <i name="bandstr">    246.59866775 </i>
    <i name="atom">   5563.83056080 </i>
    <i name="e_fr_energy">    -14.57056328 </i>
    <i name="e_wo_entrp">    -14.56937057 </i>
    <i name="e_0_energy">    -14.57016571 </i>
   </energy>
  </scstep>
  <structure>
   <crystal>
    <varray name="basis" >
     <v>       3.48966667       0.00000000       0.00000000 </v>
     <v>       0.00000000       3.48966667       0.00000000 </v>
     <v>       0.00000000       0.00000000       3.48966667 </v>
    </varray>
    <i name="volume">     42.49637006 </i>
    <varray name="rec_basis" >
     <v>       0.28656032       0.00000000       0.00000000 </v>
     <v>       0.00000000       0.28656032       0.00000000 </v>
     <v>       0.00000000       0.00000000       0.28656032 </v>
    </varray>
   </crystal>
   <varray name="positions" >
    <v>       0.00000000       0.00000000       0.00000000 </v>
    <v>       0.00000000       0.50000000       0.50000000 </v>
    <v>       0.50000000       0.00000000       0.50000000 </v>
    <v>       0.50000000       0.50000000       0.00000000 </v>
   </varray>
  </structure>
  <varray name="forces" >
   <v>      -0.00000000      -0.00000000       0.00000000 </v>
   <v>      -0.00000000      -0.00000000      -0.00000000 </v>
   <v>       0.00000000       0.00000000      -0.00000000 </v>
   <v>       0.00000000      -0.00000000       0.00000000 </v>
  </varray>
  <varray name="stress" >
   <v>     221.06971777      -0.00000000      -0.00000000 </v>
   <v>       0.00000000     221.06971777       0.00000000 </v>
   <v>       0.00000000       0.00000000     221.06971777 </v>
  </varray>
  <energy>
   <i name="e_fr_energy">    -14.57056328 </i>
   <i name="e_wo_entrp">    -14.57016571 </i>
   <i name="e_0_energy">     -0.00119271 </i>
  </energy>
  <time name="totalsc">    6.44    6.55</time>
  <eigenvalues>
   <array>
    <dimension dim="1">band</dimension>
    <dimension dim="2">kpoint</dimension>
    <dimension dim="3">spin</dimension>
    <field>eigene</field>
    <field>occ</field>
    <set>
     <set comment="spin 1">
      <set comment="kpoint 1">
       <r>   -1.2166    1.0000 </r>
       <r>    3.4317    1.0000 </r>
       <r>    3.4317    1.0000 </r>
       <r>    3.4317    1.0000 </r>
       <r>    3.9618    1.0000 </r>
       <r>    3.9618    1.0000 </r>
       <r>    3.9618    1.0000 </r>
       <r>    5.6034    1.0000 </r>
       <r>    5.6034    1.0000 </r>
       <r>    5.6034    1.0000 </r>
       <r>    6.5778    1.0000 </r>
       <r>    6.5778    1.0000 </r>
       <r>    7.2235    1.0000 </r>
       <r>    7.2235    1.0000 </r>
       <r>    7.2235    1.0000 </r>
       <r>    7.4073    1.0000 </r>
       <r>    7.4073    1.0000 </r>
       <r>    7.4073    1.0000 </r>
       <r>    7.4073    1.0000 </r>
       <r>    7.4073    1.0000 </r>
       <r>    7.4073    1.0000 </r>
       <r>   10.3931   -0.0000 </r>
       <r>   10.3931   -0.0000 </r>
       <r>   10.3931   -0.0000 </r>
       <r>   16.8607    0.0000 </r>
       <r>   16.8607    0.0000 </r>
       <r>   16.8607    0.0000 </r>
       <r>   22.9004    0.0000 </r>
       <r>   22.9004    0.0000 </r>
       <r>   22.9004    0.0000 </r>
       <r>   22.9004    0.0000 </r>
       <r>   22.9004    0.0000 </r>
       <r>   22.9004    0.0000 </r>
       <r>   27.6770    0.0000 </r>
       <r>   27.6770    0.0000 </r>
       <r>   27.6770    0.0000 </r>
       <r>   31.0688    0.0000 </r>
       <r>   31.0688    0.0000 </r>
       <r>   31.0688    0.0000 </r>
       <r>   32.4086    0.0000 </r>
       <r>   35.8918    0.0000 </r>
       <r>   35.8918    0.0000 </r>
       <r>   35.8918    0.0000 </r>
       <r>   38.5229    0.0000 </r>
       <r>   38.5229    0.0000 </r>
       <r>   38.5229    0.0000 </r>
       <r>   42.2731    0.0000 </r>
       <r>   47.9819    0.0000 </r>
      </set>
      <set comment="kpoint 2">
       <r>   -1.0547    1.0000 </r>
       <r>    3.4328    1.0000 </r>
       <r>    3.5106    1.0000 </r>
       <r>    3.5106    1.0000 </r>
       <r>    4.0081    1.0000 </r>
       <r>    4.0109    1.0000 </r>
       <r>    4.0109    1.0000 </r>
       <r>    5.5504    1.0000 </r>
       <r>    5.6451    1.0000 </r>
       <r>    5.6451    1.0000 </r>
       <r>    6.5298    1.0000 </r>
       <r>    6.5969    1.0000 </r>
       <r>    7.0950    1.0000 </r>
       <r>    7.0950    1.0000 </r>
       <r>    7.1613    1.0000 </r>
       <r>    7.1613    1.0000 </r>
       <r>    7.2035    1.0000 </r>
       <r>    7.3342    1.0000 </r>
       <r>    7.3342    1.0000 </r>
       <r>    7.4073    1.0000 </r>
       <r>    7.4073    1.0000 </r>
       <r>    9.5397   -0.0000 </r>
       <r>   10.8463   -0.0000 </r>
       <r>   10.8463   -0.0000 </r>
       <r>   16.9098    0.0000 </r>
       <r>   16.9098    0.0000 </r>
       <r>   18.0168    0.0000 </r>
       <r>   21.9396    0.0000 </r>
       <r>   21.9396    0.0000 </r>
       <r>   22.3048    0.0000 </r>
       <r>   22.3048    0.0000 </r>
       <r>   23.1438    0.0000 </r>
       <r>   23.1438    0.0000 </r>
       <r>   27.7373    0.0000 </r>
       <r>   28.8254    0.0000 </r>
       <r>   28.8254    0.0000 </r>
       <r>   31.1305    0.0000 </r>
       <r>   31.9694    0.0000 </r>
       <r>   32.0243    0.0000 </r>
       <r>   32.0243    0.0000 </r>
       <r>   34.4655    0.0000 </r>
       <r>   34.4655    0.0000 </r>
       <r>   35.1728    0.0000 </r>
       <r>   39.3094    0.0000 </r>
       <r>   39.9774    0.0000 </r>
       <r>   39.9774    0.0000 </r>
       <r>   42.7801    0.0000 </r>
       <r>   45.4364    0.0000 </r>
      </set>
      <set comment="kpoint 3">
       <r>   -0.5762    1.0000 </r>
       <r>    3.3783    1.0000 </r>
       <r>    3.7271    1.0000 </r>
       <r>    3.7271    1.0000 </r>
       <r>    4.1422    1.0000 </r>
       <r>    4.1602    1.0000 </r>
       <r>    4.1602    1.0000 </r>
       <r>    5.3991    1.0000 </r>
       <r>    5.7677    1.0000 </r>
       <r>    5.7677    1.0000 </r>
       <r>    6.3960    1.0000 </r>
       <r>    6.4648    1.0000 </r>
       <r>    6.4648    1.0000 </r>
       <r>    6.6517    1.0000 </r>
       <r>    6.9863    1.0000 </r>
       <r>    6.9863    1.0000 </r>
       <r>    7.1331    1.0000 </r>
       <r>    7.1331    1.0000 </r>
       <r>    7.1460    1.0000 </r>
       <r>    7.4074    1.0000 </r>
       <r>    7.4074    1.0000 </r>
       <r>    7.9656    1.0000 </r>
       <r>   11.8974    0.0000 </r>
       <r>   11.8974    0.0000 </r>
       <r>   17.0654    0.0000 </r>
       <r>   17.0654    0.0000 </r>
       <r>   20.1456    0.0000 </r>
       <r>   20.1456    0.0000 </r>
       <r>   20.5410    0.0000 </r>
       <r>   21.0724    0.0000 </r>
       <r>   21.0724    0.0000 </r>
       <r>   23.8532    0.0000 </r>
       <r>   23.8532    0.0000 </r>
       <r>   27.9216    0.0000 </r>
       <r>   31.0601    0.0000 </r>
       <r>   31.1851    0.0000 </r>
       <r>   31.1851    0.0000 </r>
       <r>   31.3392    0.0000 </r>
       <r>   32.3009    0.0000 </r>
       <r>   32.3009    0.0000 </r>
       <r>   33.6818    0.0000 </r>
       <r>   34.3199    0.0000 </r>
       <r>   34.3199    0.0000 </r>
       <r>   40.4148    0.0000 </r>
       <r>   41.2521    0.0000 </r>
       <r>   42.2237    0.0000 </r>
       <r>   42.2237    0.0000 </r>
       <r>   46.0542    0.0000 </r>
      </set>
      <set comment="kpoint 4">
       <r>    0.1930    1.0000 </r>
       <r>    3.0591    1.0000 </r>
       <r>    4.0140    1.0000 </r>
       <r>    4.0140    1.0000 </r>
       <r>    4.3510    1.0000 </r>
       <r>    4.4130    1.0000 </r>
       <r>    4.4130    1.0000 </r>
       <r>    5.1709    1.0000 </r>
       <r>    5.8156    1.0000 </r>
       <r>    5.8156    1.0000 </r>
       <r>    5.9653    1.0000 </r>
       <r>    5.9653    1.0000 </r>
       <r>    6.2108    1.0000 </r>
       <r>    6.6746    1.0000 </r>
       <r>    6.7361    1.0000 </r>
       <r>    6.7460    1.0000 </r>
       <r>    6.7460    1.0000 </r>
       <r>    6.8487    1.0000 </r>
       <r>    6.8487    1.0000 </r>
       <r>    7.0585    1.0000 </r>
       <r>    7.4074    1.0000 </r>
       <r>    7.4074    1.0000 </r>
       <r>   13.2425    0.0000 </r>
       <r>   13.2425    0.0000 </r>
       <r>   17.3457    0.0000 </r>
       <r>   17.3457    0.0000 </r>
       <r>   18.2659    0.0000 </r>
       <r>   18.2659    0.0000 </r>
       <r>   19.8515    0.0000 </r>
       <r>   19.8515    0.0000 </r>
       <r>   23.5788    0.0000 </r>
       <r>   24.9759    0.0000 </r>
       <r>   24.9759    0.0000 </r>
       <r>   28.2395    0.0000 </r>
       <r>   30.1299    0.0000 </r>
       <r>   30.1718    0.0000 </r>
       <r>   30.1718    0.0000 </r>
       <r>   31.7716    0.0000 </r>
       <r>   31.9359    0.0000 </r>
       <r>   34.0158    0.0000 </r>
       <r>   34.0158    0.0000 </r>
       <r>   36.9082    0.0000 </r>
       <r>   37.2320    0.0000 </r>
       <r>   37.2320    0.0000 </r>
       <r>   43.8768    0.0000 </r>
       <r>   44.2881    0.0000 </r>
       <r>   44.2885    0.0000 </r>
       <r>   44.5044    0.0000 </r>
      </set>
      <set comment="kpoint 5">
       <r>    1.1900    1.0000 </r>
       <r>    2.2570    1.0000 </r>
       <r>    4.2381    1.0000 </r>
       <r>    4.2381    1.0000 </r>
       <r>    4.6120    1.0000 </r>
       <r>    4.7736    1.0000 </r>
       <r>    4.7736    1.0000 </r>
       <r>    4.8970    1.0000 </r>
       <r>    5.2431    1.0000 </r>
       <r>    5.2431    1.0000 </r>
       <r>    6.0528    1.0000 </r>
       <r>    6.0950    1.0000 </r>
       <r>    6.2271    1.0000 </r>
       <r>    6.2271    1.0000 </r>
       <r>    6.5317    1.0000 </r>
       <r>    6.5317    1.0000 </r>
       <r>    6.5513    1.0000 </r>
       <r>    6.5513    1.0000 </r>
       <r>    6.8406    1.0000 </r>
       <r>    6.9520    1.0000 </r>
       <r>    7.4077    1.0000 </r>
       <r>    7.4077    1.0000 </r>
       <r>   14.7772    0.0000 </r>
       <r>   14.7772    0.0000 </r>
       <r>   16.4609    0.0000 </r>
       <r>   16.4609    0.0000 </r>
       <r>   17.7193    0.0000 </r>
       <r>   17.7193    0.0000 </r>
       <r>   18.9586    0.0000 </r>
       <r>   18.9586    0.0000 </r>
       <r>   26.4459    0.0000 </r>
       <r>   26.4459    0.0000 </r>
       <r>   26.7704    0.0000 </r>
       <r>   28.1983    0.0000 </r>
       <r>   28.1983    0.0000 </r>
       <r>   28.7053    0.0000 </r>
       <r>   29.3339    0.0000 </r>
       <r>   29.7056    0.0000 </r>
       <r>   32.5927    0.0000 </r>
       <r>   34.1692    0.0000 </r>
       <r>   37.1667    0.0000 </r>
       <r>   37.1667    0.0000 </r>
       <r>   40.0730    0.0000 </r>
       <r>   40.0730    0.0000 </r>
       <r>   40.6002    0.0000 </r>
       <r>   40.6002    0.0000 </r>
       <r>   46.3313    0.0000 </r>
       <r>   46.3313    0.0000 </r>
      </set>
      <set comment="kpoint 6">
       <r>   -0.8942    1.0000 </r>
       <r>    3.5149    1.0000 </r>
       <r>    3.5149    1.0000 </r>
       <r>    3.5864    1.0000 </r>
       <r>    4.0555    1.0000 </r>
       <r>    4.0555    1.0000 </r>
       <r>    4.0572    1.0000 </r>
       <r>    5.5216    1.0000 </r>
       <r>    5.6646    1.0000 </r>
       <r>    5.6787    1.0000 </r>
       <r>    6.5175    1.0000 </r>
       <r>    6.5881    1.0000 </r>
       <r>    6.8892    1.0000 </r>
       <r>    6.9629    1.0000 </r>
       <r>    6.9629    1.0000 </r>
       <r>    7.1038    1.0000 </r>
       <r>    7.1747    1.0000 </r>
       <r>    7.1747    1.0000 </r>
       <r>    7.3339    1.0000 </r>
       <r>    7.3339    1.0000 </r>
       <r>    7.3606    1.0000 </r>
       <r>    9.9897   -0.0000 </r>
       <r>    9.9897   -0.0000 </r>
       <r>   11.2401   -0.0000 </r>
       <r>   16.9549    0.0000 </r>
       <r>   18.0952    0.0000 </r>
       <r>   18.0952    0.0000 </r>
       <r>   20.2015    0.0000 </r>
       <r>   22.1586    0.0000 </r>
       <r>   22.1586    0.0000 </r>
       <r>   22.5300    0.0000 </r>
       <r>   22.5300    0.0000 </r>
       <r>   23.3751    0.0000 </r>
       <r>   28.7953    0.0000 </r>
       <r>   28.9121    0.0000 </r>
       <r>   28.9121    0.0000 </r>
       <r>   31.0755    0.0000 </r>
       <r>   32.0972    0.0000 </r>
       <r>   32.0972    0.0000 </r>
       <r>   32.6966    0.0000 </r>
       <r>   33.2756    0.0000 </r>
       <r>   34.7053    0.0000 </r>
       <r>   36.3482    0.0000 </r>
       <r>   38.6719    0.0000 </r>
       <r>   39.2854    0.0000 </r>
       <r>   41.6222    0.0000 </r>
       <r>   44.1992    0.0000 </r>
       <r>   44.4217    0.0000 </r>
      </set>
      <set comment="kpoint 7">
       <r>   -0.4199    1.0000 </r>
       <r>    3.4700    1.0000 </r>
       <r>    3.7412    1.0000 </r>
       <r>    3.7952    1.0000 </r>
       <r>    4.1851    1.0000 </r>
       <r>    4.1959    1.0000 </r>
       <r>    4.1998    1.0000 </r>
       <r>    5.3884    1.0000 </r>
       <r>    5.7748    1.0000 </r>
       <r>    5.7749    1.0000 </r>
       <r>    6.3329    1.0000 </r>
       <r>    6.3653    1.0000 </r>
       <r>    6.4080    1.0000 </r>
       <r>    6.6451    1.0000 </r>
       <r>    6.6498    1.0000 </r>
       <r>    6.9414    1.0000 </r>
       <r>    6.9966    1.0000 </r>
       <r>    7.1210    1.0000 </r>
       <r>    7.1324    1.0000 </r>
       <r>    7.3332    1.0000 </r>
       <r>    7.3355    1.0000 </r>
       <r>    8.5003    1.0000 </r>
       <r>   10.9551   -0.0000 </r>
       <r>   12.2116    0.0000 </r>
       <r>   17.0578    0.0000 </r>
       <r>   18.3384    0.0000 </r>
       <r>   18.3475    0.0000 </r>
       <r>   20.3490    0.0000 </r>
       <r>   20.6372    0.0000 </r>
       <r>   21.2709    0.0000 </r>
       <r>   22.7907    0.0000 </r>
       <r>   23.0063    0.0000 </r>
       <r>   23.1938    0.0000 </r>
       <r>   29.1790    0.0000 </r>
       <r>   29.5393    0.0000 </r>
       <r>   30.1748    0.0000 </r>
       <r>   30.6490    0.0000 </r>
       <r>   31.2933    0.0000 </r>
       <r>   32.3382    0.0000 </r>
       <r>   33.8851    0.0000 </r>
       <r>   34.3951    0.0000 </r>
       <r>   35.4042    0.0000 </r>
       <r>   35.8090    0.0000 </r>
       <r>   39.6726    0.0000 </r>
       <r>   39.9090    0.0000 </r>
       <r>   41.6685    0.0000 </r>
       <r>   43.7853    0.0000 </r>
       <r>   46.4897    0.0000 </r>
      </set>
      <set comment="kpoint 8">
       <r>    0.3417    1.0000 </r>
       <r>    3.1652    1.0000 </r>
       <r>    4.0443    1.0000 </r>
       <r>    4.0770    1.0000 </r>
       <r>    4.3862    1.0000 </r>
       <r>    4.4227    1.0000 </r>
       <r>    4.4438    1.0000 </r>
       <r>    5.1727    1.0000 </r>
       <r>    5.7033    1.0000 </r>
       <r>    5.7753    1.0000 </r>
       <r>    5.8944    1.0000 </r>
       <r>    5.9684    1.0000 </r>
       <r>    6.1812    1.0000 </r>
       <r>    6.2807    1.0000 </r>
       <r>    6.7171    1.0000 </r>
       <r>    6.7504    1.0000 </r>
       <r>    6.7581    1.0000 </r>
       <r>    6.8477    1.0000 </r>
       <r>    6.9674    1.0000 </r>
       <r>    7.3300    1.0000 </r>
       <r>    7.3323    1.0000 </r>
       <r>    7.4516    1.0000 </r>
       <r>   12.1249    0.0000 </r>
       <r>   13.5054    0.0000 </r>
       <r>   16.3373    0.0000 </r>
       <r>   17.6249    0.0000 </r>
       <r>   18.4691    0.0000 </r>
       <r>   18.7385    0.0000 </r>
       <r>   20.0583    0.0000 </r>
       <r>   21.8213    0.0000 </r>
       <r>   23.5463    0.0000 </r>
       <r>   23.7713    0.0000 </r>
       <r>   24.3809    0.0000 </r>
       <r>   27.9622    0.0000 </r>
       <r>   28.7262    0.0000 </r>
       <r>   29.6465    0.0000 </r>
       <r>   32.5328    0.0000 </r>
       <r>   32.7559    0.0000 </r>
       <r>   32.8138    0.0000 </r>
       <r>   33.2374    0.0000 </r>
       <r>   34.1344    0.0000 </r>
       <r>   37.2253    0.0000 </r>
       <r>   37.3062    0.0000 </r>
       <r>   38.7988    0.0000 </r>
       <r>   42.3288    0.0000 </r>
       <r>   42.7156    0.0000 </r>
       <r>   43.6286    0.0000 </r>
       <r>   44.4153    0.0000 </r>
      </set>
      <set comment="kpoint 9">
       <r>    1.3270    1.0000 </r>
       <r>    2.3787    1.0000 </r>
       <r>    4.2907    1.0000 </r>
       <r>    4.3048    1.0000 </r>
       <r>    4.6376    1.0000 </r>
       <r>    4.7336    1.0000 </r>
       <r>    4.7900    1.0000 </r>
       <r>    4.9108    1.0000 </r>
       <r>    5.1602    1.0000 </r>
       <r>    5.2375    1.0000 </r>
       <r>    5.8810    1.0000 </r>
       <r>    5.8861    1.0000 </r>
       <r>    6.2276    1.0000 </r>
       <r>    6.3610    1.0000 </r>
       <r>    6.5312    1.0000 </r>
       <r>    6.5401    1.0000 </r>
       <r>    6.5568    1.0000 </r>
       <r>    6.6524    1.0000 </r>
       <r>    6.8868    1.0000 </r>
       <r>    7.0620    1.0000 </r>
       <r>    7.3295    1.0000 </r>
       <r>    7.3309    1.0000 </r>
       <r>   13.4193    0.0000 </r>
       <r>   14.8293    0.0000 </r>
       <r>   15.0088    0.0000 </r>
       <r>   16.6737    0.0000 </r>
       <r>   18.0599    0.0000 </r>
       <r>   18.7154    0.0000 </r>
       <r>   19.7523    0.0000 </r>
       <r>   20.6338    0.0000 </r>
       <r>   25.0158    0.0000 </r>
       <r>   25.3719    0.0000 </r>
       <r>   26.4370    0.0000 </r>
       <r>   26.9648    0.0000 </r>
       <r>   27.1772    0.0000 </r>
       <r>   30.3457    0.0000 </r>
       <r>   30.4143    0.0000 </r>
       <r>   31.3082    0.0000 </r>
       <r>   33.6419    0.0000 </r>
       <r>   35.0345    0.0000 </r>
       <r>   35.8095    0.0000 </r>
       <r>   37.2914    0.0000 </r>
       <r>   38.6221    0.0000 </r>
       <r>   40.7286    0.0000 </r>
       <r>   41.6131    0.0000 </r>
       <r>   41.6650    0.0000 </r>
       <r>   44.5858    0.0000 </r>
       <r>   45.1904    0.0000 </r>
      </set>
      <set comment="kpoint 10">
       <r>    0.0410    1.0000 </r>
       <r>    3.7250    1.0000 </r>
       <r>    3.7250    1.0000 </r>
       <r>    3.9812    1.0000 </r>
       <r>    4.3032    1.0000 </r>
       <r>    4.3145    1.0000 </r>
       <r>    4.3145    1.0000 </r>
       <r>    5.3183    1.0000 </r>
       <r>    5.7981    1.0000 </r>
       <r>    5.8382    1.0000 </r>
       <r>    6.0136    1.0000 </r>
       <r>    6.0136    1.0000 </r>
       <r>    6.0679    1.0000 </r>
       <r>    6.3710    1.0000 </r>
       <r>    6.7032    1.0000 </r>
       <r>    6.8111    1.0000 </r>
       <r>    6.9643    1.0000 </r>
       <r>    6.9643    1.0000 </r>
       <r>    7.1303    1.0000 </r>
       <r>    7.1303    1.0000 </r>
       <r>    7.2232    1.0000 </r>
       <r>    9.3842   -0.0000 </r>
       <r>    9.3842   -0.0000 </r>
       <r>   13.0481    0.0000 </r>
       <r>   16.0293    0.0000 </r>
       <r>   17.5274    0.0000 </r>
       <r>   20.8750    0.0000 </r>
       <r>   20.8750    0.0000 </r>
       <r>   20.9362    0.0000 </r>
       <r>   20.9362    0.0000 </r>
       <r>   21.9257    0.0000 </r>
       <r>   21.9257    0.0000 </r>
       <r>   24.7289    0.0000 </r>
       <r>   27.6872    0.0000 </r>
       <r>   28.6250    0.0000 </r>
       <r>   29.4296    0.0000 </r>
       <r>   31.6212    0.0000 </r>
       <r>   31.6212    0.0000 </r>
       <r>   34.6383    0.0000 </r>
       <r>   34.6383    0.0000 </r>
       <r>   35.3926    0.0000 </r>
       <r>   37.5648    0.0000 </r>
       <r>   37.5692    0.0000 </r>
       <r>   38.5031    0.0000 </r>
       <r>   39.1346    0.0000 </r>
       <r>   40.3385    0.0000 </r>
       <r>   45.5602    0.0000 </r>
       <r>   45.7399    0.0000 </r>
      </set>
      <set comment="kpoint 11">
       <r>    0.7780    1.0000 </r>
       <r>    3.4622    1.0000 </r>
       <r>    4.0775    1.0000 </r>
       <r>    4.2407    1.0000 </r>
       <r>    4.4622    1.0000 </r>
       <r>    4.4916    1.0000 </r>
       <r>    4.5316    1.0000 </r>
       <r>    5.1601    1.0000 </r>
       <r>    5.4470    1.0000 </r>
       <r>    5.6484    1.0000 </r>
       <r>    5.6817    1.0000 </r>
       <r>    5.8038    1.0000 </r>
       <r>    5.9981    1.0000 </r>
       <r>    6.2976    1.0000 </r>
       <r>    6.6270    1.0000 </r>
       <r>    6.7394    1.0000 </r>
       <r>    6.8277    1.0000 </r>
       <r>    6.8460    1.0000 </r>
       <r>    6.8704    1.0000 </r>
       <r>    7.1280    1.0000 </r>
       <r>    7.1603    1.0000 </r>
       <r>    8.1611    1.0000 </r>
       <r>   10.3806   -0.0000 </r>
       <r>   14.2356    0.0000 </r>
       <r>   14.2964    0.0000 </r>
       <r>   17.8370    0.0000 </r>
       <r>   19.0556    0.0000 </r>
       <r>   20.3081    0.0000 </r>
       <r>   21.7016    0.0000 </r>
       <r>   21.8510    0.0000 </r>
       <r>   22.5411    0.0000 </r>
       <r>   24.2681    0.0000 </r>
       <r>   24.5591    0.0000 </r>
       <r>   25.9715    0.0000 </r>
       <r>   26.7782    0.0000 </r>
       <r>   30.9745    0.0000 </r>
       <r>   32.1771    0.0000 </r>
       <r>   34.4909    0.0000 </r>
       <r>   34.5807    0.0000 </r>
       <r>   35.0438    0.0000 </r>
       <r>   35.0981    0.0000 </r>
       <r>   37.1860    0.0000 </r>
       <r>   38.4480    0.0000 </r>
       <r>   39.5263    0.0000 </r>
       <r>   40.6988    0.0000 </r>
       <r>   41.5619    0.0000 </r>
       <r>   42.4422    0.0000 </r>
       <r>   44.3020    0.0000 </r>
      </set>
      <set comment="kpoint 12">
       <r>    1.7246    1.0000 </r>
       <r>    2.7246    1.0000 </r>
       <r>    4.3984    1.0000 </r>
       <r>    4.4901    1.0000 </r>
       <r>    4.6245    1.0000 </r>
       <r>    4.7106    1.0000 </r>
       <r>    4.8352    1.0000 </r>
       <r>    4.9447    1.0000 </r>
       <r>    4.9752    1.0000 </r>
       <r>    5.2162    1.0000 </r>
       <r>    5.5904    1.0000 </r>
       <r>    5.7042    1.0000 </r>
       <r>    6.2395    1.0000 </r>
       <r>    6.3694    1.0000 </r>
       <r>    6.4891    1.0000 </r>
       <r>    6.5340    1.0000 </r>
       <r>    6.5349    1.0000 </r>
       <r>    6.5918    1.0000 </r>
       <r>    7.1124    1.0000 </r>
       <r>    7.1280    1.0000 </r>
       <r>    7.1353    1.0000 </r>
       <r>    7.4757    1.0000 </r>
       <r>   11.4968   -0.0000 </r>
       <r>   12.7835    0.0000 </r>
       <r>   15.6665    0.0000 </r>
       <r>   17.2848    0.0000 </r>
       <r>   18.4088    0.0000 </r>
       <r>   19.2395    0.0000 </r>
       <r>   22.4652    0.0000 </r>
       <r>   23.0280    0.0000 </r>
       <r>   23.4949    0.0000 </r>
       <r>   23.7380    0.0000 </r>
       <r>   24.4130    0.0000 </r>
       <r>   25.1465    0.0000 </r>
       <r>   27.6207    0.0000 </r>
       <r>   31.1354    0.0000 </r>
       <r>   32.9660    0.0000 </r>
       <r>   33.8524    0.0000 </r>
       <r>   33.9673    0.0000 </r>
       <r>   35.8407    0.0000 </r>
       <r>   36.8641    0.0000 </r>
       <r>   36.9378    0.0000 </r>
       <r>   37.6647    0.0000 </r>
       <r>   41.1133    0.0000 </r>
       <r>   41.1806    0.0000 </r>
       <r>   42.3781    0.0000 </r>
       <r>   42.7336    0.0000 </r>
       <r>   43.4939    0.0000 </r>
      </set>
      <set comment="kpoint 13">
       <r>    1.4682    1.0000 </r>
       <r>    3.8789    1.0000 </r>
       <r>    3.8789    1.0000 </r>
       <r>    4.4056    1.0000 </r>
       <r>    4.5756    1.0000 </r>
       <r>    4.6645    1.0000 </r>
       <r>    4.6645    1.0000 </r>
       <r>    5.0985    1.0000 </r>
       <r>    5.2731    1.0000 </r>
       <r>    5.2731    1.0000 </r>
       <r>    5.4342    1.0000 </r>
       <r>    5.7258    1.0000 </r>
       <r>    6.0982    1.0000 </r>
       <r>    6.2225    1.0000 </r>
       <r>    6.4859    1.0000 </r>
       <r>    6.6213    1.0000 </r>
       <r>    6.6213    1.0000 </r>
       <r>    6.8484    1.0000 </r>
       <r>    6.8484    1.0000 </r>
       <r>    7.0043    1.0000 </r>
       <r>    7.1304    1.0000 </r>
       <r>    8.9583    0.8456 </r>
       <r>    8.9583    0.8456 </r>
       <r>   12.5078    0.0000 </r>
       <r>   15.3208    0.0000 </r>
       <r>   18.2788    0.0000 </r>
       <r>   19.9707    0.0000 </r>
       <r>   19.9707    0.0000 </r>
       <r>   21.1222    0.0000 </r>
       <r>   21.1222    0.0000 </r>
       <r>   24.1732    0.0000 </r>
       <r>   24.8226    0.0000 </r>
       <r>   24.8226    0.0000 </r>
       <r>   24.9958    0.0000 </r>
       <r>   26.8073    0.0000 </r>
       <r>   30.1108    0.0000 </r>
       <r>   35.0793    0.0000 </r>
       <r>   35.0844    0.0000 </r>
       <r>   35.0844    0.0000 </r>
       <r>   36.0329    0.0000 </r>
       <r>   37.0473    0.0000 </r>
       <r>   37.0473    0.0000 </r>
       <r>   37.0849    0.0000 </r>
       <r>   39.9551    0.0000 </r>
       <r>   40.1150    0.0000 </r>
       <r>   41.4726    0.0000 </r>
       <r>   41.4726    0.0000 </r>
       <r>   44.6723    0.0000 </r>
      </set>
      <set comment="kpoint 14">
       <r>    2.3368    1.0000 </r>
       <r>    3.2295    1.0000 </r>
       <r>    4.2720    1.0000 </r>
       <r>    4.4513    1.0000 </r>
       <r>    4.7542    1.0000 </r>
       <r>    4.8225    1.0000 </r>
       <r>    4.8964    1.0000 </r>
       <r>    4.9664    1.0000 </r>
       <r>    4.9780    1.0000 </r>
       <r>    5.1660    1.0000 </r>
       <r>    5.3669    1.0000 </r>
       <r>    5.5762    1.0000 </r>
       <r>    6.2428    1.0000 </r>
       <r>    6.2888    1.0000 </r>
       <r>    6.3752    1.0000 </r>
       <r>    6.4162    1.0000 </r>
       <r>    6.4286    1.0000 </r>
       <r>    6.5519    1.0000 </r>
       <r>    6.8641    1.0000 </r>
       <r>    6.9087    1.0000 </r>
       <r>    7.4951    1.0000 </r>
       <r>    8.0390    1.0000 </r>
       <r>    9.8919   -0.0000 </r>
       <r>   11.0480   -0.0000 </r>
       <r>   16.6713    0.0000 </r>
       <r>   18.2327    0.0000 </r>
       <r>   18.9565    0.0000 </r>
       <r>   19.9015    0.0000 </r>
       <r>   21.1555    0.0000 </r>
       <r>   22.1595    0.0000 </r>
       <r>   22.5649    0.0000 </r>
       <r>   23.4512    0.0000 </r>
       <r>   25.6570    0.0000 </r>
       <r>   26.6366    0.0000 </r>
       <r>   28.2492    0.0000 </r>
       <r>   31.8464    0.0000 </r>
       <r>   32.1222    0.0000 </r>
       <r>   35.2470    0.0000 </r>
       <r>   35.8999    0.0000 </r>
       <r>   36.2133    0.0000 </r>
       <r>   36.7198    0.0000 </r>
       <r>   36.8421    0.0000 </r>
       <r>   38.2805    0.0000 </r>
       <r>   40.7618    0.0000 </r>
       <r>   40.9666    0.0000 </r>
       <r>   41.7489    0.0000 </r>
       <r>   41.9713    0.0000 </r>
       <r>   42.9593    0.0000 </r>
      </set>
      <set comment="kpoint 15">
       <r>    3.0682    1.0000 </r>
       <r>    3.7668    1.0000 </r>
       <r>    3.7668    1.0000 </r>
       <r>    4.1870    1.0000 </r>
       <r>    4.9538    1.0000 </r>
       <r>    4.9538    1.0000 </r>
       <r>    4.9849    1.0000 </r>
       <r>    5.0153    1.0000 </r>
       <r>    5.0766    1.0000 </r>
       <r>    5.2042    1.0000 </r>
       <r>    5.2042    1.0000 </r>
       <r>    5.4369    1.0000 </r>
       <r>    6.1629    1.0000 </r>
       <r>    6.2489    1.0000 </r>
       <r>    6.2572    1.0000 </r>
       <r>    6.2572    1.0000 </r>
       <r>    6.4069    1.0000 </r>
       <r>    6.6063    1.0000 </r>
       <r>    6.6063    1.0000 </r>
       <r>    6.7221    1.0000 </r>
       <r>    8.0060    1.0000 </r>
       <r>    8.7484    1.0009 </r>
       <r>    8.7484    1.0009 </r>
       <r>    9.7120   -0.0000 </r>
       <r>   17.9507    0.0000 </r>
       <r>   19.4554    0.0000 </r>
       <r>   19.4554    0.0000 </r>
       <r>   19.7504    0.0000 </r>
       <r>   20.8160    0.0000 </r>
       <r>   20.8160    0.0000 </r>
       <r>   20.9082    0.0000 </r>
       <r>   21.9987    0.0000 </r>
       <r>   29.0932    0.0000 </r>
       <r>   29.0932    0.0000 </r>
       <r>   29.4604    0.0000 </r>
       <r>   31.1996    0.0000 </r>
       <r>   32.5759    0.0000 </r>
       <r>   32.8549    0.0000 </r>
       <r>   33.8653    0.0000 </r>
       <r>   33.8653    0.0000 </r>
       <r>   39.0982    0.0000 </r>
       <r>   39.0982    0.0000 </r>
       <r>   39.4265    0.0000 </r>
       <r>   41.1970    0.0000 </r>
       <r>   42.3304    0.0000 </r>
       <r>   42.8224    0.0000 </r>
       <r>   42.9287    0.0000 </r>
       <r>   43.3727    0.0000 </r>
      </set>
      <set comment="kpoint 16">
       <r>   -0.7352    1.0000 </r>
       <r>    3.5930    1.0000 </r>
       <r>    3.5930    1.0000 </r>
       <r>    3.5930    1.0000 </r>
       <r>    4.1004    1.0000 </r>
       <r>    4.1004    1.0000 </r>
       <r>    4.1004    1.0000 </r>
       <r>    5.4962    1.0000 </r>
       <r>    5.6935    1.0000 </r>
       <r>    5.6935    1.0000 </r>
       <r>    6.5461    1.0000 </r>
       <r>    6.5461    1.0000 </r>
       <r>    6.7774    1.0000 </r>
       <r>    6.7774    1.0000 </r>
       <r>    6.7774    1.0000 </r>
       <r>    7.0362    1.0000 </r>
       <r>    7.0362    1.0000 </r>
       <r>    7.0362    1.0000 </r>
       <r>    7.3439    1.0000 </r>
       <r>    7.3439    1.0000 </r>
       <r>    7.3439    1.0000 </r>
       <r>   10.3574   -0.0000 </r>
       <r>   10.3574   -0.0000 </r>
       <r>   10.3574   -0.0000 </r>
       <r>   18.1680    0.0000 </r>
       <r>   18.1680    0.0000 </r>
       <r>   18.1680    0.0000 </r>
       <r>   20.4118    0.0000 </r>
       <r>   20.4118    0.0000 </r>
       <r>   20.4118    0.0000 </r>
       <r>   23.6096    0.0000 </r>
       <r>   23.6096    0.0000 </r>
       <r>   23.6096    0.0000 </r>
       <r>   28.8660    0.0000 </r>
       <r>   28.8660    0.0000 </r>
       <r>   28.8660    0.0000 </r>
       <r>   29.6751    0.0000 </r>
       <r>   33.3623    0.0000 </r>
       <r>   33.3623    0.0000 </r>
       <r>   33.3623    0.0000 </r>
       <r>   33.3975    0.0000 </r>
       <r>   34.8531    0.0000 </r>
       <r>   34.8531    0.0000 </r>
       <r>   40.1031    0.0000 </r>
       <r>   40.1031    0.0000 </r>
       <r>   40.2329    0.0000 </r>
       <r>   44.7917    0.0000 </r>
       <r>   44.7917    0.0000 </r>
      </set>
      <set comment="kpoint 17">
       <r>   -0.2657    1.0000 </r>
       <r>    3.5546    1.0000 </r>
       <r>    3.8082    1.0000 </r>
       <r>    3.8082    1.0000 </r>
       <r>    4.2264    1.0000 </r>
       <r>    4.2350    1.0000 </r>
       <r>    4.2350    1.0000 </r>
       <r>    5.3794    1.0000 </r>
       <r>    5.7753    1.0000 </r>
       <r>    5.7812    1.0000 </r>
       <r>    6.2487    1.0000 </r>
       <r>    6.2487    1.0000 </r>
       <r>    6.4390    1.0000 </r>
       <r>    6.4498    1.0000 </r>
       <r>    6.6277    1.0000 </r>
       <r>    6.8602    1.0000 </r>
       <r>    6.8931    1.0000 </r>
       <r>    6.8931    1.0000 </r>
       <r>    7.2850    1.0000 </r>
       <r>    7.3167    1.0000 </r>
       <r>    7.3167    1.0000 </r>
       <r>    8.8397    1.0211 </r>
       <r>   11.2240   -0.0000 </r>
       <r>   11.2240   -0.0000 </r>
       <r>   18.1796    0.0000 </r>
       <r>   18.1796    0.0000 </r>
       <r>   18.7372    0.0000 </r>
       <r>   18.7372    0.0000 </r>
       <r>   20.6226    0.0000 </r>
       <r>   21.1290    0.0000 </r>
       <r>   23.2109    0.0000 </r>
       <r>   23.2109    0.0000 </r>
       <r>   24.2957    0.0000 </r>
       <r>   27.8066    0.0000 </r>
       <r>   29.0868    0.0000 </r>
       <r>   30.2604    0.0000 </r>
       <r>   30.2604    0.0000 </r>
       <r>   32.4163    0.0000 </r>
       <r>   32.6606    0.0000 </r>
       <r>   33.6398    0.0000 </r>
       <r>   35.8979    0.0000 </r>
       <r>   35.8979    0.0000 </r>
       <r>   36.2766    0.0000 </r>
       <r>   38.2753    0.0000 </r>
       <r>   41.5710    0.0000 </r>
       <r>   42.0064    0.0000 </r>
       <r>   42.2670    0.0000 </r>
       <r>   45.9901    0.0000 </r>
      </set>
      <set comment="kpoint 18">
       <r>    0.4870    1.0000 </r>
       <r>    3.2607    1.0000 </r>
       <r>    4.1017    1.0000 </r>
       <r>    4.1017    1.0000 </r>
       <r>    4.4227    1.0000 </r>
       <r>    4.4500    1.0000 </r>
       <r>    4.4500    1.0000 </r>
       <r>    5.1782    1.0000 </r>
       <r>    5.6821    1.0000 </r>
       <r>    5.6821    1.0000 </r>
       <r>    5.8685    1.0000 </r>
       <r>    5.9268    1.0000 </r>
       <r>    6.0088    1.0000 </r>
       <r>    6.3639    1.0000 </r>
       <r>    6.6226    1.0000 </r>
       <r>    6.6954    1.0000 </r>
       <r>    6.6954    1.0000 </r>
       <r>    6.7494    1.0000 </r>
       <r>    7.1818    1.0000 </r>
       <r>    7.2919    1.0000 </r>
       <r>    7.2919    1.0000 </r>
       <r>    7.6591    1.0000 </r>
       <r>   12.3235    0.0000 </r>
       <r>   12.3235    0.0000 </r>
       <r>   16.6599    0.0000 </r>
       <r>   16.6599    0.0000 </r>
       <r>   18.9791    0.0000 </r>
       <r>   18.9791    0.0000 </r>
       <r>   21.8627    0.0000 </r>
       <r>   21.9983    0.0000 </r>
       <r>   21.9983    0.0000 </r>
       <r>   23.8848    0.0000 </r>
       <r>   25.3886    0.0000 </r>
       <r>   26.0548    0.0000 </r>
       <r>   29.4895    0.0000 </r>
       <r>   30.5260    0.0000 </r>
       <r>   31.1825    0.0000 </r>
       <r>   32.8462    0.0000 </r>
       <r>   32.8462    0.0000 </r>
       <r>   34.1549    0.0000 </r>
       <r>   34.5676    0.0000 </r>
       <r>   37.6663    0.0000 </r>
       <r>   38.8114    0.0000 </r>
       <r>   38.8114    0.0000 </r>
       <r>   41.0870    0.0000 </r>
       <r>   43.5904    0.0000 </r>
       <r>   43.7547    0.0000 </r>
       <r>   43.7547    0.0000 </r>
      </set>
      <set comment="kpoint 19">
       <r>    1.4583    1.0000 </r>
       <r>    2.4912    1.0000 </r>
       <r>    4.3568    1.0000 </r>
       <r>    4.3568    1.0000 </r>
       <r>    4.6667    1.0000 </r>
       <r>    4.7050    1.0000 </r>
       <r>    4.7050    1.0000 </r>
       <r>    4.9294    1.0000 </r>
       <r>    5.2104    1.0000 </r>
       <r>    5.2104    1.0000 </r>
       <r>    5.7800    1.0000 </r>
       <r>    5.8208    1.0000 </r>
       <r>    6.1263    1.0000 </r>
       <r>    6.3662    1.0000 </r>
       <r>    6.5220    1.0000 </r>
       <r>    6.5220    1.0000 </r>
       <r>    6.5339    1.0000 </r>
       <r>    6.8954    1.0000 </r>
       <r>    6.9537    1.0000 </r>
       <r>    7.0460    1.0000 </r>
       <r>    7.2813    1.0000 </r>
       <r>    7.2813    1.0000 </r>
       <r>   13.5073    0.0000 </r>
       <r>   13.5073    0.0000 </r>
       <r>   15.1827    0.0000 </r>
       <r>   15.1827    0.0000 </r>
       <r>   19.6495    0.0000 </r>
       <r>   19.6495    0.0000 </r>
       <r>   20.8210    0.0000 </r>
       <r>   20.8210    0.0000 </r>
       <r>   23.0606    0.0000 </r>
       <r>   24.4662    0.0000 </r>
       <r>   26.8304    0.0000 </r>
       <r>   27.1015    0.0000 </r>
       <r>   28.5619    0.0000 </r>
       <r>   29.7509    0.0000 </r>
       <r>   30.1828    0.0000 </r>
       <r>   31.7575    0.0000 </r>
       <r>   34.9723    0.0000 </r>
       <r>   35.8036    0.0000 </r>
       <r>   35.8036    0.0000 </r>
       <r>   36.1620    0.0000 </r>
       <r>   39.5224    0.0000 </r>
       <r>   39.5224    0.0000 </r>
       <r>   42.5813    0.0000 </r>
       <r>   42.5813    0.0000 </r>
       <r>   43.3738    0.0000 </r>
       <r>   45.0209    0.0000 </r>
      </set>
      <set comment="kpoint 20">
       <r>    0.1882    1.0000 </r>
       <r>    3.7869    1.0000 </r>
       <r>    3.7869    1.0000 </r>
       <r>    3.9887    1.0000 </r>
       <r>    4.3408    1.0000 </r>
       <r>    4.3512    1.0000 </r>
       <r>    4.3512    1.0000 </r>
       <r>    5.3206    1.0000 </r>
       <r>    5.7954    1.0000 </r>
       <r>    5.8174    1.0000 </r>
       <r>    5.9540    1.0000 </r>
       <r>    5.9540    1.0000 </r>
       <r>    5.9814    1.0000 </r>
       <r>    6.4412    1.0000 </r>
       <r>    6.6720    1.0000 </r>
       <r>    6.7106    1.0000 </r>
       <r>    6.7371    1.0000 </r>
       <r>    6.7371    1.0000 </r>
       <r>    7.2602    1.0000 </r>
       <r>    7.2602    1.0000 </r>
       <r>    7.2619    1.0000 </r>
       <r>    9.5901   -0.0000 </r>
       <r>    9.5901   -0.0000 </r>
       <r>   11.9151    0.0000 </r>
       <r>   16.3753    0.0000 </r>
       <r>   18.8120    0.0000 </r>
       <r>   18.9980    0.0000 </r>
       <r>   18.9980    0.0000 </r>
       <r>   21.1307    0.0000 </r>
       <r>   21.1307    0.0000 </r>
       <r>   23.8151    0.0000 </r>
       <r>   23.8151    0.0000 </r>
       <r>   24.9405    0.0000 </r>
       <r>   25.8182    0.0000 </r>
       <r>   29.4899    0.0000 </r>
       <r>   30.5279    0.0000 </r>
       <r>   30.5279    0.0000 </r>
       <r>   30.6896    0.0000 </r>
       <r>   34.4282    0.0000 </r>
       <r>   35.9442    0.0000 </r>
       <r>   36.1767    0.0000 </r>
       <r>   36.1767    0.0000 </r>
       <r>   38.5945    0.0000 </r>
       <r>   38.6406    0.0000 </r>
       <r>   39.4558    0.0000 </r>
       <r>   41.9629    0.0000 </r>
       <r>   43.5791    0.0000 </r>
       <r>   45.3961    0.0000 </r>
      </set>
      <set comment="kpoint 21">
       <r>    0.9122    1.0000 </r>
       <r>    3.5211    1.0000 </r>
       <r>    4.1019    1.0000 </r>
       <r>    4.2328    1.0000 </r>
       <r>    4.4948    1.0000 </r>
       <r>    4.5351    1.0000 </r>
       <r>    4.5465    1.0000 </r>
       <r>    5.1809    1.0000 </r>
       <r>    5.4723    1.0000 </r>
       <r>    5.6081    1.0000 </r>
       <r>    5.6507    1.0000 </r>
       <r>    5.7972    1.0000 </r>
       <r>    5.9142    1.0000 </r>
       <r>    6.4265    1.0000 </r>
       <r>    6.5065    1.0000 </r>
       <r>    6.5409    1.0000 </r>
       <r>    6.5939    1.0000 </r>
       <r>    6.8418    1.0000 </r>
       <r>    7.1435    1.0000 </r>
       <r>    7.1956    1.0000 </r>
       <r>    7.1971    1.0000 </r>
       <r>    8.2612    1.0000 </r>
       <r>   10.5163   -0.0000 </r>
       <r>   12.7716    0.0000 </r>
       <r>   14.7416    0.0000 </r>
       <r>   17.2497    0.0000 </r>
       <r>   19.3193    0.0000 </r>
       <r>   19.8947    0.0000 </r>
       <r>   21.6234    0.0000 </r>
       <r>   22.5809    0.0000 </r>
       <r>   24.0192    0.0000 </r>
       <r>   24.1038    0.0000 </r>
       <r>   24.7349    0.0000 </r>
       <r>   24.8912    0.0000 </r>
       <r>   28.9364    0.0000 </r>
       <r>   31.0118    0.0000 </r>
       <r>   31.0443    0.0000 </r>
       <r>   33.1197    0.0000 </r>
       <r>   33.2560    0.0000 </r>
       <r>   35.6883    0.0000 </r>
       <r>   36.6735    0.0000 </r>
       <r>   37.9203    0.0000 </r>
       <r>   38.8067    0.0000 </r>
       <r>   39.6456    0.0000 </r>
       <r>   41.5462    0.0000 </r>
       <r>   41.8463    0.0000 </r>
       <r>   42.5948    0.0000 </r>
       <r>   44.1359    0.0000 </r>
      </set>
      <set comment="kpoint 22">
       <r>    1.8368    1.0000 </r>
       <r>    2.8059    1.0000 </r>
       <r>    4.4049    1.0000 </r>
       <r>    4.4964    1.0000 </r>
       <r>    4.5720    1.0000 </r>
       <r>    4.6833    1.0000 </r>
       <r>    4.7567    1.0000 </r>
       <r>    4.9820    1.0000 </r>
       <r>    5.1750    1.0000 </r>
       <r>    5.2838    1.0000 </r>
       <r>    5.5764    1.0000 </r>
       <r>    5.6932    1.0000 </r>
       <r>    6.0619    1.0000 </r>
       <r>    6.2658    1.0000 </r>
       <r>    6.4156    1.0000 </r>
       <r>    6.4424    1.0000 </r>
       <r>    6.6065    1.0000 </r>
       <r>    6.9192    1.0000 </r>
       <r>    7.0755    1.0000 </r>
       <r>    7.1572    1.0000 </r>
       <r>    7.1579    1.0000 </r>
       <r>    7.4576    1.0000 </r>
       <r>   11.5686   -0.0000 </r>
       <r>   12.6774    0.0000 </r>
       <r>   14.5185    0.0000 </r>
       <r>   15.7242    0.0000 </r>
       <r>   20.0931    0.0000 </r>
       <r>   21.0463    0.0000 </r>
       <r>   21.1161    0.0000 </r>
       <r>   22.4263    0.0000 </r>
       <r>   22.6282    0.0000 </r>
       <r>   23.6477    0.0000 </r>
       <r>   25.8497    0.0000 </r>
       <r>   27.3178    0.0000 </r>
       <r>   27.7127    0.0000 </r>
       <r>   30.9594    0.0000 </r>
       <r>   31.7859    0.0000 </r>
       <r>   33.0883    0.0000 </r>
       <r>   33.8596    0.0000 </r>
       <r>   35.6006    0.0000 </r>
       <r>   37.4084    0.0000 </r>
       <r>   38.3047    0.0000 </r>
       <r>   38.3113    0.0000 </r>
       <r>   40.2285    0.0000 </r>
       <r>   40.8164    0.0000 </r>
       <r>   42.7003    0.0000 </r>
       <r>   43.1853    0.0000 </r>
       <r>   43.3746    0.0000 </r>
      </set>
      <set comment="kpoint 23">
       <r>    1.5802    1.0000 </r>
       <r>    3.8621    1.0000 </r>
       <r>    3.8621    1.0000 </r>
       <r>    4.3157    1.0000 </r>
       <r>    4.6411    1.0000 </r>
       <r>    4.7227    1.0000 </r>
       <r>    4.7227    1.0000 </r>
       <r>    5.1469    1.0000 </r>
       <r>    5.3282    1.0000 </r>
       <r>    5.3282    1.0000 </r>
       <r>    5.4759    1.0000 </r>
       <r>    5.7281    1.0000 </r>
       <r>    5.9344    1.0000 </r>
       <r>    6.3709    1.0000 </r>
       <r>    6.4008    1.0000 </r>
       <r>    6.4008    1.0000 </r>
       <r>    6.4222    1.0000 </r>
       <r>    7.0438    1.0000 </r>
       <r>    7.0438    1.0000 </r>
       <r>    7.0854    1.0000 </r>
       <r>    7.0922    1.0000 </r>
       <r>    9.0151    0.4071 </r>
       <r>    9.0151    0.4071 </r>
       <r>   12.3294    0.0000 </r>
       <r>   14.2953    0.0000 </r>
       <r>   18.1171    0.0000 </r>
       <r>   18.1171    0.0000 </r>
       <r>   19.9010    0.0000 </r>
       <r>   22.1999    0.0000 </r>
       <r>   23.2008    0.0000 </r>
       <r>   23.2008    0.0000 </r>
       <r>   24.9768    0.0000 </r>
       <r>   24.9768    0.0000 </r>
       <r>   26.9886    0.0000 </r>
       <r>   27.1932    0.0000 </r>
       <r>   30.1534    0.0000 </r>
       <r>   33.5817    0.0000 </r>
       <r>   33.5817    0.0000 </r>
       <r>   34.3484    0.0000 </r>
       <r>   36.1191    0.0000 </r>
       <r>   37.5568    0.0000 </r>
       <r>   37.7250    0.0000 </r>
       <r>   38.6307    0.0000 </r>
       <r>   38.6307    0.0000 </r>
       <r>   41.7561    0.0000 </r>
       <r>   41.7561    0.0000 </r>
       <r>   42.7675    0.0000 </r>
       <r>   44.2455    0.0000 </r>
      </set>
      <set comment="kpoint 24">
       <r>    2.4104    1.0000 </r>
       <r>    3.2476    1.0000 </r>
       <r>    4.1543    1.0000 </r>
       <r>    4.3018    1.0000 </r>
       <r>    4.8103    1.0000 </r>
       <r>    4.8871    1.0000 </r>
       <r>    4.9111    1.0000 </r>
       <r>    5.0555    1.0000 </r>
       <r>    5.1814    1.0000 </r>
       <r>    5.3159    1.0000 </r>
       <r>    5.3971    1.0000 </r>
       <r>    5.5871    1.0000 </r>
       <r>    6.0125    1.0000 </r>
       <r>    6.1817    1.0000 </r>
       <r>    6.2583    1.0000 </r>
       <r>    6.2845    1.0000 </r>
       <r>    6.5533    1.0000 </r>
       <r>    6.8105    1.0000 </r>
       <r>    6.9829    1.0000 </r>
       <r>    6.9998    1.0000 </r>
       <r>    7.4515    1.0000 </r>
       <r>    8.0191    1.0000 </r>
       <r>    9.9186   -0.0000 </r>
       <r>   11.0343   -0.0000 </r>
       <r>   15.2632    0.0000 </r>
       <r>   16.5703    0.0000 </r>
       <r>   19.2438    0.0000 </r>
       <r>   20.6075    0.0000 </r>
       <r>   20.7512    0.0000 </r>
       <r>   21.8723    0.0000 </r>
       <r>   24.3111    0.0000 </r>
       <r>   25.6431    0.0000 </r>
       <r>   25.7898    0.0000 </r>
       <r>   26.7797    0.0000 </r>
       <r>   28.3557    0.0000 </r>
       <r>   31.8483    0.0000 </r>
       <r>   32.1456    0.0000 </r>
       <r>   34.2255    0.0000 </r>
       <r>   34.8095    0.0000 </r>
       <r>   34.9882    0.0000 </r>
       <r>   37.6378    0.0000 </r>
       <r>   38.0524    0.0000 </r>
       <r>   38.1577    0.0000 </r>
       <r>   40.0306    0.0000 </r>
       <r>   40.9159    0.0000 </r>
       <r>   41.3945    0.0000 </r>
       <r>   42.9880    0.0000 </r>
       <r>   43.9416    0.0000 </r>
      </set>
      <set comment="kpoint 25">
       <r>    3.0760    1.0000 </r>
       <r>    3.6920    1.0000 </r>
       <r>    3.6920    1.0000 </r>
       <r>    4.0414    1.0000 </r>
       <r>    5.0597    1.0000 </r>
       <r>    5.1010    1.0000 </r>
       <r>    5.1010    1.0000 </r>
       <r>    5.1164    1.0000 </r>
       <r>    5.2654    1.0000 </r>
       <r>    5.2654    1.0000 </r>
       <r>    5.2784    1.0000 </r>
       <r>    5.4634    1.0000 </r>
       <r>    5.9943    1.0000 </r>
       <r>    6.1004    1.0000 </r>
       <r>    6.1004    1.0000 </r>
       <r>    6.1185    1.0000 </r>
       <r>    6.5932    1.0000 </r>
       <r>    6.7696    1.0000 </r>
       <r>    6.7696    1.0000 </r>
       <r>    6.8460    1.0000 </r>
       <r>    7.9608    1.0000 </r>
       <r>    8.7250    1.0003 </r>
       <r>    8.7250    1.0003 </r>
       <r>    9.6952   -0.0000 </r>
       <r>   16.3479    0.0000 </r>
       <r>   17.6775    0.0000 </r>
       <r>   17.6775    0.0000 </r>
       <r>   19.0246    0.0000 </r>
       <r>   21.6794    0.0000 </r>
       <r>   22.8775    0.0000 </r>
       <r>   22.8775    0.0000 </r>
       <r>   24.1416    0.0000 </r>
       <r>   29.1989    0.0000 </r>
       <r>   29.1989    0.0000 </r>
       <r>   29.6077    0.0000 </r>
       <r>   31.1976    0.0000 </r>
       <r>   32.6859    0.0000 </r>
       <r>   32.7219    0.0000 </r>
       <r>   33.7181    0.0000 </r>
       <r>   33.7181    0.0000 </r>
       <r>   38.5446    0.0000 </r>
       <r>   38.5446    0.0000 </r>
       <r>   39.2547    0.0000 </r>
       <r>   39.4975    0.0000 </r>
       <r>   41.7148    0.0000 </r>
       <r>   41.7847    0.0000 </r>
       <r>   42.5741    0.0000 </r>
       <r>   42.5741    0.0000 </r>
      </set>
      <set comment="kpoint 26">
       <r>    0.6199    1.0000 </r>
       <r>    3.9418    1.0000 </r>
       <r>    3.9418    1.0000 </r>
       <r>    3.9418    1.0000 </r>
       <r>    4.4675    1.0000 </r>
       <r>    4.4675    1.0000 </r>
       <r>    4.4675    1.0000 </r>
       <r>    5.3073    1.0000 </r>
       <r>    5.7640    1.0000 </r>
       <r>    5.7640    1.0000 </r>
       <r>    5.7640    1.0000 </r>
       <r>    5.7950    1.0000 </r>
       <r>    5.7950    1.0000 </r>
       <r>    6.5005    1.0000 </r>
       <r>    6.5005    1.0000 </r>
       <r>    6.5005    1.0000 </r>
       <r>    6.6074    1.0000 </r>
       <r>    6.6074    1.0000 </r>
       <r>    7.2976    1.0000 </r>
       <r>    7.2976    1.0000 </r>
       <r>    7.2976    1.0000 </r>
       <r>   10.1301   -0.0000 </r>
       <r>   10.1301   -0.0000 </r>
       <r>   10.1301   -0.0000 </r>
       <r>   16.9840    0.0000 </r>
       <r>   16.9840    0.0000 </r>
       <r>   16.9840    0.0000 </r>
       <r>   21.4762    0.0000 </r>
       <r>   21.4762    0.0000 </r>
       <r>   21.4762    0.0000 </r>
       <r>   23.7755    0.0000 </r>
       <r>   25.5654    0.0000 </r>
       <r>   25.5654    0.0000 </r>
       <r>   25.5654    0.0000 </r>
       <r>   29.6852    0.0000 </r>
       <r>   29.6852    0.0000 </r>
       <r>   29.6852    0.0000 </r>
       <r>   32.6511    0.0000 </r>
       <r>   33.6790    0.0000 </r>
       <r>   33.6790    0.0000 </r>
       <r>   38.8762    0.0000 </r>
       <r>   38.8762    0.0000 </r>
       <r>   38.8762    0.0000 </r>
       <r>   39.9307    0.0000 </r>
       <r>   39.9307    0.0000 </r>
       <r>   40.3710    0.0000 </r>
       <r>   44.7155    0.0000 </r>
       <r>   44.7155    0.0000 </r>
      </set>
      <set comment="kpoint 27">
       <r>    1.3006    1.0000 </r>
       <r>    3.6619    1.0000 </r>
       <r>    4.1176    1.0000 </r>
       <r>    4.1176    1.0000 </r>
       <r>    4.6441    1.0000 </r>
       <r>    4.6441    1.0000 </r>
       <r>    4.6770    1.0000 </r>
       <r>    5.2383    1.0000 </r>
       <r>    5.5249    1.0000 </r>
       <r>    5.5249    1.0000 </r>
       <r>    5.5601    1.0000 </r>
       <r>    5.7720    1.0000 </r>
       <r>    5.8199    1.0000 </r>
       <r>    6.2701    1.0000 </r>
       <r>    6.3493    1.0000 </r>
       <r>    6.3493    1.0000 </r>
       <r>    6.6252    1.0000 </r>
       <r>    6.8091    1.0000 </r>
       <r>    7.2424    1.0000 </r>
       <r>    7.2424    1.0000 </r>
       <r>    7.2680    1.0000 </r>
       <r>    8.6112    1.0000 </r>
       <r>   10.8564   -0.0000 </r>
       <r>   10.8564   -0.0000 </r>
       <r>   15.2892    0.0000 </r>
       <r>   15.2892    0.0000 </r>
       <r>   17.8587    0.0000 </r>
       <r>   21.9519    0.0000 </r>
       <r>   22.0630    0.0000 </r>
       <r>   22.0630    0.0000 </r>
       <r>   24.5735    0.0000 </r>
       <r>   25.2607    0.0000 </r>
       <r>   25.2607    0.0000 </r>
       <r>   26.5769    0.0000 </r>
       <r>   30.0693    0.0000 </r>
       <r>   31.2670    0.0000 </r>
       <r>   31.2670    0.0000 </r>
       <r>   31.5348    0.0000 </r>
       <r>   31.5488    0.0000 </r>
       <r>   35.4711    0.0000 </r>
       <r>   37.1646    0.0000 </r>
       <r>   39.3625    0.0000 </r>
       <r>   40.6643    0.0000 </r>
       <r>   41.2599    0.0000 </r>
       <r>   41.2794    0.0000 </r>
       <r>   41.2794    0.0000 </r>
       <r>   43.1866    0.0000 </r>
       <r>   43.1866    0.0000 </r>
      </set>
      <set comment="kpoint 28">
       <r>    2.1524    1.0000 </r>
       <r>    3.0192    1.0000 </r>
       <r>    4.2463    1.0000 </r>
       <r>    4.2463    1.0000 </r>
       <r>    4.7561    1.0000 </r>
       <r>    4.7561    1.0000 </r>
       <r>    4.9088    1.0000 </r>
       <r>    5.1026    1.0000 </r>
       <r>    5.4068    1.0000 </r>
       <r>    5.4068    1.0000 </r>
       <r>    5.5344    1.0000 </r>
       <r>    5.6581    1.0000 </r>
       <r>    5.9096    1.0000 </r>
       <r>    6.0644    1.0000 </r>
       <r>    6.2443    1.0000 </r>
       <r>    6.2443    1.0000 </r>
       <r>    6.9066    1.0000 </r>
       <r>    7.0052    1.0000 </r>
       <r>    7.1661    1.0000 </r>
       <r>    7.1821    1.0000 </r>
       <r>    7.1821    1.0000 </r>
       <r>    7.5441    1.0000 </r>
       <r>   11.5520   -0.0000 </r>
       <r>   11.5520   -0.0000 </r>
       <r>   14.1106    0.0000 </r>
       <r>   14.1106    0.0000 </r>
       <r>   18.9897    0.0000 </r>
       <r>   20.3566    0.0000 </r>
       <r>   22.8625    0.0000 </r>
       <r>   22.8625    0.0000 </r>
       <r>   24.1518    0.0000 </r>
       <r>   24.1518    0.0000 </r>
       <r>   27.7532    0.0000 </r>
       <r>   27.9375    0.0000 </r>
       <r>   29.6047    0.0000 </r>
       <r>   30.1769    0.0000 </r>
       <r>   30.8209    0.0000 </r>
       <r>   32.7178    0.0000 </r>
       <r>   33.8433    0.0000 </r>
       <r>   33.8433    0.0000 </r>
       <r>   38.8812    0.0000 </r>
       <r>   38.8812    0.0000 </r>
       <r>   39.4331    0.0000 </r>
       <r>   40.0388    0.0000 </r>
       <r>   40.9305    0.0000 </r>
       <r>   41.6561    0.0000 </r>
       <r>   42.2813    0.0000 </r>
       <r>   42.8812    0.0000 </r>
      </set>
      <set comment="kpoint 29">
       <r>    1.8963    1.0000 </r>
       <r>    3.8086    1.0000 </r>
       <r>    3.8086    1.0000 </r>
       <r>    4.0761    1.0000 </r>
       <r>    4.8328    1.0000 </r>
       <r>    4.8979    1.0000 </r>
       <r>    4.8979    1.0000 </r>
       <r>    5.3039    1.0000 </r>
       <r>    5.4708    1.0000 </r>
       <r>    5.4708    1.0000 </r>
       <r>    5.5700    1.0000 </r>
       <r>    5.7262    1.0000 </r>
       <r>    5.7793    1.0000 </r>
       <r>    6.1342    1.0000 </r>
       <r>    6.1342    1.0000 </r>
       <r>    6.1530    1.0000 </r>
       <r>    6.6814    1.0000 </r>
       <r>    6.9944    1.0000 </r>
       <r>    7.2053    1.0000 </r>
       <r>    7.2225    1.0000 </r>
       <r>    7.2225    1.0000 </r>
       <r>    9.1919   -0.0116 </r>
       <r>    9.1919   -0.0116 </r>
       <r>   11.1241   -0.0000 </r>
       <r>   13.9506    0.0000 </r>
       <r>   16.1169    0.0000 </r>
       <r>   16.1169    0.0000 </r>
       <r>   20.1238    0.0000 </r>
       <r>   22.6928    0.0000 </r>
       <r>   25.0868    0.0000 </r>
       <r>   25.0868    0.0000 </r>
       <r>   26.2027    0.0000 </r>
       <r>   26.2027    0.0000 </r>
       <r>   27.5295    0.0000 </r>
       <r>   29.8879    0.0000 </r>
       <r>   30.2996    0.0000 </r>
       <r>   31.6850    0.0000 </r>
       <r>   31.6850    0.0000 </r>
       <r>   33.1909    0.0000 </r>
       <r>   35.0371    0.0000 </r>
       <r>   36.7382    0.0000 </r>
       <r>   38.4800    0.0000 </r>
       <r>   40.3389    0.0000 </r>
       <r>   40.3389    0.0000 </r>
       <r>   42.4525    0.0000 </r>
       <r>   42.6410    0.0000 </r>
       <r>   42.9693    0.0000 </r>
       <r>   43.0056    0.0000 </r>
      </set>
      <set comment="kpoint 30">
       <r>    2.6051    1.0000 </r>
       <r>    3.2865    1.0000 </r>
       <r>    3.9212    1.0000 </r>
       <r>    4.0067    1.0000 </r>
       <r>    4.9880    1.0000 </r>
       <r>    5.0297    1.0000 </r>
       <r>    5.1684    1.0000 </r>
       <r>    5.3118    1.0000 </r>
       <r>    5.4885    1.0000 </r>
       <r>    5.5156    1.0000 </r>
       <r>    5.5909    1.0000 </r>
       <r>    5.6077    1.0000 </r>
       <r>    5.8196    1.0000 </r>
       <r>    5.9462    1.0000 </r>
       <r>    6.0434    1.0000 </r>
       <r>    6.0491    1.0000 </r>
       <r>    6.8483    1.0000 </r>
       <r>    7.0955    1.0000 </r>
       <r>    7.1394    1.0000 </r>
       <r>    7.1424    1.0000 </r>
       <r>    7.3257    1.0000 </r>
       <r>    7.9859    1.0000 </r>
       <r>    9.9378   -0.0000 </r>
       <r>   10.7434   -0.0000 </r>
       <r>   13.8365    0.0000 </r>
       <r>   14.7295    0.0000 </r>
       <r>   17.2065    0.0000 </r>
       <r>   18.5428    0.0000 </r>
       <r>   23.5746    0.0000 </r>
       <r>   24.6534    0.0000 </r>
       <r>   26.2394    0.0000 </r>
       <r>   26.9985    0.0000 </r>
       <r>   27.2147    0.0000 </r>
       <r>   28.3712    0.0000 </r>
       <r>   28.6987    0.0000 </r>
       <r>   31.7060    0.0000 </r>
       <r>   32.2206    0.0000 </r>
       <r>   32.3852    0.0000 </r>
       <r>   33.6663    0.0000 </r>
       <r>   33.6828    0.0000 </r>
       <r>   37.6295    0.0000 </r>
       <r>   37.9443    0.0000 </r>
       <r>   39.1030    0.0000 </r>
       <r>   39.4257    0.0000 </r>
       <r>   39.4675    0.0000 </r>
       <r>   41.8504    0.0000 </r>
       <r>   43.3166    0.0000 </r>
       <r>   43.3640    0.0000 </r>
      </set>
      <set comment="kpoint 31">
       <r>    3.0951    1.0000 </r>
       <r>    3.5403    1.0000 </r>
       <r>    3.5403    1.0000 </r>
       <r>    3.7730    1.0000 </r>
       <r>    5.2073    1.0000 </r>
       <r>    5.3161    1.0000 </r>
       <r>    5.3161    1.0000 </r>
       <r>    5.5128    1.0000 </r>
       <r>    5.5359    1.0000 </r>
       <r>    5.5790    1.0000 </r>
       <r>    5.5790    1.0000 </r>
       <r>    5.6841    1.0000 </r>
       <r>    5.7877    1.0000 </r>
       <r>    5.8814    1.0000 </r>
       <r>    5.8814    1.0000 </r>
       <r>    5.9031    1.0000 </r>
       <r>    6.8478    1.0000 </r>
       <r>    7.0053    1.0000 </r>
       <r>    7.0053    1.0000 </r>
       <r>    7.0415    1.0000 </r>
       <r>    7.8181    1.0000 </r>
       <r>    8.6404    1.0000 </r>
       <r>    8.6404    1.0000 </r>
       <r>    9.5725   -0.0000 </r>
       <r>   14.5624    0.0000 </r>
       <r>   15.7231    0.0000 </r>
       <r>   15.7231    0.0000 </r>
       <r>   16.9981    0.0000 </r>
       <r>   24.5103    0.0000 </r>
       <r>   25.6868    0.0000 </r>
       <r>   25.6868    0.0000 </r>
       <r>   26.9291    0.0000 </r>
       <r>   29.5211    0.0000 </r>
       <r>   29.5211    0.0000 </r>
       <r>   30.0474    0.0000 </r>
       <r>   31.2145    0.0000 </r>
       <r>   32.3858    0.0000 </r>
       <r>   32.9799    0.0000 </r>
       <r>   33.2629    0.0000 </r>
       <r>   33.2629    0.0000 </r>
       <r>   37.4993    0.0000 </r>
       <r>   37.6673    0.0000 </r>
       <r>   37.6673    0.0000 </r>
       <r>   38.7720    0.0000 </r>
       <r>   39.8617    0.0000 </r>
       <r>   40.5712    0.0000 </r>
       <r>   41.1057    0.0000 </r>
       <r>   41.1057    0.0000 </r>
      </set>
      <set comment="kpoint 32">
       <r>    2.3542    1.0000 </r>
       <r>    3.7409    1.0000 </r>
       <r>    3.7409    1.0000 </r>
       <r>    3.7409    1.0000 </r>
       <r>    5.1089    1.0000 </r>
       <r>    5.1089    1.0000 </r>
       <r>    5.1089    1.0000 </r>
       <r>    5.5695    1.0000 </r>
       <r>    5.6761    1.0000 </r>
       <r>    5.6761    1.0000 </r>
       <r>    5.6761    1.0000 </r>
       <r>    5.6966    1.0000 </r>
       <r>    5.6966    1.0000 </r>
       <r>    5.9425    1.0000 </r>
       <r>    5.9425    1.0000 </r>
       <r>    5.9425    1.0000 </r>
       <r>    6.9225    1.0000 </r>
       <r>    6.9225    1.0000 </r>
       <r>    7.2640    1.0000 </r>
       <r>    7.2640    1.0000 </r>
       <r>    7.2640    1.0000 </r>
       <r>    9.4705   -0.0000 </r>
       <r>    9.4705   -0.0000 </r>
       <r>    9.4705   -0.0000 </r>
       <r>   14.5402    0.0000 </r>
       <r>   14.5402    0.0000 </r>
       <r>   14.5402    0.0000 </r>
       <r>   18.3100    0.0000 </r>
       <r>   25.7767    0.0000 </r>
       <r>   25.7767    0.0000 </r>
       <r>   25.7767    0.0000 </r>
       <r>   28.4207    0.0000 </r>
       <r>   28.4207    0.0000 </r>
       <r>   28.4207    0.0000 </r>
       <r>   30.6177    0.0000 </r>
       <r>   30.6177    0.0000 </r>
[...]
       <r>   38.1470    0.0000 </r>
       <r>   38.1470    0.0000 </r>
       <r>   38.3426    0.0000 </r>
       <r>   39.1679    0.0000 </r>
       <r>   39.5594    0.0000 </r>
       <r>   41.5539    0.0000 </r>
       <r>   41.5539    0.0000 </r>
      </set>
      <set comment="kpoint 34">
       <r>    3.1292    1.0000 </r>
       <r>    3.4039    1.0000 </r>
       <r>    3.4039    1.0000 </r>
       <r>    3.5213    1.0000 </r>
       <r>    5.3814    1.0000 </r>
       <r>    5.4410    1.0000 </r>
       <r>    5.4410    1.0000 </r>
       <r>    5.5751    1.0000 </r>
       <r>    5.6428    1.0000 </r>
       <r>    5.7010    1.0000 </r>
       <r>    5.7010    1.0000 </r>
       <r>    5.7204    1.0000 </r>
       <r>    6.1558    1.0000 </r>
       <r>    6.1558    1.0000 </r>
       <r>    6.1777    1.0000 </r>
       <r>    6.2204    1.0000 </r>
       <r>    7.0616    1.0000 </r>
       <r>    7.1832    1.0000 </r>
       <r>    7.1832    1.0000 </r>
       <r>    7.1868    1.0000 </r>
       <r>    7.5624    1.0000 </r>
       <r>    8.4606    1.0000 </r>
       <r>    8.4606    1.0000 </r>
       <r>    9.1176   -0.0341 </r>
       <r>   13.5111    0.0000 </r>
       <r>   14.2375    0.0000 </r>
       <r>   14.2375    0.0000 </r>
       <r>   15.3269    0.0000 </r>
       <r>   27.5014    0.0000 </r>
       <r>   28.5156    0.0000 </r>
       <r>   28.5156    0.0000 </r>
       <r>   29.7118    0.0000 </r>
       <r>   30.1424    0.0000 </r>
       <r>   30.1424    0.0000 </r>
       <r>   30.7679    0.0000 </r>
       <r>   31.3353    0.0000 </r>
       <r>   32.0637    0.0000 </r>
       <r>   32.5573    0.0000 </r>
       <r>   32.5573    0.0000 </r>
       <r>   33.2327    0.0000 </r>
       <r>   36.0334    0.0000 </r>
       <r>   37.0900    0.0000 </r>
       <r>   37.0900    0.0000 </r>
       <r>   37.6532    0.0000 </r>
       <r>   38.1582    0.0000 </r>
       <r>   38.9902    0.0000 </r>
       <r>   39.1475    0.0000 </r>
       <r>   39.1475    0.0000 </r>
      </set>
      <set comment="kpoint 35">
       <r>    3.1994    1.0000 </r>
       <r>    3.3270    1.0000 </r>
       <r>    3.3270    1.0000 </r>
       <r>    3.3270    1.0000 </r>
       <r>    5.5160    1.0000 </r>
       <r>    5.5160    1.0000 </r>
       <r>    5.5160    1.0000 </r>
       <r>    5.5807    1.0000 </r>
       <r>    5.5807    1.0000 </r>
       <r>    5.6074    1.0000 </r>
       <r>    5.6074    1.0000 </r>
       <r>    5.6074    1.0000 </r>
       <r>    6.7007    1.0000 </r>
       <r>    6.7007    1.0000 </r>
       <r>    6.7007    1.0000 </r>
       <r>    7.1426    1.0000 </r>
       <r>    7.2004    1.0000 </r>
       <r>    7.2004    1.0000 </r>
       <r>    7.2437    1.0000 </r>
       <r>    7.2437    1.0000 </r>
       <r>    7.2437    1.0000 </r>
       <r>    8.2189    1.0000 </r>
       <r>    8.2189    1.0000 </r>
       <r>    8.2189    1.0000 </r>
       <r>   13.4204    0.0000 </r>
       <r>   13.4204    0.0000 </r>
       <r>   13.4204    0.0000 </r>
       <r>   14.0972    0.0000 </r>
       <r>   30.0923    0.0000 </r>
       <r>   30.0923    0.0000 </r>
       <r>   30.0923    0.0000 </r>
       <r>   30.9478    0.0000 </r>
       <r>   31.7285    0.0000 </r>
       <r>   31.7285    0.0000 </r>
       <r>   31.7285    0.0000 </r>
       <r>   31.9355    0.0000 </r>
       <r>   31.9355    0.0000 </r>
       <r>   31.9355    0.0000 </r>
       <r>   32.7596    0.0000 </r>
       <r>   32.7596    0.0000 </r>
       <r>   35.8340    0.0000 </r>
       <r>   35.8340    0.0000 </r>
       <r>   36.7513    0.0000 </r>
       <r>   36.7513    0.0000 </r>
       <r>   36.7513    0.0000 </r>
       <r>   36.9186    0.0000 </r>
       <r>   36.9186    0.0000 </r>
       <r>   36.9186    0.0000 </r>
      </set>
     </set>
    </set>
   </array>
  </eigenvalues>
  <separator name="orbital magnetization" >
   <v name="MAGDIPOLOUT">      0.00000000      0.00000000      0.00000000</v>
  </separator>
  <dos>
   <i name="efermi">      9.00404115 </i>
   <total>
    <array>
     <dimension dim="1">gridpoints</dimension>
     <dimension dim="2">spin</dimension>
     <field>energy</field>
     <field>total</field>
     <field>integrated</field>
     <set>
      <set comment="spin 1">
       <r>    -3.6766     0.0000     0.0000 </r>
       <r>    -3.4962     0.0000     0.0000 </r>
       <r>    -3.3158     0.0000     0.0000 </r>
       <r>    -3.1354     0.0000     0.0000 </r>
       <r>    -2.9550     0.0000     0.0000 </r>
       <r>    -2.7746     0.0000     0.0000 </r>
       <r>    -2.5942     0.0000     0.0000 </r>
       <r>    -2.4138     0.0000     0.0000 </r>
       <r>    -2.2334     0.0000     0.0000 </r>
       <r>    -2.0530    -0.0000    -0.0000 </r>
       <r>    -1.8726    -0.0000    -0.0000 </r>
       <r>    -1.6922    -0.0000    -0.0000 </r>
       <r>    -1.5118    -0.0000    -0.0000 </r>
       <r>    -1.3314    -0.0006    -0.0001 </r>
       <r>    -1.1510     0.0128     0.0022 </r>
       <r>    -0.9707     0.0975     0.0198 </r>
       <r>    -0.7903     0.1966     0.0553 </r>
       <r>    -0.6099     0.1258     0.0780 </r>
       <r>    -0.4295     0.2177     0.1172 </r>
       <r>    -0.2491     0.4568     0.1996 </r>
       <r>    -0.0687     0.1221     0.2217 </r>
       <r>     0.1117     0.1854     0.2551 </r>
       <r>     0.2921     0.5141     0.3479 </r>
       <r>     0.4725     0.4547     0.4299 </r>
       <r>     0.6529     0.3044     0.4848 </r>
       <r>     0.8333     0.3725     0.5520 </r>
       <r>     1.0137     0.7760     0.6920 </r>
       <r>     1.1941     0.0064     0.6931 </r>
       <r>     1.3745     0.7294     0.8247 </r>
       <r>     1.5549     0.7243     0.9554 </r>
       <r>     1.7353     0.4520     1.0369 </r>
       <r>     1.9157     1.1328     1.2413 </r>
       <r>     2.0961     0.1663     1.2713 </r>
       <r>     2.2765     0.3964     1.3428 </r>
       <r>     2.4568     1.5698     1.6259 </r>
       <r>     2.6372     0.9490     1.7971 </r>
       <r>     2.8176     1.0521     1.9869 </r>
       <r>     2.9980     0.7166     2.1162 </r>
       <r>     3.1784     1.8801     2.4554 </r>
       <r>     3.3588     3.0411     3.0040 </r>
       <r>     3.5392     3.3882     3.6152 </r>
       <r>     3.7196     3.6614     4.2757 </r>
       <r>     3.9000     5.5430     5.2756 </r>
       <r>     4.0804     5.0217     6.1815 </r>
       <r>     4.2608     7.6500     7.5615 </r>
       <r>     4.4412     8.2232     9.0449 </r>
       <r>     4.6216     7.3720    10.3748 </r>
       <r>     4.8020     7.5934    11.7446 </r>
       <r>     4.9824     7.4653    13.0913 </r>
       <r>     5.1628     7.9863    14.5320 </r>
       <r>     5.3432    11.7805    16.6571 </r>
       <r>     5.5236    10.2224    18.5012 </r>
       <r>     5.7040    14.5667    21.1290 </r>
       <r>     5.8843    14.5792    23.7590 </r>
       <r>     6.0647     9.8706    25.5396 </r>
       <r>     6.2451     9.1411    27.1886 </r>
       <r>     6.4255    11.1597    29.2018 </r>
       <r>     6.6059    12.7731    31.5060 </r>
       <r>     6.7863    10.2820    33.3608 </r>
       <r>     6.9667    11.5978    35.4529 </r>
       <r>     7.1471    14.1344    38.0027 </r>
       <r>     7.3275    17.0860    41.0849 </r>
       <r>     7.5079     5.9523    42.1587 </r>
       <r>     7.6883     1.2347    42.3814 </r>
       <r>     7.8687     0.3283    42.4407 </r>
       <r>     8.0491     2.2462    42.8458 </r>
       <r>     8.2295     1.4545    43.1082 </r>
       <r>     8.4099     0.8078    43.2540 </r>
       <r>     8.5903     1.1971    43.4699 </r>
       <r>     8.7707     1.7965    43.7940 </r>
       <r>     8.9511     0.7632    43.9317 </r>
       <r>     9.1315     1.1938    44.1470 </r>
       <r>     9.3119     0.8135    44.2938 </r>
       <r>     9.4922     0.5877    44.3998 </r>
       <r>     9.6726     1.5386    44.6774 </r>
       <r>     9.8530     1.1766    44.8896 </r>
       <r>    10.0334     2.0319    45.2562 </r>
       <r>    10.2138     0.3643    45.3219 </r>
       <r>    10.3942     0.5277    45.4171 </r>
       <r>    10.5746     0.9233    45.5836 </r>
       <r>    10.7550     0.4850    45.6711 </r>
       <r>    10.9354     1.3191    45.9091 </r>
       <r>    11.1158     1.4853    46.1770 </r>
       <r>    11.2962     1.1249    46.3799 </r>
       <r>    11.4766     0.1664    46.4099 </r>
       <r>    11.6570     1.7323    46.7225 </r>
       <r>    11.8374    -0.0146    46.7198 </r>
       <r>    12.0178     0.5283    46.8151 </r>
       <r>    12.1982     0.4558    46.8973 </r>
       <r>    12.3786     1.2439    47.1217 </r>
       <r>    12.5590     0.2554    47.1678 </r>
       <r>    12.7394     0.9657    47.3420 </r>
       <r>    12.9197     0.9376    47.5112 </r>
       <r>    13.1001     0.1276    47.5342 </r>
       <r>    13.2805     0.1455    47.5604 </r>
       <r>    13.4609     0.8562    47.7149 </r>
       <r>    13.6413     2.0089    48.0773 </r>
       <r>    13.8217     0.3843    48.1466 </r>
       <r>    14.0021     0.7722    48.2859 </r>
       <r>    14.1825     0.9783    48.4624 </r>
       <r>    14.3629     1.7313    48.7747 </r>
       <r>    14.5433     0.8398    48.9262 </r>
       <r>    14.7237     1.2580    49.1531 </r>
       <r>    14.9041     1.4090    49.4073 </r>
       <r>    15.0845     0.3089    49.4630 </r>
       <r>    15.2649     1.4067    49.7168 </r>
       <r>    15.4453     1.4386    49.9763 </r>
       <r>    15.6257     0.3451    50.0386 </r>
       <r>    15.8061     1.7837    50.3603 </r>
       <r>    15.9865     0.0019    50.3607 </r>
       <r>    16.1669     0.8022    50.5054 </r>
       <r>    16.3472     0.5896    50.6117 </r>
       <r>    16.5276     0.8795    50.7704 </r>
       <r>    16.7080     1.8832    51.1101 </r>
       <r>    16.8884     0.6745    51.2318 </r>
       <r>    17.0688     1.3242    51.4707 </r>
       <r>    17.2492     1.3216    51.7091 </r>
       <r>    17.4296     0.9741    51.8848 </r>
       <r>    17.6100     0.3320    51.9447 </r>
       <r>    17.7904     1.2050    52.1621 </r>
       <r>    17.9708     0.7523    52.2978 </r>
       <r>    18.1512     1.7328    52.6104 </r>
       <r>    18.3316     2.0890    52.9872 </r>
       <r>    18.5120     1.3451    53.2299 </r>
       <r>    18.6924     0.8824    53.3890 </r>
       <r>    18.8728     1.4730    53.6548 </r>
       <r>    19.0532     2.7538    54.1515 </r>
       <r>    19.2336     0.8805    54.3104 </r>
       <r>    19.4140     1.4489    54.5718 </r>
       <r>    19.5944     0.3412    54.6333 </r>
       <r>    19.7747     1.0083    54.8152 </r>
       <r>    19.9551     1.8025    55.1404 </r>
       <r>    20.1355     1.6672    55.4411 </r>
       <r>    20.3159     0.9273    55.6084 </r>
       <r>    20.4963     1.0712    55.8016 </r>
       <r>    20.6767     1.7168    56.1113 </r>
       <r>    20.8571     1.9922    56.4707 </r>
       <r>    21.0375     1.3239    56.7095 </r>
       <r>    21.2179     3.1776    57.2828 </r>
       <r>    21.3983     0.3129    57.3392 </r>
       <r>    21.5787     0.4512    57.4206 </r>
       <r>    21.7591     1.3132    57.6575 </r>
       <r>    21.9395     2.3506    58.0815 </r>
       <r>    22.1199     2.1942    58.4774 </r>
       <r>    22.3003     1.0559    58.6679 </r>
       <r>    22.4807     1.0201    58.8519 </r>
       <r>    22.6611     2.6549    59.3308 </r>
       <r>    22.8415     1.1633    59.5407 </r>
       <r>    23.0219     1.6696    59.8419 </r>
       <r>    23.2023     1.6958    60.1478 </r>
       <r>    23.3826     1.0465    60.3366 </r>
       <r>    23.5630     1.3979    60.5888 </r>
       <r>    23.7434     2.0616    60.9607 </r>
       <r>    23.9238     1.6804    61.2638 </r>
       <r>    24.1042     1.3389    61.5053 </r>
       <r>    24.2846     2.0795    61.8805 </r>
       <r>    24.4650     1.7701    62.1998 </r>
       <r>    24.6454     1.5748    62.4839 </r>
       <r>    24.8258     1.5484    62.7632 </r>
       <r>    25.0062     2.1827    63.1569 </r>
       <r>    25.1866     1.5923    63.4442 </r>
       <r>    25.3670     1.0596    63.6353 </r>
       <r>    25.5474     0.5151    63.7282 </r>
       <r>    25.7278     2.0313    64.0947 </r>
       <r>    25.9082     2.2541    64.5013 </r>
       <r>    26.0886     0.6192    64.6130 </r>
       <r>    26.2690     1.3366    64.8541 </r>
       <r>    26.4494     0.5217    64.9482 </r>
       <r>    26.6298     1.4293    65.2061 </r>
       <r>    26.8101     1.3770    65.4545 </r>
       <r>    26.9905     1.7491    65.7700 </r>
       <r>    27.1709     1.4766    66.0364 </r>
       <r>    27.3513     1.6594    66.3357 </r>
       <r>    27.5317     0.5892    66.4420 </r>
       <r>    27.7121     1.2742    66.6719 </r>
       <r>    27.8925     1.2570    66.8986 </r>
       <r>    28.0729     1.3698    67.1457 </r>
       <r>    28.2533     0.4454    67.2261 </r>
       <r>    28.4337     1.8903    67.5671 </r>
       <r>    28.6141     1.3358    67.8080 </r>
       <r>    28.7945     1.6300    68.1021 </r>
       <r>    28.9749     1.7230    68.4129 </r>
       <r>    29.1553     1.0979    68.6110 </r>
       <r>    29.3357     0.9424    68.7810 </r>
       <r>    29.5161     1.3195    69.0190 </r>
       <r>    29.6965     2.8308    69.5296 </r>
       <r>    29.8769     1.0227    69.7141 </r>
       <r>    30.0573     0.6107    69.8243 </r>
       <r>    30.2376     3.5129    70.4580 </r>
       <r>    30.4180     1.4547    70.7204 </r>
       <r>    30.5984     1.3942    70.9719 </r>
       <r>    30.7788     1.5813    71.2572 </r>
       <r>    30.9592     1.1487    71.4644 </r>
       <r>    31.1396     2.8007    71.9696 </r>
       <r>    31.3200     3.2875    72.5627 </r>
       <r>    31.5004     0.9485    72.7338 </r>
       <r>    31.6808     1.6173    73.0255 </r>
       <r>    31.8612     3.1929    73.6015 </r>
       <r>    32.0416     1.1830    73.8149 </r>
       <r>    32.2220     2.3923    74.2465 </r>
       <r>    32.4024     2.4364    74.6860 </r>
       <r>    32.5828     1.7284    74.9978 </r>
       <r>    32.7632     2.4386    75.4377 </r>
       <r>    32.9436     1.8506    75.7715 </r>
       <r>    33.1240     1.6904    76.0765 </r>
       <r>    33.3044     3.3752    76.6853 </r>
       <r>    33.4848     0.6983    76.8113 </r>
       <r>    33.6652     2.0725    77.1852 </r>
       <r>    33.8455     3.0078    77.7278 </r>
       <r>    34.0259     1.9517    78.0798 </r>
       <r>    34.2063     1.0636    78.2717 </r>
       <r>    34.3867     1.2657    78.5000 </r>
       <r>    34.5671     1.4820    78.7674 </r>
       <r>    34.7475     0.9668    78.9418 </r>
       <r>    34.9279     1.0191    79.1256 </r>
       <r>    35.1083     2.6981    79.6123 </r>
       <r>    35.2887     0.7042    79.7394 </r>
       <r>    35.4691     0.7478    79.8743 </r>
       <r>    35.6495     0.9778    80.0507 </r>
       <r>    35.8299     2.0572    80.4218 </r>
       <r>    36.0103     2.4104    80.8566 </r>
       <r>    36.1907     1.5699    81.1398 </r>
       <r>    36.3711     1.1473    81.3468 </r>
       <r>    36.5515    -0.0069    81.3455 </r>
       <r>    36.7319     1.1721    81.5570 </r>
       <r>    36.9123     2.0333    81.9238 </r>
       <r>    37.0927     1.3728    82.1714 </r>
       <r>    37.2730     2.0654    82.5440 </r>
       <r>    37.4534     1.4717    82.8095 </r>
       <r>    37.6338     2.3918    83.2409 </r>
       <r>    37.8142     2.4852    83.6893 </r>
       <r>    37.9946     1.3439    83.9317 </r>
       <r>    38.1750     2.0062    84.2936 </r>
       <r>    38.3554     2.8060    84.7998 </r>
       <r>    38.5358     1.5674    85.0825 </r>
       <r>    38.7162     2.5059    85.5346 </r>
       <r>    38.8966     2.9200    86.0613 </r>
       <r>    39.0770     1.1137    86.2622 </r>
       <r>    39.2574     2.2690    86.6716 </r>
       <r>    39.4378     1.8078    86.9977 </r>
       <r>    39.6182     3.4073    87.6123 </r>
       <r>    39.7986     0.8381    87.7635 </r>
       <r>    39.9790     1.2296    87.9853 </r>
       <r>    40.1594     1.7962    88.3094 </r>
       <r>    40.3398     1.3642    88.5554 </r>
       <r>    40.5202     0.6480    88.6723 </r>
       <r>    40.7005     1.0894    88.8689 </r>
       <r>    40.8809     1.7774    89.1895 </r>
       <r>    41.0613     1.9014    89.5325 </r>
       <r>    41.2417     2.2216    89.9333 </r>
       <r>    41.4221     1.6206    90.2256 </r>
       <r>    41.6025     2.6855    90.7101 </r>
       <r>    41.7829     3.1655    91.2811 </r>
       <r>    41.9633     2.2919    91.6946 </r>
       <r>    42.1437     0.6211    91.8066 </r>
       <r>    42.3241     1.1031    92.0056 </r>
       <r>    42.5045     1.4428    92.2659 </r>
       <r>    42.6849     2.9842    92.8042 </r>
       <r>    42.8653     1.8095    93.1306 </r>
       <r>    43.0457     2.0919    93.5080 </r>
       <r>    43.2261     1.2906    93.7408 </r>
       <r>    43.4065     2.6431    94.2176 </r>
       <r>    43.5869     1.2423    94.4417 </r>
       <r>    43.7673     1.2306    94.6637 </r>
       <r>    43.9477     1.0152    94.8468 </r>
       <r>    44.1281     0.6336    94.9611 </r>
       <r>    44.3084     1.2679    95.1899 </r>
       <r>    44.4888     0.8048    95.3350 </r>
       <r>    44.6692     0.5633    95.4367 </r>
       <r>    44.8496     0.5356    95.5333 </r>
       <r>    45.0300     0.2198    95.5729 </r>
       <r>    45.2104     0.4046    95.6459 </r>
       <r>    45.3908     0.3024    95.7005 </r>
       <r>    45.5712     0.3902    95.7708 </r>
       <r>    45.7516     0.1793    95.8032 </r>
       <r>    45.9320     0.1030    95.8218 </r>
       <r>    46.1124     0.4294    95.8992 </r>
       <r>    46.2928     0.0292    95.9045 </r>
       <r>    46.4732     0.2872    95.9563 </r>
       <r>    46.6536     0.2347    95.9987 </r>
       <r>    46.8340    -0.0078    95.9973 </r>
       <r>    47.0144    -0.0000    95.9973 </r>
       <r>    47.1948    -0.0000    95.9973 </r>
       <r>    47.3752    -0.0000    95.9973 </r>
       <r>    47.5556    -0.0000    95.9973 </r>
       <r>    47.7359    -0.0000    95.9973 </r>
       <r>    47.9163     0.0009    95.9974 </r>
       <r>    48.0967     0.0149    96.0001 </r>
       <r>    48.2771    -0.0005    96.0000 </r>
       <r>    48.4575    -0.0000    96.0000 </r>
       <r>    48.6379    -0.0000    96.0000 </r>
       <r>    48.8183     0.0000    96.0000 </r>
       <r>    48.9987     0.0000    96.0000 </r>
       <r>    49.1791     0.0000    96.0000 </r>
       <r>    49.3595     0.0000    96.0000 </r>
       <r>    49.5399     0.0000    96.0000 </r>
       <r>    49.7203     0.0000    96.0000 </r>
       <r>    49.9007     0.0000    96.0000 </r>
       <r>    50.0811     0.0000    96.0000 </r>
       <r>    50.2615     0.0000    96.0000 </r>
       <r>    50.4419     0.0000    96.0000 </r>
      </set>
     </set>
    </array>
   </total>
  </dos>
 </calculation>
 <structure name="finalpos" >
  <crystal>
   <varray name="basis" >
    <v>       3.48966667       0.00000000       0.00000000 </v>
    <v>       0.00000000       3.48966667       0.00000000 </v>
    <v>       0.00000000       0.00000000       3.48966667 </v>
   </varray>
   <i name="volume">     42.49637006 </i>
   <varray name="rec_basis" >
    <v>       0.28656032       0.00000000       0.00000000 </v>
    <v>       0.00000000       0.28656032       0.00000000 </v>
    <v>       0.00000000       0.00000000       0.28656032 </v>
   </varray>
  </crystal>
  <varray name="positions" >
   <v>       0.00000000       0.00000000       0.00000000 </v>
   <v>       0.00000000       0.50000000       0.50000000 </v>
   <v>       0.50000000       0.00000000       0.50000000 </v>
   <v>       0.50000000       0.50000000       0.00000000 </v>
  </varray>
 </structure>
</modeling>
