  13  13   1   0
  0.4262391E+02  0.5142081E-09  0.5142081E-09  0.2419849E-08  0.5000000E-15
  1.000000000000000E-004
  CAR 
 unknown system                          
      9.17813086    -21.50220789  301     -1.75962466      1.00000000
    -21.502  0.0000E+00  0.0000E+00
    -21.400  0.0000E+00  0.0000E+00
    -21.298  0.0000E+00  0.0000E+00
    -21.195  0.0000E+00  0.0000E+00
    -21.093  0.0000E+00  0.0000E+00
    -20.991 -0.1443E-32 -0.1475E-33
    -20.889 -0.3613E-25 -0.3695E-26
    -20.786 -0.1109E-18 -0.1134E-19
    -20.684 -0.4002E-13 -0.4093E-14
    -20.582 -0.1794E-08 -0.1835E-09
    -20.480 -0.9400E-05 -0.9615E-06
    -20.377 -0.5495E-02 -0.5629E-03
    -20.275 -0.2961E+00 -0.3084E-01
    -20.173  0.7652E+00  0.4741E-01
    -20.070  0.1359E+02  0.1437E+01
    -19.968  0.6183E+01  0.2069E+01
    -19.866 -0.6270E+00  0.2005E+01
    -19.764 -0.5008E-01  0.2000E+01
    -19.661 -0.2520E-03  0.2000E+01
    -19.559 -0.1335E-06  0.2000E+01
    -19.457 -0.8131E-11  0.2000E+01
    -19.355  0.0000E+00  0.2000E+01
    -19.252  0.0000E+00  0.2000E+01
    -19.150  0.0000E+00  0.2000E+01
    -19.048  0.0000E+00  0.2000E+01
    -18.946  0.0000E+00  0.2000E+01
    -18.843  0.0000E+00  0.2000E+01
    -18.741  0.0000E+00  0.2000E+01
    -18.639  0.0000E+00  0.2000E+01
    -18.536  0.0000E+00  0.2000E+01
    -18.434  0.0000E+00  0.2000E+01
    -18.332  0.0000E+00  0.2000E+01
    -18.230  0.0000E+00  0.2000E+01
    -18.127  0.0000E+00  0.2000E+01
    -18.025  0.0000E+00  0.2000E+01
    -17.923  0.0000E+00  0.2000E+01
    -17.821  0.0000E+00  0.2000E+01
    -17.718  0.0000E+00  0.2000E+01
    -17.616  0.0000E+00  0.2000E+01
    -17.514  0.0000E+00  0.2000E+01
    -17.411  0.0000E+00  0.2000E+01
    -17.309  0.0000E+00  0.2000E+01
    -17.207  0.0000E+00  0.2000E+01
    -17.105  0.0000E+00  0.2000E+01
    -17.002  0.0000E+00  0.2000E+01
    -16.900  0.0000E+00  0.2000E+01
    -16.798  0.0000E+00  0.2000E+01
    -16.696  0.0000E+00  0.2000E+01
    -16.593  0.0000E+00  0.2000E+01
    -16.491  0.0000E+00  0.2000E+01
    -16.389  0.0000E+00  0.2000E+01
    -16.287  0.0000E+00  0.2000E+01
    -16.184  0.0000E+00  0.2000E+01
    -16.082  0.0000E+00  0.2000E+01
    -15.980  0.0000E+00  0.2000E+01
    -15.877  0.0000E+00  0.2000E+01
    -15.775  0.0000E+00  0.2000E+01
    -15.673  0.0000E+00  0.2000E+01
    -15.571  0.0000E+00  0.2000E+01
    -15.468  0.0000E+00  0.2000E+01
    -15.366  0.0000E+00  0.2000E+01
    -15.264  0.0000E+00  0.2000E+01
    -15.162  0.0000E+00  0.2000E+01
    -15.059  0.0000E+00  0.2000E+01
    -14.957  0.0000E+00  0.2000E+01
    -14.855  0.0000E+00  0.2000E+01
    -14.753  0.0000E+00  0.2000E+01
    -14.650  0.0000E+00  0.2000E+01
    -14.548  0.0000E+00  0.2000E+01
    -14.446  0.0000E+00  0.2000E+01
    -14.343  0.0000E+00  0.2000E+01
    -14.241  0.0000E+00  0.2000E+01
    -14.139  0.0000E+00  0.2000E+01
    -14.037  0.0000E+00  0.2000E+01
    -13.934  0.0000E+00  0.2000E+01
    -13.832  0.0000E+00  0.2000E+01
    -13.730  0.0000E+00  0.2000E+01
    -13.628  0.0000E+00  0.2000E+01
    -13.525  0.0000E+00  0.2000E+01
    -13.423  0.0000E+00  0.2000E+01
    -13.321  0.0000E+00  0.2000E+01
    -13.219  0.0000E+00  0.2000E+01
    -13.116  0.0000E+00  0.2000E+01
    -13.014  0.0000E+00  0.2000E+01
    -12.912  0.0000E+00  0.2000E+01
    -12.809  0.0000E+00  0.2000E+01
    -12.707  0.0000E+00  0.2000E+01
    -12.605  0.0000E+00  0.2000E+01
    -12.503  0.0000E+00  0.2000E+01
    -12.400  0.0000E+00  0.2000E+01
    -12.298  0.0000E+00  0.2000E+01
    -12.196  0.0000E+00  0.2000E+01
    -12.094  0.0000E+00  0.2000E+01
    -11.991  0.0000E+00  0.2000E+01
    -11.889  0.0000E+00  0.2000E+01
    -11.787  0.0000E+00  0.2000E+01
    -11.684  0.0000E+00  0.2000E+01
    -11.582  0.0000E+00  0.2000E+01
    -11.480  0.0000E+00  0.2000E+01
    -11.378  0.0000E+00  0.2000E+01
    -11.275  0.0000E+00  0.2000E+01
    -11.173 -0.1908E-31  0.2000E+01
    -11.071 -0.2157E-24  0.2000E+01
    -10.969 -0.2954E-18  0.2000E+01
    -10.866 -0.4710E-13  0.2000E+01
    -10.764 -0.9100E-09  0.2000E+01
    -10.662 -0.2026E-05  0.2000E+01
    -10.560 -0.4936E-03  0.2000E+01
    -10.457 -0.1171E-01  0.1999E+01
    -10.355  0.1776E-01  0.2001E+01
    -10.253  0.6575E+00  0.2068E+01
    -10.150  0.9548E+00  0.2165E+01
    -10.048  0.7543E+00  0.2243E+01
     -9.946  0.1627E+01  0.2409E+01
     -9.844  0.5779E+00  0.2468E+01
     -9.741  0.3043E+00  0.2499E+01
     -9.639  0.2120E+01  0.2716E+01
     -9.537  0.9867E+00  0.2817E+01
     -9.435  0.8997E+00  0.2909E+01
     -9.332  0.1851E-01  0.2911E+01
     -9.230  0.1271E+01  0.3041E+01
     -9.128  0.2654E+01  0.3312E+01
     -9.026  0.5159E+00  0.3365E+01
     -8.923  0.7740E+00  0.3444E+01
     -8.821  0.5463E+00  0.3500E+01
     -8.719  0.7906E+00  0.3581E+01
     -8.616  0.2767E+01  0.3864E+01
     -8.514  0.1071E+01  0.3973E+01
     -8.412  0.9422E+00  0.4070E+01
     -8.310  0.6299E+00  0.4134E+01
     -8.207  0.2342E+01  0.4374E+01
     -8.105  0.2093E+01  0.4588E+01
     -8.003  0.4179E+01  0.5015E+01
     -7.901  0.4010E+01  0.5425E+01
     -7.798  0.4242E+01  0.5859E+01
     -7.696  0.1179E+01  0.5980E+01
     -7.594  0.5855E+00  0.6040E+01
     -7.492  0.3917E+01  0.6440E+01
     -7.389  0.5738E+01  0.7027E+01
     -7.287  0.4692E+01  0.7507E+01
     -7.185  0.5283E+01  0.8047E+01
     -7.082  0.7826E+01  0.8848E+01
     -6.980  0.1150E+02  0.1002E+02
     -6.878  0.1336E+02  0.1139E+02
     -6.776  0.7443E+01  0.1215E+02
     -6.673  0.8672E+01  0.1304E+02
     -6.571  0.1077E+02  0.1414E+02
     -6.469  0.1061E+02  0.1522E+02
     -6.367  0.1109E+02  0.1636E+02
     -6.264  0.9731E+01  0.1735E+02
     -6.162  0.1294E+02  0.1868E+02
     -6.060  0.1902E+02  0.2062E+02
     -5.958  0.2140E+02  0.2281E+02
     -5.855  0.2076E+02  0.2493E+02
     -5.753  0.2261E+02  0.2724E+02
     -5.651  0.2532E+02  0.2983E+02
     -5.548  0.2776E+02  0.3267E+02
     -5.446  0.2255E+02  0.3498E+02
     -5.344  0.1761E+02  0.3678E+02
     -5.242  0.3334E+02  0.4019E+02
     -5.139  0.4069E+02  0.4435E+02
     -5.037  0.2848E+02  0.4726E+02
     -4.935  0.2494E+02  0.4981E+02
     -4.833  0.3897E+02  0.5380E+02
     -4.730  0.4584E+02  0.5849E+02
     -4.628  0.4122E+02  0.6270E+02
     -4.526  0.5161E+02  0.6798E+02
     -4.423  0.6068E+02  0.7419E+02
     -4.321  0.4367E+02  0.7865E+02
     -4.219  0.3230E+02  0.8196E+02
     -4.117  0.3863E+02  0.8591E+02
     -4.014  0.5379E+02  0.9141E+02
     -3.912  0.4796E+02  0.9631E+02
     -3.810  0.4554E+02  0.1010E+03
     -3.708  0.4551E+02  0.1056E+03
     -3.605  0.4827E+02  0.1106E+03
     -3.503  0.6428E+02  0.1171E+03
     -3.401  0.6754E+02  0.1240E+03
     -3.299  0.3564E+02  0.1277E+03
     -3.196  0.1506E+02  0.1292E+03
     -3.094  0.8480E+01  0.1301E+03
     -2.992  0.1097E+02  0.1312E+03
     -2.889  0.1412E+02  0.1327E+03
     -2.787  0.1257E+02  0.1339E+03
     -2.685  0.4108E+01  0.1344E+03
     -2.583  0.1284E+01  0.1345E+03
     -2.480  0.6337E+01  0.1351E+03
     -2.378  0.3201E+01  0.1355E+03
     -2.276  0.2742E+01  0.1358E+03
     -2.174  0.5999E+01  0.1364E+03
     -2.071  0.7777E+01  0.1372E+03
     -1.969  0.2081E+01  0.1374E+03
     -1.867  0.9142E-01  0.1374E+03
     -1.765  0.5603E+01  0.1380E+03
     -1.662  0.8985E+01  0.1389E+03
     -1.560  0.5590E+01  0.1394E+03
     -1.458  0.4237E+01  0.1399E+03
     -1.355  0.3104E+01  0.1402E+03
     -1.253  0.1491E+01  0.1404E+03
     -1.151  0.3323E+01  0.1407E+03
     -1.049  0.4542E+01  0.1412E+03
     -0.946  0.3454E+01  0.1415E+03
     -0.844  0.3778E+01  0.1419E+03
     -0.742  0.5026E+01  0.1424E+03
     -0.640  0.6351E+01  0.1431E+03
     -0.537  0.4631E+01  0.1435E+03
     -0.435  0.3112E+01  0.1438E+03
     -0.333  0.4401E+01  0.1443E+03
     -0.231  0.4726E+01  0.1448E+03
     -0.128  0.1512E+01  0.1449E+03
     -0.026  0.4629E+01  0.1454E+03
      0.076  0.4000E+01  0.1458E+03
      0.179  0.2027E+01  0.1460E+03
      0.281  0.2462E+01  0.1463E+03
      0.383  0.4514E+01  0.1467E+03
      0.485  0.4533E+01  0.1472E+03
      0.588  0.3554E+01  0.1476E+03
      0.690  0.5002E+01  0.1481E+03
      0.792  0.6163E+01  0.1487E+03
      0.894  0.4036E+01  0.1491E+03
      0.997  0.1772E+01  0.1493E+03
      1.099  0.1899E+01  0.1495E+03
      1.201  0.3741E+01  0.1499E+03
      1.304  0.3826E+01  0.1503E+03
      1.406  0.4864E+01  0.1508E+03
      1.508  0.2183E+01  0.1510E+03
      1.610  0.5331E+00  0.1510E+03
      1.713  0.3104E+01  0.1514E+03
      1.815  0.1850E+01  0.1516E+03
      1.917  0.3358E+01  0.1519E+03
      2.019  0.4262E+01  0.1523E+03
      2.122  0.4556E+01  0.1528E+03
      2.224  0.3204E+01  0.1531E+03
      2.326  0.4502E+01  0.1536E+03
      2.428  0.3452E+01  0.1539E+03
      2.531  0.1150E+01  0.1541E+03
      2.633  0.8208E+00  0.1541E+03
      2.735  0.1269E+01  0.1543E+03
      2.838  0.2443E+01  0.1545E+03
      2.940  0.4412E+01  0.1550E+03
      3.042  0.4743E+01  0.1555E+03
      3.144  0.4770E+01  0.1559E+03
      3.247  0.5355E+01  0.1565E+03
      3.349  0.6894E+01  0.1572E+03
      3.451  0.7125E+01  0.1579E+03
      3.553  0.5937E+01  0.1585E+03
      3.656  0.5757E+01  0.1591E+03
      3.758  0.6877E+01  0.1598E+03
      3.860  0.4275E+01  0.1603E+03
      3.962  0.8396E+01  0.1611E+03
      4.065  0.7991E+01  0.1619E+03
      4.167  0.3526E+01  0.1623E+03
      4.269  0.6307E+01  0.1629E+03
      4.372  0.8057E+01  0.1638E+03
      4.474  0.1177E+02  0.1650E+03
      4.576  0.7245E+01  0.1657E+03
      4.678  0.4391E+01  0.1662E+03
      4.781  0.7606E+01  0.1669E+03
      4.883  0.8547E+01  0.1678E+03
      4.985  0.7703E+01  0.1686E+03
      5.087  0.6635E+01  0.1693E+03
      5.190  0.9945E+01  0.1703E+03
      5.292  0.7014E+01  0.1710E+03
      5.394  0.7841E+01  0.1718E+03
      5.496  0.6786E+01  0.1725E+03
      5.599  0.1035E+02  0.1736E+03
      5.701  0.1132E+02  0.1747E+03
      5.803  0.4718E+01  0.1752E+03
      5.906  0.9904E+01  0.1762E+03
      6.008  0.1013E+02  0.1773E+03
      6.110  0.9639E+01  0.1782E+03
      6.212  0.9115E+01  0.1792E+03
      6.315  0.7223E+01  0.1799E+03
      6.417  0.1095E+02  0.1810E+03
      6.519  0.1256E+02  0.1823E+03
      6.621  0.8630E+01  0.1832E+03
      6.724  0.7942E+01  0.1840E+03
      6.826  0.4619E+01  0.1845E+03
      6.928  0.1112E+02  0.1856E+03
      7.031  0.1391E+02  0.1870E+03
      7.133  0.6994E+01  0.1878E+03
      7.235  0.1080E+02  0.1889E+03
      7.337  0.9311E+01  0.1898E+03
      7.440  0.8935E+01  0.1907E+03
      7.542  0.5839E+01  0.1913E+03
      7.644  0.3526E+01  0.1917E+03
      7.746  0.2040E+01  0.1919E+03
      7.849  0.9359E+00  0.1920E+03
      7.951  0.9293E-01  0.1920E+03
      8.053 -0.2807E-01  0.1920E+03
      8.155 -0.6668E-03  0.1920E+03
      8.258 -0.1393E-05  0.1920E+03
      8.360 -0.3193E-09  0.1920E+03
      8.462 -0.8363E-14  0.1920E+03
      8.565  0.0000E+00  0.1920E+03
      8.667  0.0000E+00  0.1920E+03
      8.769  0.0000E+00  0.1920E+03
      8.871  0.0000E+00  0.1920E+03
      8.974  0.0000E+00  0.1920E+03
      9.076  0.0000E+00  0.1920E+03
      9.178  0.0000E+00  0.1920E+03
      9.17813086    -21.50220789  301     -1.75962466      1.00000000
    -21.502  0.0000E+00  0.0000E+00  0.0000E+00
    -21.400  0.0000E+00  0.0000E+00  0.0000E+00
    -21.298  0.0000E+00  0.0000E+00  0.0000E+00
    -21.195  0.0000E+00  0.0000E+00  0.0000E+00
    -21.093  0.0000E+00  0.0000E+00  0.0000E+00
    -20.991 -0.6994E-40 -0.4926E-40 -0.1195E-40
    -20.889 -0.1731E-32 -0.1212E-32 -0.3030E-33
    -20.786 -0.5245E-26 -0.3653E-26 -0.9404E-27
    -20.684 -0.1870E-20 -0.1296E-20 -0.3431E-21
    -20.582 -0.8264E-16 -0.5705E-16 -0.1555E-16
    -20.480 -0.4269E-12 -0.2937E-12 -0.8224E-13
    -20.377 -0.2460E-09 -0.1688E-09 -0.4852E-10
    -20.275 -0.1303E-07 -0.8922E-08 -0.2639E-08
    -20.173  0.3498E-07  0.2401E-07  0.6682E-08
    -20.070  0.5909E-06  0.4044E-06  0.1219E-06
    -19.968  0.2639E-06  0.1806E-06  0.5596E-07
    -19.866 -0.2711E-07 -0.1854E-07 -0.5641E-08
    -19.764 -0.2119E-08 -0.1451E-08 -0.4550E-09
    -19.661 -0.1053E-10 -0.7219E-11 -0.2302E-11
    -19.559 -0.5522E-14 -0.3789E-14 -0.1225E-14
    -19.457 -0.3331E-18 -0.2289E-18 -0.7485E-19
    -19.355  0.0000E+00  0.0000E+00  0.0000E+00
    -19.252  0.0000E+00  0.0000E+00  0.0000E+00
    -19.150  0.0000E+00  0.0000E+00  0.0000E+00
    -19.048  0.0000E+00  0.0000E+00  0.0000E+00
    -18.946  0.0000E+00  0.0000E+00  0.0000E+00
    -18.843  0.0000E+00  0.0000E+00  0.0000E+00
    -18.741  0.0000E+00  0.0000E+00  0.0000E+00
    -18.639  0.0000E+00  0.0000E+00  0.0000E+00
    -18.536  0.0000E+00  0.0000E+00  0.0000E+00
    -18.434  0.0000E+00  0.0000E+00  0.0000E+00
    -18.332  0.0000E+00  0.0000E+00  0.0000E+00
    -18.230  0.0000E+00  0.0000E+00  0.0000E+00
    -18.127  0.0000E+00  0.0000E+00  0.0000E+00
    -18.025  0.0000E+00  0.0000E+00  0.0000E+00
    -17.923  0.0000E+00  0.0000E+00  0.0000E+00
    -17.821  0.0000E+00  0.0000E+00  0.0000E+00
    -17.718  0.0000E+00  0.0000E+00  0.0000E+00
    -17.616  0.0000E+00  0.0000E+00  0.0000E+00
    -17.514  0.0000E+00  0.0000E+00  0.0000E+00
    -17.411  0.0000E+00  0.0000E+00  0.0000E+00
    -17.309  0.0000E+00  0.0000E+00  0.0000E+00
    -17.207  0.0000E+00  0.0000E+00  0.0000E+00
    -17.105  0.0000E+00  0.0000E+00  0.0000E+00
    -17.002  0.0000E+00  0.0000E+00  0.0000E+00
    -16.900  0.0000E+00  0.0000E+00  0.0000E+00
    -16.798  0.0000E+00  0.0000E+00  0.0000E+00
    -16.696  0.0000E+00  0.0000E+00  0.0000E+00
    -16.593  0.0000E+00  0.0000E+00  0.0000E+00
    -16.491  0.0000E+00  0.0000E+00  0.0000E+00
    -16.389  0.0000E+00  0.0000E+00  0.0000E+00
    -16.287  0.0000E+00  0.0000E+00  0.0000E+00
    -16.184  0.0000E+00  0.0000E+00  0.0000E+00
    -16.082  0.0000E+00  0.0000E+00  0.0000E+00
    -15.980  0.0000E+00  0.0000E+00  0.0000E+00
    -15.877  0.0000E+00  0.0000E+00  0.0000E+00
    -15.775  0.0000E+00  0.0000E+00  0.0000E+00
    -15.673  0.0000E+00  0.0000E+00  0.0000E+00
    -15.571  0.0000E+00  0.0000E+00  0.0000E+00
    -15.468  0.0000E+00  0.0000E+00  0.0000E+00
    -15.366  0.0000E+00  0.0000E+00  0.0000E+00
    -15.264  0.0000E+00  0.0000E+00  0.0000E+00
    -15.162  0.0000E+00  0.0000E+00  0.0000E+00
    -15.059  0.0000E+00  0.0000E+00  0.0000E+00
    -14.957  0.0000E+00  0.0000E+00  0.0000E+00
    -14.855  0.0000E+00  0.0000E+00  0.0000E+00
    -14.753  0.0000E+00  0.0000E+00  0.0000E+00
    -14.650  0.0000E+00  0.0000E+00  0.0000E+00
    -14.548  0.0000E+00  0.0000E+00  0.0000E+00
    -14.446  0.0000E+00  0.0000E+00  0.0000E+00
    -14.343  0.0000E+00  0.0000E+00  0.0000E+00
    -14.241  0.0000E+00  0.0000E+00  0.0000E+00
    -14.139  0.0000E+00  0.0000E+00  0.0000E+00
    -14.037  0.0000E+00  0.0000E+00  0.0000E+00
    -13.934  0.0000E+00  0.0000E+00  0.0000E+00
    -13.832  0.0000E+00  0.0000E+00  0.0000E+00
    -13.730  0.0000E+00  0.0000E+00  0.0000E+00
    -13.628  0.0000E+00  0.0000E+00  0.0000E+00
    -13.525  0.0000E+00  0.0000E+00  0.0000E+00
    -13.423  0.0000E+00  0.0000E+00  0.0000E+00
    -13.321  0.0000E+00  0.0000E+00  0.0000E+00
    -13.219  0.0000E+00  0.0000E+00  0.0000E+00
    -13.116  0.0000E+00  0.0000E+00  0.0000E+00
    -13.014  0.0000E+00  0.0000E+00  0.0000E+00
    -12.912  0.0000E+00  0.0000E+00  0.0000E+00
    -12.809  0.0000E+00  0.0000E+00  0.0000E+00
    -12.707  0.0000E+00  0.0000E+00  0.0000E+00
    -12.605  0.0000E+00  0.0000E+00  0.0000E+00
    -12.503  0.0000E+00  0.0000E+00  0.0000E+00
    -12.400  0.0000E+00  0.0000E+00  0.0000E+00
    -12.298  0.0000E+00  0.0000E+00  0.0000E+00
    -12.196  0.0000E+00  0.0000E+00  0.0000E+00
    -12.094  0.0000E+00  0.0000E+00  0.0000E+00
    -11.991  0.0000E+00  0.0000E+00  0.0000E+00
    -11.889  0.0000E+00  0.0000E+00  0.0000E+00
    -11.787  0.0000E+00  0.0000E+00  0.0000E+00
    -11.684  0.0000E+00  0.0000E+00  0.0000E+00
    -11.582  0.0000E+00  0.0000E+00  0.0000E+00
    -11.480  0.0000E+00  0.0000E+00  0.0000E+00
    -11.378  0.0000E+00  0.0000E+00  0.0000E+00
    -11.275  0.0000E+00  0.0000E+00  0.0000E+00
    -11.173 -0.6380E-33 -0.6056E-34 -0.8652E-36
    -11.071 -0.7213E-26 -0.6847E-27 -0.9781E-29
    -10.969 -0.9881E-20 -0.9379E-21 -0.1340E-22
    -10.866 -0.1575E-14 -0.1495E-15 -0.2137E-17
    -10.764 -0.3044E-10 -0.2889E-11 -0.4133E-13
    -10.662 -0.6775E-07 -0.6435E-08 -0.9272E-10
    -10.560 -0.1650E-04 -0.1573E-05 -0.2390E-07
    -10.457 -0.3893E-03 -0.3831E-04 -0.8165E-06
    -10.355  0.6208E-03  0.4358E-04 -0.2436E-05
    -10.253  0.2173E-01  0.2214E-02  0.6150E-04
    -10.150  0.3146E-01  0.3259E-02  0.9872E-04
    -10.048  0.2398E-01  0.2966E-02  0.2049E-03
     -9.946  0.5108E-01  0.6655E-02  0.5453E-03
     -9.844  0.1810E-01  0.2389E-02  0.1987E-03
     -9.741  0.8831E-02  0.1515E-02  0.2447E-03
     -9.639  0.6222E-01  0.1030E-01  0.1564E-02
     -9.537  0.2831E-01  0.4976E-02  0.8828E-03
     -9.435  0.2512E-01  0.4733E-02  0.9671E-03
     -9.332  0.6304E-03  0.7720E-04 -0.8850E-05
     -9.230  0.3278E-01  0.7347E-02  0.2084E-02
     -9.128  0.6705E-01  0.1548E-01  0.4681E-02
     -9.026  0.1291E-01  0.3024E-02  0.9405E-03
     -8.923  0.1588E-01  0.4760E-02  0.2086E-02
     -8.821  0.1180E-01  0.3326E-02  0.1350E-02
     -8.719  0.1563E-01  0.5013E-02  0.2595E-02
     -8.616  0.3780E-01  0.1732E-01  0.9859E-02
     -8.514  0.1119E-01  0.6658E-02  0.4266E-02
     -8.412  0.4938E-01  0.6402E-02  0.2817E-02
     -8.310  0.2933E-01  0.2846E-02  0.3320E-02
     -8.207  0.9018E-01  0.7491E-02  0.1502E-01
     -8.105  0.7764E-01  0.6713E-02  0.1424E-01
     -8.003  0.1478E+00  0.1939E-01  0.2537E-01
     -7.901  0.1512E+00  0.1852E-01  0.1892E-01
     -7.798  0.1768E+00  0.1448E-01  0.1832E-01
     -7.696  0.5058E-01  0.3335E-02  0.2478E-02
     -7.594  0.2453E-01  0.1430E-02  0.1546E-03
     -7.492  0.6972E-01  0.2959E-01  0.2974E-01
     -7.389  0.8151E-01  0.4585E-01  0.4358E-01
     -7.287  0.2313E-01  0.3018E-01  0.4250E-01
     -7.185  0.4138E-02  0.3225E-01  0.4806E-01
     -7.082  0.6162E-02  0.1671E-01  0.3243E-01
     -6.980  0.7049E-01  0.1725E-01  0.6184E-01
     -6.878  0.2219E+00  0.2936E-01  0.1543E+00
     -6.776  0.1464E+00  0.2226E-01  0.1075E+00
     -6.673  0.1580E+00  0.4253E-01  0.1333E+00
     -6.571  0.1085E+00  0.5133E-01  0.1933E+00
     -6.469  0.8084E-01  0.5208E-01  0.2617E+00
     -6.367  0.5849E-01  0.5381E-01  0.2786E+00
     -6.264  0.1086E+00  0.3859E-01  0.2917E+00
     -6.162  0.1550E+00  0.4755E-01  0.5643E+00
     -6.060  0.1648E+00  0.5394E-01  0.1029E+01
     -5.958  0.1724E+00  0.6234E-01  0.8556E+00
     -5.855  0.9075E-01  0.6338E-01  0.8449E+00
     -5.753  0.8037E-01  0.4927E-01  0.1003E+01
     -5.651  0.4856E-01  0.3730E-01  0.1354E+01
     -5.548  0.2512E-01  0.4140E-01  0.1464E+01
     -5.446  0.1336E-01  0.3196E-01  0.1527E+01
     -5.344  0.9723E-02  0.2148E-01  0.1069E+01
     -5.242  0.2287E-01  0.4973E-01  0.2462E+01
     -5.139  0.3091E-01  0.6220E-01  0.3670E+01
     -5.037  0.2667E-01  0.3366E-01  0.1675E+01
     -4.935  0.2010E-01  0.2600E-01  0.1513E+01
     -4.833  0.3411E-01  0.4116E-01  0.2616E+01
     -4.730  0.5884E-01  0.7276E-01  0.3638E+01
     -4.628  0.4721E-01  0.5869E-01  0.3408E+01
     -4.526  0.3758E-01  0.7555E-01  0.5595E+01
     -4.423  0.5439E-01  0.1109E+00  0.6529E+01
     -4.321  0.5871E-01  0.9599E-01  0.4375E+01
     -4.219  0.3582E-01  0.7238E-01  0.2687E+01
     -4.117  0.4063E-01  0.8243E-01  0.2397E+01
     -4.014  0.5064E-01  0.9707E-01  0.4003E+01
     -3.912  0.3289E-01  0.5527E-01  0.4019E+01
     -3.810  0.2841E-01  0.5594E-01  0.4895E+01
     -3.708  0.2526E-01  0.4786E-01  0.4222E+01
     -3.605  0.1695E-01  0.4077E-01  0.2712E+01
     -3.503  0.2821E-01  0.4303E-01  0.4254E+01
     -3.401  0.3532E-01  0.3854E-01  0.6200E+01
     -3.299  0.4427E-01  0.3282E-01  0.3232E+01
     -3.196  0.4686E-01  0.2296E-01  0.1475E+01
     -3.094  0.2982E-01  0.1184E-01  0.4684E+00
     -2.992  0.4392E-01  0.3051E-01  0.3769E+00
     -2.889  0.3347E-01  0.4961E-01  0.3360E+00
     -2.787  0.2653E-01  0.5801E-01  0.2661E+00
     -2.685  0.1199E-01  0.3086E-01  0.9268E-01
     -2.583  0.8279E-02  0.1328E-01  0.6282E-01
     -2.480  0.5234E-01  0.7385E-01  0.3451E+00
     -2.378  0.2457E-01  0.5045E-01  0.1540E+00
     -2.276  0.2626E-01  0.2961E-01  0.5607E-01
     -2.174  0.2946E-01  0.5644E-01  0.1123E+00
     -2.071  0.1570E-01  0.7927E-01  0.1955E+00
     -1.969  0.4494E-02  0.2142E-01  0.5696E-01
     -1.867  0.4645E-02  0.4494E-02  0.1342E-01
     -1.765  0.3842E-01  0.1152E+00  0.1651E+00
     -1.662  0.1027E+00  0.1823E+00  0.2653E+00
     -1.560  0.1434E+00  0.1091E+00  0.1555E+00
     -1.458  0.8753E-01  0.5081E-01  0.1995E+00
     -1.355  0.4406E-01  0.4653E-01  0.1331E+00
     -1.253  0.4077E-01  0.2881E-01  0.3519E-01
     -1.151  0.5707E-01  0.4923E-01  0.8755E-01
     -1.049  0.7784E-01  0.7647E-01  0.9921E-01
     -0.946  0.7093E-01  0.3108E-01  0.1066E+00
     -0.844  0.1184E-01  0.3090E-01  0.1144E+00
     -0.742  0.1319E-01  0.5638E-01  0.1436E+00
     -0.640  0.2331E-01  0.1124E+00  0.2064E+00
     -0.537  0.1162E-01  0.1686E+00  0.6868E-01
     -0.435  0.1511E-01  0.1130E+00  0.3851E-01
     -0.333  0.3429E-01  0.1183E+00  0.7485E-01
     -0.231  0.9092E-02  0.1428E+00  0.5727E-01
     -0.128  0.8318E-02  0.7561E-01  0.2216E-01
     -0.026  0.1666E-01  0.1348E+00  0.5101E-01
      0.076  0.2001E-01  0.1548E+00  0.5879E-01
      0.179  0.1025E-01  0.4473E-01  0.3728E-01
      0.281  0.3495E-02  0.4214E-01  0.3744E-01
      0.383  0.2020E-01  0.1298E+00  0.4974E-01
      0.485  0.2137E-01  0.1339E+00  0.5503E-01
      0.588  0.9057E-02  0.9943E-01  0.3635E-01
      0.690  0.9530E-02  0.1311E+00  0.6666E-01
      0.792  0.3441E-01  0.1423E+00  0.1106E+00
      0.894  0.2998E-01  0.1264E+00  0.5302E-01
      0.997  0.1031E-01  0.4192E-01  0.2357E-01
      1.099  0.1919E-01  0.4694E-01  0.4468E-01
      1.201  0.2202E-01  0.9145E-01  0.6088E-01
      1.304  0.3236E-01  0.9175E-01  0.4679E-01
      1.406  0.4579E-01  0.6124E-01  0.7981E-01
      1.508  0.1117E-01  0.2047E-01  0.3967E-01
      1.610 -0.8154E-03  0.9883E-02  0.7659E-02
      1.713  0.1863E-02  0.5595E-01  0.4646E-01
      1.815  0.3587E-02  0.3118E-01  0.2102E-01
      1.917  0.1469E-01  0.5252E-01  0.2727E-01
      2.019  0.2133E-01  0.8352E-01  0.5815E-01
      2.122  0.1610E-01  0.1125E+00  0.8383E-01
      2.224  0.1405E-01  0.6259E-01  0.3881E-01
      2.326  0.4367E-01  0.6622E-01  0.5605E-01
      2.428  0.1626E-01  0.6696E-01  0.5454E-01
      2.531 -0.1028E-02  0.3272E-01  0.2708E-01
      2.633  0.4324E-02  0.8932E-03  0.5409E-02
      2.735  0.1863E-03  0.5317E-02  0.1876E-01
      2.838  0.4913E-01  0.1437E-01  0.4466E-01
      2.940  0.1591E+00  0.2041E-01  0.4977E-01
      3.042  0.6993E-01  0.4122E-01  0.6392E-01
      3.144  0.5103E-01  0.5675E-01  0.7861E-01
      3.247  0.6399E-01  0.5032E-01  0.6476E-01
      3.349  0.1489E+00  0.1039E+00  0.8626E-01
      3.451  0.9892E-01  0.1039E+00  0.9663E-01
      3.553  0.3616E-01  0.8955E-01  0.9388E-01
      3.656  0.5603E-01  0.4001E-01  0.6449E-01
      3.758  0.9890E-01  0.4218E-01  0.5730E-01
      3.860  0.6493E-01  0.6896E-01  0.3438E-01
      3.962  0.8439E-01  0.1004E+00  0.6425E-01
      4.065  0.1428E+00  0.1178E+00  0.7194E-01
      4.167  0.8462E-01  0.6176E-01  0.4587E-01
      4.269  0.4613E-01  0.5530E-01  0.3512E-01
      4.372  0.1033E+00  0.1253E+00  0.8715E-01
      4.474  0.9079E-01  0.1423E+00  0.1349E+00
      4.576  0.6492E-01  0.1324E+00  0.7899E-01
      4.678  0.8896E-01  0.9489E-01  0.2437E-01
      4.781  0.9034E-01  0.1110E+00  0.5939E-01
      4.883  0.5860E-01  0.6901E-01  0.7386E-01
      4.985  0.3037E-01  0.5803E-01  0.8298E-01
      5.087  0.1842E-01  0.5933E-01  0.3935E-01
      5.190  0.5233E-01  0.1464E+00  0.6831E-01
      5.292  0.7557E-01  0.9202E-01  0.4277E-01
      5.394  0.6428E-01  0.6122E-01  0.4441E-01
      5.496  0.1997E-01  0.4832E-01  0.5259E-01
      5.599  0.3892E-01  0.9399E-01  0.5375E-01
      5.701  0.9036E-01  0.1486E+00  0.6332E-01
      5.803  0.4612E-01  0.5232E-01  0.1977E-01
      5.906  0.5311E-01  0.6005E-01  0.4371E-01
      6.008  0.2619E-01  0.1117E+00  0.6545E-01
      6.110  0.3871E-01  0.1002E+00  0.6545E-01
      6.212  0.8697E-01  0.1160E+00  0.6492E-01
      6.315  0.9361E-01  0.1255E+00  0.4361E-01
      6.417  0.7790E-01  0.1585E+00  0.6257E-01
      6.519  0.7882E-01  0.1309E+00  0.8950E-01
      6.621  0.5115E-01  0.8211E-01  0.5173E-01
      6.724  0.4399E-01  0.1244E+00  0.5214E-01
      6.826  0.2195E-01  0.5439E-01  0.2697E-01
      6.928  0.4231E-01  0.9725E-01  0.9179E-01
      7.031  0.7388E-01  0.1473E+00  0.8034E-01
      7.133  0.2592E-01  0.3553E-01  0.1425E-01
      7.235  0.2017E-01  0.7828E-01  0.3356E-01
      7.337  0.5767E-01  0.7405E-01  0.6903E-01
      7.440  0.4917E-01  0.4166E-01  0.7639E-01
      7.542  0.1329E-01  0.4088E-01  0.3372E-01
      7.644  0.5829E-02  0.3582E-01  0.3868E-01
      7.746  0.7859E-02  0.1888E-01  0.1441E-01
      7.849  0.7149E-02 -0.2797E-03  0.1212E-01
      7.951  0.7072E-03 -0.1191E-03  0.1285E-02
      8.053 -0.1939E-03 -0.2766E-04 -0.3472E-03
      8.155 -0.4617E-05 -0.6170E-06 -0.8275E-05
      8.258 -0.9647E-08 -0.1286E-08 -0.1729E-07
      8.360 -0.2211E-11 -0.2947E-12 -0.3962E-11
      8.462 -0.5791E-16 -0.7718E-17 -0.1038E-15
      8.565  0.0000E+00  0.0000E+00  0.0000E+00
      8.667  0.0000E+00  0.0000E+00  0.0000E+00
      8.769  0.0000E+00  0.0000E+00  0.0000E+00
      8.871  0.0000E+00  0.0000E+00  0.0000E+00
      8.974  0.0000E+00  0.0000E+00  0.0000E+00
      9.076  0.0000E+00  0.0000E+00  0.0000E+00
      9.178  0.0000E+00  0.0000E+00  0.0000E+00
      9.17813086    -21.50220789  301     -1.75962466      1.00000000
    -21.502  0.0000E+00  0.0000E+00  0.0000E+00
    -21.400  0.0000E+00  0.0000E+00  0.0000E+00
    -21.298  0.0000E+00  0.0000E+00  0.0000E+00
    -21.195  0.0000E+00  0.0000E+00  0.0000E+00
    -21.093  0.0000E+00  0.0000E+00  0.0000E+00
    -20.991 -0.4855E-40 -0.2761E-40 -0.1007E-40
    -20.889 -0.1143E-32 -0.6643E-33 -0.2517E-33
    -20.786 -0.3278E-26 -0.1953E-26 -0.7716E-27
    -20.684 -0.1104E-20 -0.6754E-21 -0.2785E-21
    -20.582 -0.4563E-16 -0.2882E-16 -0.1251E-16
    -20.480 -0.2199E-12 -0.1437E-12 -0.6569E-13
    -20.377 -0.1174E-09 -0.7974E-10 -0.3853E-10
    -20.275 -0.5652E-08 -0.4037E-08 -0.2086E-08
    -20.173  0.1845E-07  0.1192E-07  0.5324E-08
    -20.070  0.2387E-06  0.1773E-06  0.9610E-07
    -19.968  0.9437E-07  0.7513E-07  0.4402E-07
    -19.866 -0.1055E-07 -0.8000E-08 -0.4443E-08
    -19.764 -0.7123E-09 -0.5880E-09 -0.3578E-09
    -19.661 -0.3227E-11 -0.2818E-11 -0.1810E-11
    -19.559 -0.1551E-14 -0.1430E-14 -0.9630E-15
    -19.457 -0.8591E-19 -0.8365E-19 -0.5890E-19
    -19.355  0.0000E+00  0.0000E+00  0.0000E+00
    -19.252  0.0000E+00  0.0000E+00  0.0000E+00
    -19.150  0.0000E+00  0.0000E+00  0.0000E+00
    -19.048  0.0000E+00  0.0000E+00  0.0000E+00
    -18.946  0.0000E+00  0.0000E+00  0.0000E+00
    -18.843  0.0000E+00  0.0000E+00  0.0000E+00
    -18.741  0.0000E+00  0.0000E+00  0.0000E+00
    -18.639  0.0000E+00  0.0000E+00  0.0000E+00
    -18.536  0.0000E+00  0.0000E+00  0.0000E+00
    -18.434  0.0000E+00  0.0000E+00  0.0000E+00
    -18.332  0.0000E+00  0.0000E+00  0.0000E+00
    -18.230  0.0000E+00  0.0000E+00  0.0000E+00
    -18.127  0.0000E+00  0.0000E+00  0.0000E+00
    -18.025  0.0000E+00  0.0000E+00  0.0000E+00
    -17.923  0.0000E+00  0.0000E+00  0.0000E+00
    -17.821  0.0000E+00  0.0000E+00  0.0000E+00
    -17.718  0.0000E+00  0.0000E+00  0.0000E+00
    -17.616  0.0000E+00  0.0000E+00  0.0000E+00
    -17.514  0.0000E+00  0.0000E+00  0.0000E+00
    -17.411  0.0000E+00  0.0000E+00  0.0000E+00
    -17.309  0.0000E+00  0.0000E+00  0.0000E+00
    -17.207  0.0000E+00  0.0000E+00  0.0000E+00
    -17.105  0.0000E+00  0.0000E+00  0.0000E+00
    -17.002  0.0000E+00  0.0000E+00  0.0000E+00
    -16.900  0.0000E+00  0.0000E+00  0.0000E+00
    -16.798  0.0000E+00  0.0000E+00  0.0000E+00
    -16.696  0.0000E+00  0.0000E+00  0.0000E+00
    -16.593  0.0000E+00  0.0000E+00  0.0000E+00
    -16.491  0.0000E+00  0.0000E+00  0.0000E+00
    -16.389  0.0000E+00  0.0000E+00  0.0000E+00
    -16.287  0.0000E+00  0.0000E+00  0.0000E+00
    -16.184  0.0000E+00  0.0000E+00  0.0000E+00
    -16.082  0.0000E+00  0.0000E+00  0.0000E+00
    -15.980  0.0000E+00  0.0000E+00  0.0000E+00
    -15.877  0.0000E+00  0.0000E+00  0.0000E+00
    -15.775  0.0000E+00  0.0000E+00  0.0000E+00
    -15.673  0.0000E+00  0.0000E+00  0.0000E+00
    -15.571  0.0000E+00  0.0000E+00  0.0000E+00
    -15.468  0.0000E+00  0.0000E+00  0.0000E+00
    -15.366  0.0000E+00  0.0000E+00  0.0000E+00
    -15.264  0.0000E+00  0.0000E+00  0.0000E+00
    -15.162  0.0000E+00  0.0000E+00  0.0000E+00
    -15.059  0.0000E+00  0.0000E+00  0.0000E+00
    -14.957  0.0000E+00  0.0000E+00  0.0000E+00
    -14.855  0.0000E+00  0.0000E+00  0.0000E+00
    -14.753  0.0000E+00  0.0000E+00  0.0000E+00
    -14.650  0.0000E+00  0.0000E+00  0.0000E+00
    -14.548  0.0000E+00  0.0000E+00  0.0000E+00
    -14.446  0.0000E+00  0.0000E+00  0.0000E+00
    -14.343  0.0000E+00  0.0000E+00  0.0000E+00
    -14.241  0.0000E+00  0.0000E+00  0.0000E+00
    -14.139  0.0000E+00  0.0000E+00  0.0000E+00
    -14.037  0.0000E+00  0.0000E+00  0.0000E+00
    -13.934  0.0000E+00  0.0000E+00  0.0000E+00
    -13.832  0.0000E+00  0.0000E+00  0.0000E+00
    -13.730  0.0000E+00  0.0000E+00  0.0000E+00
    -13.628  0.0000E+00  0.0000E+00  0.0000E+00
    -13.525  0.0000E+00  0.0000E+00  0.0000E+00
    -13.423  0.0000E+00  0.0000E+00  0.0000E+00
    -13.321  0.0000E+00  0.0000E+00  0.0000E+00
    -13.219  0.0000E+00  0.0000E+00  0.0000E+00
    -13.116  0.0000E+00  0.0000E+00  0.0000E+00
    -13.014  0.0000E+00  0.0000E+00  0.0000E+00
    -12.912  0.0000E+00  0.0000E+00  0.0000E+00
    -12.809  0.0000E+00  0.0000E+00  0.0000E+00
    -12.707  0.0000E+00  0.0000E+00  0.0000E+00
    -12.605  0.0000E+00  0.0000E+00  0.0000E+00
    -12.503  0.0000E+00  0.0000E+00  0.0000E+00
    -12.400  0.0000E+00  0.0000E+00  0.0000E+00