       N       E                     dE             d eps       ncg     rms          rms(c)
DAV:   1     0.108739302504E+04    0.10874E+04   -0.50289E+04  2304   0.132E+03
DAV:   2     0.394527282907E+02   -0.10479E+04   -0.99476E+03  2304   0.316E+02
DAV:   3    -0.554172065044E+02   -0.94870E+02   -0.88367E+02  3696   0.133E+02
DAV:   4    -0.597924113094E+02   -0.43752E+01   -0.43618E+01  2712   0.298E+01
DAV:   5    -0.599027218825E+02   -0.11031E+00   -0.11028E+00  3000   0.434E+00    0.279E+01
DAV:   6    -0.549688478786E+02    0.49339E+01   -0.13027E+02  3168   0.124E+02    0.195E+01
DAV:   7    -0.482400613854E+02    0.67288E+01   -0.48563E+01  3720   0.738E+01    0.558E+00
DAV:   8    -0.478041669693E+02    0.43589E+00   -0.81361E+00  3912   0.428E+01    0.345E+00
DAV:   9    -0.476891131756E+02    0.11505E+00   -0.17011E+00  3648   0.237E+01    0.184E+00
DAV:  10    -0.476664702710E+02    0.22643E-01   -0.70403E-01  4344   0.884E+00    0.219E+00
DAV:  11    -0.476233689212E+02    0.43101E-01   -0.18669E-01  3504   0.752E+00    0.143E+00
DAV:  12    -0.476060058330E+02    0.17363E-01   -0.23641E-01  4128   0.436E+00    0.665E-01
DAV:  13    -0.475997134629E+02    0.62924E-02   -0.44202E-02  3360   0.215E+00    0.253E-01
DAV:  14    -0.475995334856E+02    0.17998E-03   -0.96464E-03  3552   0.127E+00    0.843E-02
DAV:  15    -0.475996001485E+02   -0.66663E-04   -0.19051E-03  3288   0.652E-01    0.817E-02
DAV:  16    -0.475995146976E+02    0.85451E-04   -0.10042E-03  2952   0.431E-01    0.521E-02
DAV:  17    -0.475995746513E+02   -0.59954E-04   -0.28428E-04  2568   0.215E-01
   1 F= -.47599575E+02 E0= -.47597146E+02  d E =-.728603E-02
