 vasp.5.4.1 05Feb16 (build Feb 08 2018 09:21:51) complex                        
  
 executed on             LinuxIFC date 2019.11.21  23:49:14
 running on   24 total cores
 distrk:  each k-point on   24 cores,    1 groups
 distr:  one band on NCORES_PER_BAND=   1 cores,   24 groups


--------------------------------------------------------------------------------------------------------


 INCAR:
 POTCAR:    PAW_PBE Cu 22Jun2005                  
 POTCAR:    PAW_PBE O 08Apr2002                   

 ----------------------------------------------------------------------------- 
|                                                                             |
|           W    W    AA    RRRRR   N    N  II  N    N   GGGG   !!!           |
|           W    W   A  A   R    R  NN   N  II  NN   N  G    G  !!!           |
|           W    W  A    A  R    R  N N  N  II  N N  N  G       !!!           |
|           W WW W  AAAAAA  RRRRR   N  N N  II  N  N N  G  GGG   !            |
|           WW  WW  A    A  R   R   N   NN  II  N   NN  G    G                |
|           W    W  A    A  R    R  N    N  II  N    N   GGGG   !!!           |
|                                                                             |
|      For optimal performance we recommend to set                            |
|        NCORE= 4 - approx SQRT( number of cores)                             |
|      NCORE specifies how many cores store one orbital (NPAR=cpu/NCORE).     |
|      This setting can  greatly improve the performance of VASP for DFT.     |
|      The default, NPAR=number of cores might be grossly inefficient         |
|      on modern multi-core architectures or massively parallel machines.     |
|      Do your own testing !!!!                                               |
|      Unfortunately you need to use the default for GW and RPA calculations. |
|      (for HF NCORE is supported but not extensively tested yet)             |
|                                                                             |
 ----------------------------------------------------------------------------- 

 POTCAR:    PAW_PBE Cu 22Jun2005                  
   VRHFIN =Cu: d10 p1                                                           
   LEXCH  = PE                                                                  
   EATOM  =  1390.9808 eV,  102.2342 Ry                                         
                                                                                
   TITEL  = PAW_PBE Cu 22Jun2005                                                
   LULTRA =        F    use ultrasoft PP ?                                      
   IUNSCR =        1    unscreen: 0-lin 1-nonlin 2-no                           
   RPACOR =    2.000    partial core radius                                     
   POMASS =   63.546; ZVAL   =   11.000    mass and valenz                      
   RCORE  =    2.300    outmost cutoff radius                                   
   RWIGS  =    2.200; RWIGS  =    1.164    wigner-seitz radius (au A)           
   ENMAX  =  295.446; ENMIN  =  221.585 eV                                      
   ICORE  =        3    local potential                                         
   LCOR   =        T    correct aug charges                                     
   LPAW   =        T    paw PP                                                  
   EAUG   =  586.980                                                            
   DEXC   =    0.000                                                            
   RMAX   =    2.344    core radius for proj-oper                               
   RAUG   =    1.300    factor for augmentation sphere                          
   RDEP   =    2.302    radius for radial grids                                 
   RDEPT  =    1.771    core radius for aug-charge                              
                                                                                
   Atomic configuration                                                         
    9 entries                                                                   
     n  l   j            E        occ.                                          
     1  0  0.50     -8850.2468   2.0000                                         
     2  0  0.50     -1062.3498   2.0000                                         
     2  1  1.50      -916.8226   6.0000                                         
     3  0  0.50      -114.6929   2.0000                                         
     3  1  1.50       -72.1325   6.0000                                         
     3  2  2.50        -5.0394  10.0000                                         
     4  0  0.50        -4.6097   1.0000                                         
     4  1  0.50        -4.0817   0.0000                                         
     4  3  2.50        -1.3606   0.0000                                         
   Description                                                                  
     l       E           TYP  RCUT    TYP  RCUT                                 
     2     -5.0393973     23  2.200                                             
     2     10.8846608     23  2.200                                             
     0     -4.6097109     23  2.200                                             
     0      8.2520465     23  2.200                                             
     1     -2.7211652     23  2.200                                             
     1     21.7055443     23  2.200                                             
     3      2.7211652     23  2.300                                             
  local pseudopotential read in
  partial core-charges read in
  partial kinetic energy density read in
  atomic valenz-charges read in
  non local Contribution for L=           2  read in
    real space projection operators read in
  non local Contribution for L=           2  read in
    real space projection operators read in
  non local Contribution for L=           0  read in
    real space projection operators read in
  non local Contribution for L=           0  read in
    real space projection operators read in
  non local Contribution for L=           1  read in
    real space projection operators read in
  non local Contribution for L=           1  read in
    real space projection operators read in
    PAW grid and wavefunctions read in
 
   number of l-projection  operators is LMAX  =           6
   number of lm-projection operators is LMMAX =          18
 
 POTCAR:    PAW_PBE O 08Apr2002                   
   VRHFIN =O: s2p4                                                              
   LEXCH  = PE                                                                  
   EATOM  =   432.3788 eV,   31.7789 Ry                                         
                                                                                
   TITEL  = PAW_PBE O 08Apr2002                                                 
   LULTRA =        F    use ultrasoft PP ?                                      
   IUNSCR =        1    unscreen: 0-lin 1-nonlin 2-no                           
   RPACOR =    1.200    partial core radius                                     
   POMASS =   16.000; ZVAL   =    6.000    mass and valenz                      
   RCORE  =    1.520    outmost cutoff radius                                   
   RWIGS  =    1.550; RWIGS  =    0.820    wigner-seitz radius (au A)           
   ENMAX  =  400.000; ENMIN  =  300.000 eV                                      
   ICORE  =        2    local potential                                         
   LCOR   =        T    correct aug charges                                     
   LPAW   =        T    paw PP                                                  
   EAUG   =  605.392                                                            
   DEXC   =    0.000                                                            
   RMAX   =    1.553    core radius for proj-oper                               
   RAUG   =    1.300    factor for augmentation sphere                          
   RDEP   =    1.550    radius for radial grids                                 
   RDEPT  =    1.329    core radius for aug-charge                              
                                                                                
   Atomic configuration                                                         
    4 entries                                                                   
     n  l   j            E        occ.                                          
     1  0  0.50      -514.6923   2.0000                                         
     2  0  0.50       -23.9615   2.0000                                         
     2  1  0.50        -9.0305   4.0000                                         
     3  2  1.50        -9.5241   0.0000                                         
   Description                                                                  
     l       E           TYP  RCUT    TYP  RCUT                                 
     0    -23.9615318     23  1.200                                             
     0     -9.5240782     23  1.200                                             
     1     -9.0304911     23  1.520                                             
     1      8.1634956     23  1.520                                             
     2     -9.5240782      7  1.500                                             
  local pseudopotential read in
  partial core-charges read in
  partial kinetic energy density read in
  kinetic energy density of atom read in
  atomic valenz-charges read in
  non local Contribution for L=           0  read in
    real space projection operators read in
  non local Contribution for L=           0  read in
    real space projection operators read in
  non local Contribution for L=           1  read in
    real space projection operators read in
  non local Contribution for L=           1  read in
    real space projection operators read in
    PAW grid and wavefunctions read in
 
   number of l-projection  operators is LMAX  =           4
   number of lm-projection operators is LMMAX =           8
 
  PAW_PBE Cu 22Jun2005                  :
 energy of atom  1       EATOM=-1390.9808
 kinetic energy error for atom=    0.0232 (will be added to EATOM!!)
  PAW_PBE O 08Apr2002                   :
 energy of atom  2       EATOM= -432.3788
 kinetic energy error for atom=    0.1156 (will be added to EATOM!!)
 
 
 POSCAR: Cu  O                                   
  positions in cartesian coordinates
  No initial velocities read in
 exchange correlation table for  LEXCH =        8
   RHO(1)=    0.500       N(1)  =     2000
   RHO(2)=  100.500       N(2)  =     4000
 


--------------------------------------------------------------------------------------------------------


 ion  position               nearest neighbor table
   1  0.167  0.167  0.415-   5 2.52   8 2.52   6 2.52   2 2.57   3 2.57   4 2.57   4 2.57   2 2.57
                             3 2.57
   2  0.667  0.166  0.414-   6 2.54   5 2.54   3 2.57   4 2.57   1 2.57   1 2.57   3 2.58   4 2.58
                             7 2.59
   3  0.166  0.667  0.414-   6 2.54   8 2.54   2 2.57   4 2.57   1 2.57   1 2.57   2 2.58   4 2.58
                             7 2.59
   4  0.667  0.667  0.414-   8 2.54   5 2.54   3 2.57   2 2.57   1 2.57   1 2.57   3 2.58   2 2.58
                             7 2.59
   5  0.834  0.333  0.499-  12 2.48   1 2.52   4 2.54   2 2.54   8 2.56   6 2.56   7 2.57   7 2.57
                             8 2.58   6 2.58  11 2.63   9 2.63
   6  0.333  0.333  0.499-  12 2.48   1 2.52   2 2.54   3 2.54   5 2.56   8 2.56   7 2.57   7 2.57
                             5 2.58   8 2.58  11 2.63  10 2.63
   7  0.833  0.833  0.502-  10 2.53  11 2.53   9 2.53   8 2.57   5 2.57   6 2.57   6 2.57   8 2.57
                             5 2.57   4 2.59   3 2.59   2 2.59
   8  0.333  0.834  0.499-  12 2.48   1 2.52   4 2.54   3 2.54   5 2.56   6 2.56   7 2.57   7 2.57
                             5 2.58   6 2.58  10 2.63   9 2.63
   9  0.994  0.994  0.588-  13 1.89  10 2.47  11 2.47   7 2.53  12 2.58  12 2.58   8 2.63   5 2.63
                            10 2.67  11 2.67
  10  0.513  0.994  0.588-  13 1.89  11 2.47   9 2.47   7 2.53  12 2.58  12 2.58   8 2.63   6 2.63
                            11 2.67   9 2.67
  11  0.994  0.513  0.588-  13 1.89  10 2.47   9 2.47   7 2.53  12 2.58  12 2.58   5 2.63   6 2.63
                            10 2.67   9 2.67
  12  0.500  0.500  0.581-   6 2.48   5 2.48   8 2.48  11 2.58  10 2.58   9 2.58   9 2.58  11 2.58
                            10 2.58
  13  0.167  0.167  0.633-  10 1.89  11 1.89   9 1.89
 
  LATTYP: Found a hexagonal cell.
 ALAT       =     5.1420805075
 C/A-ratio  =     4.7059728304
  
  Lattice vectors:
  
 A1 = (   2.5710402500,  -4.4531723500,   0.0000000000)
 A2 = (  -5.1420805100,   0.0000000000,   0.0000000000)
 A3 = (   0.0000000000,   0.0000000000, -24.1984911600)


Analysis of symmetry for initial positions (statically):
=====================================================================
 Subroutine PRICEL returns:
 Original cell was already a primitive cell.
 

 Routine SETGRP: Setting up the symmetry group for a 
 hexagonal supercell.


 Subroutine GETGRP returns: Found  6 space group operations
 (whereof  2 operations were pure point group operations)
 out of a pool of 24 trial point group operations.


The static configuration has the point symmetry C_1h.
 The point group associated with its full space group is C_3v.


Analysis of symmetry for dynamics (positions and initial velocities):
=====================================================================
 Subroutine PRICEL returns:
 Original cell was already a primitive cell.
 

 Routine SETGRP: Setting up the symmetry group for a 
 hexagonal supercell.


 Subroutine GETGRP returns: Found  6 space group operations
 (whereof  2 operations were pure point group operations)
 out of a pool of 24 trial point group operations.


The dynamic configuration has the point symmetry C_1h.
 The point group associated with its full space group is C_3v.


 Subroutine INISYM returns: Found  6 space group operations
 (whereof  2 operations are pure point group operations),
 and found     1 'primitive' translations

 
 
 KPOINTS: KPOINTS created by Atomic Simulation Env

Automatic generation of k-mesh.
Space group operators:
 irot       det(A)        alpha          n_x          n_y          n_z        tau_x        tau_y        tau_z
    1     1.000000     0.000000     1.000000     0.000000     0.000000     0.000000     0.000000     0.000000
    2    -1.000000   180.000000     0.500000    -0.866025     0.000000     0.000000     0.000000     0.000000
    3     1.000000   120.000000     0.000000     0.000000     1.000000     0.000000    -0.500000     0.000000
    4     1.000000   120.000000     0.000000     0.000000    -1.000000    -0.500000     0.000000     0.000000
    5    -1.000000   180.000000     1.000000    -0.000000     0.000000    -0.500000     0.000000     0.000000
    6    -1.000000   179.999999    -0.500000    -0.866025     0.000000     0.000000    -0.500000     0.000000
 
 Subroutine IBZKPT returns following result:
 ===========================================
 
 Found     12 irreducible k-points:
 
 Following reciprocal coordinates:
            Coordinates               Weight
  0.000000  0.000000  0.000000      1.000000
  0.111111  0.000000  0.000000      6.000000
  0.222222  0.000000  0.000000      6.000000
  0.333333 -0.000000  0.000000      6.000000
  0.444444  0.000000  0.000000      6.000000
  0.222222  0.111111  0.000000      6.000000
  0.333333  0.111111  0.000000     12.000000
  0.444444  0.111111  0.000000     12.000000
 -0.444444  0.111111  0.000000      6.000000
  0.444444  0.222222  0.000000      6.000000
 -0.444444  0.222222  0.000000     12.000000
 -0.333333  0.333333  0.000000      2.000000
 
 Following cartesian coordinates:
            Coordinates               Weight
  0.000000  0.000000  0.000000      1.000000
  0.021608 -0.012476  0.000000      6.000000
  0.043216 -0.024951  0.000000      6.000000
  0.064825 -0.037427  0.000000      6.000000
  0.086433 -0.049902  0.000000      6.000000
  0.043216 -0.000000  0.000000      6.000000
  0.064825 -0.012476  0.000000     12.000000
  0.086433 -0.024951  0.000000     12.000000
 -0.086433  0.074853  0.000000      6.000000
  0.086433 -0.000000  0.000000      6.000000
 -0.086433  0.099804  0.000000     12.000000
 -0.064825  0.112280  0.000000      2.000000
 


--------------------------------------------------------------------------------------------------------




 Dimension of arrays:
   k-points           NKPTS =     12   k-points in BZ     NKDIM =     12   number of bands    NBANDS=     96
   number of dos      NEDOS =    301   number of ions     NIONS =     13
   non local maximal  LDIM  =      6   non local SUM 2l+1 LMDIM =     18
   total plane-waves  NPLWV =  94080
   max r-space proj   IRMAX =      1   max aug-charges    IRDMAX=   5117
   dimension x,y,z NGX =    28 NGY =   28 NGZ =  120
   dimension x,y,z NGXF=    56 NGYF=   56 NGZF=  240
   support grid    NGXF=    56 NGYF=   56 NGZF=  240
   ions per type =              12   1
 NGX,Y,Z   is equivalent  to a cutoff of   9.05,  9.05,  8.24 a.u.
 NGXF,Y,Z  is equivalent  to a cutoff of  18.11, 18.11, 16.49 a.u.


 I would recommend the setting:
   dimension x,y,z NGX =    25 NGY =   25 NGZ =  118
 SYSTEM =  unknown system                          
 POSCAR =  Cu  O                                   

 Startparameter for this run:
   NWRITE =      2    write-flag & timer
   PREC   = normal    normal or accurate (medium, high low for compatibility)
   ISTART =      0    job   : 0-new  1-cont  2-samecut
   ICHARG =      2    charge: 1-file 2-atom 10-const
   ISPIN  =      1    spin polarized calculation?
   LNONCOLLINEAR =      F non collinear calculations
   LSORBIT =      F    spin-orbit coupling
   INIWAV =      1    electr: 0-lowe 1-rand  2-diag
   LASPH  =      F    aspherical Exc in radial PAW
   METAGGA=      F    non-selfconsistent MetaGGA calc.

 Electronic Relaxation 1
   ENCUT  =  400.0 eV  29.40 Ry    5.42 a.u.   8.39  8.39 39.46*2*pi/ulx,y,z
   ENINI  =  400.0     initial cutoff
   ENAUG  =  605.4 eV  augmentation charge cutoff
   NELM   =     60;   NELMIN=  2; NELMDL= -5     # of ELM steps 
   EDIFF  = 0.1E-03   stopping-criterion for ELM
   LREAL  =      F    real-space projection
   NLSPLINE    = F    spline interpolate recip. space projectors
   LCOMPAT=      F    compatible to vasp.4.4
   GGA_COMPAT  = T    GGA compatible to vasp.4.4-vasp.4.6
   LMAXPAW     = -100 max onsite density
   LMAXMIX     =    2 max onsite mixed and CHGCAR
   VOSKOWN=      0    Vosko Wilk Nusair interpolation
   ROPT   =    0.00000   0.00000
 Ionic relaxation
   EDIFFG = 0.1E-02   stopping-criterion for IOM
   NSW    =      0    number of steps for IOM
   NBLOCK =      1;   KBLOCK =      1    inner block; outer block 
   IBRION =     -1    ionic relax: 0-MD 1-quasi-New 2-CG
   NFREE  =      0    steps in history (QN), initial steepest desc. (CG)
   ISIF   =      2    stress and relaxation
   IWAVPR =     10    prediction:  0-non 1-charg 2-wave 3-comb
   ISYM   =      2    0-nonsym 1-usesym 2-fastsym
   LCORR  =      T    Harris-Foulkes like correction to forces

   POTIM  = 0.5000    time-step for ionic-motion
   TEIN   =    0.0    initial temperature
   TEBEG  =    0.0;   TEEND  =   0.0 temperature during run
   SMASS  =  -3.00    Nose mass-parameter (am)
   estimated Nose-frequenzy (Omega)   =  0.10E-29 period in steps =****** mass=  -0.604E-27a.u.
   SCALEE = 1.0000    scale energy and forces
   NPACO  =    256;   APACO  = 16.0  distance and # of slots for P.C.
   PSTRESS=    0.0 pullay stress

  Mass of Ions in am
   POMASS =  63.55 16.00
  Ionic Valenz
   ZVAL   =  11.00  6.00
  Atomic Wigner-Seitz radii
   RWIGS  =  -1.00 -1.00
  virtual crystal weights 
   VCA    =   1.00  1.00
   NELECT =     138.0000    total number of electrons
   NUPDOWN=      -1.0000    fix difference up-down

 DOS related values:
   EMIN   =  10.00;   EMAX   =-10.00  energy-range for DOS
   EFERMI =   0.00
   ISMEAR =     1;   SIGMA  =   0.10  broadening in eV -4-tet -1-fermi 0-gaus

 Electronic relaxation 2 (details)
   IALGO  =     38    algorithm
   LDIAG  =      T    sub-space diagonalisation (order eigenvalues)
   LSUBROT=      F    optimize rotation matrix (better conditioning)
   TURBO    =      0    0=normal 1=particle mesh
   IRESTART =      0    0=no restart 2=restart with 2 vectors
   NREBOOT  =      0    no. of reboots
   NMIN     =      0    reboot dimension
   EREF     =   0.00    reference energy to select bands
   IMIX   =      4    mixing-type and parameters
     AMIX     =   0.40;   BMIX     =  1.00
     AMIX_MAG =   1.60;   BMIX_MAG =  1.00
     AMIN     =   0.10
     WC   =   100.;   INIMIX=   1;  MIXPRE=   1;  MAXMIX= -45

 Intra band minimization:
   WEIMIN = 0.0000     energy-eigenvalue tresh-hold
   EBREAK =  0.26E-06  absolut break condition
   DEPER  =   0.30     relativ break condition  

   TIME   =   0.40     timestep for ELM

  volume/ion in A,a.u.               =      42.62       287.64
  Fermi-wavevector in a.u.,A,eV,Ry     =   1.029996  1.946411 14.434315  1.060892
  Thomas-Fermi vector in A             =   2.164072
 
 Write flags
   LWAVE  =      F    write WAVECAR
   LCHARG =      F    write CHGCAR
   LVTOT  =      F    write LOCPOT, total local potential
   LVHAR  =      F    write LOCPOT, Hartree potential only
   LELF   =      F    write electronic localiz. function (ELF)
   LORBIT =     10    0 simple, 1 ext, 2 COOP (PROOUT)


 Dipole corrections
   LMONO  =      F    monopole corrections only (constant potential shift)
   LDIPOL =      F    correct potential (dipole corrections)
   IDIPOL =      0    1-x, 2-y, 3-z, 4-all directions 
   EPSILON=  1.0000000 bulk dielectric constant

 Exchange correlation treatment:
   GGA     =    --    GGA type
   LEXCH   =     8    internal setting for exchange type
   VOSKOWN=      0    Vosko Wilk Nusair interpolation
   LHFCALC =     F    Hartree Fock is set to
   LHFONE  =     F    Hartree Fock one center treatment
   AEXX    =    0.0000 exact exchange contribution

 Linear response parameters
   LEPSILON=     F    determine dielectric tensor
   LRPA    =     F    only Hartree local field effects (RPA)
   LNABLA  =     F    use nabla operator in PAW spheres
   LVEL    =     F    velocity operator in full k-point grid
   LINTERFAST=   F  fast interpolation
   KINTER  =     0    interpolate to denser k-point grid
   CSHIFT  =0.1000    complex shift for real part using Kramers Kronig
   OMEGAMAX=  -1.0    maximum frequency
   DEG_THRESHOLD= 0.2000000E-02 threshold for treating states as degnerate
   RTIME   =    0.100 relaxation time in fs

 Orbital magnetization related:
   ORBITALMAG=     F  switch on orbital magnetization
   LCHIMAG   =     F  perturbation theory with respect to B field
   DQ        =  0.001000  dq finite difference perturbation B field



--------------------------------------------------------------------------------------------------------


 Static calculation
 charge density and potential will be updated during run
 non-spin polarized calculation
 Variant of blocked Davidson
 Davidson routine will perform the subspace rotation
 perform sub-space diagonalisation
    after iterative eigenvector-optimisation
 modified Broyden-mixing scheme, WC =      100.0
 initial mixing is a Kerker type mixing with AMIX =  0.4000 and BMIX =      1.0000
 Hartree-type preconditioning will be used
 using additional bands           27
 reciprocal scheme for non local part
 use partial core corrections
 calculate Harris-corrections to forces 
   (improved forces if not selfconsistent)
 use gradient corrections 
 use of overlap-Matrix (Vanderbilt PP)
 Methfessel and Paxton  Order N= 1 SIGMA  =   0.10


--------------------------------------------------------------------------------------------------------


  energy-cutoff  :      400.00
  volume of cell :      554.11
      direct lattice vectors                 reciprocal lattice vectors
     5.142080510  0.000000000  0.000000000     0.194473812 -0.112279508  0.000000000
     2.571040260  4.453172350  0.000000000     0.000000000  0.224559016  0.000000000
     0.000000000  0.000000000 24.198491160     0.000000000  0.000000000  0.041324891

  length of vectors
     5.142080510  5.142080513 24.198491160     0.224559016  0.224559016  0.041324891


 
 k-points in units of 2pi/SCALE and weight: KPOINTS created by Atomic Simulation Env
   0.00000000  0.00000000  0.00000000       0.012
   0.02160820 -0.01247550  0.00000000       0.074
   0.04321640 -0.02495100  0.00000000       0.074
   0.06482460 -0.03742650  0.00000000       0.074
   0.08643281 -0.04990200  0.00000000       0.074
   0.04321640 -0.00000000  0.00000000       0.074
   0.06482460 -0.01247550  0.00000000       0.148
   0.08643281 -0.02495100  0.00000000       0.148
  -0.08643281  0.07485301  0.00000000       0.074
   0.08643281 -0.00000000  0.00000000       0.074
  -0.08643281  0.09980401  0.00000000       0.148
  -0.06482460  0.11227951  0.00000000       0.025
 
 k-points in reciprocal lattice and weights: KPOINTS created by Atomic Simulation Env
   0.00000000  0.00000000  0.00000000       0.012
   0.11111111  0.00000000  0.00000000       0.074
   0.22222222  0.00000000  0.00000000       0.074
   0.33333333 -0.00000000  0.00000000       0.074
   0.44444444  0.00000000  0.00000000       0.074
   0.22222222  0.11111111  0.00000000       0.074
   0.33333333  0.11111111  0.00000000       0.148
   0.44444444  0.11111111  0.00000000       0.148
  -0.44444444  0.11111111  0.00000000       0.074
   0.44444444  0.22222222  0.00000000       0.074
  -0.44444444  0.22222222  0.00000000       0.148
  -0.33333333  0.33333333  0.00000000       0.025
 
 position of ions in fractional coordinates (direct lattice) 
   0.16666667  0.16666667  0.41486685
   0.66695475  0.16609050  0.41409271
   0.16609050  0.66695475  0.41409271
   0.66695475  0.66695475  0.41409271
   0.83425813  0.33287094  0.49935389
   0.33287094  0.33287094  0.49935389
   0.83333333  0.83333333  0.50197645
   0.33287094  0.83425813  0.49935389
   0.99363413  0.99363413  0.58822492
   0.51273173  0.99363413  0.58822492
   0.99363413  0.51273173  0.58822492
   0.50000000  0.50000000  0.58132817
   0.16666667  0.16666667  0.63315493
 
 position of ions in cartesian coordinates  (Angst):
   1.28552015  0.74219541 10.03915180
   3.85656038  0.73962962 10.02041878
   2.56881824  2.97006445 10.02041878
   5.14430253  2.97006445 10.02041878
   5.14564706  1.48233167 12.08361069
   2.56747376  1.48233167 12.08361069
   6.42760062  3.71097694 12.14707269
   3.85656041  3.71509524 12.08361069
   7.66402005  4.42482403 14.23415553
   5.19118119  4.42482403 14.23415553
   6.42760061  2.28328276 14.23415553
   3.85656039  2.22658618 14.06726458
   1.28552015  0.74219541 15.32139398
 


--------------------------------------------------------------------------------------------------------


 k-point  1 :   0.0000 0.0000 0.0000  plane waves:   10129
 k-point  2 :   0.1111 0.0000 0.0000  plane waves:   10127
 k-point  3 :   0.2222 0.0000 0.0000  plane waves:   10089
 k-point  4 :   0.3333-0.0000 0.0000  plane waves:   10064
 k-point  5 :   0.4444 0.0000 0.0000  plane waves:   10042
 k-point  6 :   0.2222 0.1111 0.0000  plane waves:   10097
 k-point  7 :   0.3333 0.1111 0.0000  plane waves:   10059
 k-point  8 :   0.4444 0.1111 0.0000  plane waves:   10045
 k-point  9 :  -0.4444 0.1111 0.0000  plane waves:   10036
 k-point 10 :   0.4444 0.2222 0.0000  plane waves:   10078
 k-point 11 :  -0.4444 0.2222 0.0000  plane waves:   10068
 k-point 12 :  -0.3333 0.3333 0.0000  plane waves:   10044

 maximum and minimum number of plane-waves per node :     10129    10036

 maximum number of plane-waves:     10129
 maximum index in each direction: 
   IXMAX=    8   IYMAX=    8   IZMAX=   39
   IXMIN=   -8   IYMIN=   -8   IZMIN=  -39

 WARNING: aliasing errors must be expected set NGX to  34 to avoid them
 WARNING: aliasing errors must be expected set NGY to  34 to avoid them
 WARNING: aliasing errors must be expected set NGZ to 158 to avoid them
 aliasing errors are usually negligible using standard VASP settings
 and one can safely disregard these warnings

 serial   3D FFT for wavefunctions
 parallel 3D FFT for charge:
    minimum data exchange during FFTs selected (reduces bandwidth)


 total amount of memory used by VASP on root node    83109. kBytes
========================================================================

   base      :      30000. kBytes
   nonl-proj :      37196. kBytes
   fftplans  :       1683. kBytes
   grid      :       6047. kBytes
   one-center:        202. kBytes
   wavefun   :       7981. kBytes
 
     INWAV:  cpu time    0.0000: real time    0.0001
 Broyden mixing: mesh for mixing (old mesh)
   NGX = 17   NGY = 17   NGZ = 79
  (NGX  = 56   NGY  = 56   NGZ  =240)
  gives a total of  22831 points

 initial charge density was supplied:
 charge density of overlapping atoms calculated
 number of electron     138.0000000 magnetization 
 keeping initial charge density in first step


--------------------------------------------------------------------------------------------------------


 Maximum index for augmentation-charges          481 (set IRDMAX)


--------------------------------------------------------------------------------------------------------


 First call to EWALD:  gamma=   0.216
 Maximum number of real-space cells 5x 5x 1
 Maximum number of reciprocal cells 2x 2x 7

 FEWALD executed in parallel
    FEWALD:  cpu time    0.0017: real time    0.0025


----------------------------------------- Iteration    1(   1)  ---------------------------------------


    POTLOK:  cpu time    0.0431: real time    0.0758
    SETDIJ:  cpu time    0.0056: real time    0.0058
     EDDAV:  cpu time    2.9818: real time    2.9962
       DOS:  cpu time    0.0009: real time    0.0011
    --------------------------------------------
      LOOP:  cpu time    3.0336: real time    3.0824

 eigenvalue-minimisations  :  2304
 total energy-change (2. order) : 0.1087393E+04  (-0.5028866E+04)
 number of electron     138.0000000 magnetization 
 augmentation part      138.0000000 magnetization 

 Free energy of the ion-electron system (eV)
  ---------------------------------------------------
  alpha Z        PSCENC =       204.46100599
  Ewald energy   TEWEN  =     70410.89177291
  -Hartree energ DENC   =    -86577.35992306
  -exchange      EXHF   =         0.00000000
  -V(xc)+E(xc)   XCENC  =       573.35169484
  PAW double counting   =     15085.02939543   -16356.92975307
  entropy T*S    EENTRO =         0.00138265
  eigenvalues    EBANDS =       624.19257092
  atomic energy  EATOM  =     17123.75487843
  Solvation  Ediel_sol  =         0.00000000
  ---------------------------------------------------
  free energy    TOTEN  =      1087.39302504 eV

  energy without entropy =     1087.39164239  energy(sigma->0) =     1087.39256416


--------------------------------------------------------------------------------------------------------




----------------------------------------- Iteration    1(   2)  ---------------------------------------


     EDDAV:  cpu time    2.5564: real time    2.5617
       DOS:  cpu time    0.0006: real time    0.0006
    --------------------------------------------
      LOOP:  cpu time    2.5587: real time    2.5653

 eigenvalue-minimisations  :  2304
 total energy-change (2. order) :-0.1047940E+04  (-0.9947602E+03)
 number of electron     138.0000000 magnetization 
 augmentation part      138.0000000 magnetization 

 Free energy of the ion-electron system (eV)
  ---------------------------------------------------
  alpha Z        PSCENC =       204.46100599
  Ewald energy   TEWEN  =     70410.89177291
  -Hartree energ DENC   =    -86577.35992306
  -exchange      EXHF   =         0.00000000
  -V(xc)+E(xc)   XCENC  =       573.35169484
  PAW double counting   =     15085.02939543   -16356.92975307
  entropy T*S    EENTRO =         0.01085125
  eigenvalues    EBANDS =      -423.75719443
  atomic energy  EATOM  =     17123.75487843
  Solvation  Ediel_sol  =         0.00000000
  ---------------------------------------------------
  free energy    TOTEN  =        39.45272829 eV

  energy without entropy =       39.44187704  energy(sigma->0) =       39.44911121


--------------------------------------------------------------------------------------------------------




----------------------------------------- Iteration    1(   3)  ---------------------------------------


     EDDAV:  cpu time    3.7177: real time    3.7256
       DOS:  cpu time    0.0007: real time    0.0007
    --------------------------------------------
      LOOP:  cpu time    3.7193: real time    3.7332

 eigenvalue-minimisations  :  3696
 total energy-change (2. order) :-0.9486993E+02  (-0.8836717E+02)
 number of electron     138.0000000 magnetization 
 augmentation part      138.0000000 magnetization 

 Free energy of the ion-electron system (eV)
  ---------------------------------------------------
  alpha Z        PSCENC =       204.46100599
  Ewald energy   TEWEN  =     70410.89177291
  -Hartree energ DENC   =    -86577.35992306
  -exchange      EXHF   =         0.00000000
  -V(xc)+E(xc)   XCENC  =       573.35169484
  PAW double counting   =     15085.02939543   -16356.92975307
  entropy T*S    EENTRO =        -0.00010636
  eigenvalues    EBANDS =      -518.61617161
  atomic energy  EATOM  =     17123.75487843
  Solvation  Ediel_sol  =         0.00000000
  ---------------------------------------------------
  free energy    TOTEN  =       -55.41720650 eV

  energy without entropy =      -55.41710015  energy(sigma->0) =      -55.41717105


--------------------------------------------------------------------------------------------------------




----------------------------------------- Iteration    1(   4)  ---------------------------------------


     EDDAV:  cpu time    2.8584: real time    2.8754
       DOS:  cpu time    0.0006: real time    0.0006
    --------------------------------------------
      LOOP:  cpu time    2.8599: real time    2.8782

 eigenvalue-minimisations  :  2712
 total energy-change (2. order) :-0.4375205E+01  (-0.4361823E+01)
 number of electron     138.0000000 magnetization 
 augmentation part      138.0000000 magnetization 

 Free energy of the ion-electron system (eV)
  ---------------------------------------------------
  alpha Z        PSCENC =       204.46100599
  Ewald energy   TEWEN  =     70410.89177291
  -Hartree energ DENC   =    -86577.35992306
  -exchange      EXHF   =         0.00000000
  -V(xc)+E(xc)   XCENC  =       573.35169484
  PAW double counting   =     15085.02939543   -16356.92975307
  entropy T*S    EENTRO =        -0.00167679
  eigenvalues    EBANDS =      -522.98980598
  atomic energy  EATOM  =     17123.75487843
  Solvation  Ediel_sol  =         0.00000000
  ---------------------------------------------------
  free energy    TOTEN  =       -59.79241131 eV

  energy without entropy =      -59.79073452  energy(sigma->0) =      -59.79185238


--------------------------------------------------------------------------------------------------------




----------------------------------------- Iteration    1(   5)  ---------------------------------------


     EDDAV:  cpu time    3.2548: real time    3.2625
       DOS:  cpu time    0.0006: real time    0.0006
    CHARGE:  cpu time    0.0980: real time    0.0981
    MIXING:  cpu time    0.0014: real time    0.0014
    --------------------------------------------
      LOOP:  cpu time    3.3557: real time    3.3652

 eigenvalue-minimisations  :  3000
 total energy-change (2. order) :-0.1103106E+00  (-0.1102791E+00)
 number of electron     138.0000133 magnetization 
 augmentation part       78.6782205 magnetization 

 Broyden mixing:
  rms(total) = 0.27862E+01    rms(broyden)= 0.27859E+01
  rms(prec ) = 0.29398E+01
  weight for this iteration     100.00

 Free energy of the ion-electron system (eV)
  ---------------------------------------------------
  alpha Z        PSCENC =       204.46100599
  Ewald energy   TEWEN  =     70410.89177291
  -Hartree energ DENC   =    -86577.35992306
  -exchange      EXHF   =         0.00000000
  -V(xc)+E(xc)   XCENC  =       573.35169484
  PAW double counting   =     15085.02939543   -16356.92975307
  entropy T*S    EENTRO =        -0.00173236
  eigenvalues    EBANDS =      -523.10006099
  atomic energy  EATOM  =     17123.75487843
  Solvation  Ediel_sol  =         0.00000000
  ---------------------------------------------------
  free energy    TOTEN  =       -59.90272188 eV

  energy without entropy =      -59.90098953  energy(sigma->0) =      -59.90214443


--------------------------------------------------------------------------------------------------------




----------------------------------------- Iteration    1(   6)  ---------------------------------------


    POTLOK:  cpu time    0.0260: real time    0.0261
    SETDIJ:  cpu time    0.0031: real time    0.0031
     EDDAV:  cpu time    3.2402: real time    3.2454
       DOS:  cpu time    0.0006: real time    0.0006
    CHARGE:  cpu time    0.0963: real time    0.0963
    MIXING:  cpu time    0.0014: real time    0.0014
    --------------------------------------------
      LOOP:  cpu time    3.3688: real time    3.3756

 eigenvalue-minimisations  :  3168
 total energy-change (2. order) : 0.4933874E+01  (-0.1302731E+02)
 number of electron     138.0000130 magnetization 
 augmentation part       88.8001838 magnetization 

 Broyden mixing:
  rms(total) = 0.19522E+01    rms(broyden)= 0.19515E+01
  rms(prec ) = 0.20883E+01
  weight for this iteration     100.00

 eigenvalues of (default mixing * dielectric matrix)
  average eigenvalue GAMMA=   0.5919
  0.5919

 Free energy of the ion-electron system (eV)
  ---------------------------------------------------
  alpha Z        PSCENC =       204.46100599
  Ewald energy   TEWEN  =     70410.89177291
  -Hartree energ DENC   =    -86219.75782074
  -exchange      EXHF   =         0.00000000
  -V(xc)+E(xc)   XCENC  =       558.08739494
  PAW double counting   =     15261.15015651   -16463.79470733
  entropy T*S    EENTRO =         0.00418007
  eigenvalues    EBANDS =      -929.76570866
  atomic energy  EATOM  =     17123.75487843
  Solvation  Ediel_sol  =         0.00000000
  ---------------------------------------------------
  free energy    TOTEN  =       -54.96884788 eV

  energy without entropy =      -54.97302795  energy(sigma->0) =      -54.97024124


--------------------------------------------------------------------------------------------------------




----------------------------------------- Iteration    1(   7)  ---------------------------------------


    POTLOK:  cpu time    0.0262: real time    0.0262
    SETDIJ:  cpu time    0.0035: real time    0.0035
     EDDAV:  cpu time    3.6748: real time    3.6837
       DOS:  cpu time    0.0006: real time    0.0007
    CHARGE:  cpu time    0.1105: real time    0.1108
    MIXING:  cpu time    0.0015: real time    0.0015
    --------------------------------------------
      LOOP:  cpu time    3.8183: real time    3.8375

 eigenvalue-minimisations  :  3720
 total energy-change (2. order) : 0.6728786E+01  (-0.4856302E+01)
 number of electron     138.0000145 magnetization 
 augmentation part       85.5987303 magnetization 

 Broyden mixing:
  rms(total) = 0.55756E+00    rms(broyden)= 0.55648E+00
  rms(prec ) = 0.67716E+00
  weight for this iteration     100.00

 eigenvalues of (default mixing * dielectric matrix)
  average eigenvalue GAMMA=   0.5249
  0.6101  0.4396

 Free energy of the ion-electron system (eV)
  ---------------------------------------------------
  alpha Z        PSCENC =       204.46100599
  Ewald energy   TEWEN  =     70410.89177291
  -Hartree energ DENC   =    -86363.41340858
  -exchange      EXHF   =         0.00000000
  -V(xc)+E(xc)   XCENC  =       562.64186356
  PAW double counting   =     15552.73567855   -16811.99849787
  entropy T*S    EENTRO =        -0.00990507
  eigenvalues    EBANDS =      -727.30344932
  atomic energy  EATOM  =     17123.75487843
  Solvation  Ediel_sol  =         0.00000000
  ---------------------------------------------------
  free energy    TOTEN  =       -48.24006139 eV

  energy without entropy =      -48.23015632  energy(sigma->0) =      -48.23675970


--------------------------------------------------------------------------------------------------------




----------------------------------------- Iteration    1(   8)  ---------------------------------------


    POTLOK:  cpu time    0.0260: real time    0.0261
    SETDIJ:  cpu time    0.0035: real time    0.0035
     EDDAV:  cpu time    3.8281: real time    3.8328
       DOS:  cpu time    0.0006: real time    0.0006
    CHARGE:  cpu time    0.0957: real time    0.0957
    MIXING:  cpu time    0.0011: real time    0.0011
    --------------------------------------------
      LOOP:  cpu time    3.9561: real time    3.9628

 eigenvalue-minimisations  :  3912
 total energy-change (2. order) : 0.4358944E+00  (-0.8136098E+00)
 number of electron     138.0000137 magnetization 
 augmentation part       84.8730834 magnetization 

 Broyden mixing:
  rms(total) = 0.34524E+00    rms(broyden)= 0.34498E+00
  rms(prec ) = 0.38363E+00
  weight for this iteration     100.00

 eigenvalues of (default mixing * dielectric matrix)
  average eigenvalue GAMMA=   0.4985
  0.7141  0.4597  0.3216

 Free energy of the ion-electron system (eV)
  ---------------------------------------------------
  alpha Z        PSCENC =       204.46100599
  Ewald energy   TEWEN  =     70410.89177291
  -Hartree energ DENC   =    -86375.73937908
  -exchange      EXHF   =         0.00000000
  -V(xc)+E(xc)   XCENC  =       563.33263218
  PAW double counting   =     15662.95854902   -16932.42168088
  entropy T*S    EENTRO =        -0.00249142
  eigenvalues    EBANDS =      -705.03945412
  atomic energy  EATOM  =     17123.75487843
  Solvation  Ediel_sol  =         0.00000000
  ---------------------------------------------------
  free energy    TOTEN  =       -47.80416697 eV

  energy without entropy =      -47.80167555  energy(sigma->0) =      -47.80333650


--------------------------------------------------------------------------------------------------------




----------------------------------------- Iteration    1(   9)  ---------------------------------------


    POTLOK:  cpu time    0.0244: real time    0.0244
    SETDIJ:  cpu time    0.0031: real time    0.0031
     EDDAV:  cpu time    3.5696: real time    3.5758
       DOS:  cpu time    0.0006: real time    0.0006
    CHARGE:  cpu time    0.1011: real time    0.1012
    MIXING:  cpu time    0.0012: real time    0.0011
    --------------------------------------------
      LOOP:  cpu time    3.7011: real time    3.7194

 eigenvalue-minimisations  :  3648
 total energy-change (2. order) : 0.1150538E+00  (-0.1701108E+00)
 number of electron     138.0000138 magnetization 
 augmentation part       84.7531411 magnetization 

 Broyden mixing:
  rms(total) = 0.18400E+00    rms(broyden)= 0.18393E+00
  rms(prec ) = 0.20143E+00
  weight for this iteration     100.00

 eigenvalues of (default mixing * dielectric matrix)
  average eigenvalue GAMMA=   0.8242
  2.0005  0.5186  0.4750  0.3026

 Free energy of the ion-electron system (eV)
  ---------------------------------------------------
  alpha Z        PSCENC =       204.46100599
  Ewald energy   TEWEN  =     70410.89177291
  -Hartree energ DENC   =    -86377.32419661
  -exchange      EXHF   =         0.00000000
  -V(xc)+E(xc)   XCENC  =       563.32996351
  PAW double counting   =     15757.29672156   -17033.03901283
  entropy T*S    EENTRO =        -0.00917984
  eigenvalues    EBANDS =      -697.05106629
  atomic energy  EATOM  =     17123.75487843
  Solvation  Ediel_sol  =         0.00000000
  ---------------------------------------------------
  free energy    TOTEN  =       -47.68911318 eV

  energy without entropy =      -47.67993333  energy(sigma->0) =      -47.68605323


--------------------------------------------------------------------------------------------------------




----------------------------------------- Iteration    1(  10)  ---------------------------------------


    POTLOK:  cpu time    0.0244: real time    0.0244
    SETDIJ:  cpu time    0.0030: real time    0.0030
     EDDAV:  cpu time    4.2025: real time    4.2095
       DOS:  cpu time    0.0006: real time    0.0006
    CHARGE:  cpu time    0.1034: real time    0.1036
    MIXING:  cpu time    0.0013: real time    0.0013
    --------------------------------------------
      LOOP:  cpu time    4.3364: real time    4.3454

 eigenvalue-minimisations  :  4344
 total energy-change (2. order) : 0.2264290E-01  (-0.7040341E-01)
 number of electron     138.0000136 magnetization 
 augmentation part       84.6625787 magnetization 

 Broyden mixing:
  rms(total) = 0.21927E+00    rms(broyden)= 0.21915E+00
  rms(prec ) = 0.24577E+00
  weight for this iteration     100.00

 eigenvalues of (default mixing * dielectric matrix)
  average eigenvalue GAMMA=   0.7593
  2.0558  0.5730  0.4546  0.4546  0.2584

 Free energy of the ion-electron system (eV)
  ---------------------------------------------------
  alpha Z        PSCENC =       204.46100599
  Ewald energy   TEWEN  =     70410.89177291
  -Hartree energ DENC   =    -86372.17746853
  -exchange      EXHF   =         0.00000000
  -V(xc)+E(xc)   XCENC  =       562.76572408
  PAW double counting   =     16029.30302594   -17320.54439260
  entropy T*S    EENTRO =        -0.00501624
  eigenvalues    EBANDS =      -686.11600025
  atomic energy  EATOM  =     17123.75487843
  Solvation  Ediel_sol  =         0.00000000
  ---------------------------------------------------
  free energy    TOTEN  =       -47.66647027 eV

  energy without entropy =      -47.66145403  energy(sigma->0) =      -47.66479819


--------------------------------------------------------------------------------------------------------




----------------------------------------- Iteration    1(  11)  ---------------------------------------


    POTLOK:  cpu time    0.0248: real time    0.0248
    SETDIJ:  cpu time    0.0031: real time    0.0031
     EDDAV:  cpu time    3.5070: real time    3.5154
       DOS:  cpu time    0.0006: real time    0.0006
    CHARGE:  cpu time    0.1016: real time    0.1018
    MIXING:  cpu time    0.0013: real time    0.0013
    --------------------------------------------
      LOOP:  cpu time    3.6395: real time    3.6495

 eigenvalue-minimisations  :  3504
 total energy-change (2. order) : 0.4310135E-01  (-0.1866875E-01)
 number of electron     138.0000136 magnetization 
 augmentation part       84.6905029 magnetization 

 Broyden mixing:
  rms(total) = 0.14315E+00    rms(broyden)= 0.14314E+00
  rms(prec ) = 0.15629E+00
  weight for this iteration     100.00

 eigenvalues of (default mixing * dielectric matrix)
  average eigenvalue GAMMA=   0.8807
  2.3431  1.0665  0.5973  0.5973  0.2724  0.4076

 Free energy of the ion-electron system (eV)
  ---------------------------------------------------
  alpha Z        PSCENC =       204.46100599
  Ewald energy   TEWEN  =     70410.89177291
  -Hartree energ DENC   =    -86371.66718773
  -exchange      EXHF   =         0.00000000
  -V(xc)+E(xc)   XCENC  =       562.56689389
  PAW double counting   =     16058.87826777   -17351.71075061
  entropy T*S    EENTRO =        -0.00694802
  eigenvalues    EBANDS =      -684.79130156
  atomic energy  EATOM  =     17123.75487843
  Solvation  Ediel_sol  =         0.00000000
  ---------------------------------------------------
  free energy    TOTEN  =       -47.62336892 eV

  energy without entropy =      -47.61642090  energy(sigma->0) =      -47.62105291


--------------------------------------------------------------------------------------------------------




----------------------------------------- Iteration    1(  12)  ---------------------------------------


    POTLOK:  cpu time    0.0247: real time    0.0247
    SETDIJ:  cpu time    0.0031: real time    0.0031
     EDDAV:  cpu time    3.9919: real time    4.0010
       DOS:  cpu time    0.0006: real time    0.0006
    CHARGE:  cpu time    0.0988: real time    0.0989
    MIXING:  cpu time    0.0013: real time    0.0013
    --------------------------------------------
      LOOP:  cpu time    4.1216: real time    4.1323

 eigenvalue-minimisations  :  4128
 total energy-change (2. order) : 0.1736309E-01  (-0.2364087E-01)
 number of electron     138.0000138 magnetization 
 augmentation part       84.8147322 magnetization 

 Broyden mixing:
  rms(total) = 0.66501E-01    rms(broyden)= 0.66348E-01
  rms(prec ) = 0.74233E-01
  weight for this iteration     100.00

 eigenvalues of (default mixing * dielectric matrix)
  average eigenvalue GAMMA=   0.8713
  2.3232  1.1084  0.7836  0.5929  0.5929  0.2720  0.4261

 Free energy of the ion-electron system (eV)
  ---------------------------------------------------
  alpha Z        PSCENC =       204.46100599
  Ewald energy   TEWEN  =     70410.89177291
  -Hartree energ DENC   =    -86367.64327182
  -exchange      EXHF   =         0.00000000
  -V(xc)+E(xc)   XCENC  =       562.13655973
  PAW double counting   =     16105.48273528   -17400.42407999
  entropy T*S    EENTRO =        -0.00810969
  eigenvalues    EBANDS =      -686.25749669
  atomic energy  EATOM  =     17123.75487843
  Solvation  Ediel_sol  =         0.00000000
  ---------------------------------------------------
  free energy    TOTEN  =       -47.60600583 eV

  energy without entropy =      -47.59789615  energy(sigma->0) =      -47.60330260


--------------------------------------------------------------------------------------------------------




----------------------------------------- Iteration    1(  13)  ---------------------------------------


    POTLOK:  cpu time    0.0245: real time    0.0246
    SETDIJ:  cpu time    0.0031: real time    0.0031
     EDDAV:  cpu time    3.3677: real time    3.3733
       DOS:  cpu time    0.0007: real time    0.0007
    CHARGE:  cpu time    0.0983: real time    0.0984
    MIXING:  cpu time    0.0013: real time    0.0013
    --------------------------------------------
      LOOP:  cpu time    3.4968: real time    3.5043

 eigenvalue-minimisations  :  3360
 total energy-change (2. order) : 0.6292370E-02  (-0.4420227E-02)
 number of electron     138.0000137 magnetization 
 augmentation part       84.8697909 magnetization 

 Broyden mixing:
  rms(total) = 0.25289E-01    rms(broyden)= 0.25285E-01
  rms(prec ) = 0.27404E-01
  weight for this iteration     100.00

 eigenvalues of (default mixing * dielectric matrix)
  average eigenvalue GAMMA=   0.8358
  2.3751  0.9082  0.9082  0.6440  0.6440  0.2722  0.5209  0.4140

 Free energy of the ion-electron system (eV)
  ---------------------------------------------------
  alpha Z        PSCENC =       204.46100599
  Ewald energy   TEWEN  =     70410.89177291
  -Hartree energ DENC   =    -86367.37900709
  -exchange      EXHF   =         0.00000000
  -V(xc)+E(xc)   XCENC  =       562.09148579
  PAW double counting   =     16107.85062287   -17402.38543980
  entropy T*S    EENTRO =        -0.00740608
  eigenvalues    EBANDS =      -686.87762649
  atomic energy  EATOM  =     17123.75487843
  Solvation  Ediel_sol  =         0.00000000
  ---------------------------------------------------
  free energy    TOTEN  =       -47.59971346 eV

  energy without entropy =      -47.59230738  energy(sigma->0) =      -47.59724477


--------------------------------------------------------------------------------------------------------




----------------------------------------- Iteration    1(  14)  ---------------------------------------


    POTLOK:  cpu time    0.0245: real time    0.0245
    SETDIJ:  cpu time    0.0032: real time    0.0032
     EDDAV:  cpu time    3.4810: real time    3.4896
       DOS:  cpu time    0.0007: real time    0.0007
    CHARGE:  cpu time    0.0989: real time    0.0990
    MIXING:  cpu time    0.0014: real time    0.0014
    --------------------------------------------
      LOOP:  cpu time    3.6107: real time    3.6320

 eigenvalue-minimisations  :  3552
 total energy-change (2. order) : 0.1799772E-03  (-0.9646433E-03)
 number of electron     138.0000138 magnetization 
 augmentation part       84.8723070 magnetization 

 Broyden mixing:
  rms(total) = 0.84321E-02    rms(broyden)= 0.84069E-02
  rms(prec ) = 0.10385E-01
  weight for this iteration     100.00

 eigenvalues of (default mixing * dielectric matrix)
  average eigenvalue GAMMA=   0.9554
  2.4447  1.7763  1.0341  1.0341  0.5988  0.5988  0.2722  0.4285  0.4116

 Free energy of the ion-electron system (eV)
  ---------------------------------------------------
  alpha Z        PSCENC =       204.46100599
  Ewald energy   TEWEN  =     70410.89177291
  -Hartree energ DENC   =    -86368.47169842
  -exchange      EXHF   =         0.00000000
  -V(xc)+E(xc)   XCENC  =       562.10526957
  PAW double counting   =     16110.27609419   -17404.92385935
  entropy T*S    EENTRO =        -0.00719917
  eigenvalues    EBANDS =      -685.68579764
  atomic energy  EATOM  =     17123.75487843
  Solvation  Ediel_sol  =         0.00000000
  ---------------------------------------------------
  free energy    TOTEN  =       -47.59953349 eV

  energy without entropy =      -47.59233432  energy(sigma->0) =      -47.59713376


--------------------------------------------------------------------------------------------------------




----------------------------------------- Iteration    1(  15)  ---------------------------------------


    POTLOK:  cpu time    0.0273: real time    0.0274
    SETDIJ:  cpu time    0.0030: real time    0.0031
     EDDAV:  cpu time    3.2723: real time    3.2803
       DOS:  cpu time    0.0006: real time    0.0006
    CHARGE:  cpu time    0.1011: real time    0.1012
    MIXING:  cpu time    0.0016: real time    0.0016
    --------------------------------------------
      LOOP:  cpu time    3.4072: real time    3.4171

 eigenvalue-minimisations  :  3288
 total energy-change (2. order) :-0.6666284E-04  (-0.1905106E-03)
 number of electron     138.0000137 magnetization 
 augmentation part       84.8520322 magnetization 

 Broyden mixing:
  rms(total) = 0.81668E-02    rms(broyden)= 0.81646E-02
  rms(prec ) = 0.97723E-02
  weight for this iteration     100.00

 eigenvalues of (default mixing * dielectric matrix)
  average eigenvalue GAMMA=   1.0178
  2.6951  2.3321  0.9525  0.9525  0.9543  0.5966  0.5966  0.2721  0.4298  0.3961

 Free energy of the ion-electron system (eV)
  ---------------------------------------------------
  alpha Z        PSCENC =       204.46100599
  Ewald energy   TEWEN  =     70410.89177291
  -Hartree energ DENC   =    -86372.78506297
  -exchange      EXHF   =         0.00000000
  -V(xc)+E(xc)   XCENC  =       562.14248918
  PAW double counting   =     16112.40343161   -17407.36308401
  entropy T*S    EENTRO =        -0.00752017
  eigenvalues    EBANDS =      -681.09751112
  atomic energy  EATOM  =     17123.75487843
  Solvation  Ediel_sol  =         0.00000000
  ---------------------------------------------------
  free energy    TOTEN  =       -47.59960015 eV

  energy without entropy =      -47.59207998  energy(sigma->0) =      -47.59709343


--------------------------------------------------------------------------------------------------------




----------------------------------------- Iteration    1(  16)  ---------------------------------------


    POTLOK:  cpu time    0.0246: real time    0.0246
    SETDIJ:  cpu time    0.0030: real time    0.0030
     EDDAV:  cpu time    2.9999: real time    3.0056
       DOS:  cpu time    0.0007: real time    0.0007
    CHARGE:  cpu time    0.1009: real time    0.1011
    MIXING:  cpu time    0.0018: real time    0.0018
    --------------------------------------------
      LOOP:  cpu time    3.1321: real time    3.1559

 eigenvalue-minimisations  :  2952
 total energy-change (2. order) : 0.8545086E-04  (-0.1004157E-03)
 number of electron     138.0000137 magnetization 
 augmentation part       84.8603869 magnetization 

 Broyden mixing:
  rms(total) = 0.52082E-02    rms(broyden)= 0.52026E-02
  rms(prec ) = 0.62081E-02
  weight for this iteration     100.00

 eigenvalues of (default mixing * dielectric matrix)
  average eigenvalue GAMMA=   0.9942
  2.7717  2.3636  1.0137  0.9678  0.9678  0.5908  0.5908  0.2721  0.5740  0.4286
  0.3950

 Free energy of the ion-electron system (eV)
  ---------------------------------------------------
  alpha Z        PSCENC =       204.46100599
  Ewald energy   TEWEN  =     70410.89177291
  -Hartree energ DENC   =    -86374.86705281
  -exchange      EXHF   =         0.00000000
  -V(xc)+E(xc)   XCENC  =       562.13777492
  PAW double counting   =     16110.73984248   -17405.50402451
  entropy T*S    EENTRO =        -0.00727591
  eigenvalues    EBANDS =      -679.20643620
  atomic energy  EATOM  =     17123.75487843
  Solvation  Ediel_sol  =         0.00000000
  ---------------------------------------------------
  free energy    TOTEN  =       -47.59951470 eV

  energy without entropy =      -47.59223879  energy(sigma->0) =      -47.59708939


--------------------------------------------------------------------------------------------------------




----------------------------------------- Iteration    1(  17)  ---------------------------------------


    POTLOK:  cpu time    0.0247: real time    0.0247
    SETDIJ:  cpu time    0.0031: real time    0.0031
     EDDAV:  cpu time    2.6900: real time    2.6965
       DOS:  cpu time    0.0006: real time    0.0006
    --------------------------------------------
      LOOP:  cpu time    2.7196: real time    2.7330

 eigenvalue-minimisations  :  2568
 total energy-change (2. order) :-0.5995368E-04  (-0.2842828E-04)
 number of electron     138.0000137 magnetization 
 augmentation part       84.8603869 magnetization 

 Free energy of the ion-electron system (eV)
  ---------------------------------------------------
  alpha Z        PSCENC =       204.46100599
  Ewald energy   TEWEN  =     70410.89177291
  -Hartree energ DENC   =    -86375.50347082
  -exchange      EXHF   =         0.00000000
  -V(xc)+E(xc)   XCENC  =       562.13265548
  PAW double counting   =     16109.99083590   -17404.67353193
  entropy T*S    EENTRO =        -0.00728603
  eigenvalues    EBANDS =      -678.64643460
  atomic energy  EATOM  =     17123.75487843
  Solvation  Ediel_sol  =         0.00000000
  ---------------------------------------------------
  free energy    TOTEN  =       -47.59957465 eV

  energy without entropy =      -47.59228862  energy(sigma->0) =      -47.59714598


--------------------------------------------------------------------------------------------------------




 average (electrostatic) potential at core
  the test charge radii are     0.9430  0.7215
  (the norm of the test charge is              1.0000)
       1 -72.9122       2 -72.7931       3 -72.7931       4 -72.7931       5 -73.0563
       6 -73.0563       7 -73.1693       8 -73.0563       9 -73.0942      10 -73.0942
      11 -73.0942      12 -72.8381      13 -77.4852
 
 
 
 E-fermi :  -1.7596     XC(G=0):  -4.2532     alpha+bet : -3.5686


 k-point     1 :       0.0000    0.0000    0.0000
  band No.  band energies     occupation 
      1     -20.1076      2.00000
      2     -10.3217      2.00000
      3      -8.3081      2.00000
      4      -7.1080      2.00000
      5      -7.1080      2.00000
      6      -7.0469      2.00000
      7      -6.6418      2.00000
      8      -6.5007      2.00000
      9      -6.5007      2.00000
     10      -6.4831      2.00000
     11      -6.1547      2.00000
     12      -6.1460      2.00000
     13      -6.1460      2.00000
     14      -5.9241      2.00000
     15      -5.9241      2.00000
     16      -5.8834      2.00000
     17      -5.7124      2.00000
     18      -5.7124      2.00000
     19      -5.2899      2.00000
     20      -5.1751      2.00000
     21      -5.1751      2.00000
     22      -5.0698      2.00000
     23      -4.8528      2.00000
     24      -4.8506      2.00000
     25      -4.8506      2.00000
     26      -4.7657      2.00000
     27      -4.7657      2.00000
     28      -4.6994      2.00000
     29      -4.6367      2.00000
     30      -4.6367      2.00000
     31      -4.5399      2.00000
     32      -4.4927      2.00000
     33      -4.4927      2.00000
     34      -4.4558      2.00000
     35      -4.4557      2.00000
     36      -4.4158      2.00000
     37      -4.3215      2.00000
     38      -4.3215      2.00000
     39      -4.3060      2.00000
     40      -3.9922      2.00000
     41      -3.9835      2.00000
     42      -3.9835      2.00000
     43      -3.8960      2.00000
     44      -3.8960      2.00000
     45      -3.8438      2.00000
     46      -3.8438      2.00000
     47      -3.5791      2.00000
     48      -3.5791      2.00000
     49      -3.5211      2.00000
     50      -3.5145      2.00000
     51      -3.5145      2.00000
     52      -3.5135      2.00000
     53      -3.4729      2.00000
     54      -3.4729      2.00000
     55      -3.4345      2.00000
     56      -3.4227      2.00000
     57      -3.4227      2.00000
     58      -3.3693      2.00000
     59      -3.3646      2.00000
     60      -3.3646      2.00000
     61      -3.3152      2.00000
     62      -3.1911      2.00000
     63      -3.1911      2.00000
     64      -3.1496      2.00000
     65      -2.9656      2.00000
     66      -2.8839      2.00000
     67      -2.8839      2.00000
     68      -1.6352     -0.07080
     69      -1.6352     -0.07080
     70      -1.5035     -0.00175
     71      -1.2745     -0.00000
     72      -0.5871     -0.00000
     73      -0.5871     -0.00000
     74      -0.4201     -0.00000
     75      -0.0443     -0.00000
     76      -0.0443     -0.00000
     77       1.1735      0.00000
     78       2.5533      0.00000
     79       2.6721      0.00000
     80       2.6722      0.00000
     81       3.0681      0.00000
     82       3.3646      0.00000
     83       3.6333      0.00000
     84       4.0701      0.00000
     85       4.0701      0.00000
     86       4.4756      0.00000
     87       4.5536      0.00000
     88       4.8588      0.00000
     89       5.6487      0.00000
     90       5.9305      0.00000
     91       5.9305      0.00000
     92       6.5608      0.00000
     93       6.7774      0.00000
     94       7.4087      0.00000
     95       7.4820      0.00000
     96       7.4820      0.00000

 k-point     2 :       0.1111    0.0000    0.0000
  band No.  band energies     occupation 
      1     -20.1061      2.00000
      2     -10.2289      2.00000
      3      -8.2374      2.00000
      4      -7.1347      2.00000
      5      -7.0892      2.00000
      6      -6.9887      2.00000
      7      -6.6303      2.00000
      8      -6.5334      2.00000
      9      -6.4747      2.00000
     10      -6.4497      2.00000
     11      -6.1471      2.00000
     12      -6.1176      2.00000
     13      -6.1109      2.00000
     14      -5.9049      2.00000
     15      -5.8967      2.00000
     16      -5.8405      2.00000
     17      -5.6987      2.00000
     18      -5.6824      2.00000
     19      -5.2833      2.00000
     20      -5.1895      2.00000
     21      -5.1835      2.00000
     22      -5.0712      2.00000
     23      -4.8604      2.00000
     24      -4.8333      2.00000
     25      -4.8329      2.00000
     26      -4.8052      2.00000
     27      -4.7361      2.00000
     28      -4.7347      2.00000
     29      -4.6485      2.00000
     30      -4.6317      2.00000
     31      -4.5698      2.00000
     32      -4.5515      2.00000
     33      -4.4830      2.00000
     34      -4.4784      2.00000
     35      -4.4339      2.00000
     36      -4.4289      2.00000
     37      -4.3736      2.00000
     38      -4.3433      2.00000
     39      -4.3078      2.00000
     40      -4.0324      2.00000
     41      -4.0213      2.00000
     42      -3.9959      2.00000
     43      -3.9356      2.00000
     44      -3.9288      2.00000
     45      -3.8597      2.00000
     46      -3.8354      2.00000
     47      -3.6744      2.00000
     48      -3.6588      2.00000
     49      -3.6104      2.00000
     50      -3.5541      2.00000
     51      -3.5460      2.00000
     52      -3.5400      2.00000
     53      -3.5201      2.00000
     54      -3.5157      2.00000
     55      -3.4769      2.00000
     56      -3.4762      2.00000
     57      -3.4453      2.00000
     58      -3.4372      2.00000
     59      -3.4010      2.00000
     60      -3.3838      2.00000
     61      -3.2969      2.00000
     62      -3.2554      2.00000
     63      -3.2115      2.00000
     64      -3.1816      2.00000
     65      -3.0261      2.00000
     66      -2.8511      2.00000
     67      -2.7559      2.00000
     68      -2.2044      2.00000
     69      -1.7004      0.16696
     70      -1.6400     -0.07066
     71      -1.1470     -0.00000
     72      -0.8664     -0.00000
     73      -0.5792     -0.00000
     74      -0.1776     -0.00000
     75       0.3517     -0.00000
     76       0.4804     -0.00000
     77       1.3770      0.00000
     78       2.6430      0.00000
     79       2.7966      0.00000
     80       2.8632      0.00000
     81       3.2183      0.00000
     82       3.4395      0.00000
     83       3.7187      0.00000
     84       4.0655      0.00000
     85       4.0993      0.00000
     86       4.5171      0.00000
     87       4.8785      0.00000
     88       4.9483      0.00000
     89       5.5259      0.00000
     90       6.1173      0.00000
     91       6.1987      0.00000
     92       6.6032      0.00000
     93       6.8223      0.00000
     94       7.2050      0.00000
     95       7.3225      0.00000
     96       7.7836      0.00000

 k-point     3 :       0.2222    0.0000    0.0000
  band No.  band energies     occupation 
      1     -20.1020      2.00000
      2      -9.9543      2.00000
      3      -8.0401      2.00000
      4      -7.2259      2.00000
      5      -7.0390      2.00000
      6      -6.8698      2.00000
      7      -6.7375      2.00000
      8      -6.4858      2.00000
      9      -6.4001      2.00000
     10      -6.3434      2.00000
     11      -6.1187      2.00000
     12      -6.0468      2.00000
     13      -6.0276      2.00000
     14      -5.8438      2.00000
     15      -5.8187      2.00000
     16      -5.7419      2.00000
     17      -5.6439      2.00000
     18      -5.5930      2.00000
     19      -5.2734      2.00000
     20      -5.2300      2.00000
     21      -5.1993      2.00000
     22      -5.1054      2.00000
     23      -4.9405      2.00000
     24      -4.8555      2.00000
     25      -4.8318      2.00000
     26      -4.8056      2.00000
     27      -4.8033      2.00000
     28      -4.7145      2.00000
     29      -4.7087      2.00000
     30      -4.6790      2.00000
     31      -4.6330      2.00000
     32      -4.5560      2.00000
     33      -4.5371      2.00000
     34      -4.5201      2.00000
     35      -4.4693      2.00000
     36      -4.4626      2.00000
     37      -4.4317      2.00000
     38      -4.3421      2.00000
     39      -4.3104      2.00000
     40      -4.1303      2.00000
     41      -4.1266      2.00000
     42      -4.0550      2.00000
     43      -4.0188      2.00000
     44      -3.9919      2.00000
     45      -3.9382      2.00000
     46      -3.8965      2.00000
     47      -3.8837      2.00000
     48      -3.8350      2.00000
     49      -3.7903      2.00000
     50      -3.6677      2.00000
     51      -3.6588      2.00000
     52      -3.6439      2.00000
     53      -3.6375      2.00000
     54      -3.5792      2.00000
     55      -3.5760      2.00000
     56      -3.5355      2.00000
     57      -3.5069      2.00000
     58      -3.5011      2.00000
     59      -3.4722      2.00000
     60      -3.4288      2.00000
     61      -3.4197      2.00000
     62      -3.3555      2.00000
     63      -3.3378      2.00000
     64      -3.3197      2.00000
     65      -3.0862      2.00000
     66      -2.8671      2.00000
     67      -2.8166      2.00000
     68      -2.3797      2.00000
     69      -1.8149      1.79500
     70      -1.7727      1.21897
     71      -1.4541     -0.00014
     72      -0.5850     -0.00000
     73      -0.4609     -0.00000
     74       0.0680     -0.00000
     75       0.7488     -0.00000
     76       1.1593      0.00000
     77       1.8598      0.00000
     78       2.9119      0.00000
     79       3.0934      0.00000
     80       3.2914      0.00000
     81       3.6105      0.00000
     82       3.7288      0.00000
     83       3.9811      0.00000
     84       4.3238      0.00000
     85       4.4137      0.00000
     86       4.8148      0.00000
     87       5.1602      0.00000
     88       5.2433      0.00000
     89       5.6628      0.00000
     90       6.3932      0.00000
     91       6.4387      0.00000
     92       6.8573      0.00000
     93       7.0162      0.00000
     94       7.1720      0.00000
     95       7.3504      0.00000
     96       7.6193      0.00000

 k-point     4 :       0.3333   -0.0000    0.0000
  band No.  band energies     occupation 
      1     -20.0974      2.00000
      2      -9.5113      2.00000
      3      -7.8266      2.00000
      4      -7.4990      2.00000
      5      -6.9762      2.00000
      6      -6.9215      2.00000
      7      -6.6747      2.00000
      8      -6.3536      2.00000
      9      -6.2918      2.00000
     10      -6.2014      2.00000
     11      -6.0688      2.00000
     12      -5.9735      2.00000
     13      -5.9211      2.00000
     14      -5.7616      2.00000
     15      -5.7067      2.00000
     16      -5.6318      2.00000
     17      -5.5350      2.00000
     18      -5.4725      2.00000
     19      -5.3056      2.00000
     20      -5.2481      2.00000
     21      -5.2071      2.00000
     22      -5.1875      2.00000
     23      -5.0751      2.00000
     24      -5.0113      2.00000
     25      -4.9482      2.00000
     26      -4.9429      2.00000
     27      -4.8332      2.00000
     28      -4.8077      2.00000
     29      -4.7257      2.00000
     30      -4.6818      2.00000
     31      -4.6034      2.00000
     32      -4.5822      2.00000
     33      -4.5707      2.00000
     34      -4.5201      2.00000
     35      -4.5102      2.00000
     36      -4.4819      2.00000
     37      -4.4433      2.00000
     38      -4.3845      2.00000
     39      -4.2659      2.00000
     40      -4.2642      2.00000
     41      -4.2072      2.00000
     42      -4.1915      2.00000
     43      -4.1592      2.00000
     44      -4.1587      2.00000
     45      -4.1083      2.00000
     46      -4.0503      2.00000
     47      -4.0252      2.00000
     48      -4.0105      2.00000
     49      -3.8521      2.00000
     50      -3.8373      2.00000
     51      -3.8366      2.00000
     52      -3.7806      2.00000
     53      -3.7412      2.00000
     54      -3.7166      2.00000
     55      -3.6814      2.00000
     56      -3.6190      2.00000
     57      -3.5967      2.00000
     58      -3.5611      2.00000
     59      -3.5473      2.00000
     60      -3.5226      2.00000
     61      -3.4645      2.00000
     62      -3.4525      2.00000
     63      -3.3995      2.00000
     64      -3.3463      2.00000
     65      -3.2735      2.00000
     66      -2.9509      2.00000
     67      -2.7994      2.00000
     68      -2.2440      2.00000
     69      -1.8327      1.94051
     70      -1.7783      1.31077
     71      -1.4881     -0.00084
     72      -0.4040     -0.00000
     73      -0.3408     -0.00000
     74       0.2607     -0.00000
     75       0.7415     -0.00000
     76       2.0000      0.00000
     77       2.1758      0.00000
     78       3.3083      0.00000
     79       3.3580      0.00000
     80       3.5128      0.00000
     81       3.9553      0.00000
     82       4.2130      0.00000
     83       4.4229      0.00000
     84       4.9105      0.00000
     85       5.2434      0.00000
     86       5.3626      0.00000
     87       5.5412      0.00000
     88       5.6456      0.00000
     89       5.9768      0.00000
     90       6.2202      0.00000
     91       6.4889      0.00000
     92       6.6055      0.00000
     93       6.9208      0.00000
     94       7.3541      0.00000
     95       7.4800      0.00000
     96       7.5467      0.00000

 k-point     5 :       0.4444    0.0000    0.0000
  band No.  band energies     occupation 
      1     -20.0944      2.00000
      2      -8.9331      2.00000
      3      -8.2566      2.00000
      4      -7.4277      2.00000
      5      -6.9582      2.00000
      6      -6.9309      2.00000
      7      -6.5675      2.00000
      8      -6.2766      2.00000
      9      -6.1942      2.00000
     10      -6.1313      2.00000
     11      -5.9427      2.00000
     12      -5.9302      2.00000
     13      -5.8415      2.00000
     14      -5.6844      2.00000
     15      -5.5995      2.00000
     16      -5.5741      2.00000
     17      -5.4617      2.00000
     18      -5.4427      2.00000
     19      -5.3762      2.00000
     20      -5.2778      2.00000
     21      -5.2177      2.00000
     22      -5.1551      2.00000
     23      -5.1238      2.00000
     24      -5.1203      2.00000
     25      -5.0815      2.00000
     26      -5.0689      2.00000
     27      -4.8702      2.00000
     28      -4.8248      2.00000
     29      -4.7948      2.00000
     30      -4.7573      2.00000
     31      -4.6360      2.00000
     32      -4.6034      2.00000
     33      -4.5527      2.00000
     34      -4.5328      2.00000
     35      -4.5328      2.00000
     36      -4.4732      2.00000
     37      -4.4627      2.00000
     38      -4.4499      2.00000
     39      -4.4383      2.00000
     40      -4.3878      2.00000
     41      -4.3424      2.00000
     42      -4.2908      2.00000
     43      -4.2356      2.00000
     44      -4.1491      2.00000
     45      -4.1248      2.00000
     46      -4.1125      2.00000
     47      -4.0889      2.00000
     48      -4.0069      2.00000
     49      -3.9668      2.00000
     50      -3.9431      2.00000
     51      -3.9156      2.00000
     52      -3.9127      2.00000
     53      -3.8116      2.00000
     54      -3.7828      2.00000
     55      -3.7651      2.00000
     56      -3.7082      2.00000
     57      -3.6958      2.00000
     58      -3.6548      2.00000
     59      -3.5613      2.00000
     60      -3.4905      2.00000
     61      -3.4744      2.00000
     62      -3.4459      2.00000
     63      -3.4061      2.00000
     64      -3.3479      2.00000
     65      -3.3435      2.00000
     66      -3.0004      2.00000
     67      -2.7908      2.00000
     68      -2.2815      2.00000
     69      -1.7646      1.08402
     70      -1.7261      0.46688
     71      -1.2122     -0.00000
     72      -0.6941     -0.00000
     73      -0.2786     -0.00000
     74       0.3455     -0.00000
     75       1.1832      0.00000
     76       1.8668      0.00000
     77       2.4358      0.00000
     78       3.2365      0.00000
     79       3.9719      0.00000
     80       4.3668      0.00000
     81       4.6150      0.00000
     82       4.6835      0.00000
     83       4.8306      0.00000
     84       5.0506      0.00000
     85       5.4403      0.00000
     86       5.5330      0.00000
     87       5.6865      0.00000
     88       5.8878      0.00000
     89       6.0126      0.00000
     90       6.0301      0.00000
     91       6.2105      0.00000
     92       6.3870      0.00000
     93       6.7022      0.00000
     94       6.9000      0.00000
     95       6.9597      0.00000
     96       7.0259      0.00000

 k-point     6 :       0.2222    0.1111    0.0000
  band No.  band energies     occupation 
      1     -20.1032      2.00000
      2     -10.0452      2.00000
      3      -8.1025      2.00000
      4      -7.1645      2.00000
      5      -7.0790      2.00000
      6      -6.8975      2.00000
      7      -6.6531      2.00000
      8      -6.5713      2.00000
      9      -6.4618      2.00000
     10      -6.3318      2.00000
     11      -6.1177      2.00000
     12      -6.0885      2.00000
     13      -6.0412      2.00000
     14      -5.8623      2.00000
     15      -5.8448      2.00000
     16      -5.7703      2.00000
     17      -5.6694      2.00000
     18      -5.6188      2.00000
     19      -5.2747      2.00000
     20      -5.2161      2.00000
     21      -5.1975      2.00000
     22      -5.0888      2.00000
     23      -4.9099      2.00000
     24      -4.8384      2.00000
     25      -4.8285      2.00000
     26      -4.8024      2.00000
     27      -4.7898      2.00000
     28      -4.7057      2.00000
     29      -4.6735      2.00000
     30      -4.6519      2.00000
     31      -4.6197      2.00000
     32      -4.6100      2.00000
     33      -4.5288      2.00000
     34      -4.4976      2.00000
     35      -4.4569      2.00000
     36      -4.4426      2.00000
     37      -4.4020      2.00000
     38      -4.3533      2.00000
     39      -4.3173      2.00000
     40      -4.1109      2.00000
     41      -4.0833      2.00000
     42      -4.0282      2.00000
     43      -4.0032      2.00000
     44      -3.9784      2.00000
     45      -3.8871      2.00000
     46      -3.8622      2.00000
     47      -3.8329      2.00000
     48      -3.7842      2.00000
     49      -3.7469      2.00000
     50      -3.6525      2.00000
     51      -3.6329      2.00000
     52      -3.6134      2.00000
     53      -3.5966      2.00000
     54      -3.5620      2.00000
     55      -3.5304      2.00000
     56      -3.5149      2.00000
     57      -3.4972      2.00000
     58      -3.4779      2.00000
     59      -3.4428      2.00000
     60      -3.4327      2.00000
     61      -3.3605      2.00000
     62      -3.3500      2.00000
     63      -3.3269      2.00000
     64      -3.1595      2.00000
     65      -3.0962      2.00000
     66      -2.8848      2.00000
     67      -2.6112      2.00000
     68      -2.4771      2.00000
     69      -2.2985      2.00000
     70      -1.4027     -0.00001
     71      -1.1308     -0.00000
     72      -0.7910     -0.00000
     73      -0.5425     -0.00000
     74       0.0201     -0.00000
     75       0.6704     -0.00000
     76       0.8889     -0.00000
     77       1.8329      0.00000
     78       2.8221      0.00000
     79       2.9282      0.00000
     80       3.1364      0.00000
     81       3.4219      0.00000
     82       3.6660      0.00000
     83       3.8937      0.00000
     84       4.3412      0.00000
     85       4.4409      0.00000
     86       4.7630      0.00000
     87       4.9214      0.00000
     88       5.1201      0.00000
     89       5.6305      0.00000
     90       6.1309      0.00000
     91       6.2865      0.00000
     92       6.8455      0.00000
     93       6.9879      0.00000
     94       7.3715      0.00000
     95       7.6222      0.00000
     96       7.6495      0.00000

 k-point     7 :       0.3333    0.1111    0.0000
  band No.  band energies     occupation 
      1     -20.0988      2.00000
      2      -9.6857      2.00000
[...]
     91       6.3273      0.00000
     92       6.5412      0.00000
     93       6.7518      0.00000
     94       6.9708      0.00000
     95       7.1565      0.00000
     96       7.1945      0.00000

 k-point    11 :      -0.4444    0.2222    0.0000
  band No.  band energies     occupation 
      1     -20.0932      2.00000
      2      -8.6895      2.00000
      3      -8.0389      2.00000
      4      -7.5144      2.00000
      5      -7.2068      2.00000
      6      -6.9177      2.00000
      7      -6.7392      2.00000
      8      -6.4104      2.00000
      9      -6.1687      2.00000
     10      -6.0229      2.00000
     11      -5.7924      2.00000
     12      -5.7762      2.00000
     13      -5.7242      2.00000
     14      -5.6097      2.00000
     15      -5.5606      2.00000
     16      -5.5327      2.00000
     17      -5.4991      2.00000
     18      -5.4019      2.00000
     19      -5.3459      2.00000
     20      -5.3092      2.00000
     21      -5.2817      2.00000
     22      -5.2611      2.00000
     23      -5.1958      2.00000
     24      -5.1308      2.00000
     25      -5.0405      2.00000
     26      -4.9841      2.00000
     27      -4.9638      2.00000
     28      -4.9062      2.00000
     29      -4.8506      2.00000
     30      -4.8140      2.00000
     31      -4.7667      2.00000
     32      -4.7439      2.00000
     33      -4.7168      2.00000
     34      -4.6784      2.00000
     35      -4.5532      2.00000
     36      -4.5213      2.00000
     37      -4.4716      2.00000
     38      -4.4471      2.00000
     39      -4.4243      2.00000
     40      -4.3853      2.00000
     41      -4.3186      2.00000
     42      -4.2561      2.00000
     43      -4.2093      2.00000
     44      -4.1502      2.00000
     45      -4.1062      2.00000
     46      -4.0514      2.00000
     47      -4.0439      2.00000
     48      -4.0043      2.00000
     49      -3.9388      2.00000
     50      -3.9202      2.00000
     51      -3.9021      2.00000
     52      -3.8528      2.00000
     53      -3.8052      2.00000
     54      -3.7335      2.00000
     55      -3.7052      2.00000
     56      -3.6920      2.00000
     57      -3.6442      2.00000
     58      -3.5886      2.00000
     59      -3.5423      2.00000
     60      -3.5131      2.00000
     61      -3.5002      2.00000
     62      -3.4797      2.00000
     63      -3.4571      2.00000
     64      -3.4037      2.00000
     65      -3.2839      2.00000
     66      -3.2056      2.00000
     67      -3.0334      2.00000
     68      -2.8258      2.00000
     69      -2.1849      2.00000
     70      -1.6332     -0.07045
     71      -0.8462     -0.00000
     72      -0.3115     -0.00000
     73       0.4833     -0.00000
     74       0.7966     -0.00000
     75       1.4131      0.00000
     76       2.0448      0.00000
     77       2.2544      0.00000
     78       2.9731      0.00000
     79       3.4569      0.00000
     80       3.8384      0.00000
     81       4.2312      0.00000
     82       4.5023      0.00000
     83       4.9152      0.00000
     84       5.0881      0.00000
     85       5.3135      0.00000
     86       5.6406      0.00000
     87       5.8430      0.00000
     88       5.8857      0.00000
     89       6.1113      0.00000
     90       6.2251      0.00000
     91       6.3770      0.00000
     92       6.5130      0.00000
     93       6.6604      0.00000
     94       6.9318      0.00000
     95       7.1482      0.00000
     96       7.2571      0.00000

 k-point    12 :      -0.3333    0.3333    0.0000
  band No.  band energies     occupation 
      1     -20.0923      2.00000
      2      -8.2109      2.00000
      3      -8.0875      2.00000
      4      -7.9699      2.00000
      5      -7.0803      2.00000
      6      -7.0100      2.00000
      7      -6.7444      2.00000
      8      -6.3584      2.00000
      9      -6.1456      2.00000
     10      -6.0382      2.00000
     11      -5.6912      2.00000
     12      -5.6470      2.00000
     13      -5.6131      2.00000
     14      -5.5992      2.00000
     15      -5.5655      2.00000
     16      -5.5632      2.00000
     17      -5.4420      2.00000
     18      -5.4289      2.00000
     19      -5.3975      2.00000
     20      -5.3621      2.00000
     21      -5.3443      2.00000
     22      -5.2091      2.00000
     23      -5.1762      2.00000
     24      -5.1269      2.00000
     25      -5.1157      2.00000
     26      -5.0198      2.00000
     27      -4.9190      2.00000
     28      -4.9182      2.00000
     29      -4.8933      2.00000
     30      -4.8822      2.00000
     31      -4.8617      2.00000
     32      -4.8103      2.00000
     33      -4.8025      2.00000
     34      -4.7431      2.00000
     35      -4.5467      2.00000
     36      -4.5160      2.00000
     37      -4.4823      2.00000
     38      -4.4400      2.00000
     39      -4.4134      2.00000
     40      -4.4047      2.00000
     41      -4.3605      2.00000
     42      -4.2713      2.00000
     43      -4.1969      2.00000
     44      -4.1416      2.00000
     45      -4.0728      2.00000
     46      -4.0573      2.00000
     47      -4.0000      2.00000
     48      -3.9697      2.00000
     49      -3.9344      2.00000
     50      -3.9294      2.00000
     51      -3.8835      2.00000
     52      -3.8239      2.00000
     53      -3.7832      2.00000
     54      -3.7565      2.00000
     55      -3.7224      2.00000
     56      -3.6581      2.00000
     57      -3.6023      2.00000
     58      -3.5563      2.00000
     59      -3.5406      2.00000
     60      -3.5285      2.00000
     61      -3.5197      2.00000
     62      -3.5048      2.00000
     63      -3.4759      2.00000
     64      -3.4742      2.00000
     65      -3.3325      2.00000
     66      -3.2610      2.00000
     67      -3.1762      2.00000
     68      -2.8733      2.00000
     69      -2.2418      2.00000
     70      -1.7177      0.35489
     71      -0.4932     -0.00000
     72      -0.4482     -0.00000
     73       0.3370     -0.00000
     74       1.8148      0.00000
     75       1.9437      0.00000
     76       1.9609      0.00000
     77       2.1465      0.00000
     78       2.4478      0.00000
     79       3.1204      0.00000
     80       3.5292      0.00000
     81       4.3525      0.00000
     82       4.8808      0.00000
     83       4.9201      0.00000
     84       4.9580      0.00000
     85       5.3064      0.00000
     86       5.6093      0.00000
     87       5.6277      0.00000
     88       5.9356      0.00000
     89       6.0395      0.00000
     90       6.0559      0.00000
     91       6.0943      0.00000
     92       6.6044      0.00000
     93       7.0018      0.00000
     94       7.0207      0.00000
     95       7.0856      0.00000
     96       7.0999      0.00000


--------------------------------------------------------------------------------------------------------


 soft charge-density along one line, spin component           1
         0         1         2         3         4         5         6         7         8         9
 total charge-density along one line
 
 pseudopotential strength for first ion, spin component:           1
 -9.609  -0.000   0.000  -0.005   0.000   0.346   0.000  -0.000
 -0.000  -9.578  -0.000   0.000  -0.005   0.000   0.321   0.000
  0.000  -0.000  -9.578  -0.000   0.000  -0.000   0.000   0.320
 -0.005   0.000  -0.000  -9.578  -0.000   0.004  -0.000   0.000
  0.000  -0.005   0.000  -0.000  -9.609  -0.000   0.004  -0.000
  0.346   0.000  -0.000   0.004  -0.000   6.744  -0.000   0.000
  0.000   0.321   0.000  -0.000   0.004  -0.000   6.763  -0.000
 -0.000   0.000   0.320   0.000  -0.000   0.000  -0.000   6.764
  0.004  -0.000   0.000   0.321   0.000  -0.003  -0.000  -0.000
 -0.000   0.004  -0.000   0.000   0.346   0.000  -0.003   0.000
  0.000   0.000  -0.006   0.000   0.000   0.000   0.000   0.003
  0.000   0.000  -0.012   0.000   0.000   0.000   0.000   0.005
  0.000  -0.010  -0.000  -0.000   0.000  -0.000   0.009   0.000
 -0.000   0.000  -0.009   0.000  -0.000  -0.000   0.000   0.009
  0.000  -0.000  -0.000  -0.010   0.000  -0.000  -0.000   0.000
  0.000  -0.011  -0.000   0.000   0.000  -0.000   0.011   0.000
  0.000   0.000  -0.010   0.000   0.000  -0.000   0.000   0.010
  0.000   0.000  -0.000  -0.011   0.000  -0.000  -0.000   0.000
 total augmentation occupancy for first ion, spin component:           1
  1.909   0.000  -0.000  -0.006   0.000  -0.017  -0.000   0.000   0.006   0.000   0.000  -0.000  -0.000  -0.000   0.008   0.000
  0.000   1.928  -0.000   0.000  -0.006  -0.000  -0.031   0.000  -0.000   0.006  -0.000   0.000   0.015   0.000   0.000  -0.012
 -0.000  -0.000   1.919   0.000   0.000   0.000   0.000  -0.026  -0.000  -0.000  -0.014   0.014   0.000   0.059  -0.000  -0.000
 -0.006   0.000   0.000   1.928  -0.000   0.006  -0.000  -0.000  -0.031   0.000   0.000  -0.000   0.000  -0.000   0.015  -0.000
 -0.000  -0.006   0.000  -0.000   1.909  -0.000   0.006  -0.000   0.000  -0.017  -0.000   0.000   0.008   0.000   0.000  -0.001
 -0.017  -0.000   0.000   0.006   0.000   0.014  -0.000  -0.000   0.000   0.000   0.000  -0.000  -0.000  -0.000   0.002   0.000
 -0.000  -0.031   0.000  -0.000   0.006  -0.000   0.010   0.000   0.000   0.000   0.000   0.000   0.017   0.000   0.000  -0.001
  0.000   0.000  -0.026  -0.000  -0.000  -0.000   0.000   0.013  -0.000   0.000  -0.035   0.002   0.000   0.024  -0.000  -0.000
  0.006  -0.000  -0.000  -0.031   0.000   0.000   0.000  -0.000   0.010   0.000   0.000   0.000   0.000   0.000   0.017  -0.000
  0.000   0.006  -0.000   0.000  -0.017   0.000   0.000   0.000   0.000   0.014  -0.000   0.000   0.002   0.000   0.000  -0.000
  0.000  -0.000  -0.014  -0.000  -0.000   0.000   0.000  -0.035  -0.000  -0.000   1.675  -0.137   0.000   0.148   0.000   0.000
 -0.000   0.000   0.014  -0.000   0.000  -0.000   0.000   0.002  -0.000   0.000  -0.137   0.016   0.000  -0.023   0.000  -0.000
 -0.000   0.015   0.000   0.000   0.008  -0.000   0.017   0.000   0.000   0.002   0.000   0.000   0.209  -0.000   0.000  -0.013
 -0.000   0.000   0.059   0.000   0.000  -0.000   0.000   0.024   0.000   0.000   0.148  -0.023  -0.000   0.132  -0.000  -0.000
  0.008   0.000  -0.000   0.015   0.000   0.002   0.000  -0.000   0.017   0.000   0.000   0.000   0.000   0.000   0.209  -0.000
  0.000  -0.012  -0.000  -0.000  -0.001   0.000  -0.001  -0.000  -0.000  -0.000  -0.000   0.000  -0.013   0.000  -0.000   0.001
  0.000   0.000  -0.017   0.000  -0.000   0.000  -0.000  -0.001   0.000  -0.000  -0.020   0.002   0.000  -0.009   0.000  -0.000
 -0.001  -0.000   0.000  -0.012  -0.000  -0.000  -0.000   0.000  -0.001  -0.000   0.000  -0.000  -0.000   0.000  -0.013   0.000


------------------------ aborting loop because EDIFF is reached ----------------------------------------


 


 total charge     
 
# of ion     s       p       d       tot
----------------------------------------
  1        0.440   0.297   9.185   9.922
  2        0.447   0.281   9.190   9.918
  3        0.452   0.284   9.181   9.917
  4        0.452   0.281   9.188   9.922
  5        0.439   0.362   9.184   9.985
  6        0.447   0.357   9.193   9.997
  7        0.433   0.383   9.164   9.980
  8        0.445   0.357   9.199  10.000
  9        0.451   0.383   9.160   9.994
 10        0.437   0.372   9.133   9.943
 11        0.457   0.389   9.181  10.027
 12        0.432   0.278   9.232   9.942
 13        1.604   3.342   0.000   4.946
------------------------------------------------
tot        6.937   7.365 110.191 124.493
 
    CHARGE:  cpu time    0.1214: real time    0.1213
    FORLOC:  cpu time    0.0038: real time    0.0038
    FORNL :  cpu time    1.7983: real time    1.7983
    STRESS:  cpu time    3.0112: real time    3.0185
    FORCOR:  cpu time    0.0270: real time    0.0270
    FORHAR:  cpu time    0.0086: real time    0.0087
    MIXING:  cpu time    0.0019: real time    0.0019
    OFIELD:  cpu time    0.0001: real time    0.0001

  FORCE on cell =-STRESS in cart. coord.  units (eV):
  Direction    XX          YY          ZZ          XY          YZ          ZX
  --------------------------------------------------------------------------------------
  Alpha Z   204.46101   204.46101   204.46101
  Ewald   79339.96496 79339.96497-88269.05075    -0.00001    -0.00000    -0.00000
  Hartree 83493.42834 83493.42835-80602.82187    -0.00000     0.00000    -0.00000
  E(xc)    -799.87995  -799.87978  -801.81817    -0.00014     0.00000     0.00000
  Local  ************************167394.71820     0.00599    -0.00005    -0.00008
  n-local  -275.75448  -288.00236  -286.95410    -5.58712     0.11357    -0.36457
  augment  1139.80780  1139.81391  1146.95794    -0.00529    -0.00001    -0.00003
  Kinetic  1198.77487  1202.86597  1213.68808     1.97021    -1.41169     1.31548
  Fock        0.00000     0.00000     0.00000     0.00000     0.00000     0.00000
  -------------------------------------------------------------------------------------
  Total      -2.33063    -2.33063    -0.81967    -0.00000    -0.00000     0.00000
  in kB      -6.73887    -6.73887    -2.37002    -0.00000    -0.00000     0.00000
  external pressure =       -5.28 kB  Pullay stress =        0.00 kB


 VOLUME and BASIS-vectors are now :
 -----------------------------------------------------------------------------
  energy-cutoff  :      400.00
  volume of cell :      554.11
      direct lattice vectors                 reciprocal lattice vectors
     5.142080510  0.000000000  0.000000000     0.194473812 -0.112279508  0.000000000
     2.571040260  4.453172350  0.000000000     0.000000000  0.224559016  0.000000000
     0.000000000  0.000000000 24.198491160     0.000000000  0.000000000  0.041324891

  length of vectors
     5.142080510  5.142080513 24.198491160     0.224559016  0.224559016  0.041324891


 FORCES acting on ions
    electron-ion (+dipol)            ewald-force                    non-local-force                 convergence-correction
 -----------------------------------------------------------------------------------------------
   0.115E-04 0.667E-05 0.296E+04   -.146E-04 -.847E-05 -.296E+04   0.694E-17 0.000E+00 -.278E+01   0.260E-07 0.150E-07 -.134E+00
   -.580E-05 0.473E+01 0.297E+04   0.143E-04 -.457E+01 -.297E+04   -.181E-09 -.161E+00 -.181E+01   0.432E-07 -.222E-02 -.127E+00
   0.410E+01 -.236E+01 0.297E+04   -.396E+01 0.228E+01 -.297E+04   -.139E+00 0.804E-01 -.181E+01   -.193E-02 0.111E-02 -.127E+00
   -.410E+01 -.236E+01 0.297E+04   0.396E+01 0.228E+01 -.297E+04   0.139E+00 0.804E-01 -.181E+01   0.193E-02 0.111E-02 -.127E+00
   -.939E+01 0.542E+01 0.202E+03   0.918E+01 -.530E+01 -.203E+03   0.206E+00 -.119E+00 0.445E+00   0.511E-02 -.295E-02 0.190E+00
   0.939E+01 0.542E+01 0.202E+03   -.918E+01 -.530E+01 -.203E+03   -.206E+00 -.119E+00 0.445E+00   -.511E-02 -.295E-02 0.190E+00
   0.973E-05 0.562E-05 0.148E+03   0.284E-04 0.164E-04 -.146E+03   0.520E-17 0.694E-17 -.148E+01   0.875E-07 0.505E-07 0.159E+00
   0.508E-05 -.108E+02 0.202E+03   -.263E-04 0.106E+02 -.203E+03   0.267E-09 0.238E+00 0.445E+00   0.992E-07 0.590E-02 0.190E+00
   0.764E+02 0.441E+02 -.264E+04   -.777E+02 -.448E+02 0.264E+04   0.122E+01 0.706E+00 -.200E+00   0.657E-01 0.379E-01 0.344E+00
   -.764E+02 0.441E+02 -.264E+04   0.777E+02 -.448E+02 0.264E+04   -.122E+01 0.706E+00 -.200E+00   -.657E-01 0.379E-01 0.344E+00
   -.473E-06 -.882E+02 -.264E+04   0.903E-05 0.897E+02 0.264E+04   -.159E-08 -.141E+01 -.200E+00   -.495E-06 -.758E-01 0.344E+00
   -.150E-04 -.874E-05 -.256E+04   -.129E-04 -.739E-05 0.256E+04   0.347E-17 -.104E-16 0.557E+01   0.452E-06 0.261E-06 0.338E+00
   0.125E-04 0.708E-05 -.213E+04   -.755E-05 -.419E-05 0.216E+04   0.173E-17 0.347E-17 -.258E+02   -.144E-06 -.832E-07 0.103E+00
 -----------------------------------------------------------------------------------------------
   -.208E-04 -.120E-04 0.274E+02   0.373E-13 -.218E-13 0.182E-11   0.116E-15 -.694E-17 -.291E+02   0.352E-06 0.203E-06 0.169E+01
 
 
 POSITION                                       TOTAL-FORCE (eV/Angst)
 -----------------------------------------------------------------------------------
      1.28552      0.74220     10.03915        -0.000000      0.000000     -0.027241
      3.85656      0.73963     10.02042        -0.000000     -0.001456      0.007045
      2.56882      2.97006     10.02042        -0.001261      0.000728      0.007045
      5.14430      2.97006     10.02042         0.001261      0.000728      0.007045
      5.14565      1.48233     12.08361         0.001427     -0.000824     -0.006777
      2.56747      1.48233     12.08361        -0.001427     -0.000824     -0.006777
      6.42760      3.71098     12.14707        -0.000000      0.000000      0.011606
      3.85656      3.71510     12.08361         0.000000      0.001648     -0.006777
      7.66402      4.42482     14.23416         0.025924      0.014967      0.009242
      5.19118      4.42482     14.23416        -0.025924      0.014967      0.009242
      6.42760      2.28328     14.23416        -0.000000     -0.029935      0.009242
      3.85656      2.22659     14.06726        -0.000000      0.000000     -0.003448
      1.28552      0.74220     15.32139        -0.000000      0.000000     -0.009446
 -----------------------------------------------------------------------------------
    total drift:                               -0.000020     -0.000012     -0.023160


--------------------------------------------------------------------------------------------------------



  FREE ENERGIE OF THE ION-ELECTRON SYSTEM (eV)
  ---------------------------------------------------
  free  energy   TOTEN  =       -47.59957465 eV

  energy  without entropy=      -47.59228862  energy(sigma->0) =      -47.59714598
 


--------------------------------------------------------------------------------------------------------


    POTLOK:  cpu time    0.0312: real time    0.0312


--------------------------------------------------------------------------------------------------------


     LOOP+:  cpu time   63.8572: real time   64.1689
    4ORBIT:  cpu time    0.0000: real time    0.0000
 


 total charge     
 
# of ion     s       p       d       tot
----------------------------------------
  1        0.440   0.297   9.185   9.922
  2        0.447   0.281   9.190   9.918
  3        0.452   0.284   9.181   9.917
  4        0.452   0.281   9.188   9.922
  5        0.439   0.362   9.184   9.985
  6        0.447   0.357   9.193   9.997
  7        0.433   0.383   9.164   9.980
  8        0.445   0.357   9.199  10.000
  9        0.451   0.383   9.160   9.994
 10        0.437   0.372   9.133   9.943
 11        0.457   0.389   9.181  10.027
 12        0.432   0.278   9.232   9.942
 13        1.604   3.342   0.000   4.946
------------------------------------------------
tot        6.937   7.365 110.191 124.493
 

 total amount of memory used by VASP on root node    83109. kBytes
========================================================================

   base      :      30000. kBytes
   nonl-proj :      37196. kBytes
   fftplans  :       1683. kBytes
   grid      :       6047. kBytes
   one-center:        202. kBytes
   wavefun   :       7981. kBytes
 
  
  
 General timing and accounting informations for this job:
 ========================================================
  
                  Total CPU time used (sec):       65.932
                            User time (sec):       64.486
                          System time (sec):        1.446
                         Elapsed time (sec):       66.535
  
                   Maximum memory used (kb):       92824.
                   Average memory used (kb):           0.
  
                          Minor page faults:       120521
                          Major page faults:           46
                 Voluntary context switches:         1736
