PROCAR new format
# of k-points:   12         # of bands:  96         # of ions:  13

 k-point    1 :    0.00000000 0.00000000 0.00000000     weight = 0.01234568

band   1 # energy  -20.10764704 # occ.  2.00000000
 
ion      s      p      d    tot
  1  0.000  0.000  0.000  0.000
  2  0.000  0.000  0.000  0.000
  3  0.000  0.000  0.000  0.000
  4  0.000  0.000  0.000  0.000
  5  0.000  0.000  0.000  0.000
  6  0.000  0.000  0.000  0.000
  7  0.000  0.000  0.000  0.000
  8  0.000  0.000  0.000  0.000
  9  0.011  0.011  0.009  0.032
 10  0.011  0.011  0.009  0.032
 11  0.011  0.011  0.009  0.032
 12  0.000  0.000  0.000  0.000
 13  0.755  0.010  0.000  0.766
tot  0.790  0.044  0.029  0.862
 
band   2 # energy  -10.32173831 # occ.  2.00000000
 
ion      s      p      d    tot
  1  0.033  0.003  0.000  0.037
  2  0.032  0.003  0.000  0.035
  3  0.032  0.003  0.000  0.035
  4  0.032  0.003  0.000  0.035
  5  0.080  0.000  0.001  0.081
  6  0.080  0.000  0.001  0.081
  7  0.078  0.000  0.001  0.079
  8  0.080  0.000  0.001  0.081
  9  0.022  0.004  0.000  0.026
 10  0.022  0.004  0.000  0.026
 11  0.022  0.004  0.000  0.026
 12  0.031  0.003  0.000  0.035
 13  0.005  0.003  0.000  0.008
tot  0.548  0.030  0.004  0.582
 
band   3 # energy   -8.30812418 # occ.  2.00000000
 
ion      s      p      d    tot
  1  0.056  0.000  0.009  0.065
  2  0.054  0.000  0.008  0.063
  3  0.054  0.000  0.008  0.063
  4  0.054  0.000  0.008  0.063
  5  0.000  0.014  0.000  0.015
  6  0.000  0.014  0.000  0.015
  7  0.001  0.014  0.000  0.014
  8  0.000  0.014  0.000  0.015
  9  0.048  0.002  0.013  0.064
 10  0.048  0.002  0.013  0.064
 11  0.048  0.002  0.013  0.064
 12  0.056  0.000  0.008  0.065
 13  0.014  0.025  0.000  0.039
tot  0.435  0.090  0.082  0.608
 
band   4 # energy   -7.10801128 # occ.  2.00000000
 
ion      s      p      d    tot
  1  0.000  0.000  0.001  0.001
  2  0.000  0.000  0.000  0.001
  3  0.000  0.000  0.000  0.001
  4  0.000  0.000  0.000  0.001
  5  0.000  0.001  0.009  0.010
  6  0.001  0.000  0.003  0.004
  7  0.000  0.002  0.023  0.025
  8  0.000  0.001  0.009  0.010
  9  0.052  0.008  0.075  0.135
 10  0.013  0.003  0.127  0.144
 11  0.013  0.003  0.127  0.144
 12  0.000  0.001  0.042  0.043
 13  0.000  0.290  0.000  0.290
tot  0.080  0.309  0.419  0.808
 
band   5 # energy   -7.10797830 # occ.  2.00000000
 
ion      s      p      d    tot
  1  0.000  0.000  0.001  0.001
  2  0.000  0.000  0.000  0.001
  3  0.000  0.000  0.000  0.001
  4  0.000  0.000  0.001  0.001
  5  0.001  0.000  0.005  0.006
  6  0.000  0.001  0.011  0.012
  7  0.000  0.002  0.023  0.025
  8  0.001  0.000  0.005  0.006
  9  0.000  0.002  0.145  0.147
 10  0.039  0.007  0.092  0.138
 11  0.039  0.007  0.092  0.138
 12  0.000  0.001  0.042  0.043
 13  0.000  0.290  0.000  0.290
tot  0.080  0.309  0.419  0.808
 
band   6 # energy   -7.04692282 # occ.  2.00000000
 
ion      s      p      d    tot
  1  0.012  0.001  0.023  0.036
  2  0.016  0.001  0.018  0.034
  3  0.016  0.001  0.018  0.034
  4  0.016  0.001  0.018  0.034
  5  0.015  0.001  0.039  0.055
  6  0.015  0.001  0.039  0.055
  7  0.011  0.000  0.056  0.067
  8  0.015  0.001  0.039  0.055
  9  0.012  0.000  0.081  0.093
 10  0.012  0.000  0.081  0.093
 11  0.012  0.000  0.081  0.093
 12  0.000  0.002  0.016  0.018
 13  0.013  0.108  0.000  0.121
tot  0.164  0.116  0.508  0.788
 
band   7 # energy   -6.64181862 # occ.  2.00000000
 
ion      s      p      d    tot
  1  0.011  0.000  0.005  0.016
  2  0.001  0.001  0.015  0.017
  3  0.001  0.001  0.015  0.017
  4  0.001  0.001  0.015  0.017
  5  0.002  0.001  0.057  0.060
  6  0.002  0.001  0.057  0.060
  7  0.023  0.000  0.002  0.025
  8  0.002  0.001  0.057  0.060
  9  0.001  0.001  0.127  0.129
 10  0.001  0.001  0.127  0.129
 11  0.001  0.001  0.127  0.129
 12  0.067  0.000  0.015  0.082
 13  0.003  0.062  0.000  0.065
tot  0.118  0.071  0.619  0.807
 
band   8 # energy   -6.50069649 # occ.  2.00000000
 
ion      s      p      d    tot
  1  0.000  0.003  0.037  0.040
  2  0.001  0.003  0.026  0.030
  3  0.001  0.003  0.026  0.030
  4  0.004  0.001  0.009  0.014
  5  0.015  0.000  0.141  0.156
  6  0.060  0.000  0.025  0.085
  7  0.000  0.000  0.187  0.187
  8  0.015  0.000  0.141  0.156
  9  0.002  0.001  0.011  0.014
 10  0.001  0.002  0.032  0.035
 11  0.001  0.002  0.032  0.035
 12  0.000  0.005  0.041  0.045
 13  0.000  0.000  0.000  0.000
tot  0.098  0.021  0.708  0.827
 
band   9 # energy   -6.50068789 # occ.  2.00000000
 
ion      s      p      d    tot
  1  0.000  0.003  0.037  0.040
  2  0.003  0.002  0.015  0.020
  3  0.003  0.002  0.015  0.020
  4  0.000  0.003  0.032  0.035
  5  0.045  0.000  0.064  0.108
  6  0.000  0.000  0.179  0.179
  7  0.000  0.000  0.187  0.187
  8  0.045  0.000  0.064  0.108
  9  0.000  0.003  0.039  0.042
 10  0.002  0.002  0.018  0.021
 11  0.002  0.002  0.018  0.021
 12  0.000  0.005  0.041  0.045
 13  0.000  0.000  0.000  0.000
tot  0.098  0.021  0.708  0.827
 
band  10 # energy   -6.48307919 # occ.  2.00000000
 
ion      s      p      d    tot
  1  0.003  0.002  0.016  0.021
  2  0.001  0.002  0.023  0.026
  3  0.001  0.002  0.023  0.026
  4  0.001  0.002  0.023  0.026
  5  0.009  0.000  0.173  0.181
  6  0.009  0.000  0.173  0.181
  7  0.056  0.000  0.006  0.062
  8  0.009  0.000  0.173  0.181
  9  0.001  0.004  0.025  0.031
 10  0.001  0.004  0.025  0.031
 11  0.001  0.004  0.025  0.031
 12  0.000  0.002  0.025  0.027
 13  0.000  0.005  0.000  0.005
tot  0.091  0.030  0.708  0.829
 
band  11 # energy   -6.15469420 # occ.  2.00000000
 
ion      s      p      d    tot
  1  0.025  0.004  0.008  0.037
  2  0.003  0.001  0.071  0.076
  3  0.003  0.001  0.071  0.076
  4  0.003  0.001  0.071  0.076
  5  0.000  0.001  0.143  0.144
  6  0.000  0.001  0.143  0.144
  7  0.001  0.000  0.004  0.005
  8  0.000  0.001  0.143  0.144
  9  0.001  0.000  0.037  0.038
 10  0.001  0.000  0.037  0.038
 11  0.001  0.000  0.037  0.038
 12  0.000  0.002  0.023  0.025
 13  0.001  0.016  0.000  0.017
tot  0.039  0.031  0.787  0.857
 
band  12 # energy   -6.14604683 # occ.  2.00000000
 
ion      s      p      d    tot
  1  0.000  0.001  0.142  0.142
  2  0.008  0.001  0.096  0.105
  3  0.008  0.001  0.096  0.105
  4  0.033  0.003  0.016  0.051
  5  0.000  0.001  0.106  0.108
  6  0.000  0.000  0.020  0.020
  7  0.000  0.001  0.121  0.122
  8  0.000  0.001  0.106  0.108
  9  0.000  0.005  0.022  0.027
 10  0.000  0.002  0.006  0.008
 11  0.000  0.002  0.006  0.008
 12  0.000  0.001  0.008  0.009
 13  0.000  0.033  0.000  0.033
tot  0.050  0.054  0.744  0.848
 
band  13 # energy   -6.14603879 # occ.  2.00000000
 
ion      s      p      d    tot
  1  0.000  0.001  0.142  0.142
  2  0.024  0.002  0.043  0.069
  3  0.024  0.002  0.043  0.069
  4  0.000  0.001  0.123  0.123
  5  0.000  0.001  0.049  0.050
  6  0.000  0.002  0.135  0.137
  7  0.000  0.001  0.121  0.122
  8  0.000  0.001  0.049  0.050
  9  0.000  0.002  0.000  0.002
 10  0.000  0.004  0.017  0.021
 11  0.000  0.004  0.017  0.021
 12  0.000  0.001  0.008  0.009
 13  0.000  0.033  0.000  0.033
tot  0.050  0.054  0.744  0.848
 
band  14 # energy   -5.92406701 # occ.  2.00000000
 
ion      s      p      d    tot
  1  0.000  0.001  0.059  0.060
  2  0.000  0.001  0.036  0.037
  3  0.000  0.001  0.036  0.037
  4  0.000  0.001  0.050  0.051
  5  0.001  0.000  0.116  0.116
  6  0.000  0.000  0.087  0.087
  7  0.000  0.000  0.106  0.106
  8  0.001  0.000  0.116  0.116
  9  0.000  0.000  0.081  0.082
 10  0.000  0.000  0.066  0.066
 11  0.000  0.000  0.066  0.066
 12  0.000  0.001  0.079  0.080
 13  0.000  0.002  0.000  0.002
tot  0.002  0.009  0.896  0.907
 
band  15 # energy   -5.92406600 # occ.  2.00000000
 
ion      s      p      d    tot
  1  0.000  0.001  0.059  0.060
  2  0.000  0.001  0.046  0.047
  3  0.000  0.001  0.046  0.047
  4  0.000  0.001  0.031  0.033
  5  0.000  0.000  0.096  0.096
  6  0.001  0.000  0.125  0.126
  7  0.000  0.000  0.106  0.106
  8  0.000  0.000  0.096  0.096
  9  0.000  0.000  0.060  0.061
 10  0.000  0.000  0.076  0.077
 11  0.000  0.000  0.076  0.077
 12  0.000  0.001  0.079  0.080
 13  0.000  0.002  0.000  0.002
tot  0.002  0.009  0.896  0.907
 
band  16 # energy   -5.88342658 # occ.  2.00000000
 
ion      s      p      d    tot
  1  0.015  0.000  0.028  0.043
  2  0.002  0.001  0.154  0.157
  3  0.002  0.001  0.154  0.157
  4  0.002  0.001  0.154  0.157
  5  0.000  0.002  0.043  0.046
  6  0.000  0.002  0.043  0.046
  7  0.001  0.000  0.132  0.133
  8  0.000  0.002  0.043  0.046
  9  0.000  0.002  0.026  0.028
 10  0.000  0.002  0.026  0.028
 11  0.000  0.002  0.026  0.028
 12  0.005  0.001  0.009  0.014
 13  0.000  0.001  0.000  0.001
tot  0.029  0.016  0.837  0.882
 
band  17 # energy   -5.71239149 # occ.  2.00000000
 
ion      s      p      d    tot
  1  0.000  0.000  0.102  0.103
  2  0.002  0.000  0.075  0.077
  3  0.002  0.000  0.075  0.077
  4  0.007  0.000  0.025  0.031
  5  0.000  0.002  0.021  0.023
  6  0.000  0.004  0.003  0.007
  7  0.000  0.001  0.012  0.013
  8  0.000  0.002  0.021  0.023
  9  0.006  0.006  0.124  0.137
 10  0.002  0.003  0.092  0.097
 11  0.002  0.003  0.092  0.097
 12  0.000  0.001  0.152  0.153
 13  0.000  0.051  0.000  0.051
tot  0.020  0.074  0.795  0.889
 
band  18 # energy   -5.71238397 # occ.  2.00000000
 
ion      s      p      d    tot
  1  0.000  0.000  0.102  0.103
  2  0.005  0.000  0.042  0.047
  3  0.005  0.000  0.042  0.047
  4  0.000  0.000  0.092  0.092
  5  0.000  0.003  0.009  0.012
  6  0.000  0.001  0.027  0.028
  7  0.000  0.001  0.012  0.013
  8  0.000  0.003  0.009  0.012
  9  0.000  0.002  0.081  0.083
 10  0.005  0.005  0.113  0.123
 11  0.005  0.005  0.113  0.123
 12  0.000  0.001  0.152  0.153
 13  0.000  0.051  0.000  0.051
tot  0.020  0.074  0.795  0.889
 
band  19 # energy   -5.28992784 # occ.  2.00000000
 
ion      s      p      d    tot
  1  0.001  0.000  0.011  0.012
  2  0.000  0.002  0.107  0.108
  3  0.000  0.002  0.107  0.108
  4  0.000  0.002  0.107  0.108
  5  0.000  0.010  0.002  0.012
  6  0.000  0.010  0.002  0.012
  7  0.000  0.005  0.018  0.023
  8  0.000  0.010  0.002  0.012
  9  0.001  0.000  0.145  0.147
 10  0.001  0.000  0.145  0.147
 11  0.001  0.000  0.145  0.147
 12  0.002  0.000  0.000  0.002
 13  0.002  0.026  0.000  0.028
tot  0.010  0.067  0.788  0.865
 
band  20 # energy   -5.17513393 # occ.  2.00000000
 
ion      s      p      d    tot
  1  0.000  0.001  0.172  0.173
  2  0.000  0.001  0.119  0.120
  3  0.000  0.001  0.117  0.118
  4  0.001  0.000  0.020  0.020
  5  0.000  0.011  0.008  0.019
  6  0.000  0.010  0.005  0.015
  7  0.000  0.010  0.002  0.012
  8  0.000  0.011  0.008  0.019
  9  0.000  0.003  0.029  0.032
 10  0.000  0.002  0.098  0.100
 11  0.000  0.002  0.099  0.102
 12  0.000  0.003  0.127  0.130
 13  0.000  0.014  0.000  0.014
tot  0.001  0.070  0.803  0.874
 
band  21 # energy   -5.17513373 # occ.  2.00000000
 
ion      s      p      d    tot
  1  0.000  0.001  0.172  0.173
  2  0.000  0.000  0.051  0.052
  3  0.000  0.000  0.053  0.054
  4  0.000  0.001  0.151  0.152
  5  0.000  0.010  0.006  0.017
  6  0.000  0.012  0.008  0.020
  7  0.000  0.010  0.002  0.012
  8  0.000  0.010  0.006  0.017
  9  0.000  0.002  0.122  0.124
 10  0.000  0.003  0.053  0.056
 11  0.000  0.003  0.052  0.055
 12  0.000  0.003  0.127  0.130
 13  0.000  0.014  0.000  0.014
tot  0.001  0.070  0.803  0.874
 
band  22 # energy   -5.06978822 # occ.  2.00000000
 
ion      s      p      d    tot
  1  0.000  0.000  0.019  0.019
  2  0.001  0.000  0.031  0.032
  3  0.001  0.000  0.031  0.032
  4  0.001  0.000  0.031  0.032
  5  0.000  0.001  0.049  0.049
  6  0.000  0.001  0.049  0.049
  7  0.002  0.011  0.321  0.335
  8  0.000  0.001  0.049  0.049
  9  0.002  0.009  0.080  0.091
 10  0.002  0.009  0.080  0.091
 11  0.002  0.009  0.080  0.091
 12  0.000  0.000  0.006  0.006
 13  0.000  0.029  0.000  0.029
tot  0.014  0.070  0.823  0.907
 
band  23 # energy   -4.85276612 # occ.  2.00000000
 
ion      s      p      d    tot
  1  0.001  0.000  0.017  0.018
  2  0.000  0.000  0.071  0.071
  3  0.000  0.000  0.071  0.071
  4  0.000  0.000  0.071  0.071
  5  0.000  0.002  0.126  0.127
  6  0.000  0.002  0.126  0.128
  7  0.000  0.003  0.012  0.016
  8  0.000  0.002  0.126  0.127
  9  0.000  0.001  0.058  0.059
 10  0.000  0.001  0.058  0.059
 11  0.000  0.001  0.058  0.059
 12  0.001  0.003  0.124  0.128
 13  0.000  0.002  0.000  0.002
tot  0.003  0.016  0.917  0.936
 
band  24 # energy   -4.85064285 # occ.  2.00000000
 
ion      s      p      d    tot
  1  0.000  0.000  0.061  0.061
  2  0.000  0.000  0.029  0.030
  3  0.000  0.000  0.029  0.030
  4  0.000  0.000  0.038  0.038
  5  0.000  0.000  0.108  0.109
  6  0.000  0.000  0.062  0.062
  7  0.000  0.000  0.145  0.145
  8  0.000  0.000  0.108  0.109
  9  0.000  0.000  0.077  0.077
 10  0.000  0.000  0.096  0.097
 11  0.000  0.000  0.096  0.097
 12  0.000  0.000  0.092  0.093
 13  0.000  0.003  0.000  0.003
tot  0.002  0.005  0.943  0.949
 
band  25 # energy   -4.85063957 # occ.  2.00000000
 
ion      s      p      d    tot
  1  0.000  0.000  0.061  0.061
  2  0.000  0.000  0.035  0.035
  3  0.000  0.000  0.035  0.035
  4  0.000  0.000  0.026  0.027
  5  0.000  0.000  0.077  0.077
  6  0.000  0.000  0.123  0.124
  7  0.000  0.000  0.145  0.145
  8  0.000  0.000  0.077  0.077
  9  0.000  0.000  0.103  0.104
 10  0.000  0.000  0.084  0.084
 11  0.000  0.000  0.084  0.084
 12  0.000  0.000  0.092  0.093
 13  0.000  0.003  0.000  0.003
tot  0.002  0.005  0.943  0.949
 
band  26 # energy   -4.76568470 # occ.  2.00000000
 
ion      s      p      d    tot
  1  0.000  0.000  0.019  0.019
  2  0.000  0.000  0.010  0.010
  3  0.000  0.000  0.010  0.010
  4  0.000  0.000  0.008  0.008
  5  0.000  0.000  0.202  0.202
  6  0.000  0.000  0.211  0.211
  7  0.000  0.000  0.220  0.220
  8  0.000  0.000  0.202  0.202
  9  0.000  0.000  0.021  0.021
 10  0.000  0.000  0.018  0.019
 11  0.000  0.000  0.018  0.019
 12  0.000  0.000  0.021  0.021
 13  0.000  0.000  0.000  0.000
tot  0.000  0.001  0.960  0.962
 
band  27 # energy   -4.76568141 # occ.  2.00000000
 
ion      s      p      d    tot
  1  0.000  0.000  0.019  0.019
  2  0.000  0.000  0.009  0.009
  3  0.000  0.000  0.009  0.009
  4  0.000  0.000  0.010  0.010
  5  0.000  0.000  0.208  0.208
  6  0.000  0.000  0.199  0.200
  7  0.000  0.000  0.220  0.220
  8  0.000  0.000  0.208  0.208
  9  0.000  0.000  0.018  0.018
 10  0.000  0.000  0.020  0.020
 11  0.000  0.000  0.020  0.020
 12  0.000  0.000  0.021  0.021
 13  0.000  0.000  0.000  0.000
tot  0.000  0.001  0.960  0.962
 
band  28 # energy   -4.69943598 # occ.  2.00000000
 
ion      s      p      d    tot
  1  0.002  0.002  0.255  0.260
  2  0.000  0.001  0.129  0.131
  3  0.000  0.001  0.129  0.131
  4  0.000  0.001  0.129  0.131
  5  0.000  0.006  0.049  0.056
  6  0.000  0.006  0.049  0.056
  7  0.000  0.007  0.024  0.030
  8  0.000  0.006  0.049  0.056
  9  0.002  0.001  0.006  0.009
 10  0.002  0.001  0.006  0.009
 11  0.002  0.001  0.006  0.009
 12  0.003  0.000  0.035  0.038
 13  0.000  0.001  0.000  0.001
tot  0.013  0.036  0.867  0.916
 
band  29 # energy   -4.63671124 # occ.  2.00000000
 
ion      s      p      d    tot
  1  0.000  0.000  0.042  0.042
  2  0.000  0.000  0.032  0.032
  3  0.000  0.000  0.032  0.032
  4  0.000  0.000  0.036  0.036
  5  0.000  0.000  0.057  0.057
  6  0.000  0.000  0.218  0.218
  7  0.000  0.000  0.024  0.024
  8  0.000  0.000  0.058  0.058
  9  0.000  0.000  0.126  0.126
 10  0.000  0.000  0.090  0.090
 11  0.000  0.000  0.090  0.090
 12  0.000  0.000  0.156  0.156
 13  0.000  0.000  0.000  0.000
tot  0.000  0.002  0.961  0.963
 
band  30 # energy   -4.63671098 # occ.  2.00000000
 
ion      s      p      d    tot
  1  0.000  0.000  0.042  0.042
  2  0.000  0.000  0.035  0.035
  3  0.000  0.000  0.035  0.035
  4  0.000  0.000  0.031  0.031
  5  0.000  0.000  0.165  0.165
  6  0.000  0.000  0.004  0.004
  7  0.000  0.000  0.024  0.024
  8  0.000  0.000  0.164  0.164
  9  0.000  0.000  0.078  0.078
 10  0.000  0.000  0.114  0.114
 11  0.000  0.000  0.114  0.114
 12  0.000  0.000  0.156  0.156
 13  0.000  0.000  0.000  0.000
tot  0.000  0.002  0.961  0.963
 
band  31 # energy   -4.53985312 # occ.  2.00000000
 
ion      s      p      d    tot
  1  0.000  0.000  0.000  0.000
  2  0.000  0.000  0.053  0.053
  3  0.000  0.000  0.053  0.053
  4  0.000  0.000  0.053  0.053
  5  0.000  0.000  0.188  0.188
  6  0.000  0.000  0.188  0.188
  7  0.000  0.000  0.000  0.000
  8  0.000  0.000  0.188  0.188
  9  0.000  0.000  0.079  0.079
 10  0.000  0.000  0.079  0.079
 11  0.000  0.000  0.079  0.079
 12  0.000  0.000  0.000  0.000
 13  0.000  0.000  0.000  0.000
tot  0.000  0.001  0.961  0.963
 
band  32 # energy   -4.49267416 # occ.  2.00000000
 
ion      s      p      d    tot
  1  0.000  0.000  0.130  0.130
  2  0.000  0.000  0.143  0.144
  3  0.000  0.000  0.143  0.144
  4  0.000  0.000  0.133  0.133
  5  0.000  0.001  0.025  0.025
  6  0.000  0.001  0.057  0.057
  7  0.000  0.001  0.197  0.199
  8  0.000  0.001  0.025  0.025
  9  0.000  0.001  0.008  0.008
 10  0.001  0.001  0.040  0.042
 11  0.001  0.001  0.040  0.042
 12  0.000  0.000  0.001  0.002
 13  0.000  0.007  0.000  0.007
tot  0.003  0.013  0.941  0.957
 
band  33 # energy   -4.49267276 # occ.  2.00000000
 
ion      s      p      d    tot
  1  0.000  0.000  0.130  0.130
  2  0.000  0.000  0.136  0.136
  3  0.000  0.000  0.136  0.136
  4  0.000  0.000  0.147  0.147
  5  0.000  0.001  0.046  0.047
  6  0.000  0.001  0.014  0.015
  7  0.000  0.001  0.197  0.199
  8  0.000  0.001  0.046  0.047
  9  0.001  0.001  0.051  0.054
 10  0.000  0.001  0.019  0.020
 11  0.000  0.001  0.019  0.020
 12  0.000  0.000  0.001  0.002
 13  0.000  0.007  0.000  0.007
tot  0.003  0.013  0.941  0.957
 
band  34 # energy   -4.45575056 # occ.  2.00000000
 
ion      s      p      d    tot
  1  0.000  0.000  0.119  0.119
  2  0.001  0.001  0.116  0.117
  3  0.001  0.001  0.116  0.117
  4  0.000  0.000  0.095  0.096
  5  0.000  0.002  0.026  0.028
  6  0.000  0.005  0.006  0.011
  7  0.000  0.004  0.042  0.046
  8  0.000  0.002  0.026  0.028
  9  0.000  0.000  0.053  0.053
 10  0.003  0.000  0.131  0.135
 11  0.003  0.000  0.131  0.135
 12  0.000  0.000  0.051  0.051
 13  0.000  0.006  0.000  0.006
tot  0.009  0.023  0.912  0.944
 
band  35 # energy   -4.45574880 # occ.  2.00000000
 
ion      s      p      d    tot
  1  0.000  0.000  0.119  0.119
  2  0.000  0.000  0.102  0.103
  3  0.000  0.000  0.102  0.103
  4  0.002  0.001  0.122  0.125
  5  0.000  0.004  0.013  0.017
  6  0.000  0.002  0.032  0.034
  7  0.000  0.004  0.042  0.046
  8  0.000  0.004  0.013  0.017
  9  0.004  0.000  0.158  0.162
 10  0.001  0.000  0.079  0.081
 11  0.001  0.000  0.079  0.081
 12  0.000  0.000  0.051  0.051
 13  0.000  0.006  0.000  0.006
tot  0.009  0.023  0.912  0.944
 
band  36 # energy   -4.41575305 # occ.  2.00000000
 
ion      s      p      d    tot
  1  0.004  0.001  0.150  0.156
  2  0.002  0.000  0.063  0.065
  3  0.002  0.000  0.063  0.065
  4  0.002  0.000  0.063  0.065
  5  0.000  0.016  0.004  0.020
  6  0.000  0.016  0.004  0.020
  7  0.000  0.004  0.018  0.022
  8  0.000  0.016  0.004  0.020
  9  0.000  0.006  0.069  0.076
 10  0.000  0.006  0.069  0.076
 11  0.000  0.006  0.069  0.076
 12  0.005  0.000  0.189  0.194
 13  0.002  0.029  0.000  0.031
tot  0.017  0.103  0.767  0.887
 
band  37 # energy   -4.32145579 # occ.  2.00000000
 
ion      s      p      d    tot
  1  0.000  0.000  0.024  0.024
  2  0.001  0.000  0.059  0.060
  3  0.001  0.000  0.045  0.046
  4  0.005  0.001  0.195  0.200
  5  0.000  0.010  0.018  0.028
  6  0.000  0.003  0.038  0.041
  7  0.000  0.011  0.053  0.064
  8  0.000  0.010  0.020  0.029
  9  0.002  0.004  0.180  0.186
 10  0.000  0.003  0.095  0.098
 11  0.001  0.003  0.103  0.106
 12  0.000  0.001  0.028  0.029
 13  0.000  0.013  0.000  0.013
tot  0.010  0.060  0.855  0.925
 
band  38 # energy   -4.32145578 # occ.  2.00000000
 
ion      s      p      d    tot
  1  0.000  0.000  0.024  0.024
  2  0.003  0.001  0.140  0.144
  3  0.004  0.001  0.154  0.158
  4  0.000  0.000  0.004  0.004
  5  0.000  0.005  0.033  0.038
  6  0.000  0.012  0.012  0.025
  7  0.000  0.011  0.053  0.064
  8  0.000  0.006  0.031  0.037
  9  0.000  0.003  0.072  0.074
 10  0.001  0.004  0.157  0.162
 11  0.001  0.003  0.149  0.154
 12  0.000  0.001  0.028  0.029
 13  0.000  0.013  0.000  0.013
tot  0.010  0.060  0.855  0.925
 
band  39 # energy   -4.30600558 # occ.  2.00000000
 
ion      s      p      d    tot
  1  0.004  0.000  0.051  0.055
  2  0.000  0.002  0.072  0.074
  3  0.000  0.002  0.072  0.074
  4  0.000  0.002  0.072  0.074
  5  0.001  0.004  0.052  0.057
  6  0.001  0.004  0.052  0.057
  7  0.001  0.003  0.042  0.046
  8  0.001  0.004  0.052  0.057
  9  0.002  0.020  0.031  0.053
 10  0.002  0.020  0.031  0.053
 11  0.002  0.020  0.031  0.053
 12  0.004  0.002  0.121  0.127
 13  0.001  0.092  0.000  0.093
tot  0.018  0.171  0.682  0.872
 
band  40 # energy   -3.99223837 # occ.  2.00000000
 
ion      s      p      d    tot
  1  0.000  0.000  0.000  0.000
  2  0.000  0.000  0.105  0.105
  3  0.000  0.000  0.105  0.105
  4  0.000  0.000  0.105  0.105
  5  0.000  0.001  0.014  0.015
  6  0.000  0.001  0.014  0.015
  7  0.000  0.000  0.000  0.000
  8  0.000  0.001  0.014  0.015
  9  0.000  0.000  0.206  0.206
 10  0.000  0.000  0.206  0.206
 11  0.000  0.000  0.206  0.206
 12  0.000  0.000  0.000  0.000
 13  0.000  0.000  0.000  0.000
tot  0.000  0.002  0.974  0.976
 
band  41 # energy   -3.98349144 # occ.  2.00000000
 
ion      s      p      d    tot
  1  0.000  0.001  0.031  0.032
  2  0.000  0.001  0.060  0.060
  3  0.000  0.001  0.059  0.060
  4  0.000  0.000  0.032  0.032
  5  0.000  0.000  0.091  0.091
  6  0.000  0.000  0.159  0.160
  7  0.000  0.000  0.131  0.132
  8  0.000  0.000  0.091  0.091
  9  0.000  0.000  0.098  0.098
 10  0.000  0.001  0.101  0.102
 11  0.000  0.001  0.101  0.102
 12  0.000  0.002  0.010  0.012
 13  0.000  0.000  0.000  0.000
tot  0.001  0.008  0.965  0.973
 
band  42 # energy   -3.98349101 # occ.  2.00000000
 
ion      s      p      d    tot
  1  0.000  0.001  0.031  0.032
  2  0.000  0.000  0.041  0.042
  3  0.000  0.000  0.041  0.042
  4  0.000  0.001  0.069  0.069
  5  0.000  0.000  0.136  0.137
  6  0.000  0.000  0.068  0.068
  7  0.000  0.000  0.131  0.132
  8  0.000  0.000  0.137  0.137
  9  0.000  0.002  0.101  0.103
 10  0.000  0.001  0.099  0.099
 11  0.000  0.001  0.099  0.099
 12  0.000  0.002  0.010  0.012
 13  0.000  0.000  0.000  0.000
tot  0.001  0.008  0.965  0.973
 
band  43 # energy   -3.89595610 # occ.  2.00000000
 
ion      s      p      d    tot
  1  0.000  0.004  0.012  0.016
  2  0.000  0.003  0.065  0.068
  3  0.000  0.003  0.065  0.068
  4  0.000  0.000  0.133  0.133
  5  0.000  0.000  0.120  0.120
  6  0.001  0.000  0.153  0.154
  7  0.000  0.001  0.021  0.022
  8  0.000  0.000  0.120  0.120
  9  0.000  0.000  0.022  0.022
 10  0.000  0.004  0.015  0.020
 11  0.000  0.004  0.015  0.020
 12  0.000  0.005  0.182  0.186
 13  0.000  0.000  0.000  0.000
tot  0.002  0.024  0.922  0.948
 
band  44 # energy   -3.89595586 # occ.  2.00000000
 
ion      s      p      d    tot
  1  0.000  0.004  0.012  0.016
  2  0.000  0.001  0.110  0.112
  3  0.000  0.001  0.110  0.111
  4  0.000  0.004  0.043  0.047
  5  0.001  0.000  0.142  0.143
  6  0.000  0.000  0.109  0.109
  7  0.000  0.001  0.021  0.022
  8  0.001  0.000  0.142  0.143
  9  0.000  0.006  0.013  0.019
 10  0.000  0.002  0.020  0.021
 11  0.000  0.002  0.020  0.021
 12  0.000  0.005  0.182  0.186
 13  0.000  0.000  0.000  0.000
tot  0.002  0.024  0.922  0.948
 
band  45 # energy   -3.84381559 # occ.  2.00000000
 
ion      s      p      d    tot
  1  0.000  0.001  0.303  0.303
  2  0.000  0.001  0.047  0.048
  3  0.000  0.001  0.047  0.048
  4  0.000  0.000  0.017  0.017
  5  0.000  0.000  0.025  0.025
  6  0.000  0.000  0.025  0.026
  7  0.000  0.001  0.035  0.036
  8  0.000  0.000  0.025  0.025
  9  0.000  0.001  0.002  0.003
 10  0.000  0.000  0.119  0.120
 11  0.000  0.000  0.120  0.120
 12  0.000  0.000  0.198  0.198
 13  0.000  0.005  0.000  0.005
tot  0.001  0.011  0.964  0.976
 
band  46 # energy   -3.84381279 # occ.  2.00000000
 
ion      s      p      d    tot
  1  0.000  0.001  0.303  0.303
  2  0.000  0.000  0.027  0.027
  3  0.000  0.000  0.027  0.027
  4  0.000  0.001  0.058  0.059
  5  0.000  0.000  0.025  0.026
  6  0.000  0.000  0.025  0.025
  7  0.000  0.001  0.035  0.036
  8  0.000  0.000  0.025  0.026
  9  0.000  0.000  0.159  0.159
 10  0.000  0.001  0.041  0.042
 11  0.000  0.001  0.041  0.042
 12  0.000  0.000  0.198  0.198
 13  0.000  0.005  0.000  0.005
tot  0.001  0.011  0.964  0.976
 
band  47 # energy   -3.57912559 # occ.  2.00000000
 
ion      s      p      d    tot
  1  0.000  0.002  0.010  0.012
  2  0.000  0.001  0.125  0.126
  3  0.000  0.001  0.125  0.127
  4  0.001  0.000  0.299  0.300
  5  0.000  0.000  0.027  0.027
  6  0.000  0.000  0.080  0.080
  7  0.000  0.002  0.072  0.074
  8  0.000  0.000  0.027  0.027
  9  0.001  0.002  0.072  0.075
 10  0.000  0.000  0.022  0.023
 11  0.000  0.000  0.022  0.023
 12  0.000  0.000  0.066  0.067
 13  0.000  0.008  0.000  0.008
tot  0.003  0.018  0.949  0.970
 
band  48 # energy   -3.57912171 # occ.  2.00000000
 
ion      s      p      d    tot
  1  0.000  0.002  0.010  0.012
  2  0.001  0.000  0.241  0.243
  3  0.001  0.000  0.241  0.242
  4  0.000  0.001  0.067  0.069
  5  0.000  0.000  0.062  0.063
  6  0.000  0.000  0.009  0.010
  7  0.000  0.002  0.072  0.074
  8  0.000  0.000  0.062  0.063
  9  0.000  0.000  0.006  0.006
 10  0.000  0.001  0.056  0.057
 11  0.000  0.001  0.056  0.057
 12  0.000  0.000  0.066  0.067
 13  0.000  0.008  0.000  0.008
tot  0.003  0.018  0.949  0.970
 
band  49 # energy   -3.52109320 # occ.  2.00000000
 
ion      s      p      d    tot
  1  0.000  0.000  0.000  0.000
  2  0.000  0.000  0.139  0.139
  3  0.000  0.000  0.139  0.139
  4  0.000  0.000  0.139  0.139
  5  0.000  0.000  0.115  0.115
  6  0.000  0.000  0.115  0.115
  7  0.000  0.000  0.000  0.000
  8  0.000  0.000  0.115  0.115
  9  0.000  0.000  0.076  0.076
 10  0.000  0.000  0.076  0.076
 11  0.000  0.000  0.076  0.076
 12  0.000  0.000  0.000  0.000
 13  0.000  0.000  0.000  0.000
tot  0.000  0.001  0.988  0.989
 
band  50 # energy   -3.51448337 # occ.  2.00000000
 
ion      s      p      d    tot
  1  0.000  0.000  0.024  0.024
  2  0.000  0.000  0.059  0.060
  3  0.000  0.000  0.059  0.060
  4  0.001  0.000  0.218  0.219
  5  0.000  0.000  0.067  0.067
  6  0.000  0.000  0.127  0.127
  7  0.000  0.000  0.088  0.088
  8  0.000  0.000  0.067  0.067
  9  0.000  0.001  0.124  0.125
 10  0.000  0.000  0.051  0.051
 11  0.000  0.000  0.051  0.051
 12  0.000  0.000  0.043  0.043
 13  0.000  0.000  0.000  0.000
tot  0.002  0.003  0.979  0.983
 
band  51 # energy   -3.51448212 # occ.  2.00000000
 
ion      s      p      d    tot
  1  0.000  0.000  0.024  0.024
  2  0.001  0.000  0.165  0.166
  3  0.001  0.000  0.165  0.166
  4  0.000  0.000  0.006  0.006
  5  0.000  0.000  0.107  0.107
  6  0.000  0.001  0.047  0.047
  7  0.000  0.000  0.088  0.089
  8  0.000  0.000  0.107  0.107
  9  0.000  0.000  0.026  0.026
 10  0.000  0.001  0.100  0.100
 11  0.000  0.001  0.100  0.100
 12  0.000  0.000  0.043  0.043
 13  0.000  0.000  0.000  0.000
tot  0.002  0.003  0.979  0.983
 
band  52 # energy   -3.51347557 # occ.  2.00000000
 
ion      s      p      d    tot
  1  0.002  0.002  0.274  0.278
  2  0.000  0.001  0.045  0.045
  3  0.000  0.001  0.045  0.045
  4  0.000  0.001  0.045  0.046
  5  0.000  0.000  0.056  0.056
  6  0.000  0.000  0.056  0.056
  7  0.000  0.001  0.000  0.001
  8  0.000  0.000  0.056  0.056
  9  0.000  0.002  0.030  0.032
 10  0.000  0.002  0.030  0.032
 11  0.000  0.002  0.030  0.032
 12  0.001  0.003  0.267  0.271
 13  0.000  0.012  0.000  0.012
tot  0.003  0.024  0.934  0.962
 
band  53 # energy   -3.47291069 # occ.  2.00000000
 
ion      s      p      d    tot
  1  0.000  0.000  0.141  0.141
  2  0.000  0.000  0.100  0.100
  3  0.000  0.000  0.100  0.100
  4  0.000  0.000  0.052  0.052
  5  0.000  0.000  0.074  0.074
  6  0.000  0.000  0.128  0.128
  7  0.000  0.000  0.076  0.076
  8  0.000  0.000  0.074  0.074
  9  0.000  0.000  0.062  0.062
 10  0.000  0.000  0.042  0.042
 11  0.000  0.000  0.042  0.042
 12  0.000  0.000  0.097  0.098
 13  0.000  0.001  0.000  0.001
tot  0.000  0.002  0.988  0.990
 
band  54 # energy   -3.47291015 # occ.  2.00000000
 
ion      s      p      d    tot
  1  0.000  0.000  0.141  0.141
  2  0.000  0.000  0.068  0.068
  3  0.000  0.000  0.068  0.068
  4  0.000  0.000  0.116  0.116
  5  0.000  0.000  0.110  0.110
  6  0.000  0.000  0.056  0.057
  7  0.000  0.000  0.076  0.076
  8  0.000  0.000  0.110  0.110
  9  0.000  0.000  0.035  0.035
 10  0.000  0.000  0.055  0.055
 11  0.000  0.000  0.055  0.055
 12  0.000  0.000  0.097  0.098
 13  0.000  0.001  0.000  0.001
tot  0.000  0.002  0.988  0.990
 
band  55 # energy   -3.43448382 # occ.  2.00000000
 
ion      s      p      d    tot
  1  0.000  0.000  0.000  0.000
  2  0.000  0.000  0.002  0.002
  3  0.000  0.000  0.002  0.002
  4  0.000  0.000  0.002  0.002
  5  0.000  0.000  0.125  0.125
  6  0.000  0.000  0.125  0.125
  7  0.000  0.000  0.000  0.000
  8  0.000  0.000  0.125  0.125
  9  0.000  0.000  0.205  0.205
 10  0.000  0.000  0.205  0.205
 11  0.000  0.000  0.205  0.205
 12  0.000  0.000  0.000  0.000
 13  0.000  0.000  0.000  0.000
tot  0.000  0.000  0.995  0.995
 
band  56 # energy   -3.42272771 # occ.  2.00000000
 
ion      s      p      d    tot
  1  0.000  0.000  0.051  0.051
  2  0.000  0.000  0.037  0.037
  3  0.000  0.000  0.037  0.037
  4  0.000  0.000  0.013  0.013
  5  0.000  0.000  0.231  0.231
  6  0.000  0.000  0.036  0.036
  7  0.000  0.000  0.182  0.182
  8  0.000  0.000  0.230  0.230
  9  0.000  0.000  0.005  0.005
 10  0.000  0.000  0.039  0.039