<?xml version="1.0" encoding="ISO-8859-1"?>
<modeling>
 <generator>
  <i name="program" type="string">vasp </i>
  <i name="version" type="string">5.4.1  </i>
  <i name="subversion" type="string">05Feb16 (build Feb 08 2018 09:21:51) complex                          parallel </i>
  <i name="platform" type="string">LinuxIFC </i>
  <i name="date" type="string">2019 11 21 </i>
  <i name="time" type="string">23:49:14 </i>
 </generator>
 <incar>
  <i type="string" name="PREC">normal</i>
  <i name="ENCUT">    400.00000000</i>
  <i type="int" name="ISMEAR">     1</i>
  <i name="SIGMA">      0.10000000</i>
  <i type="logical" name="LWAVE"> F  </i>
  <i type="logical" name="LCHARG"> F  </i>
  <i type="logical" name="LORBIT"> F  </i>
  <v type="int" name="KPOINT_BSE">    -1     0     0     0</v>
 </incar>
 <kpoints>
  <generation param="Monkhorst-Pack">
   <v type="int" name="divisions">       9        9        1 </v>
   <v name="usershift">      0.00000000       0.00000000       0.00000000 </v>
   <v name="genvec1">      0.11111111       0.00000000       0.00000000 </v>
   <v name="genvec2">      0.00000000       0.11111111       0.00000000 </v>
   <v name="genvec3">      0.00000000       0.00000000       1.00000000 </v>
   <v name="shift">      0.00000000       0.00000000       0.00000000 </v>
  </generation>
  <varray name="kpointlist" >
   <v>       0.00000000       0.00000000       0.00000000 </v>
   <v>       0.11111111       0.00000000       0.00000000 </v>
   <v>       0.22222222       0.00000000       0.00000000 </v>
   <v>       0.33333333      -0.00000000       0.00000000 </v>
   <v>       0.44444444       0.00000000       0.00000000 </v>
   <v>       0.22222222       0.11111111       0.00000000 </v>
   <v>       0.33333333       0.11111111       0.00000000 </v>
   <v>       0.44444444       0.11111111       0.00000000 </v>
   <v>      -0.44444444       0.11111111       0.00000000 </v>
   <v>       0.44444444       0.22222222       0.00000000 </v>
   <v>      -0.44444444       0.22222222       0.00000000 </v>
   <v>      -0.33333333       0.33333333       0.00000000 </v>
  </varray>
  <varray name="weights" >
   <v>       0.01234568 </v>
   <v>       0.07407407 </v>
   <v>       0.07407407 </v>
   <v>       0.07407407 </v>
   <v>       0.07407407 </v>
   <v>       0.07407407 </v>
   <v>       0.14814815 </v>
   <v>       0.14814815 </v>
   <v>       0.07407407 </v>
   <v>       0.07407407 </v>
   <v>       0.14814815 </v>
   <v>       0.02469136 </v>
  </varray>
 </kpoints>
 <parameters>
  <separator name="general" >
   <i type="string" name="SYSTEM">unknown system</i>
   <i type="logical" name="LCOMPAT"> F  </i>
  </separator>
  <separator name="electronic" >
   <i type="string" name="PREC">normal</i>
   <i name="ENMAX">    400.00000000</i>
   <i name="ENAUG">    605.39200000</i>
   <i name="EDIFF">      0.00010000</i>
   <i type="int" name="IALGO">    38</i>
   <i type="int" name="IWAVPR">    10</i>
   <i type="int" name="NBANDS">    96</i>
   <i name="NELECT">    138.00000000</i>
   <i type="int" name="TURBO">     0</i>
   <i type="int" name="IRESTART">     0</i>
   <i type="int" name="NREBOOT">     0</i>
   <i type="int" name="NMIN">     0</i>
   <i name="EREF">      0.00000000</i>
   <separator name="electronic smearing" >
    <i type="int" name="ISMEAR">     1</i>
    <i name="SIGMA">      0.10000000</i>
    <i name="KSPACING">      0.50000000</i>
    <i type="logical" name="KGAMMA"> T  </i>
   </separator>
   <separator name="electronic projectors" >
    <i type="logical" name="LREAL"> F  </i>
    <v name="ROPT">      0.00000000      0.00000000</v>
    <i type="int" name="LMAXPAW">  -100</i>
    <i type="int" name="LMAXMIX">     2</i>
    <i type="logical" name="NLSPLINE"> F  </i>
   </separator>
   <separator name="electronic startup" >
    <i type="int" name="ISTART">     0</i>
    <i type="int" name="ICHARG">     2</i>
    <i type="int" name="INIWAV">     1</i>
   </separator>
   <separator name="electronic spin" >
    <i type="int" name="ISPIN">     1</i>
    <i type="logical" name="LNONCOLLINEAR"> F  </i>
    <v name="MAGMOM">      1.00000000      1.00000000      1.00000000      1.00000000      1.00000000      1.00000000      1.00000000      1.00000000      1.00000000      1.00000000      1.00000000      1.00000000      1.00000000</v>
    <i name="NUPDOWN">     -1.00000000</i>
    <i type="logical" name="LSORBIT"> F  </i>
    <v name="SAXIS">      0.00000000      0.00000000      1.00000000</v>
    <i type="logical" name="LSPIRAL"> F  </i>
    <v name="QSPIRAL">      0.00000000      0.00000000      0.00000000</v>
    <i type="logical" name="LZEROZ"> F  </i>
   </separator>
   <separator name="electronic exchange-correlation" >
    <i type="logical" name="LASPH"> F  </i>
    <i type="logical" name="LMETAGGA"> F  </i>
   </separator>
   <separator name="electronic convergence" >
    <i type="int" name="NELM">    60</i>
    <i type="int" name="NELMDL">    -5</i>
    <i type="int" name="NELMIN">     2</i>
    <i name="ENINI">    400.00000000</i>
    <separator name="electronic convergence detail" >
     <i type="logical" name="LDIAG"> T  </i>
     <i type="logical" name="LSUBROT"> F  </i>
     <i name="WEIMIN">      0.00000000</i>
     <i name="EBREAK">      0.00000026</i>
     <i name="DEPER">      0.30000000</i>
     <i type="int" name="NRMM">     4</i>
     <i name="TIME">      0.40000000</i>
    </separator>
   </separator>
   <separator name="electronic mixer" >
    <i name="AMIX">      0.40000000</i>
    <i name="BMIX">      1.00000000</i>
    <i name="AMIN">      0.10000000</i>
    <i name="AMIX_MAG">      1.60000000</i>
    <i name="BMIX_MAG">      1.00000000</i>
    <separator name="electronic mixer details" >
     <i type="int" name="IMIX">     4</i>
     <i type="logical" name="MIXFIRST"> F  </i>
     <i type="int" name="MAXMIX">   -45</i>
     <i name="WC">    100.00000000</i>
     <i type="int" name="INIMIX">     1</i>
     <i type="int" name="MIXPRE">     1</i>
     <i type="int" name="MREMOVE">     5</i>
    </separator>
   </separator>
   <separator name="electronic dipolcorrection" >
    <i type="logical" name="LDIPOL"> F  </i>
    <i type="logical" name="LMONO"> F  </i>
    <i type="int" name="IDIPOL">     0</i>
    <i name="EPSILON">      1.00000000</i>
    <v name="DIPOL">   -100.00000000   -100.00000000   -100.00000000</v>
    <i name="EFIELD">      0.00000000</i>
   </separator>
  </separator>
  <separator name="grids" >
   <i type="int" name="NGX">    28</i>
   <i type="int" name="NGY">    28</i>
   <i type="int" name="NGZ">   120</i>
   <i type="int" name="NGXF">    56</i>
   <i type="int" name="NGYF">    56</i>
   <i type="int" name="NGZF">   240</i>
   <i type="logical" name="ADDGRID"> F  </i>
  </separator>
  <separator name="ionic" >
   <i type="int" name="NSW">     0</i>
   <i type="int" name="IBRION">    -1</i>
   <i type="int" name="ISIF">     2</i>
   <i name="PSTRESS">      0.00000000</i>
   <i name="EDIFFG">      0.00100000</i>
   <i type="int" name="NFREE">     0</i>
   <i name="POTIM">      0.50000000</i>
   <i name="SMASS">     -3.00000000</i>
   <i name="SCALEE">      1.00000000</i>
  </separator>
  <separator name="ionic md" >
   <i name="TEBEG">      0.00010000</i>
   <i name="TEEND">      0.00010000</i>
   <i type="int" name="NBLOCK">     1</i>
   <i type="int" name="KBLOCK">     1</i>
   <i type="int" name="NPACO">   256</i>
   <i name="APACO">     16.00000000</i>
  </separator>
  <separator name="symmetry" >
   <i type="int" name="ISYM">     2</i>
   <i name="SYMPREC">      0.00001000</i>
  </separator>
  <separator name="dos" >
   <i type="logical" name="LORBIT"> F  </i>
   <v name="RWIGS">     -1.00000000     -1.00000000</v>
   <i type="int" name="NEDOS">   301</i>
   <i name="EMIN">     10.00000000</i>
   <i name="EMAX">    -10.00000000</i>
   <i name="EFERMI">      0.00000000</i>
  </separator>
  <separator name="writing" >
   <i type="int" name="NWRITE">     2</i>
   <i type="logical" name="LWAVE"> F  </i>
   <i type="logical" name="LCHARG"> F  </i>
   <i type="logical" name="LPARD"> F  </i>
   <i type="logical" name="LVTOT"> F  </i>
   <i type="logical" name="LVHAR"> F  </i>
   <i type="logical" name="LELF"> F  </i>
   <i type="logical" name="LOPTICS"> F  </i>
   <v name="STM">      0.00000000      0.00000000      0.00000000      0.00000000      0.00000000      0.00000000      0.00000000</v>
  </separator>
  <separator name="performance" >
   <i type="int" name="NPAR">    24</i>
   <i type="int" name="NSIM">     4</i>
   <i type="int" name="NBLK">    -1</i>
   <i type="logical" name="LPLANE"> T  </i>
   <i type="logical" name="LSCALAPACK"> F  </i>
   <i type="logical" name="LSCAAWARE"> F  </i>
   <i type="logical" name="LSCALU"> F  </i>
   <i type="logical" name="LASYNC"> F  </i>
   <i type="logical" name="LORBITALREAL"> F  </i>
  </separator>
  <separator name="miscellaneous" >
   <i type="int" name="IDIOT">     3</i>
   <i type="logical" name="LMUSIC"> F  </i>
   <v name="POMASS">     63.54600000     16.00000000</v>
   <v name="DARWINR">      0.00000000      0.00000000</v>
   <v name="DARWINV">      1.00000000      1.00000000</v>
   <i type="logical" name="LCORR"> T  </i>
  </separator>
  <i type="logical" name="GGA_COMPAT"> T  </i>
  <i type="logical" name="LBERRY"> F  </i>
  <i type="int" name="ICORELEVEL">     0</i>
  <i type="logical" name="LDAU"> F  </i>
  <i type="int" name="I_CONSTRAINED_M">     0</i>
  <separator name="electronic exchange-correlation" >
   <i type="string" name="GGA">--</i>
   <i type="int" name="VOSKOWN">     0</i>
   <i type="logical" name="LHFCALC"> F  </i>
   <i type="string" name="PRECFOCK"></i>
   <i type="logical" name="LSYMGRAD"> F  </i>
   <i type="logical" name="LHFONE"> F  </i>
   <i type="logical" name="LRHFCALC"> F  </i>
   <i type="logical" name="LTHOMAS"> F  </i>
   <i type="logical" name="LMODELHF"> F  </i>
   <i name="ENCUT4O">     -1.00000000</i>
   <i type="int" name="EXXOEP">     0</i>
   <i type="int" name="FOURORBIT">     0</i>
   <i name="AEXX">      0.00000000</i>
   <i name="HFALPHA">      0.00000000</i>
   <i name="MCALPHA">      0.00000000</i>
   <i name="ALDAX">      1.00000000</i>
   <i name="AGGAX">      1.00000000</i>
   <i name="ALDAC">      1.00000000</i>
   <i name="AGGAC">      1.00000000</i>
   <i type="int" name="NKREDX">     1</i>
   <i type="int" name="NKREDY">     1</i>
   <i type="int" name="NKREDZ">     1</i>
   <i type="logical" name="SHIFTRED"> F  </i>
   <i type="logical" name="ODDONLY"> F  </i>
   <i type="logical" name="EVENONLY"> F  </i>
   <i type="int" name="LMAXFOCK">     0</i>
   <i type="int" name="NMAXFOCKAE">     0</i>
   <i type="logical" name="LFOCKAEDFT"> F  </i>
   <i name="HFSCREEN">      0.00000000</i>
   <i name="HFSCREENC">      0.00000000</i>
   <i type="int" name="NBANDSGWLOW">     0</i>
  </separator>
  <separator name="vdW DFT" >
   <i type="logical" name="LUSE_VDW"> F  </i>
   <i name="Zab_VDW">     -0.84910000</i>
   <i name="PARAM1">      0.12340000</i>
   <i name="PARAM2">      1.00000000</i>
   <i name="PARAM3">      0.00000000</i>
  </separator>
  <separator name="model GW" >
   <i type="int" name="MODEL_GW">     0</i>
   <i name="MODEL_EPS0">     25.57434747</i>
   <i name="MODEL_ALPHA">      1.00000000</i>
  </separator>
  <separator name="linear response parameters" >
   <i type="logical" name="LEPSILON"> F  </i>
   <i type="logical" name="LRPA"> F  </i>
   <i type="logical" name="LNABLA"> F  </i>
   <i type="logical" name="LVEL"> F  </i>
   <i type="int" name="KINTER">     0</i>
   <i name="CSHIFT">      0.10000000</i>
   <i name="OMEGAMAX">     -1.00000000</i>
   <i name="DEG_THRESHOLD">      0.00200000</i>
  </separator>
  <separator name="orbital magnetization" >
   <i type="logical" name="NUCIND"> F  </i>
   <v name="MAGPOS">      0.00000000      0.00000000      0.00000000</v>
   <i type="logical" name="LNICSALL"> T  </i>
   <i type="logical" name="ORBITALMAG"> F  </i>
   <i type="logical" name="LMAGBLOCH"> F  </i>
   <i type="logical" name="LCHIMAG"> F  </i>
   <i type="logical" name="LGAUGE"> T  </i>
   <i type="int" name="MAGATOM">     0</i>
   <v name="MAGDIPOL">      0.00000000      0.00000000      0.00000000</v>
   <v name="AVECCONST">      0.00000000      0.00000000      0.00000000</v>
  </separator>
  <separator name="response functions" >
   <i type="logical" name="LADDER"> F  </i>
   <i type="logical" name="LFXC"> F  </i>
   <i type="logical" name="LHARTREE"> T  </i>
   <i type="int" name="IBSE">     0</i>
   <v type="int" name="KPOINT">    -1     0     0     0</v>
   <i type="logical" name="LTCTE"> F  </i>
   <i type="logical" name="LTETE"> F  </i>
   <i type="logical" name="LTRIPLET"> F  </i>
   <i type="logical" name="LFXCEPS"> F  </i>
   <i type="logical" name="LFXHEG"> F  </i>
   <i type="int" name="NATURALO">     0</i>
   <i type="logical" name="L2ORDER"> F  </i>
   <i type="logical" name="LUSEW"> F  </i>
   <i name="ENCUTGW">     -2.00000000</i>
   <i name="ENCUTGWSOFT">     -2.00000000</i>
   <i name="ENCUTLF">     -1.00000000</i>
   <i type="int" name="LMAXMP2">    -1</i>
   <i name="SCISSOR">      0.00000000</i>
   <i type="int" name="NOMEGA">     0</i>
   <i type="int" name="NOMEGAR">     0</i>
   <i type="int" name="NBANDSGW">    -1</i>
   <i type="int" name="NBANDSO">    -1</i>
   <i type="int" name="NBANDSV">    -1</i>
   <i type="int" name="NELM">     1</i>
   <i type="int" name="NELMHF">     1</i>
   <i type="int" name="DIM">     3</i>
   <i type="int" name="ANTIRES">     0</i>
   <i name="OMEGAMAX">    -30.00000000</i>
   <i name="OMEGAMIN">    -30.00000000</i>
   <i name="OMEGATL">   -200.00000000</i>
   <i type="int" name="OMEGAGRID">     0</i>
   <i name="CSHIFT">     -0.10000000</i>
   <i type="logical" name="SELFENERGY"> F  </i>
   <i type="logical" name="LSPECTRAL"> F  </i>
   <i type="logical" name="LSPECTRALGW"> F  </i>
   <i type="logical" name="LSINGLES"> F  </i>
   <i type="logical" name="LFERMIGW"> F  </i>
   <i type="logical" name="ODDONLYGW"> F  </i>
   <i type="logical" name="EVENONLYGW"> F  </i>
   <i type="int" name="NKREDLFX">     1</i>
   <i type="int" name="NKREDLFY">     1</i>
   <i type="int" name="NKREDLFZ">     1</i>
   <i type="int" name="MAXMEM">  1800</i>
   <i type="int" name="TELESCOPE">     0</i>
   <i type="int" name="TAUPAR">     1</i>
   <i type="int" name="OMEGAPAR">    -1</i>
   <i name="LAMBDA">      1.00000000</i>
  </separator>
  <separator name="External order field" >
   <i name="OFIELD_KAPPA">      0.00000000</i>
   <v name="OFIELD_K">      0.00000000      0.00000000      0.00000000</v>
   <i name="OFIELD_Q6_NEAR">      0.00000000</i>
   <i name="OFIELD_Q6_FAR">      0.00000000</i>
   <i name="OFIELD_A">      0.00000000</i>
  </separator>
 </parameters>
 <atominfo>
  <atoms>      13 </atoms>
  <types>       2 </types>
  <array name="atoms" >
   <dimension dim="1">ion</dimension>
   <field type="string">element</field>
   <field type="int">atomtype</field>
   <set>
    <rc><c>Cu</c><c>   1</c></rc>
    <rc><c>Cu</c><c>   1</c></rc>
    <rc><c>Cu</c><c>   1</c></rc>
    <rc><c>Cu</c><c>   1</c></rc>
    <rc><c>Cu</c><c>   1</c></rc>
    <rc><c>Cu</c><c>   1</c></rc>
    <rc><c>Cu</c><c>   1</c></rc>
    <rc><c>Cu</c><c>   1</c></rc>
    <rc><c>Cu</c><c>   1</c></rc>
    <rc><c>Cu</c><c>   1</c></rc>
    <rc><c>Cu</c><c>   1</c></rc>
    <rc><c>Cu</c><c>   1</c></rc>
    <rc><c>O </c><c>   2</c></rc>
   </set>
  </array>
  <array name="atomtypes" >
   <dimension dim="1">type</dimension>
   <field type="int">atomspertype</field>
   <field type="string">element</field>
   <field>mass</field>
   <field>valence</field>
   <field type="string">pseudopotential</field>
   <set>
    <rc><c>  12</c><c>Cu</c><c>     63.54600000</c><c>     11.00000000</c><c>  PAW_PBE Cu 22Jun2005                  </c></rc>
    <rc><c>   1</c><c>O </c><c>     16.00000000</c><c>      6.00000000</c><c>  PAW_PBE O 08Apr2002                   </c></rc>
   </set>
  </array>
 </atominfo>
 <structure name="initialpos" >
  <crystal>
   <varray name="basis" >
    <v>       5.14208051       0.00000000       0.00000000 </v>
    <v>       2.57104026       4.45317235       0.00000000 </v>
    <v>       0.00000000       0.00000000      24.19849116 </v>
   </varray>
   <i name="volume">    554.11086184 </i>
   <varray name="rec_basis" >
    <v>       0.19447381      -0.11227951       0.00000000 </v>
    <v>       0.00000000       0.22455902       0.00000000 </v>
    <v>       0.00000000       0.00000000       0.04132489 </v>
   </varray>
  </crystal>
  <varray name="positions" >
   <v>       0.16666667       0.16666667       0.41486685 </v>
   <v>       0.66695475       0.16609050       0.41409271 </v>
   <v>       0.16609050       0.66695475       0.41409271 </v>
   <v>       0.66695475       0.66695475       0.41409271 </v>
   <v>       0.83425813       0.33287094       0.49935389 </v>
   <v>       0.33287094       0.33287094       0.49935389 </v>
   <v>       0.83333333       0.83333333       0.50197645 </v>
   <v>       0.33287094       0.83425813       0.49935389 </v>
   <v>       0.99363413       0.99363413       0.58822492 </v>
   <v>       0.51273173       0.99363413       0.58822492 </v>
   <v>       0.99363413       0.51273173       0.58822492 </v>
   <v>       0.50000000       0.50000000       0.58132817 </v>
   <v>       0.16666667       0.16666667       0.63315493 </v>
  </varray>
 </structure>
 <calculation>
  <scstep>
   <time name="dav">    2.98    3.00</time>
   <time name="total">    3.03    3.08</time>
   <energy>
    <i name="alphaZ">    204.46100599 </i>
    <i name="ewald">  70410.89177291 </i>
    <i name="hartreedc"> -86577.35992306 </i>
    <i name="XCdc">    573.35169484 </i>
    <i name="pawpsdc">  15085.02939543 </i>
    <i name="pawaedc"> -16356.92975307 </i>
    <i name="eentropy">      0.00138265 </i>
    <i name="bandstr">    624.19257092 </i>
    <i name="atom">  17123.75487843 </i>
    <i name="e_fr_energy">   1087.39302504 </i>
    <i name="e_wo_entrp">   1087.39164239 </i>
    <i name="e_0_energy">   1087.39256416 </i>
   </energy>
  </scstep>
  <scstep>
   <time name="dav">    2.56    2.56</time>
   <time name="total">    2.56    2.57</time>
   <energy>
    <i name="e_fr_energy">     39.45272829 </i>
    <i name="e_wo_entrp">     39.44187704 </i>
    <i name="e_0_energy">     39.44911121 </i>
   </energy>
  </scstep>
  <scstep>
   <time name="dav">    3.72    3.73</time>
   <time name="total">    3.72    3.73</time>
   <energy>
    <i name="e_fr_energy">    -55.41720650 </i>
    <i name="e_wo_entrp">    -55.41710015 </i>
    <i name="e_0_energy">    -55.41717105 </i>
   </energy>
  </scstep>
  <scstep>
   <time name="dav">    2.86    2.88</time>
   <time name="total">    2.86    2.88</time>
   <energy>
    <i name="e_fr_energy">    -59.79241131 </i>
    <i name="e_wo_entrp">    -59.79073452 </i>
    <i name="e_0_energy">    -59.79185238 </i>
   </energy>
  </scstep>
  <scstep>
   <time name="dav">    3.25    3.26</time>
   <time name="total">    3.36    3.37</time>
   <energy>
    <i name="e_fr_energy">    -59.90272188 </i>
    <i name="e_wo_entrp">    -59.90098953 </i>
    <i name="e_0_energy">    -59.90214443 </i>
   </energy>
  </scstep>
  <scstep>
   <time name="dav">    3.24    3.25</time>
   <time name="total">    3.37    3.38</time>
   <energy>
    <i name="e_fr_energy">    -54.96884788 </i>
    <i name="e_wo_entrp">    -54.97302795 </i>
    <i name="e_0_energy">    -54.97024124 </i>
   </energy>
  </scstep>
  <scstep>
   <time name="dav">    3.67    3.68</time>
   <time name="total">    3.82    3.84</time>
   <energy>
    <i name="e_fr_energy">    -48.24006139 </i>
    <i name="e_wo_entrp">    -48.23015632 </i>
    <i name="e_0_energy">    -48.23675970 </i>
   </energy>
  </scstep>
  <scstep>
   <time name="dav">    3.83    3.83</time>
   <time name="total">    3.96    3.96</time>
   <energy>
    <i name="e_fr_energy">    -47.80416697 </i>
    <i name="e_wo_entrp">    -47.80167555 </i>
    <i name="e_0_energy">    -47.80333650 </i>
   </energy>
  </scstep>
  <scstep>
   <time name="dav">    3.57    3.58</time>
   <time name="total">    3.70    3.72</time>
   <energy>
    <i name="e_fr_energy">    -47.68911318 </i>
    <i name="e_wo_entrp">    -47.67993333 </i>
    <i name="e_0_energy">    -47.68605323 </i>
   </energy>
  </scstep>
  <scstep>
   <time name="dav">    4.20    4.21</time>
   <time name="total">    4.34    4.35</time>
   <energy>
    <i name="e_fr_energy">    -47.66647027 </i>
    <i name="e_wo_entrp">    -47.66145403 </i>
    <i name="e_0_energy">    -47.66479819 </i>
   </energy>
  </scstep>
  <scstep>
   <time name="dav">    3.51    3.52</time>
   <time name="total">    3.64    3.65</time>
   <energy>
    <i name="e_fr_energy">    -47.62336892 </i>
    <i name="e_wo_entrp">    -47.61642090 </i>
    <i name="e_0_energy">    -47.62105291 </i>
   </energy>
  </scstep>
  <scstep>
   <time name="dav">    3.99    4.00</time>
   <time name="total">    4.12    4.13</time>
   <energy>
    <i name="e_fr_energy">    -47.60600583 </i>
    <i name="e_wo_entrp">    -47.59789615 </i>
    <i name="e_0_energy">    -47.60330260 </i>
   </energy>
  </scstep>
  <scstep>
   <time name="dav">    3.37    3.37</time>
   <time name="total">    3.50    3.50</time>
   <energy>
    <i name="e_fr_energy">    -47.59971346 </i>
    <i name="e_wo_entrp">    -47.59230738 </i>
    <i name="e_0_energy">    -47.59724477 </i>
   </energy>
  </scstep>
  <scstep>
   <time name="dav">    3.48    3.49</time>
   <time name="total">    3.61    3.63</time>
   <energy>
    <i name="e_fr_energy">    -47.59953349 </i>
    <i name="e_wo_entrp">    -47.59233432 </i>
    <i name="e_0_energy">    -47.59713376 </i>
   </energy>
  </scstep>
  <scstep>
   <time name="dav">    3.27    3.28</time>
   <time name="total">    3.41    3.42</time>
   <energy>
    <i name="e_fr_energy">    -47.59960015 </i>
    <i name="e_wo_entrp">    -47.59207998 </i>
    <i name="e_0_energy">    -47.59709343 </i>
   </energy>
  </scstep>
  <scstep>
   <time name="dav">    3.00    3.01</time>
   <time name="total">    3.13    3.16</time>
   <energy>
    <i name="e_fr_energy">    -47.59951470 </i>
    <i name="e_wo_entrp">    -47.59223879 </i>
    <i name="e_0_energy">    -47.59708939 </i>
   </energy>
  </scstep>
  <scstep>
   <time name="dav">    2.69    2.70</time>
   <time name="total">    2.72    2.73</time>
   <energy>
    <i name="alphaZ">    204.46100599 </i>
    <i name="ewald">  70410.89177291 </i>
    <i name="hartreedc"> -86375.50347082 </i>
    <i name="XCdc">    562.13265548 </i>
    <i name="pawpsdc">  16109.99083590 </i>
    <i name="pawaedc"> -17404.67353193 </i>
    <i name="eentropy">     -0.00728603 </i>
    <i name="bandstr">   -678.64643460 </i>
    <i name="atom">  17123.75487843 </i>
    <i name="e_fr_energy">    -47.59957465 </i>
    <i name="e_wo_entrp">    -47.59228862 </i>
    <i name="e_0_energy">    -47.59714598 </i>
   </energy>
  </scstep>
  <structure>
   <crystal>
    <varray name="basis" >
     <v>       5.14208051       0.00000000       0.00000000 </v>
     <v>       2.57104026       4.45317235       0.00000000 </v>
     <v>       0.00000000       0.00000000      24.19849116 </v>
    </varray>
    <i name="volume">    554.11086184 </i>
    <varray name="rec_basis" >
     <v>       0.19447381      -0.11227951       0.00000000 </v>
     <v>       0.00000000       0.22455902       0.00000000 </v>
     <v>       0.00000000       0.00000000       0.04132489 </v>
    </varray>
   </crystal>
   <varray name="positions" >
    <v>       0.16666667       0.16666667       0.41486685 </v>
    <v>       0.66695475       0.16609050       0.41409271 </v>
    <v>       0.16609050       0.66695475       0.41409271 </v>
    <v>       0.66695475       0.66695475       0.41409271 </v>
    <v>       0.83425813       0.33287094       0.49935389 </v>
    <v>       0.33287094       0.33287094       0.49935389 </v>
    <v>       0.83333333       0.83333333       0.50197645 </v>
    <v>       0.33287094       0.83425813       0.49935389 </v>
    <v>       0.99363413       0.99363413       0.58822492 </v>
    <v>       0.51273173       0.99363413       0.58822492 </v>
    <v>       0.99363413       0.51273173       0.58822492 </v>
    <v>       0.50000000       0.50000000       0.58132817 </v>
    <v>       0.16666667       0.16666667       0.63315493 </v>
   </varray>
  </structure>
  <varray name="forces" >
   <v>      -0.00000000       0.00000000      -0.02724066 </v>
   <v>      -0.00000000      -0.00145578       0.00704520 </v>
   <v>      -0.00126074       0.00072789       0.00704520 </v>
   <v>       0.00126074       0.00072789       0.00704520 </v>
   <v>       0.00142693      -0.00082384      -0.00677719 </v>
   <v>      -0.00142693      -0.00082384      -0.00677719 </v>
   <v>      -0.00000000       0.00000000       0.01160585 </v>
   <v>       0.00000000       0.00164767      -0.00677719 </v>
   <v>       0.02592420       0.01496734       0.00924164 </v>
   <v>      -0.02592420       0.01496734       0.00924164 </v>
   <v>      -0.00000000      -0.02993468       0.00924164 </v>
   <v>      -0.00000000       0.00000000      -0.00344822 </v>
   <v>      -0.00000000       0.00000000      -0.00944593 </v>
  </varray>
  <varray name="stress" >
   <v>      -6.73887249      -0.00000001       0.00000000 </v>
   <v>      -0.00000001      -6.73887249       0.00000000 </v>
   <v>       0.00000000      -0.00000000      -2.37001759 </v>
  </varray>
  <energy>
   <i name="e_fr_energy">    -47.59957465 </i>
   <i name="e_wo_entrp">    -47.59714598 </i>
   <i name="e_0_energy">     -0.00728603 </i>
  </energy>
  <time name="totalsc">   63.86   64.17</time>
  <eigenvalues>
   <array>
    <dimension dim="1">band</dimension>
    <dimension dim="2">kpoint</dimension>
    <dimension dim="3">spin</dimension>
    <field>eigene</field>
    <field>occ</field>
    <set>
     <set comment="spin 1">
      <set comment="kpoint 1">
       <r>  -20.1076    1.0000 </r>
       <r>  -10.3217    1.0000 </r>
       <r>   -8.3081    1.0000 </r>
       <r>   -7.1080    1.0000 </r>
       <r>   -7.1080    1.0000 </r>
       <r>   -7.0469    1.0000 </r>
       <r>   -6.6418    1.0000 </r>
       <r>   -6.5007    1.0000 </r>
       <r>   -6.5007    1.0000 </r>
       <r>   -6.4831    1.0000 </r>
       <r>   -6.1547    1.0000 </r>
       <r>   -6.1460    1.0000 </r>
       <r>   -6.1460    1.0000 </r>
       <r>   -5.9241    1.0000 </r>
       <r>   -5.9241    1.0000 </r>
       <r>   -5.8834    1.0000 </r>
       <r>   -5.7124    1.0000 </r>
       <r>   -5.7124    1.0000 </r>
       <r>   -5.2899    1.0000 </r>
       <r>   -5.1751    1.0000 </r>
       <r>   -5.1751    1.0000 </r>
       <r>   -5.0698    1.0000 </r>
       <r>   -4.8528    1.0000 </r>
       <r>   -4.8506    1.0000 </r>
       <r>   -4.8506    1.0000 </r>
       <r>   -4.7657    1.0000 </r>
       <r>   -4.7657    1.0000 </r>
       <r>   -4.6994    1.0000 </r>
       <r>   -4.6367    1.0000 </r>
       <r>   -4.6367    1.0000 </r>
       <r>   -4.5399    1.0000 </r>
       <r>   -4.4927    1.0000 </r>
       <r>   -4.4927    1.0000 </r>
       <r>   -4.4558    1.0000 </r>
       <r>   -4.4557    1.0000 </r>
       <r>   -4.4158    1.0000 </r>
       <r>   -4.3215    1.0000 </r>
       <r>   -4.3215    1.0000 </r>
       <r>   -4.3060    1.0000 </r>
       <r>   -3.9922    1.0000 </r>
       <r>   -3.9835    1.0000 </r>
       <r>   -3.9835    1.0000 </r>
       <r>   -3.8960    1.0000 </r>
       <r>   -3.8960    1.0000 </r>
       <r>   -3.8438    1.0000 </r>
       <r>   -3.8438    1.0000 </r>
       <r>   -3.5791    1.0000 </r>
       <r>   -3.5791    1.0000 </r>
       <r>   -3.5211    1.0000 </r>
       <r>   -3.5145    1.0000 </r>
       <r>   -3.5145    1.0000 </r>
       <r>   -3.5135    1.0000 </r>
       <r>   -3.4729    1.0000 </r>
       <r>   -3.4729    1.0000 </r>
       <r>   -3.4345    1.0000 </r>
       <r>   -3.4227    1.0000 </r>
       <r>   -3.4227    1.0000 </r>
       <r>   -3.3693    1.0000 </r>
       <r>   -3.3646    1.0000 </r>
       <r>   -3.3646    1.0000 </r>
       <r>   -3.3152    1.0000 </r>
       <r>   -3.1911    1.0000 </r>
       <r>   -3.1911    1.0000 </r>
       <r>   -3.1496    1.0000 </r>
       <r>   -2.9656    1.0000 </r>
       <r>   -2.8839    1.0000 </r>
       <r>   -2.8839    1.0000 </r>
       <r>   -1.6352   -0.0354 </r>
       <r>   -1.6352   -0.0354 </r>
       <r>   -1.5035   -0.0009 </r>
       <r>   -1.2745   -0.0000 </r>
       <r>   -0.5871   -0.0000 </r>
       <r>   -0.5871   -0.0000 </r>
       <r>   -0.4201   -0.0000 </r>
       <r>   -0.0443   -0.0000 </r>
       <r>   -0.0443   -0.0000 </r>
       <r>    1.1735    0.0000 </r>
       <r>    2.5533    0.0000 </r>
       <r>    2.6721    0.0000 </r>
       <r>    2.6722    0.0000 </r>
       <r>    3.0681    0.0000 </r>
       <r>    3.3646    0.0000 </r>
       <r>    3.6333    0.0000 </r>
       <r>    4.0701    0.0000 </r>
       <r>    4.0701    0.0000 </r>
       <r>    4.4756    0.0000 </r>
       <r>    4.5536    0.0000 </r>
       <r>    4.8588    0.0000 </r>
       <r>    5.6487    0.0000 </r>
       <r>    5.9305    0.0000 </r>
       <r>    5.9305    0.0000 </r>
       <r>    6.5608    0.0000 </r>
       <r>    6.7774    0.0000 </r>
       <r>    7.4087    0.0000 </r>
       <r>    7.4820    0.0000 </r>
       <r>    7.4820    0.0000 </r>
      </set>
      <set comment="kpoint 2">
       <r>  -20.1061    1.0000 </r>
       <r>  -10.2289    1.0000 </r>
       <r>   -8.2374    1.0000 </r>
       <r>   -7.1347    1.0000 </r>
       <r>   -7.0892    1.0000 </r>
       <r>   -6.9887    1.0000 </r>
       <r>   -6.6303    1.0000 </r>
       <r>   -6.5334    1.0000 </r>
       <r>   -6.4747    1.0000 </r>
       <r>   -6.4497    1.0000 </r>
       <r>   -6.1471    1.0000 </r>
       <r>   -6.1176    1.0000 </r>
       <r>   -6.1109    1.0000 </r>
       <r>   -5.9049    1.0000 </r>
       <r>   -5.8967    1.0000 </r>
       <r>   -5.8405    1.0000 </r>
       <r>   -5.6987    1.0000 </r>
       <r>   -5.6824    1.0000 </r>
       <r>   -5.2833    1.0000 </r>
       <r>   -5.1895    1.0000 </r>
       <r>   -5.1835    1.0000 </r>
       <r>   -5.0712    1.0000 </r>
       <r>   -4.8604    1.0000 </r>
       <r>   -4.8333    1.0000 </r>
       <r>   -4.8329    1.0000 </r>
       <r>   -4.8052    1.0000 </r>
       <r>   -4.7361    1.0000 </r>
       <r>   -4.7347    1.0000 </r>
       <r>   -4.6485    1.0000 </r>
       <r>   -4.6317    1.0000 </r>
       <r>   -4.5698    1.0000 </r>
       <r>   -4.5515    1.0000 </r>
       <r>   -4.4830    1.0000 </r>
       <r>   -4.4784    1.0000 </r>
       <r>   -4.4339    1.0000 </r>
       <r>   -4.4289    1.0000 </r>
       <r>   -4.3736    1.0000 </r>
       <r>   -4.3433    1.0000 </r>
       <r>   -4.3078    1.0000 </r>
       <r>   -4.0324    1.0000 </r>
       <r>   -4.0213    1.0000 </r>
       <r>   -3.9959    1.0000 </r>
       <r>   -3.9356    1.0000 </r>
       <r>   -3.9288    1.0000 </r>
       <r>   -3.8597    1.0000 </r>
       <r>   -3.8354    1.0000 </r>
       <r>   -3.6744    1.0000 </r>
       <r>   -3.6588    1.0000 </r>
       <r>   -3.6104    1.0000 </r>
       <r>   -3.5541    1.0000 </r>
       <r>   -3.5460    1.0000 </r>
       <r>   -3.5400    1.0000 </r>
       <r>   -3.5201    1.0000 </r>
       <r>   -3.5157    1.0000 </r>
       <r>   -3.4769    1.0000 </r>
       <r>   -3.4762    1.0000 </r>
       <r>   -3.4453    1.0000 </r>
       <r>   -3.4372    1.0000 </r>
       <r>   -3.4010    1.0000 </r>
       <r>   -3.3838    1.0000 </r>
       <r>   -3.2969    1.0000 </r>
       <r>   -3.2554    1.0000 </r>
       <r>   -3.2115    1.0000 </r>
       <r>   -3.1816    1.0000 </r>
       <r>   -3.0261    1.0000 </r>
       <r>   -2.8511    1.0000 </r>
       <r>   -2.7559    1.0000 </r>
       <r>   -2.2044    1.0000 </r>
       <r>   -1.7004    0.0835 </r>
       <r>   -1.6400   -0.0353 </r>
       <r>   -1.1470   -0.0000 </r>
       <r>   -0.8664   -0.0000 </r>
       <r>   -0.5792   -0.0000 </r>
       <r>   -0.1776   -0.0000 </r>
       <r>    0.3517   -0.0000 </r>
       <r>    0.4804   -0.0000 </r>
       <r>    1.3770    0.0000 </r>
       <r>    2.6430    0.0000 </r>
       <r>    2.7966    0.0000 </r>
       <r>    2.8632    0.0000 </r>
       <r>    3.2183    0.0000 </r>
       <r>    3.4395    0.0000 </r>
       <r>    3.7187    0.0000 </r>
       <r>    4.0655    0.0000 </r>
       <r>    4.0993    0.0000 </r>
       <r>    4.5171    0.0000 </r>
       <r>    4.8785    0.0000 </r>
       <r>    4.9483    0.0000 </r>
       <r>    5.5259    0.0000 </r>
       <r>    6.1173    0.0000 </r>
       <r>    6.1987    0.0000 </r>
       <r>    6.6032    0.0000 </r>
       <r>    6.8223    0.0000 </r>
       <r>    7.2050    0.0000 </r>
       <r>    7.3225    0.0000 </r>
       <r>    7.7836    0.0000 </r>
      </set>
      <set comment="kpoint 3">
       <r>  -20.1020    1.0000 </r>
       <r>   -9.9543    1.0000 </r>
       <r>   -8.0401    1.0000 </r>
       <r>   -7.2259    1.0000 </r>
       <r>   -7.0390    1.0000 </r>
       <r>   -6.8698    1.0000 </r>
       <r>   -6.7375    1.0000 </r>
       <r>   -6.4858    1.0000 </r>
       <r>   -6.4001    1.0000 </r>
       <r>   -6.3434    1.0000 </r>
       <r>   -6.1187    1.0000 </r>
       <r>   -6.0468    1.0000 </r>
       <r>   -6.0276    1.0000 </r>
       <r>   -5.8438    1.0000 </r>
       <r>   -5.8187    1.0000 </r>
       <r>   -5.7419    1.0000 </r>
       <r>   -5.6439    1.0000 </r>
       <r>   -5.5930    1.0000 </r>
       <r>   -5.2734    1.0000 </r>
       <r>   -5.2300    1.0000 </r>
       <r>   -5.1993    1.0000 </r>
       <r>   -5.1054    1.0000 </r>
       <r>   -4.9405    1.0000 </r>
       <r>   -4.8555    1.0000 </r>
       <r>   -4.8318    1.0000 </r>
       <r>   -4.8056    1.0000 </r>
       <r>   -4.8033    1.0000 </r>
       <r>   -4.7145    1.0000 </r>
       <r>   -4.7087    1.0000 </r>
       <r>   -4.6790    1.0000 </r>
       <r>   -4.6330    1.0000 </r>
       <r>   -4.5560    1.0000 </r>
       <r>   -4.5371    1.0000 </r>
       <r>   -4.5201    1.0000 </r>
       <r>   -4.4693    1.0000 </r>
       <r>   -4.4626    1.0000 </r>
       <r>   -4.4317    1.0000 </r>
       <r>   -4.3421    1.0000 </r>
       <r>   -4.3104    1.0000 </r>
       <r>   -4.1303    1.0000 </r>
       <r>   -4.1266    1.0000 </r>
       <r>   -4.0550    1.0000 </r>
       <r>   -4.0188    1.0000 </r>
       <r>   -3.9919    1.0000 </r>
       <r>   -3.9382    1.0000 </r>
       <r>   -3.8965    1.0000 </r>
       <r>   -3.8837    1.0000 </r>
       <r>   -3.8350    1.0000 </r>
       <r>   -3.7903    1.0000 </r>
       <r>   -3.6677    1.0000 </r>
       <r>   -3.6588    1.0000 </r>
       <r>   -3.6439    1.0000 </r>
       <r>   -3.6375    1.0000 </r>
       <r>   -3.5792    1.0000 </r>
       <r>   -3.5760    1.0000 </r>
       <r>   -3.5355    1.0000 </r>
       <r>   -3.5069    1.0000 </r>
       <r>   -3.5011    1.0000 </r>
       <r>   -3.4722    1.0000 </r>
       <r>   -3.4288    1.0000 </r>
       <r>   -3.4197    1.0000 </r>
       <r>   -3.3555    1.0000 </r>
       <r>   -3.3378    1.0000 </r>
       <r>   -3.3197    1.0000 </r>
       <r>   -3.0862    1.0000 </r>
       <r>   -2.8671    1.0000 </r>
       <r>   -2.8166    1.0000 </r>
       <r>   -2.3797    1.0000 </r>
       <r>   -1.8149    0.8975 </r>
       <r>   -1.7727    0.6095 </r>
       <r>   -1.4541   -0.0001 </r>
       <r>   -0.5850   -0.0000 </r>
       <r>   -0.4609   -0.0000 </r>
       <r>    0.0680   -0.0000 </r>
       <r>    0.7488   -0.0000 </r>
       <r>    1.1593    0.0000 </r>
       <r>    1.8598    0.0000 </r>
       <r>    2.9119    0.0000 </r>
       <r>    3.0934    0.0000 </r>
       <r>    3.2914    0.0000 </r>
       <r>    3.6105    0.0000 </r>
       <r>    3.7288    0.0000 </r>
       <r>    3.9811    0.0000 </r>
       <r>    4.3238    0.0000 </r>
       <r>    4.4137    0.0000 </r>
       <r>    4.8148    0.0000 </r>
       <r>    5.1602    0.0000 </r>
       <r>    5.2433    0.0000 </r>
       <r>    5.6628    0.0000 </r>
       <r>    6.3932    0.0000 </r>
       <r>    6.4387    0.0000 </r>
       <r>    6.8573    0.0000 </r>
       <r>    7.0162    0.0000 </r>
       <r>    7.1720    0.0000 </r>
       <r>    7.3504    0.0000 </r>
       <r>    7.6193    0.0000 </r>
      </set>
      <set comment="kpoint 4">
       <r>  -20.0974    1.0000 </r>
       <r>   -9.5113    1.0000 </r>
       <r>   -7.8266    1.0000 </r>
       <r>   -7.4990    1.0000 </r>
       <r>   -6.9762    1.0000 </r>
       <r>   -6.9215    1.0000 </r>
       <r>   -6.6747    1.0000 </r>
       <r>   -6.3536    1.0000 </r>
       <r>   -6.2918    1.0000 </r>
       <r>   -6.2014    1.0000 </r>
       <r>   -6.0688    1.0000 </r>
       <r>   -5.9735    1.0000 </r>
       <r>   -5.9211    1.0000 </r>
       <r>   -5.7616    1.0000 </r>
       <r>   -5.7067    1.0000 </r>
       <r>   -5.6318    1.0000 </r>
       <r>   -5.5350    1.0000 </r>
       <r>   -5.4725    1.0000 </r>
       <r>   -5.3056    1.0000 </r>
       <r>   -5.2481    1.0000 </r>
       <r>   -5.2071    1.0000 </r>
       <r>   -5.1875    1.0000 </r>
       <r>   -5.0751    1.0000 </r>
       <r>   -5.0113    1.0000 </r>
       <r>   -4.9482    1.0000 </r>
       <r>   -4.9429    1.0000 </r>
       <r>   -4.8332    1.0000 </r>
       <r>   -4.8077    1.0000 </r>
       <r>   -4.7257    1.0000 </r>
       <r>   -4.6818    1.0000 </r>
       <r>   -4.6034    1.0000 </r>
       <r>   -4.5822    1.0000 </r>
       <r>   -4.5707    1.0000 </r>
       <r>   -4.5201    1.0000 </r>
       <r>   -4.5102    1.0000 </r>
       <r>   -4.4819    1.0000 </r>
       <r>   -4.4433    1.0000 </r>
       <r>   -4.3845    1.0000 </r>
       <r>   -4.2659    1.0000 </r>
       <r>   -4.2642    1.0000 </r>
       <r>   -4.2072    1.0000 </r>
       <r>   -4.1915    1.0000 </r>
       <r>   -4.1592    1.0000 </r>
       <r>   -4.1587    1.0000 </r>
       <r>   -4.1083    1.0000 </r>
       <r>   -4.0503    1.0000 </r>
       <r>   -4.0252    1.0000 </r>
       <r>   -4.0105    1.0000 </r>
       <r>   -3.8521    1.0000 </r>
       <r>   -3.8373    1.0000 </r>
       <r>   -3.8366    1.0000 </r>
       <r>   -3.7806    1.0000 </r>
       <r>   -3.7412    1.0000 </r>
       <r>   -3.7166    1.0000 </r>
       <r>   -3.6814    1.0000 </r>
       <r>   -3.6190    1.0000 </r>
       <r>   -3.5967    1.0000 </r>
       <r>   -3.5611    1.0000 </r>
       <r>   -3.5473    1.0000 </r>
       <r>   -3.5226    1.0000 </r>
       <r>   -3.4645    1.0000 </r>
       <r>   -3.4525    1.0000 </r>
       <r>   -3.3995    1.0000 </r>
       <r>   -3.3463    1.0000 </r>
       <r>   -3.2735    1.0000 </r>
       <r>   -2.9509    1.0000 </r>
       <r>   -2.7994    1.0000 </r>
       <r>   -2.2440    1.0000 </r>
       <r>   -1.8327    0.9703 </r>
       <r>   -1.7783    0.6554 </r>
       <r>   -1.4881   -0.0004 </r>
       <r>   -0.4040   -0.0000 </r>
       <r>   -0.3408   -0.0000 </r>
       <r>    0.2607   -0.0000 </r>
       <r>    0.7415   -0.0000 </r>
       <r>    2.0000    0.0000 </r>
       <r>    2.1758    0.0000 </r>
       <r>    3.3083    0.0000 </r>
       <r>    3.3580    0.0000 </r>
       <r>    3.5128    0.0000 </r>
       <r>    3.9553    0.0000 </r>
       <r>    4.2130    0.0000 </r>
       <r>    4.4229    0.0000 </r>
       <r>    4.9105    0.0000 </r>
       <r>    5.2434    0.0000 </r>
       <r>    5.3626    0.0000 </r>
       <r>    5.5412    0.0000 </r>
       <r>    5.6456    0.0000 </r>
       <r>    5.9768    0.0000 </r>
       <r>    6.2202    0.0000 </r>
       <r>    6.4889    0.0000 </r>
       <r>    6.6055    0.0000 </r>
       <r>    6.9208    0.0000 </r>
       <r>    7.3541    0.0000 </r>
       <r>    7.4800    0.0000 </r>
       <r>    7.5467    0.0000 </r>
      </set>
      <set comment="kpoint 5">
       <r>  -20.0944    1.0000 </r>
       <r>   -8.9331    1.0000 </r>
       <r>   -8.2566    1.0000 </r>
       <r>   -7.4277    1.0000 </r>
       <r>   -6.9582    1.0000 </r>
       <r>   -6.9309    1.0000 </r>
       <r>   -6.5675    1.0000 </r>
       <r>   -6.2766    1.0000 </r>
       <r>   -6.1942    1.0000 </r>
       <r>   -6.1313    1.0000 </r>
       <r>   -5.9427    1.0000 </r>
       <r>   -5.9302    1.0000 </r>
       <r>   -5.8415    1.0000 </r>
       <r>   -5.6844    1.0000 </r>
       <r>   -5.5995    1.0000 </r>
       <r>   -5.5741    1.0000 </r>
       <r>   -5.4617    1.0000 </r>
       <r>   -5.4427    1.0000 </r>
       <r>   -5.3762    1.0000 </r>
       <r>   -5.2778    1.0000 </r>
       <r>   -5.2177    1.0000 </r>
       <r>   -5.1551    1.0000 </r>
       <r>   -5.1238    1.0000 </r>
       <r>   -5.1203    1.0000 </r>
       <r>   -5.0815    1.0000 </r>
       <r>   -5.0689    1.0000 </r>
       <r>   -4.8702    1.0000 </r>
       <r>   -4.8248    1.0000 </r>
       <r>   -4.7948    1.0000 </r>
       <r>   -4.7573    1.0000 </r>
       <r>   -4.6360    1.0000 </r>
       <r>   -4.6034    1.0000 </r>
       <r>   -4.5527    1.0000 </r>
       <r>   -4.5328    1.0000 </r>
       <r>   -4.5328    1.0000 </r>
       <r>   -4.4732    1.0000 </r>
       <r>   -4.4627    1.0000 </r>
       <r>   -4.4499    1.0000 </r>
       <r>   -4.4383    1.0000 </r>
       <r>   -4.3878    1.0000 </r>
       <r>   -4.3424    1.0000 </r>
       <r>   -4.2908    1.0000 </r>
       <r>   -4.2356    1.0000 </r>
       <r>   -4.1491    1.0000 </r>
       <r>   -4.1248    1.0000 </r>
       <r>   -4.1125    1.0000 </r>
       <r>   -4.0889    1.0000 </r>
       <r>   -4.0069    1.0000 </r>
       <r>   -3.9668    1.0000 </r>
       <r>   -3.9431    1.0000 </r>
       <r>   -3.9156    1.0000 </r>
       <r>   -3.9127    1.0000 </r>
       <r>   -3.8116    1.0000 </r>
       <r>   -3.7828    1.0000 </r>
       <r>   -3.7651    1.0000 </r>
       <r>   -3.7082    1.0000 </r>
       <r>   -3.6958    1.0000 </r>
       <r>   -3.6548    1.0000 </r>
       <r>   -3.5613    1.0000 </r>
       <r>   -3.4905    1.0000 </r>
       <r>   -3.4744    1.0000 </r>
       <r>   -3.4459    1.0000 </r>
       <r>   -3.4061    1.0000 </r>
       <r>   -3.3479    1.0000 </r>
       <r>   -3.3435    1.0000 </r>
       <r>   -3.0004    1.0000 </r>
       <r>   -2.7908    1.0000 </r>
       <r>   -2.2815    1.0000 </r>
       <r>   -1.7646    0.5420 </r>
       <r>   -1.7261    0.2334 </r>
       <r>   -1.2122   -0.0000 </r>
       <r>   -0.6941   -0.0000 </r>
       <r>   -0.2786   -0.0000 </r>
       <r>    0.3455   -0.0000 </r>
       <r>    1.1832    0.0000 </r>
       <r>    1.8668    0.0000 </r>
       <r>    2.4358    0.0000 </r>
       <r>    3.2365    0.0000 </r>
       <r>    3.9719    0.0000 </r>
       <r>    4.3668    0.0000 </r>
       <r>    4.6150    0.0000 </r>
       <r>    4.6835    0.0000 </r>
       <r>    4.8306    0.0000 </r>
       <r>    5.0506    0.0000 </r>
       <r>    5.4403    0.0000 </r>
       <r>    5.5330    0.0000 </r>
       <r>    5.6865    0.0000 </r>
       <r>    5.8878    0.0000 </r>
       <r>    6.0126    0.0000 </r>
       <r>    6.0301    0.0000 </r>
       <r>    6.2105    0.0000 </r>
       <r>    6.3870    0.0000 </r>
       <r>    6.7022    0.0000 </r>
       <r>    6.9000    0.0000 </r>
       <r>    6.9597    0.0000 </r>
       <r>    7.0259    0.0000 </r>
      </set>
      <set comment="kpoint 6">
       <r>  -20.1032    1.0000 </r>
       <r>  -10.0452    1.0000 </r>
       <r>   -8.1025    1.0000 </r>
       <r>   -7.1645    1.0000 </r>
       <r>   -7.0790    1.0000 </r>
       <r>   -6.8975    1.0000 </r>
       <r>   -6.6531    1.0000 </r>
       <r>   -6.5713    1.0000 </r>
       <r>   -6.4618    1.0000 </r>
       <r>   -6.3318    1.0000 </r>
       <r>   -6.1177    1.0000 </r>
       <r>   -6.0885    1.0000 </r>
       <r>   -6.0412    1.0000 </r>
       <r>   -5.8623    1.0000 </r>
       <r>   -5.8448    1.0000 </r>
       <r>   -5.7703    1.0000 </r>
       <r>   -5.6694    1.0000 </r>
       <r>   -5.6188    1.0000 </r>
       <r>   -5.2747    1.0000 </r>
       <r>   -5.2161    1.0000 </r>
       <r>   -5.1975    1.0000 </r>
       <r>   -5.0888    1.0000 </r>
       <r>   -4.9099    1.0000 </r>
       <r>   -4.8384    1.0000 </r>
       <r>   -4.8285    1.0000 </r>
       <r>   -4.8024    1.0000 </r>
       <r>   -4.7898    1.0000 </r>
       <r>   -4.7057    1.0000 </r>
       <r>   -4.6735    1.0000 </r>
       <r>   -4.6519    1.0000 </r>
       <r>   -4.6197    1.0000 </r>
       <r>   -4.6100    1.0000 </r>
       <r>   -4.5288    1.0000 </r>
       <r>   -4.4976    1.0000 </r>
       <r>   -4.4569    1.0000 </r>
       <r>   -4.4426    1.0000 </r>
       <r>   -4.4020    1.0000 </r>
       <r>   -4.3533    1.0000 </r>
       <r>   -4.3173    1.0000 </r>
       <r>   -4.1109    1.0000 </r>
       <r>   -4.0833    1.0000 </r>
       <r>   -4.0282    1.0000 </r>
       <r>   -4.0032    1.0000 </r>
       <r>   -3.9784    1.0000 </r>
       <r>   -3.8871    1.0000 </r>
       <r>   -3.8622    1.0000 </r>
       <r>   -3.8329    1.0000 </r>
       <r>   -3.7842    1.0000 </r>
       <r>   -3.7469    1.0000 </r>
       <r>   -3.6525    1.0000 </r>
       <r>   -3.6329    1.0000 </r>
       <r>   -3.6134    1.0000 </r>
       <r>   -3.5966    1.0000 </r>
       <r>   -3.5620    1.0000 </r>
       <r>   -3.5304    1.0000 </r>
       <r>   -3.5149    1.0000 </r>
       <r>   -3.4972    1.0000 </r>
       <r>   -3.4779    1.0000 </r>
       <r>   -3.4428    1.0000 </r>
       <r>   -3.4327    1.0000 </r>
       <r>   -3.3605    1.0000 </r>
       <r>   -3.3500    1.0000 </r>
       <r>   -3.3269    1.0000 </r>
       <r>   -3.1595    1.0000 </r>
       <r>   -3.0962    1.0000 </r>
       <r>   -2.8848    1.0000 </r>
       <r>   -2.6112    1.0000 </r>
       <r>   -2.4771    1.0000 </r>
       <r>   -2.2985    1.0000 </r>
       <r>   -1.4027   -0.0000 </r>
       <r>   -1.1308   -0.0000 </r>
       <r>   -0.7910   -0.0000 </r>
       <r>   -0.5425   -0.0000 </r>
       <r>    0.0201   -0.0000 </r>
       <r>    0.6704   -0.0000 </r>
       <r>    0.8889   -0.0000 </r>
       <r>    1.8329    0.0000 </r>
       <r>    2.8221    0.0000 </r>
       <r>    2.9282    0.0000 </r>
       <r>    3.1364    0.0000 </r>
       <r>    3.4219    0.0000 </r>
       <r>    3.6660    0.0000 </r>
       <r>    3.8937    0.0000 </r>
       <r>    4.3412    0.0000 </r>
       <r>    4.4409    0.0000 </r>
       <r>    4.7630    0.0000 </r>
       <r>    4.9214    0.0000 </r>
       <r>    5.1201    0.0000 </r>
       <r>    5.6305    0.0000 </r>
       <r>    6.1309    0.0000 </r>
       <r>    6.2865    0.0000 </r>
       <r>    6.8455    0.0000 </r>
       <r>    6.9879    0.0000 </r>
       <r>    7.3715    0.0000 </r>
       <r>    7.6222    0.0000 </r>
       <r>    7.6495    0.0000 </r>
      </set>
      <set comment="kpoint 7">
       <r>  -20.0988    1.0000 </r>
       <r>   -9.6857    1.0000 </r>
       <r>   -7.8709    1.0000 </r>
       <r>   -7.3041    1.0000 </r>
       <r>   -7.0749    1.0000 </r>
       <r>   -6.8493    1.0000 </r>
       <r>   -6.7097    1.0000 </r>
       <r>   -6.5675    1.0000 </r>
       <r>   -6.3260    1.0000 </r>
       <r>   -6.1719    1.0000 </r>
       <r>   -6.0734    1.0000 </r>
       <r>   -6.0237    1.0000 </r>
       <r>   -5.9383    1.0000 </r>
       <r>   -5.7848    1.0000 </r>
       <r>   -5.7520    1.0000 </r>
       <r>   -5.6670    1.0000 </r>
       <r>   -5.5880    1.0000 </r>
       <r>   -5.5032    1.0000 </r>
       <r>   -5.2872    1.0000 </r>
       <r>   -5.2464    1.0000 </r>
       <r>   -5.2160    1.0000 </r>
       <r>   -5.1533    1.0000 </r>
       <r>   -5.0267    1.0000 </r>
       <r>   -4.9451    1.0000 </r>
       <r>   -4.9084    1.0000 </r>
       <r>   -4.8534    1.0000 </r>
       <r>   -4.8268    1.0000 </r>
       <r>   -4.7899    1.0000 </r>
       <r>   -4.7161    1.0000 </r>
       <r>   -4.6864    1.0000 </r>
       <r>   -4.6284    1.0000 </r>
       <r>   -4.5845    1.0000 </r>
       <r>   -4.5680    1.0000 </r>
       <r>   -4.5399    1.0000 </r>
       <r>   -4.4973    1.0000 </r>
       <r>   -4.4784    1.0000 </r>
       <r>   -4.4443    1.0000 </r>
       <r>   -4.3471    1.0000 </r>
       <r>   -4.2879    1.0000 </r>
       <r>   -4.2083    1.0000 </r>
       <r>   -4.1593    1.0000 </r>
       <r>   -4.1331    1.0000 </r>
       <r>   -4.0981    1.0000 </r>
       <r>   -4.0754    1.0000 </r>
       <r>   -4.0553    1.0000 </r>
       <r>   -4.0299    1.0000 </r>
       <r>   -4.0164    1.0000 </r>
       <r>   -3.9354    1.0000 </r>
       <r>   -3.8405    1.0000 </r>
       <r>   -3.8146    1.0000 </r>
       <r>   -3.7609    1.0000 </r>
       <r>   -3.7342    1.0000 </r>
       <r>   -3.7043    1.0000 </r>
       <r>   -3.6954    1.0000 </r>
       <r>   -3.6157    1.0000 </r>
       <r>   -3.5920    1.0000 </r>
       <r>   -3.5454    1.0000 </r>
       <r>   -3.5141    1.0000 </r>
       <r>   -3.4993    1.0000 </r>
       <r>   -3.4741    1.0000 </r>
       <r>   -3.4501    1.0000 </r>
       <r>   -3.4170    1.0000 </r>
       <r>   -3.3800    1.0000 </r>
       <r>   -3.3223    1.0000 </r>
       <r>   -3.1460    1.0000 </r>
       <r>   -2.9481    1.0000 </r>
       <r>   -2.8843    1.0000 </r>
       <r>   -2.5199    1.0000 </r>
       <r>   -2.0938    1.0000 </r>
       <r>   -1.7241    0.2194 </r>
       <r>   -1.0582   -0.0000 </r>
       <r>   -0.6793   -0.0000 </r>
       <r>   -0.0422   -0.0000 </r>
       <r>    0.3808   -0.0000 </r>
       <r>    0.7010   -0.0000 </r>
       <r>    1.2933    0.0000 </r>
       <r>    2.0271    0.0000 </r>
       <r>    3.1786    0.0000 </r>
       <r>    3.3259    0.0000 </r>
       <r>    3.6462    0.0000 </r>
       <r>    3.8815    0.0000 </r>
       <r>    4.0166    0.0000 </r>
       <r>    4.2465    0.0000 </r>
       <r>    4.6596    0.0000 </r>
       <r>    4.7588    0.0000 </r>
       <r>    5.1230    0.0000 </r>
       <r>    5.4146    0.0000 </r>
       <r>    5.5571    0.0000 </r>
       <r>    5.9009    0.0000 </r>
       <r>    6.4282    0.0000 </r>
       <r>    6.4944    0.0000 </r>
       <r>    6.9348    0.0000 </r>
       <r>    7.1597    0.0000 </r>
       <r>    7.2141    0.0000 </r>
       <r>    7.3071    0.0000 </r>
       <r>    7.4500    0.0000 </r>
      </set>
      <set comment="kpoint 8">
       <r>  -20.0950    1.0000 </r>
       <r>   -9.1713    1.0000 </r>
       <r>   -7.9096    1.0000 </r>
       <r>   -7.4748    1.0000 </r>
       <r>   -7.0478    1.0000 </r>
       <r>   -6.9212    1.0000 </r>
       <r>   -6.6338    1.0000 </r>
       <r>   -6.4584    1.0000 </r>
       <r>   -6.2243    1.0000 </r>
       <r>   -6.0345    1.0000 </r>
       <r>   -5.9773    1.0000 </r>
       <r>   -5.9334    1.0000 </r>
       <r>   -5.8378    1.0000 </r>
       <r>   -5.6994    1.0000 </r>
       <r>   -5.6384    1.0000 </r>
       <r>   -5.5740    1.0000 </r>
       <r>   -5.4789    1.0000 </r>
       <r>   -5.4335    1.0000 </r>
       <r>   -5.3493    1.0000 </r>
       <r>   -5.2397    1.0000 </r>
       <r>   -5.2255    1.0000 </r>
       <r>   -5.2005    1.0000 </r>
       <r>   -5.1457    1.0000 </r>
       <r>   -5.1034    1.0000 </r>
       <r>   -5.0470    1.0000 </r>
       <r>   -4.9859    1.0000 </r>
       <r>   -4.8911    1.0000 </r>
       <r>   -4.8438    1.0000 </r>
       <r>   -4.7573    1.0000 </r>
       <r>   -4.7359    1.0000 </r>
       <r>   -4.6447    1.0000 </r>
       <r>   -4.6207    1.0000 </r>
       <r>   -4.5772    1.0000 </r>
       <r>   -4.5511    1.0000 </r>
       <r>   -4.5271    1.0000 </r>
       <r>   -4.5063    1.0000 </r>
       <r>   -4.4372    1.0000 </r>
       <r>   -4.4061    1.0000 </r>
       <r>   -4.3733    1.0000 </r>
       <r>   -4.3411    1.0000 </r>
       <r>   -4.3116    1.0000 </r>
       <r>   -4.2821    1.0000 </r>
       <r>   -4.2087    1.0000 </r>
       <r>   -4.1647    1.0000 </r>
       <r>   -4.1033    1.0000 </r>
       <r>   -4.0827    1.0000 </r>
       <r>   -4.0598    1.0000 </r>
       <r>   -4.0017    1.0000 </r>
       <r>   -3.9481    1.0000 </r>
       <r>   -3.9203    1.0000 </r>
       <r>   -3.8779    1.0000 </r>
       <r>   -3.8594    1.0000 </r>
       <r>   -3.8008    1.0000 </r>
       <r>   -3.7570    1.0000 </r>
       <r>   -3.6977    1.0000 </r>
       <r>   -3.6614    1.0000 </r>
       <r>   -3.6232    1.0000 </r>
       <r>   -3.5874    1.0000 </r>
       <r>   -3.5297    1.0000 </r>
       <r>   -3.5190    1.0000 </r>
       <r>   -3.4751    1.0000 </r>
       <r>   -3.4525    1.0000 </r>
       <r>   -3.4221    1.0000 </r>
       <r>   -3.3795    1.0000 </r>
       <r>   -3.2922    1.0000 </r>
       <r>   -2.9873    1.0000 </r>
       <r>   -2.9095    1.0000 </r>
       <r>   -2.5149    1.0000 </r>
       <r>   -2.1086    1.0000 </r>
       <r>   -1.5215   -0.0019 </r>
       <r>   -1.0141   -0.0000 </r>
       <r>   -0.6872   -0.0000 </r>
       <r>   -0.0615   -0.0000 </r>
       <r>    0.6231   -0.0000 </r>
       <r>    1.0968    0.0000 </r>
       <r>    1.6618    0.0000 </r>
       <r>    2.3256    0.0000 </r>
       <r>    3.0456    0.0000 </r>
       <r>    3.7051    0.0000 </r>
       <r>    3.9790    0.0000 </r>
       <r>    4.3994    0.0000 </r>
       <r>    4.4939    0.0000 </r>
       <r>    4.7755    0.0000 </r>
       <r>    5.1183    0.0000 </r>
       <r>    5.2513    0.0000 </r>
       <r>    5.3760    0.0000 </r>
       <r>    5.7150    0.0000 </r>
       <r>    5.8588    0.0000 </r>
       <r>    5.9916    0.0000 </r>
       <r>    6.1007    0.0000 </r>
       <r>    6.4033    0.0000 </r>
       <r>    6.6922    0.0000 </r>
       <r>    6.9282    0.0000 </r>
       <r>    6.9747    0.0000 </r>
       <r>    7.3583    0.0000 </r>
       <r>    7.4568    0.0000 </r>
      </set>
      <set comment="kpoint 9">
       <r>  -20.0936    1.0000 </r>
       <r>   -8.6162    1.0000 </r>
       <r>   -8.4576    1.0000 </r>
       <r>   -7.3627    1.0000 </r>
       <r>   -7.0443    1.0000 </r>
       <r>   -6.9233    1.0000 </r>
       <r>   -6.6182    1.0000 </r>
       <r>   -6.3703    1.0000 </r>
       <r>   -6.2447    1.0000 </r>
       <r>   -5.9729    1.0000 </r>
       <r>   -5.9087    1.0000 </r>
       <r>   -5.8409    1.0000 </r>
       <r>   -5.7970    1.0000 </r>
       <r>   -5.6511    1.0000 </r>
       <r>   -5.5714    1.0000 </r>
       <r>   -5.5538    1.0000 </r>
       <r>   -5.4584    1.0000 </r>
       <r>   -5.4519    1.0000 </r>
       <r>   -5.3545    1.0000 </r>
       <r>   -5.3035    1.0000 </r>
       <r>   -5.2588    1.0000 </r>
       <r>   -5.2066    1.0000 </r>
       <r>   -5.1710    1.0000 </r>
       <r>   -5.0991    1.0000 </r>
       <r>   -5.0472    1.0000 </r>
       <r>   -5.0345    1.0000 </r>
       <r>   -4.9183    1.0000 </r>
       <r>   -4.8549    1.0000 </r>
       <r>   -4.8233    1.0000 </r>
       <r>   -4.7850    1.0000 </r>
       <r>   -4.7004    1.0000 </r>
       <r>   -4.6982    1.0000 </r>
       <r>   -4.6452    1.0000 </r>
       <r>   -4.5758    1.0000 </r>
       <r>   -4.5264    1.0000 </r>
       <r>   -4.4943    1.0000 </r>
       <r>   -4.4796    1.0000 </r>
       <r>   -4.4691    1.0000 </r>
       <r>   -4.4449    1.0000 </r>
       <r>   -4.3968    1.0000 </r>
       <r>   -4.3445    1.0000 </r>
       <r>   -4.2292    1.0000 </r>
       <r>   -4.2078    1.0000 </r>
       <r>   -4.1862    1.0000 </r>
       <r>   -4.1126    1.0000 </r>
       <r>   -4.0944    1.0000 </r>
       <r>   -4.0668    1.0000 </r>
       <r>   -4.0161    1.0000 </r>
       <r>   -3.9947    1.0000 </r>
       <r>   -3.9419    1.0000 </r>
       <r>   -3.9353    1.0000 </r>
       <r>   -3.8584    1.0000 </r>
       <r>   -3.8203    1.0000 </r>
       <r>   -3.7676    1.0000 </r>
       <r>   -3.7381    1.0000 </r>
       <r>   -3.7249    1.0000 </r>
       <r>   -3.6838    1.0000 </r>
       <r>   -3.6664    1.0000 </r>
       <r>   -3.5809    1.0000 </r>
       <r>   -3.5107    1.0000 </r>
       <r>   -3.4756    1.0000 </r>
       <r>   -3.4456    1.0000 </r>
       <r>   -3.3993    1.0000 </r>
       <r>   -3.3764    1.0000 </r>
       <r>   -3.3543    1.0000 </r>
       <r>   -3.0033    1.0000 </r>
       <r>   -2.9158    1.0000 </r>
       <r>   -2.5154    1.0000 </r>
       <r>   -2.1368    1.0000 </r>
       <r>   -1.3484   -0.0000 </r>
       <r>   -0.8911   -0.0000 </r>
       <r>   -0.7630   -0.0000 </r>
       <r>   -0.3165   -0.0000 </r>
       <r>    0.9567   -0.0000 </r>
       <r>    1.2532    0.0000 </r>
       <r>    1.6578    0.0000 </r>
       <r>    2.3571    0.0000 </r>
       <r>    3.4947    0.0000 </r>
       <r>    3.9132    0.0000 </r>
       <r>    4.3021    0.0000 </r>
       <r>    4.4088    0.0000 </r>
       <r>    4.4770    0.0000 </r>
       <r>    4.9003    0.0000 </r>
       <r>    5.0714    0.0000 </r>
       <r>    5.2944    0.0000 </r>
       <r>    5.4993    0.0000 </r>
       <r>    5.5256    0.0000 </r>
       <r>    5.9671    0.0000 </r>
       <r>    6.3059    0.0000 </r>
       <r>    6.3725    0.0000 </r>
       <r>    6.4552    0.0000 </r>
       <r>    6.5243    0.0000 </r>
       <r>    6.5929    0.0000 </r>
       <r>    6.6883    0.0000 </r>
       <r>    6.8647    0.0000 </r>
       <r>    7.0617    0.0000 </r>
      </set>
      <set comment="kpoint 10">
       <r>  -20.0955    1.0000 </r>
       <r>   -9.2529    1.0000 </r>
       <r>   -7.6956    1.0000 </r>
       <r>   -7.3882    1.0000 </r>
       <r>   -7.2859    1.0000 </r>
       <r>   -6.8686    1.0000 </r>
       <r>   -6.7311    1.0000 </r>
       <r>   -6.5402    1.0000 </r>
       <r>   -6.1909    1.0000 </r>
       <r>   -6.0623    1.0000 </r>
       <r>   -5.9580    1.0000 </r>
       <r>   -5.9296    1.0000 </r>
       <r>   -5.8217    1.0000 </r>
       <r>   -5.6920    1.0000 </r>
       <r>   -5.6625    1.0000 </r>
       <r>   -5.5776    1.0000 </r>
       <r>   -5.4901    1.0000 </r>
       <r>   -5.4341    1.0000 </r>
       <r>   -5.3186    1.0000 </r>
       <r>   -5.2580    1.0000 </r>
       <r>   -5.2477    1.0000 </r>
       <r>   -5.2048    1.0000 </r>
       <r>   -5.1377    1.0000 </r>
       <r>   -5.0772    1.0000 </r>
       <r>   -5.0222    1.0000 </r>
       <r>   -4.9356    1.0000 </r>
       <r>   -4.9126    1.0000 </r>
       <r>   -4.8680    1.0000 </r>
       <r>   -4.7665    1.0000 </r>
       <r>   -4.6997    1.0000 </r>
       <r>   -4.6720    1.0000 </r>
       <r>   -4.6548    1.0000 </r>
       <r>   -4.6005    1.0000 </r>
       <r>   -4.5536    1.0000 </r>
       <r>   -4.5402    1.0000 </r>
       <r>   -4.4867    1.0000 </r>
       <r>   -4.4500    1.0000 </r>
       <r>   -4.3899    1.0000 </r>
       <r>   -4.3864    1.0000 </r>
       <r>   -4.2974    1.0000 </r>
       <r>   -4.2807    1.0000 </r>
       <r>   -4.2577    1.0000 </r>
       <r>   -4.2070    1.0000 </r>
       <r>   -4.1575    1.0000 </r>
       <r>   -4.0964    1.0000 </r>
       <r>   -4.0602    1.0000 </r>
       <r>   -4.0389    1.0000 </r>
       <r>   -4.0150    1.0000 </r>
       <r>   -3.9611    1.0000 </r>
       <r>   -3.8829    1.0000 </r>
       <r>   -3.8581    1.0000 </r>
       <r>   -3.8068    1.0000 </r>
       <r>   -3.7870    1.0000 </r>
       <r>   -3.7679    1.0000 </r>
       <r>   -3.6825    1.0000 </r>
       <r>   -3.6240    1.0000 </r>
       <r>   -3.5747    1.0000 </r>
       <r>   -3.5301    1.0000 </r>
       <r>   -3.5185    1.0000 </r>
       <r>   -3.4806    1.0000 </r>
       <r>   -3.4659    1.0000 </r>
       <r>   -3.4476    1.0000 </r>
       <r>   -3.4451    1.0000 </r>
       <r>   -3.3194    1.0000 </r>
       <r>   -3.2459    1.0000 </r>
       <r>   -3.0636    1.0000 </r>
       <r>   -3.0217    1.0000 </r>
       <r>   -2.7737    1.0000 </r>
       <r>   -2.0887    1.0000 </r>
       <r>   -1.6460   -0.0341 </r>
       <r>   -1.1973   -0.0000 </r>
       <r>    0.1446   -0.0000 </r>
       <r>    0.2118   -0.0000 </r>
       <r>    0.5678   -0.0000 </r>
       <r>    0.8478   -0.0000 </r>
       <r>    1.3641    0.0000 </r>
       <r>    2.1877    0.0000 </r>
       <r>    3.3254    0.0000 </r>
       <r>    3.4619    0.0000 </r>
       <r>    3.6188    0.0000 </r>
       <r>    4.1795    0.0000 </r>
       <r>    4.4056    0.0000 </r>
       <r>    4.6895    0.0000 </r>
       <r>    5.1096    0.0000 </r>
       <r>    5.5492    0.0000 </r>
       <r>    5.6474    0.0000 </r>
       <r>    5.6564    0.0000 </r>
       <r>    5.8523    0.0000 </r>
       <r>    6.0497    0.0000 </r>
       <r>    6.2084    0.0000 </r>
       <r>    6.3273    0.0000 </r>
       <r>    6.5412    0.0000 </r>
       <r>    6.7518    0.0000 </r>
       <r>    6.9708    0.0000 </r>
       <r>    7.1565    0.0000 </r>
       <r>    7.1945    0.0000 </r>
      </set>
      <set comment="kpoint 11">
       <r>  -20.0932    1.0000 </r>
       <r>   -8.6895    1.0000 </r>
       <r>   -8.0389    1.0000 </r>
       <r>   -7.5144    1.0000 </r>
       <r>   -7.2068    1.0000 </r>
       <r>   -6.9177    1.0000 </r>
       <r>   -6.7392    1.0000 </r>
       <r>   -6.4104    1.0000 </r>
       <r>   -6.1687    1.0000 </r>
       <r>   -6.0229    1.0000 </r>
       <r>   -5.7924    1.0000 </r>
       <r>   -5.7762    1.0000 </r>
       <r>   -5.7242    1.0000 </r>
       <r>   -5.6097    1.0000 </r>
       <r>   -5.5606    1.0000 </r>
       <r>   -5.5327    1.0000 </r>
       <r>   -5.4991    1.0000 </r>
       <r>   -5.4019    1.0000 </r>
       <r>   -5.3459    1.0000 </r>
       <r>   -5.3092    1.0000 </r>
       <r>   -5.2817    1.0000 </r>
       <r>   -5.2611    1.0000 </r>
       <r>   -5.1958    1.0000 </r>
       <r>   -5.1308    1.0000 </r>
       <r>   -5.0405    1.0000 </r>
       <r>   -4.9841    1.0000 </r>
       <r>   -4.9638    1.0000 </r>
       <r>   -4.9062    1.0000 </r>
       <r>   -4.8506    1.0000 </r>
       <r>   -4.8140    1.0000 </r>
       <r>   -4.7667    1.0000 </r>
       <r>   -4.7439    1.0000 </r>
       <r>   -4.7168    1.0000 </r>
       <r>   -4.6784    1.0000 </r>
       <r>   -4.5532    1.0000 </r>
       <r>   -4.5213    1.0000 </r>
       <r>   -4.4716    1.0000 </r>
       <r>   -4.4471    1.0000 </r>
       <r>   -4.4243    1.0000 </r>
       <r>   -4.3853    1.0000 </r>
       <r>   -4.3186    1.0000 </r>
       <r>   -4.2561    1.0000 </r>
       <r>   -4.2093    1.0000 </r>
       <r>   -4.1502    1.0000 </r>
       <r>   -4.1062    1.0000 </r>
       <r>   -4.0514    1.0000 </r>
       <r>   -4.0439    1.0000 </r>
       <r>   -4.0043    1.0000 </r>
       <r>   -3.9388    1.0000 </r>
       <r>   -3.9202    1.0000 </r>
       <r>   -3.9021    1.0000 </r>
       <r>   -3.8528    1.0000 </r>
       <r>   -3.8052    1.0000 </r>
       <r>   -3.7335    1.0000 </r>
       <r>   -3.7052    1.0000 </r>
       <r>   -3.6920    1.0000 </r>
       <r>   -3.6442    1.0000 </r>
       <r>   -3.5886    1.0000 </r>
       <r>   -3.5423    1.0000 </r>
       <r>   -3.5131    1.0000 </r>
       <r>   -3.5002    1.0000 </r>
       <r>   -3.4797    1.0000 </r>
       <r>   -3.4571    1.0000 </r>
       <r>   -3.4037    1.0000 </r>
       <r>   -3.2839    1.0000 </r>
       <r>   -3.2056    1.0000 </r>
       <r>   -3.0334    1.0000 </r>
       <r>   -2.8258    1.0000 </r>
       <r>   -2.1849    1.0000 </r>
       <r>   -1.6332   -0.0352 </r>
       <r>   -0.8462   -0.0000 </r>
       <r>   -0.3115   -0.0000 </r>
       <r>    0.4833   -0.0000 </r>
       <r>    0.7966   -0.0000 </r>
       <r>    1.4131    0.0000 </r>
       <r>    2.0448    0.0000 </r>
       <r>    2.2544    0.0000 </r>
       <r>    2.9731    0.0000 </r>
       <r>    3.4569    0.0000 </r>
       <r>    3.8384    0.0000 </r>
       <r>    4.2312    0.0000 </r>
       <r>    4.5023    0.0000 </r>
       <r>    4.9152    0.0000 </r>
       <r>    5.0881    0.0000 </r>
       <r>    5.3135    0.0000 </r>
       <r>    5.6406    0.0000 </r>
       <r>    5.8430    0.0000 </r>
       <r>    5.8857    0.0000 </r>
       <r>    6.1113    0.0000 </r>
       <r>    6.2251    0.0000 </r>
       <r>    6.3770    0.0000 </r>
       <r>    6.5130    0.0000 </r>
       <r>    6.6604    0.0000 </r>
       <r>    6.9318    0.0000 </r>
       <r>    7.1482    0.0000 </r>
       <r>    7.2571    0.0000 </r>
      </set>
      <set comment="kpoint 12">
       <r>  -20.0923    1.0000 </r>
       <r>   -8.2109    1.0000 </r>
       <r>   -8.0875    1.0000 </r>
       <r>   -7.9699    1.0000 </r>
       <r>   -7.0803    1.0000 </r>
       <r>   -7.0100    1.0000 </r>
       <r>   -6.7444    1.0000 </r>
       <r>   -6.3584    1.0000 </r>
       <r>   -6.1456    1.0000 </r>
       <r>   -6.0382    1.0000 </r>
       <r>   -5.6912    1.0000 </r>
       <r>   -5.6470    1.0000 </r>
       <r>   -5.6131    1.0000 </r>
       <r>   -5.5992    1.0000 </r>
       <r>   -5.5655    1.0000 </r>
       <r>   -5.5632    1.0000 </r>
       <r>   -5.4420    1.0000 </r>
       <r>   -5.4289    1.0000 </r>
       <r>   -5.3975    1.0000 </r>
       <r>   -5.3621    1.0000 </r>
       <r>   -5.3443    1.0000 </r>
       <r>   -5.2091    1.0000 </r>
       <r>   -5.1762    1.0000 </r>
       <r>   -5.1269    1.0000 </r>
       <r>   -5.1157    1.0000 </r>
       <r>   -5.0198    1.0000 </r>
       <r>   -4.9190    1.0000 </r>
       <r>   -4.9182    1.0000 </r>
       <r>   -4.8933    1.0000 </r>
       <r>   -4.8822    1.0000 </r>
       <r>   -4.8617    1.0000 </r>
       <r>   -4.8103    1.0000 </r>
       <r>   -4.8025    1.0000 </r>
       <r>   -4.7431    1.0000 </r>
       <r>   -4.5467    1.0000 </r>
       <r>   -4.5160    1.0000 </r>
       <r>   -4.4823    1.0000 </r>
       <r>   -4.4400    1.0000 </r>
       <r>   -4.4134    1.0000 </r>
       <r>   -4.4047    1.0000 </r>
       <r>   -4.3605    1.0000 </r>
       <r>   -4.2713    1.0000 </r>
       <r>   -4.1969    1.0000 </r>
       <r>   -4.1416    1.0000 </r>
       <r>   -4.0728    1.0000 </r>
       <r>   -4.0573    1.0000 </r>
       <r>   -4.0000    1.0000 </r>
       <r>   -3.9697    1.0000 </r>
       <r>   -3.9344    1.0000 </r>
       <r>   -3.9294    1.0000 </r>
       <r>   -3.8835    1.0000 </r>
       <r>   -3.8239    1.0000 </r>
       <r>   -3.7832    1.0000 </r>
       <r>   -3.7565    1.0000 </r>
       <r>   -3.7224    1.0000 </r>
       <r>   -3.6581    1.0000 </r>
       <r>   -3.6023    1.0000 </r>
       <r>   -3.5563    1.0000 </r>
       <r>   -3.5406    1.0000 </r>
       <r>   -3.5285    1.0000 </r>
       <r>   -3.5197    1.0000 </r>
       <r>   -3.5048    1.0000 </r>
       <r>   -3.4759    1.0000 </r>
       <r>   -3.4742    1.0000 </r>
       <r>   -3.3325    1.0000 </r>
       <r>   -3.2610    1.0000 </r>
       <r>   -3.1762    1.0000 </r>
       <r>   -2.8733    1.0000 </r>
       <r>   -2.2418    1.0000 </r>
       <r>   -1.7177    0.1774 </r>
       <r>   -0.4932   -0.0000 </r>
       <r>   -0.4482   -0.0000 </r>
       <r>    0.3370   -0.0000 </r>
       <r>    1.8148    0.0000 </r>
       <r>    1.9437    0.0000 </r>
       <r>    1.9609    0.0000 </r>
       <r>    2.1465    0.0000 </r>
       <r>    2.4478    0.0000 </r>
       <r>    3.1204    0.0000 </r>
       <r>    3.5292    0.0000 </r>
       <r>    4.3525    0.0000 </r>
       <r>    4.8808    0.0000 </r>
       <r>    4.9201    0.0000 </r>
       <r>    4.9580    0.0000 </r>
       <r>    5.3064    0.0000 </r>
       <r>    5.6093    0.0000 </r>
       <r>    5.6277    0.0000 </r>
       <r>    5.9356    0.0000 </r>
       <r>    6.0395    0.0000 </r>
       <r>    6.0559    0.0000 </r>
       <r>    6.0943    0.0000 </r>
       <r>    6.6044    0.0000 </r>
       <r>    7.0018    0.0000 </r>
       <r>    7.0207    0.0000 </r>
       <r>    7.0856    0.0000 </r>
       <r>    7.0999    0.0000 </r>
      </set>
     </set>
    </set>
   </array>
  </eigenvalues>
  <separator name="orbital magnetization" >
   <v name="MAGDIPOLOUT">      0.00000000      0.00000000      0.00000000</v>
  </separator>
  <dos>
   <i name="efermi">     -1.75962466 </i>
   <total>
    <array>
     <dimension dim="1">gridpoints</dimension>
     <dimension dim="2">spin</dimension>
     <field>energy</field>
     <field>total</field>
     <field>integrated</field>
     <set>
      <set comment="spin 1">
       <r>   -21.5022     0.0000     0.0000 </r>
       <r>   -21.3999     0.0000     0.0000 </r>
       <r>   -21.2977     0.0000     0.0000 </r>
       <r>   -21.1954     0.0000     0.0000 </r>
       <r>   -21.0931     0.0000     0.0000 </r>
       <r>   -20.9909    -0.0000    -0.0000 </r>
       <r>   -20.8886    -0.0000    -0.0000 </r>
       <r>   -20.7863    -0.0000    -0.0000 </r>
       <r>   -20.6841    -0.0000    -0.0000 </r>
       <r>   -20.5818    -0.0000    -0.0000 </r>
       <r>   -20.4795    -0.0000    -0.0000 </r>
       <r>   -20.3773    -0.0055    -0.0006 </r>
       <r>   -20.2750    -0.2961    -0.0308 </r>
       <r>   -20.1727     0.7652     0.0474 </r>
       <r>   -20.0705    13.5872     1.4369 </r>
       <r>   -19.9682     6.1830     2.0693 </r>
       <r>   -19.8659    -0.6270     2.0051 </r>
       <r>   -19.7637    -0.0501     2.0000 </r>
       <r>   -19.6614    -0.0003     2.0000 </r>
       <r>   -19.5591    -0.0000     2.0000 </r>
       <r>   -19.4569    -0.0000     2.0000 </r>
       <r>   -19.3546     0.0000     2.0000 </r>
       <r>   -19.2523     0.0000     2.0000 </r>
       <r>   -19.1500     0.0000     2.0000 </r>
       <r>   -19.0478     0.0000     2.0000 </r>
       <r>   -18.9455     0.0000     2.0000 </r>
       <r>   -18.8432     0.0000     2.0000 </r>
       <r>   -18.7410     0.0000     2.0000 </r>
       <r>   -18.6387     0.0000     2.0000 </r>
       <r>   -18.5364     0.0000     2.0000 </r>
       <r>   -18.4342     0.0000     2.0000 </r>
       <r>   -18.3319     0.0000     2.0000 </r>
       <r>   -18.2296     0.0000     2.0000 </r>
       <r>   -18.1274     0.0000     2.0000 </r>
       <r>   -18.0251     0.0000     2.0000 </r>
       <r>   -17.9228     0.0000     2.0000 </r>
       <r>   -17.8206     0.0000     2.0000 </r>
       <r>   -17.7183     0.0000     2.0000 </r>
       <r>   -17.6160     0.0000     2.0000 </r>
       <r>   -17.5138     0.0000     2.0000 </r>
       <r>   -17.4115     0.0000     2.0000 </r>
       <r>   -17.3092     0.0000     2.0000 </r>
       <r>   -17.2070     0.0000     2.0000 </r>
       <r>   -17.1047     0.0000     2.0000 </r>
       <r>   -17.0024     0.0000     2.0000 </r>
       <r>   -16.9002     0.0000     2.0000 </r>
       <r>   -16.7979     0.0000     2.0000 </r>
       <r>   -16.6956     0.0000     2.0000 </r>
       <r>   -16.5934     0.0000     2.0000 </r>
       <r>   -16.4911     0.0000     2.0000 </r>
       <r>   -16.3888     0.0000     2.0000 </r>
       <r>   -16.2866     0.0000     2.0000 </r>
       <r>   -16.1843     0.0000     2.0000 </r>
       <r>   -16.0820     0.0000     2.0000 </r>
       <r>   -15.9797     0.0000     2.0000 </r>
       <r>   -15.8775     0.0000     2.0000 </r>
       <r>   -15.7752     0.0000     2.0000 </r>
       <r>   -15.6729     0.0000     2.0000 </r>
       <r>   -15.5707     0.0000     2.0000 </r>
       <r>   -15.4684     0.0000     2.0000 </r>
       <r>   -15.3661     0.0000     2.0000 </r>
       <r>   -15.2639     0.0000     2.0000 </r>
       <r>   -15.1616     0.0000     2.0000 </r>
       <r>   -15.0593     0.0000     2.0000 </r>
       <r>   -14.9571     0.0000     2.0000 </r>
       <r>   -14.8548     0.0000     2.0000 </r>
       <r>   -14.7525     0.0000     2.0000 </r>
       <r>   -14.6503     0.0000     2.0000 </r>
       <r>   -14.5480     0.0000     2.0000 </r>
       <r>   -14.4457     0.0000     2.0000 </r>
       <r>   -14.3435     0.0000     2.0000 </r>
       <r>   -14.2412     0.0000     2.0000 </r>
       <r>   -14.1389     0.0000     2.0000 </r>
       <r>   -14.0367     0.0000     2.0000 </r>
       <r>   -13.9344     0.0000     2.0000 </r>
       <r>   -13.8321     0.0000     2.0000 </r>
       <r>   -13.7299     0.0000     2.0000 </r>
       <r>   -13.6276     0.0000     2.0000 </r>
       <r>   -13.5253     0.0000     2.0000 </r>
       <r>   -13.4231     0.0000     2.0000 </r>
       <r>   -13.3208     0.0000     2.0000 </r>
       <r>   -13.2185     0.0000     2.0000 </r>
       <r>   -13.1162     0.0000     2.0000 </r>
       <r>   -13.0140     0.0000     2.0000 </r>
       <r>   -12.9117     0.0000     2.0000 </r>
       <r>   -12.8094     0.0000     2.0000 </r>
       <r>   -12.7072     0.0000     2.0000 </r>
       <r>   -12.6049     0.0000     2.0000 </r>
       <r>   -12.5026     0.0000     2.0000 </r>
       <r>   -12.4004     0.0000     2.0000 </r>
       <r>   -12.2981     0.0000     2.0000 </r>
       <r>   -12.1958     0.0000     2.0000 </r>
       <r>   -12.0936     0.0000     2.0000 </r>
       <r>   -11.9913     0.0000     2.0000 </r>
       <r>   -11.8890     0.0000     2.0000 </r>
       <r>   -11.7868     0.0000     2.0000 </r>
       <r>   -11.6845     0.0000     2.0000 </r>
       <r>   -11.5822     0.0000     2.0000 </r>
       <r>   -11.4800     0.0000     2.0000 </r>
       <r>   -11.3777     0.0000     2.0000 </r>
       <r>   -11.2754     0.0000     2.0000 </r>
       <r>   -11.1732    -0.0000     2.0000 </r>
       <r>   -11.0709    -0.0000     2.0000 </r>
       <r>   -10.9686    -0.0000     2.0000 </r>
       <r>   -10.8664    -0.0000     2.0000 </r>
       <r>   -10.7641    -0.0000     2.0000 </r>
       <r>   -10.6618    -0.0000     2.0000 </r>
       <r>   -10.5596    -0.0005     1.9999 </r>
       <r>   -10.4573    -0.0117     1.9988 </r>
       <r>   -10.3550     0.0178     2.0006 </r>
       <r>   -10.2528     0.6575     2.0678 </r>
       <r>   -10.1505     0.9548     2.1655 </r>
       <r>   -10.0482     0.7543     2.2426 </r>
       <r>    -9.9459     1.6266     2.4089 </r>
       <r>    -9.8437     0.5779     2.4680 </r>
       <r>    -9.7414     0.3043     2.4992 </r>
       <r>    -9.6391     2.1198     2.7159 </r>
       <r>    -9.5369     0.9867     2.8169 </r>
       <r>    -9.4346     0.8997     2.9089 </r>
       <r>    -9.3323     0.0185     2.9108 </r>
       <r>    -9.2301     1.2714     3.0408 </r>
       <r>    -9.1278     2.6537     3.3122 </r>
       <r>    -9.0255     0.5159     3.3649 </r>
       <r>    -8.9233     0.7740     3.4441 </r>
       <r>    -8.8210     0.5463     3.5000 </r>
       <r>    -8.7187     0.7906     3.5808 </r>
       <r>    -8.6165     2.7673     3.8638 </r>
       <r>    -8.5142     1.0710     3.9734 </r>
       <r>    -8.4119     0.9422     4.0697 </r>
       <r>    -8.3097     0.6299     4.1341 </r>
       <r>    -8.2074     2.3421     4.3737 </r>
       <r>    -8.1051     2.0930     4.5877 </r>
       <r>    -8.0029     4.1793     5.0151 </r>
       <r>    -7.9006     4.0101     5.4252 </r>
       <r>    -7.7983     4.2424     5.8591 </r>
       <r>    -7.6961     1.1795     5.9797 </r>
       <r>    -7.5938     0.5855     6.0396 </r>
       <r>    -7.4915     3.9172     6.4402 </r>
       <r>    -7.3893     5.7384     7.0270 </r>
       <r>    -7.2870     4.6922     7.5069 </r>
       <r>    -7.1847     5.2833     8.0472 </r>
       <r>    -7.0824     7.8263     8.8476 </r>
       <r>    -6.9802    11.4986    10.0235 </r>
       <r>    -6.8779    13.3588    11.3897 </r>
       <r>    -6.7756     7.4432    12.1509 </r>
       <r>    -6.6734     8.6720    13.0378 </r>
       <r>    -6.5711    10.7672    14.1389 </r>
       <r>    -6.4688    10.6084    15.2238 </r>
       <r>    -6.3666    11.0937    16.3583 </r>
       <r>    -6.2643     9.7309    17.3535 </r>
       <r>    -6.1620    12.9357    18.6764 </r>
       <r>    -6.0598    19.0159    20.6211 </r>
       <r>    -5.9575    21.3976    22.8094 </r>
       <r>    -5.8552    20.7570    24.9322 </r>
       <r>    -5.7530    22.6129    27.2447 </r>
       <r>    -5.6507    25.3200    29.8341 </r>
       <r>    -5.5484    27.7646    32.6736 </r>
       <r>    -5.4462    22.5546    34.9802 </r>
       <r>    -5.3439    17.6092    36.7810 </r>
       <r>    -5.2416    33.3449    40.1911 </r>
       <r>    -5.1394    40.6850    44.3519 </r>
       <r>    -5.0371    28.4781    47.2643 </r>
       <r>    -4.9348    24.9408    49.8149 </r>
       <r>    -4.8326    38.9695    53.8003 </r>
       <r>    -4.7303    45.8434    58.4886 </r>
       <r>    -4.6280    41.2244    62.7045 </r>
       <r>    -4.5258    51.6050    67.9820 </r>
       <r>    -4.4235    60.6826    74.1879 </r>
       <r>    -4.3212    43.6674    78.6537 </r>
       <r>    -4.2190    32.3001    81.9569 </r>
       <r>    -4.1167    38.6316    85.9077 </r>
       <r>    -4.0144    53.7909    91.4088 </r>
       <r>    -3.9121    47.9557    96.3131 </r>
       <r>    -3.8099    45.5424   100.9706 </r>
       <r>    -3.7076    45.5150   105.6253 </r>
       <r>    -3.6053    48.2662   110.5614 </r>
       <r>    -3.5031    64.2780   117.1350 </r>
       <r>    -3.4008    67.5403   124.0422 </r>
       <r>    -3.2985    35.6379   127.6868 </r>
       <r>    -3.1963    15.0564   129.2266 </r>
       <r>    -3.0940     8.4805   130.0938 </r>
       <r>    -2.9917    10.9707   131.2158 </r>
       <r>    -2.8895    14.1221   132.6600 </r>
       <r>    -2.7872    12.5697   133.9455 </r>
       <r>    -2.6849     4.1077   134.3656 </r>
       <r>    -2.5827     1.2838   134.4969 </r>
       <r>    -2.4804     6.3375   135.1450 </r>
       <r>    -2.3781     3.2009   135.4723 </r>
       <r>    -2.2759     2.7425   135.7528 </r>
       <r>    -2.1736     5.9985   136.3663 </r>
       <r>    -2.0713     7.7772   137.1616 </r>
       <r>    -1.9691     2.0809   137.3744 </r>
       <r>    -1.8668     0.0914   137.3838 </r>
       <r>    -1.7645     5.6031   137.9568 </r>
       <r>    -1.6623     8.9848   138.8757 </r>
       <r>    -1.5600     5.5898   139.4473 </r>
       <r>    -1.4577     4.2370   139.8806 </r>
       <r>    -1.3555     3.1037   140.1980 </r>
       <r>    -1.2532     1.4906   140.3505 </r>
       <r>    -1.1509     3.3228   140.6903 </r>
       <r>    -1.0486     4.5422   141.1548 </r>
       <r>    -0.9464     3.4538   141.5080 </r>
       <r>    -0.8441     3.7777   141.8944 </r>
       <r>    -0.7418     5.0255   142.4083 </r>
       <r>    -0.6396     6.3514   143.0579 </r>
       <r>    -0.5373     4.6312   143.5315 </r>
       <r>    -0.4350     3.1119   143.8497 </r>
       <r>    -0.3328     4.4006   144.2998 </r>
       <r>    -0.2305     4.7263   144.7831 </r>
       <r>    -0.1282     1.5115   144.9377 </r>
       <r>    -0.0260     4.6289   145.4111 </r>
       <r>     0.0763     4.0005   145.8202 </r>
       <r>     0.1786     2.0274   146.0275 </r>
       <r>     0.2808     2.4618   146.2793 </r>
       <r>     0.3831     4.5142   146.7410 </r>
       <r>     0.4854     4.5330   147.2045 </r>
       <r>     0.5876     3.5537   147.5680 </r>
       <r>     0.6899     5.0022   148.0795 </r>
       <r>     0.7922     6.1631   148.7098 </r>
       <r>     0.8944     4.0361   149.1226 </r>
       <r>     0.9967     1.7716   149.3038 </r>
       <r>     1.0990     1.8994   149.4980 </r>
       <r>     1.2012     3.7413   149.8806 </r>
       <r>     1.3035     3.8264   150.2719 </r>
       <r>     1.4058     4.8640   150.7694 </r>
       <r>     1.5080     2.1833   150.9926 </r>
       <r>     1.6103     0.5331   151.0472 </r>
       <r>     1.7126     3.1036   151.3646 </r>
       <r>     1.8148     1.8503   151.5538 </r>
       <r>     1.9171     3.3579   151.8972 </r>
       <r>     2.0194     4.2624   152.3331 </r>
       <r>     2.1217     4.5565   152.7991 </r>
       <r>     2.2239     3.2045   153.1268 </r>
       <r>     2.3262     4.5018   153.5872 </r>
       <r>     2.4285     3.4521   153.9402 </r>
       <r>     2.5307     1.1498   154.0578 </r>
[...]
        <r>  0.0000  0.0050  0.1721 </r>
        <r>  0.0075  0.0023  0.0690 </r>
        <r>  0.0075  0.0023  0.0690 </r>
        <r>  0.0075  0.0023  0.0690 </r>
        <r>  0.0007  0.0017  0.0706 </r>
        <r>  0.0007  0.0017  0.0706 </r>
        <r>  0.0000  0.0002  0.0032 </r>
        <r>  0.0007  0.0017  0.0706 </r>
        <r>  0.0021  0.0017  0.0355 </r>
        <r>  0.0021  0.0017  0.0355 </r>
        <r>  0.0021  0.0017  0.0355 </r>
        <r>  0.0050  0.0028  0.1532 </r>
        <r>  0.0000  0.0137  0.0000 </r>
       </set>
       <set comment="band 66">
        <r>  0.0000  0.0024  0.0037 </r>
        <r>  0.0046  0.0016  0.0300 </r>
        <r>  0.0046  0.0016  0.0300 </r>
        <r>  0.0046  0.0016  0.0300 </r>
        <r>  0.0001  0.0006  0.0657 </r>
        <r>  0.0001  0.0006  0.0657 </r>
        <r>  0.0008  0.0010  0.0106 </r>
        <r>  0.0001  0.0006  0.0657 </r>
        <r>  0.0103  0.0025  0.1062 </r>
        <r>  0.0103  0.0025  0.1062 </r>
        <r>  0.0103  0.0025  0.1062 </r>
        <r>  0.0000  0.0035  0.2143 </r>
        <r>  0.0000  0.0235  0.0000 </r>
       </set>
       <set comment="band 67">
        <r>  0.0266  0.0007  0.0239 </r>
        <r>  0.0031  0.0055  0.0746 </r>
        <r>  0.0031  0.0055  0.0746 </r>
        <r>  0.0031  0.0055  0.0746 </r>
        <r>  0.0003  0.0023  0.0432 </r>
        <r>  0.0003  0.0023  0.0432 </r>
        <r>  0.0000  0.0002  0.1113 </r>
        <r>  0.0003  0.0023  0.0432 </r>
        <r>  0.0072  0.0018  0.0762 </r>
        <r>  0.0072  0.0018  0.0762 </r>
        <r>  0.0072  0.0018  0.0762 </r>
        <r>  0.0000  0.0045  0.0408 </r>
        <r>  0.0024  0.0539  0.0000 </r>
       </set>
       <set comment="band 68">
        <r>  0.0000  0.0055  0.0501 </r>
        <r>  0.0158  0.0047  0.0392 </r>
        <r>  0.0158  0.0047  0.0392 </r>
        <r>  0.0158  0.0047  0.0392 </r>
        <r>  0.0000  0.0010  0.0790 </r>
        <r>  0.0000  0.0010  0.0790 </r>
        <r>  0.0087  0.0162  0.0044 </r>
        <r>  0.0000  0.0010  0.0790 </r>
        <r>  0.0015  0.0117  0.0642 </r>
        <r>  0.0015  0.0117  0.0642 </r>
        <r>  0.0015  0.0117  0.0642 </r>
        <r>  0.0000  0.0009  0.0227 </r>
        <r>  0.0000  0.1086  0.0000 </r>
       </set>
       <set comment="band 69">
        <r>  0.0000  0.0059  0.0107 </r>
        <r>  0.0131  0.0046  0.0224 </r>
        <r>  0.0131  0.0046  0.0224 </r>
        <r>  0.0131  0.0046  0.0224 </r>
        <r>  0.0059  0.0049  0.0282 </r>
        <r>  0.0059  0.0049  0.0282 </r>
        <r>  0.0000  0.0042  0.0246 </r>
        <r>  0.0059  0.0049  0.0282 </r>
        <r>  0.0015  0.0068  0.1255 </r>
        <r>  0.0015  0.0068  0.1255 </r>
        <r>  0.0015  0.0068  0.1255 </r>
        <r>  0.0220  0.0032  0.0043 </r>
        <r>  0.0000  0.1387  0.0000 </r>
       </set>
       <set comment="band 70">
        <r>  0.0323  0.0096  0.0198 </r>
        <r>  0.0034  0.0060  0.0206 </r>
        <r>  0.0034  0.0060  0.0206 </r>
        <r>  0.0034  0.0060  0.0206 </r>
        <r>  0.0152  0.0058  0.0175 </r>
        <r>  0.0152  0.0058  0.0175 </r>
        <r>  0.0000  0.0087  0.0206 </r>
        <r>  0.0152  0.0058  0.0175 </r>
        <r>  0.0001  0.0065  0.1061 </r>
        <r>  0.0001  0.0065  0.1061 </r>
        <r>  0.0001  0.0065  0.1061 </r>
        <r>  0.0000  0.0028  0.0236 </r>
        <r>  0.0011  0.1541  0.0000 </r>
       </set>
       <set comment="band 71">
        <r>  0.0000  0.0044  0.0310 </r>
        <r>  0.0129  0.0196  0.0244 </r>
        <r>  0.0129  0.0196  0.0244 </r>
        <r>  0.0129  0.0196  0.0244 </r>
        <r>  0.0095  0.0105  0.0073 </r>
        <r>  0.0096  0.0105  0.0073 </r>
        <r>  0.0382  0.0088  0.0524 </r>
        <r>  0.0095  0.0105  0.0073 </r>
        <r>  0.0152  0.0192  0.0288 </r>
        <r>  0.0152  0.0192  0.0288 </r>
        <r>  0.0152  0.0192  0.0288 </r>
        <r>  0.0000  0.0017  0.0241 </r>
        <r>  0.0000  0.0567  0.0000 </r>
       </set>
       <set comment="band 72">
        <r>  0.0000  0.0031  0.0267 </r>
        <r>  0.0104  0.0158  0.0190 </r>
        <r>  0.0104  0.0158  0.0190 </r>
        <r>  0.0104  0.0158  0.0190 </r>
        <r>  0.0209  0.0057  0.0175 </r>
        <r>  0.0209  0.0057  0.0175 </r>
        <r>  0.0000  0.0094  0.0103 </r>
        <r>  0.0209  0.0057  0.0175 </r>
        <r>  0.0001  0.0106  0.0324 </r>
        <r>  0.0001  0.0106  0.0324 </r>
        <r>  0.0001  0.0106  0.0324 </r>
        <r>  0.0822  0.0253  0.0129 </r>
        <r>  0.0000  0.0838  0.0000 </r>
       </set>
       <set comment="band 73">
        <r>  0.0060  0.0538  0.0070 </r>
        <r>  0.0034  0.0047  0.0221 </r>
        <r>  0.0034  0.0047  0.0221 </r>
        <r>  0.0034  0.0047  0.0221 </r>
        <r>  0.0102  0.0175  0.0176 </r>
        <r>  0.0102  0.0175  0.0176 </r>
        <r>  0.0000  0.0001  0.0199 </r>
        <r>  0.0102  0.0175  0.0176 </r>
        <r>  0.0249  0.0074  0.0375 </r>
        <r>  0.0249  0.0074  0.0375 </r>
        <r>  0.0249  0.0074  0.0375 </r>
        <r>  0.0000  0.0425  0.0005 </r>
        <r>  0.0132  0.0466  0.0000 </r>
       </set>
       <set comment="band 74">
        <r>  0.0000  0.0220  0.0186 </r>
        <r>  0.0000  0.0248  0.0232 </r>
        <r>  0.0000  0.0248  0.0232 </r>
        <r>  0.0000  0.0248  0.0232 </r>
        <r>  0.0000  0.0509  0.0354 </r>
        <r>  0.0000  0.0509  0.0354 </r>
        <r>  0.0000  0.0474  0.0392 </r>
        <r>  0.0000  0.0509  0.0354 </r>
        <r>  0.0164  0.0096  0.0069 </r>
        <r>  0.0164  0.0096  0.0069 </r>
        <r>  0.0164  0.0096  0.0069 </r>
        <r>  0.0180  0.0001  0.0082 </r>
        <r>  0.0000  0.0007  0.0000 </r>
       </set>
       <set comment="band 75">
        <r>  0.0000  0.0022  0.0068 </r>
        <r>  0.0000  0.0204  0.0109 </r>
        <r>  0.0000  0.0204  0.0109 </r>
        <r>  0.0000  0.0204  0.0109 </r>
        <r>  0.0154  0.0097  0.0164 </r>
        <r>  0.0154  0.0097  0.0164 </r>
        <r>  0.0123  0.0282  0.0068 </r>
        <r>  0.0154  0.0097  0.0164 </r>
        <r>  0.0004  0.0429  0.0201 </r>
        <r>  0.0004  0.0429  0.0201 </r>
        <r>  0.0004  0.0429  0.0201 </r>
        <r>  0.0000  0.0190  0.0322 </r>
        <r>  0.0000  0.0037  0.0000 </r>
       </set>
       <set comment="band 76">
        <r>  0.0194  0.0039  0.0081 </r>
        <r>  0.0193  0.0126  0.0105 </r>
        <r>  0.0193  0.0126  0.0105 </r>
        <r>  0.0193  0.0126  0.0105 </r>
        <r>  0.0000  0.0531  0.0328 </r>
        <r>  0.0000  0.0531  0.0328 </r>
        <r>  0.0000  0.0390  0.0424 </r>
        <r>  0.0000  0.0531  0.0328 </r>
        <r>  0.0000  0.0177  0.0161 </r>
        <r>  0.0000  0.0177  0.0161 </r>
        <r>  0.0000  0.0177  0.0161 </r>
        <r>  0.0000  0.0107  0.0168 </r>
        <r>  0.0001  0.0119  0.0000 </r>
       </set>
       <set comment="band 77">
        <r>  0.0000  0.0058  0.0242 </r>
        <r>  0.0000  0.0288  0.0094 </r>
        <r>  0.0000  0.0288  0.0094 </r>
        <r>  0.0000  0.0288  0.0094 </r>
        <r>  0.0004  0.0302  0.0124 </r>
        <r>  0.0004  0.0302  0.0124 </r>
        <r>  0.0000  0.0033  0.0176 </r>
        <r>  0.0004  0.0302  0.0124 </r>
        <r>  0.0000  0.0030  0.0137 </r>
        <r>  0.0000  0.0030  0.0137 </r>
        <r>  0.0000  0.0030  0.0137 </r>
        <r>  0.0019  0.0876  0.0001 </r>
        <r>  0.0000  0.0195  0.0000 </r>
       </set>
       <set comment="band 78">
        <r>  0.0000  0.0565  0.0444 </r>
        <r>  0.0000  0.0551  0.0388 </r>
        <r>  0.0000  0.0551  0.0388 </r>
        <r>  0.0000  0.0551  0.0388 </r>
        <r>  0.0368  0.0113  0.0118 </r>
        <r>  0.0368  0.0113  0.0118 </r>
        <r>  0.0480  0.0000  0.0044 </r>
        <r>  0.0368  0.0113  0.0118 </r>
        <r>  0.0001  0.0038  0.0067 </r>
        <r>  0.0001  0.0038  0.0067 </r>
        <r>  0.0001  0.0038  0.0067 </r>
        <r>  0.0000  0.0020  0.0002 </r>
        <r>  0.0000  0.0112  0.0000 </r>
       </set>
       <set comment="band 79">
        <r>  0.0314  0.0417  0.0000 </r>
        <r>  0.0120  0.0009  0.0099 </r>
        <r>  0.0120  0.0009  0.0099 </r>
        <r>  0.0120  0.0009  0.0099 </r>
        <r>  0.0029  0.0215  0.0218 </r>
        <r>  0.0029  0.0215  0.0218 </r>
        <r>  0.0000  0.0290  0.0032 </r>
        <r>  0.0029  0.0215  0.0218 </r>
        <r>  0.0124  0.0221  0.0121 </r>
        <r>  0.0124  0.0221  0.0121 </r>
        <r>  0.0124  0.0221  0.0121 </r>
        <r>  0.0000  0.0164  0.0313 </r>
        <r>  0.0167  0.0001  0.0000 </r>
       </set>
       <set comment="band 80">
        <r>  0.0000  0.0104  0.0092 </r>
        <r>  0.0007  0.0204  0.0095 </r>
        <r>  0.0007  0.0204  0.0095 </r>
        <r>  0.0007  0.0204  0.0095 </r>
        <r>  0.0069  0.0132  0.0049 </r>
        <r>  0.0069  0.0132  0.0049 </r>
        <r>  0.0307  0.0464  0.0005 </r>
        <r>  0.0069  0.0132  0.0049 </r>
        <r>  0.0002  0.0262  0.0435 </r>
        <r>  0.0002  0.0262  0.0435 </r>
        <r>  0.0002  0.0262  0.0435 </r>
        <r>  0.0000  0.0802  0.0193 </r>
        <r>  0.0000  0.0619  0.0000 </r>
       </set>
       <set comment="band 81">
        <r>  0.0000  0.0508  0.0277 </r>
        <r>  0.0002  0.0588  0.0259 </r>
        <r>  0.0002  0.0588  0.0259 </r>
        <r>  0.0002  0.0588  0.0259 </r>
        <r>  0.0004  0.0098  0.0216 </r>
        <r>  0.0004  0.0098  0.0216 </r>
        <r>  0.0000  0.0095  0.0199 </r>
        <r>  0.0004  0.0098  0.0216 </r>
        <r>  0.0325  0.0063  0.0031 </r>
        <r>  0.0325  0.0063  0.0031 </r>
        <r>  0.0325  0.0063  0.0031 </r>
        <r>  0.0224  0.0067  0.0064 </r>
        <r>  0.0000  0.0082  0.0000 </r>
       </set>
       <set comment="band 82">
        <r>  0.0000  0.0068  0.0000 </r>
        <r>  0.0051  0.0018  0.0055 </r>
        <r>  0.0051  0.0018  0.0055 </r>
        <r>  0.0051  0.0018  0.0055 </r>
        <r>  0.0044  0.0029  0.0010 </r>
        <r>  0.0045  0.0029  0.0010 </r>
        <r>  0.0040  0.0061  0.0095 </r>
        <r>  0.0044  0.0029  0.0010 </r>
        <r>  0.0032  0.0049  0.0053 </r>
        <r>  0.0032  0.0049  0.0053 </r>
        <r>  0.0032  0.0049  0.0053 </r>
        <r>  0.0000  0.0000  0.0006 </r>
        <r>  0.0000  0.0069  0.0000 </r>
       </set>
       <set comment="band 83">
        <r>  0.0000  0.0086  0.0004 </r>
        <r>  0.0048  0.0020  0.0055 </r>
        <r>  0.0048  0.0020  0.0055 </r>
        <r>  0.0048  0.0020  0.0055 </r>
        <r>  0.0038  0.0024  0.0047 </r>
        <r>  0.0038  0.0024  0.0047 </r>
        <r>  0.0000  0.0075  0.0001 </r>
        <r>  0.0038  0.0024  0.0047 </r>
        <r>  0.0005  0.0016  0.0020 </r>
        <r>  0.0005  0.0017  0.0020 </r>
        <r>  0.0005  0.0017  0.0020 </r>
        <r>  0.0063  0.0088  0.0056 </r>
        <r>  0.0000  0.0017  0.0000 </r>
       </set>
       <set comment="band 84">
        <r>  0.0012  0.0004  0.0159 </r>
        <r>  0.0259  0.0031  0.0002 </r>
        <r>  0.0259  0.0031  0.0002 </r>
        <r>  0.0260  0.0031  0.0002 </r>
        <r>  0.0026  0.0032  0.0085 </r>
        <r>  0.0026  0.0032  0.0085 </r>
        <r>  0.0000  0.0021  0.0012 </r>
        <r>  0.0026  0.0032  0.0085 </r>
        <r>  0.0020  0.0163  0.0042 </r>
        <r>  0.0020  0.0163  0.0042 </r>
        <r>  0.0020  0.0163  0.0042 </r>
        <r>  0.0000  0.0032  0.0113 </r>
        <r>  0.0019  0.0099  0.0000 </r>
       </set>
       <set comment="band 85">
        <r>  0.0502  0.0100  0.0010 </r>
        <r>  0.0411  0.0003  0.0030 </r>
        <r>  0.0411  0.0003  0.0030 </r>
        <r>  0.0411  0.0003  0.0030 </r>
        <r>  0.0000  0.0025  0.0070 </r>
        <r>  0.0000  0.0025  0.0070 </r>
        <r>  0.0000  0.0029  0.0108 </r>
        <r>  0.0000  0.0025  0.0070 </r>
        <r>  0.0028  0.0164  0.0041 </r>
        <r>  0.0028  0.0164  0.0041 </r>
        <r>  0.0028  0.0164  0.0041 </r>
        <r>  0.0000  0.0076  0.0168 </r>
        <r>  0.0165  0.0000  0.0000 </r>
       </set>
       <set comment="band 86">
        <r>  0.0000  0.0006  0.0013 </r>
        <r>  0.0001  0.0050  0.0009 </r>
        <r>  0.0001  0.0050  0.0009 </r>
        <r>  0.0001  0.0048  0.0010 </r>
        <r>  0.0013  0.0035  0.0020 </r>
        <r>  0.0013  0.0036  0.0020 </r>
        <r>  0.0000  0.0017  0.0007 </r>
        <r>  0.0013  0.0035  0.0020 </r>
        <r>  0.0010  0.0027  0.0012 </r>
        <r>  0.0009  0.0028  0.0011 </r>
        <r>  0.0009  0.0028  0.0011 </r>
        <r>  0.0055  0.0019  0.0071 </r>
        <r>  0.0000  0.0003  0.0000 </r>
       </set>
       <set comment="band 87">
        <r>  0.0000  0.0002  0.0011 </r>
        <r>  0.0001  0.0056  0.0012 </r>
        <r>  0.0001  0.0056  0.0012 </r>
        <r>  0.0001  0.0058  0.0012 </r>
        <r>  0.0008  0.0023  0.0012 </r>
        <r>  0.0007  0.0022  0.0012 </r>
        <r>  0.0035  0.0051  0.0044 </r>
        <r>  0.0008  0.0023  0.0012 </r>
        <r>  0.0038  0.0014  0.0037 </r>
        <r>  0.0039  0.0014  0.0038 </r>
        <r>  0.0039  0.0014  0.0038 </r>
        <r>  0.0000  0.0022  0.0007 </r>
        <r>  0.0000  0.0004  0.0000 </r>
       </set>
       <set comment="band 88">
        <r>  0.0095  0.0128  0.0017 </r>
        <r>  0.0145  0.0014  0.0005 </r>
        <r>  0.0145  0.0014  0.0005 </r>
        <r>  0.0145  0.0014  0.0005 </r>
        <r>  0.0005  0.0025  0.0024 </r>
        <r>  0.0005  0.0025  0.0024 </r>
        <r>  0.0000  0.0072  0.0014 </r>
        <r>  0.0005  0.0025  0.0024 </r>
        <r>  0.0021  0.0002  0.0014 </r>
        <r>  0.0021  0.0002  0.0014 </r>
        <r>  0.0021  0.0002  0.0014 </r>
        <r>  0.0000  0.0016  0.0019 </r>
        <r>  0.0000  0.0130  0.0000 </r>
       </set>
       <set comment="band 89">
        <r>  0.0000  0.0027  0.0000 </r>
        <r>  0.0015  0.0008  0.0022 </r>
        <r>  0.0015  0.0008  0.0022 </r>
        <r>  0.0015  0.0008  0.0022 </r>
        <r>  0.0016  0.0011  0.0005 </r>
        <r>  0.0016  0.0011  0.0005 </r>
        <r>  0.0009  0.0029  0.0034 </r>
        <r>  0.0016  0.0011  0.0005 </r>
        <r>  0.0004  0.0030  0.0015 </r>
        <r>  0.0004  0.0030  0.0014 </r>
        <r>  0.0004  0.0030  0.0014 </r>
        <r>  0.0000  0.0000  0.0001 </r>
        <r>  0.0000  0.0011  0.0000 </r>
       </set>
       <set comment="band 90">
        <r>  0.0000  0.0026  0.0000 </r>
        <r>  0.0016  0.0009  0.0022 </r>
        <r>  0.0016  0.0009  0.0022 </r>
        <r>  0.0016  0.0009  0.0022 </r>
        <r>  0.0013  0.0011  0.0018 </r>
        <r>  0.0013  0.0011  0.0018 </r>
        <r>  0.0000  0.0030  0.0002 </r>
        <r>  0.0013  0.0011  0.0018 </r>
        <r>  0.0008  0.0005  0.0007 </r>
        <r>  0.0008  0.0005  0.0007 </r>
        <r>  0.0008  0.0005  0.0007 </r>
        <r>  0.0004  0.0059  0.0018 </r>
        <r>  0.0000  0.0000  0.0000 </r>
       </set>
       <set comment="band 91">
        <r>  0.0148  0.0002  0.0065 </r>
        <r>  0.0005  0.0038  0.0014 </r>
        <r>  0.0005  0.0038  0.0014 </r>
        <r>  0.0005  0.0038  0.0014 </r>
        <r>  0.0021  0.0037  0.0032 </r>
        <r>  0.0021  0.0037  0.0032 </r>
        <r>  0.0000  0.0003  0.0007 </r>
        <r>  0.0021  0.0037  0.0032 </r>
        <r>  0.0005  0.0051  0.0010 </r>
        <r>  0.0005  0.0051  0.0010 </r>
        <r>  0.0005  0.0051  0.0010 </r>
        <r>  0.0000  0.0007  0.0026 </r>
        <r>  0.0009  0.0087  0.0000 </r>
       </set>
       <set comment="band 92">
        <r>  0.0271  0.0089  0.0010 </r>
        <r>  0.0149  0.0244  0.0013 </r>
        <r>  0.0149  0.0244  0.0013 </r>
        <r>  0.0149  0.0244  0.0013 </r>
        <r>  0.0007  0.0131  0.0066 </r>
        <r>  0.0007  0.0131  0.0066 </r>
        <r>  0.0000  0.0040  0.0039 </r>
        <r>  0.0007  0.0131  0.0066 </r>
        <r>  0.0019  0.0220  0.0033 </r>
        <r>  0.0019  0.0220  0.0033 </r>
        <r>  0.0019  0.0220  0.0033 </r>
        <r>  0.0000  0.0060  0.0148 </r>
        <r>  0.0072  0.0015  0.0000 </r>
       </set>
       <set comment="band 93">
        <r>  0.0000  0.0012  0.0010 </r>
        <r>  0.0011  0.0036  0.0021 </r>
        <r>  0.0011  0.0036  0.0021 </r>
        <r>  0.0011  0.0036  0.0020 </r>
        <r>  0.0000  0.0051  0.0008 </r>
        <r>  0.0000  0.0052  0.0008 </r>
        <r>  0.0000  0.0003  0.0015 </r>
        <r>  0.0000  0.0051  0.0008 </r>
        <r>  0.0000  0.0016  0.0010 </r>
        <r>  0.0000  0.0016  0.0010 </r>
        <r>  0.0000  0.0016  0.0010 </r>
        <r>  0.0021  0.0101  0.0021 </r>
        <r>  0.0000  0.0005  0.0000 </r>
       </set>
       <set comment="band 94">
        <r>  0.0000  0.0041  0.0004 </r>
        <r>  0.0015  0.0020  0.0029 </r>
        <r>  0.0015  0.0020  0.0029 </r>
        <r>  0.0015  0.0020  0.0029 </r>
        <r>  0.0009  0.0013  0.0012 </r>
        <r>  0.0009  0.0013  0.0012 </r>
        <r>  0.0000  0.0123  0.0006 </r>
        <r>  0.0009  0.0013  0.0012 </r>
        <r>  0.0006  0.0055  0.0019 </r>
        <r>  0.0006  0.0055  0.0019 </r>
        <r>  0.0006  0.0055  0.0019 </r>
        <r>  0.0000  0.0005  0.0004 </r>
        <r>  0.0000  0.0000  0.0000 </r>
       </set>
       <set comment="band 95">
        <r>  0.0000  0.0028  0.0003 </r>
        <r>  0.0006  0.0068  0.0031 </r>
        <r>  0.0006  0.0068  0.0031 </r>
        <r>  0.0005  0.0067  0.0031 </r>
        <r>  0.0067  0.0037  0.0009 </r>
        <r>  0.0067  0.0037  0.0010 </r>
        <r>  0.0004  0.0004  0.0101 </r>
        <r>  0.0067  0.0037  0.0009 </r>
        <r>  0.0022  0.0036  0.0049 </r>
        <r>  0.0021  0.0036  0.0049 </r>
        <r>  0.0021  0.0036  0.0049 </r>
        <r>  0.0000  0.0038  0.0005 </r>
        <r>  0.0000  0.0004  0.0000 </r>
       </set>
       <set comment="band 96">
        <r>  0.0000  0.0060  0.0001 </r>
        <r>  0.0011  0.0044  0.0040 </r>
        <r>  0.0011  0.0044  0.0040 </r>
        <r>  0.0011  0.0045  0.0040 </r>
        <r>  0.0027  0.0028  0.0052 </r>
        <r>  0.0027  0.0029  0.0052 </r>
        <r>  0.0000  0.0119  0.0009 </r>
        <r>  0.0027  0.0028  0.0052 </r>
        <r>  0.0149  0.0018  0.0014 </r>
        <r>  0.0150  0.0018  0.0014 </r>
        <r>  0.0150  0.0018  0.0014 </r>
        <r>  0.0006  0.0109  0.0086 </r>
        <r>  0.0000  0.0031  0.0000 </r>
       </set>
      </set>
     </set>
    </set>
   </array>
  </projected>
 </calculation>
 <structure name="finalpos" >
  <crystal>
   <varray name="basis" >
    <v>       5.14208051       0.00000000       0.00000000 </v>
    <v>       2.57104026       4.45317235       0.00000000 </v>
    <v>       0.00000000       0.00000000      24.19849116 </v>
   </varray>
   <i name="volume">    554.11086184 </i>
   <varray name="rec_basis" >
    <v>       0.19447381      -0.11227951       0.00000000 </v>
    <v>       0.00000000       0.22455902       0.00000000 </v>
    <v>       0.00000000       0.00000000       0.04132489 </v>
   </varray>
  </crystal>
  <varray name="positions" >
   <v>       0.16666667       0.16666667       0.41486685 </v>
   <v>       0.66695475       0.16609050       0.41409271 </v>
   <v>       0.16609050       0.66695475       0.41409271 </v>
   <v>       0.66695475       0.66695475       0.41409271 </v>
   <v>       0.83425813       0.33287094       0.49935389 </v>
   <v>       0.33287094       0.33287094       0.49935389 </v>
   <v>       0.83333333       0.83333333       0.50197645 </v>
   <v>       0.33287094       0.83425813       0.49935389 </v>
   <v>       0.99363413       0.99363413       0.58822492 </v>
   <v>       0.51273173       0.99363413       0.58822492 </v>
   <v>       0.99363413       0.51273173       0.58822492 </v>
   <v>       0.50000000       0.50000000       0.58132817 </v>
   <v>       0.16666667       0.16666667       0.63315493 </v>
  </varray>
 </structure>
</modeling>
