unknown system                          
           1
     5.142081    0.000000    0.000000
     2.571040    4.453172    0.000000
     0.000000    0.000000   24.198491
   Cu   O 
  12   1
Direct configuration=     1
   0.16666667  0.16666667  0.41486685
   0.66695475  0.16609050  0.41409271
   0.16609050  0.66695475  0.41409271
   0.66695475  0.66695475  0.41409271
   0.83425813  0.33287094  0.49935389
   0.33287094  0.33287094  0.49935389
   0.83333333  0.83333333  0.50197645
   0.33287094  0.83425813  0.49935389
   0.99363413  0.99363413  0.58822492
   0.51273173  0.99363413  0.58822492
   0.99363413  0.51273173  0.58822492
   0.50000000  0.50000000  0.58132817
   0.16666667  0.16666667  0.63315493
