----- GAMESS execution script 'rungms' -----
This job is running on host crcfe01.crc.nd.edu
under operating system Linux at Thu Oct 17 23:41:35 EDT 2019
Available scratch disk space (Kbyte units) at beginning of the job is
Filesystem      1K-blocks  Used  Available Use% Mounted on
AFS            2147483647     0 2147483647   0% /afs
GAMESS temporary binary files will be written to /afs/crc.nd.edu/user/c/cdrisko
GAMESS supplementary output files will be written to /afs/crc.nd.edu/user/c/cdrisko/scr
Copying input file acetaldehyde.inp to your run's scratch directory...

 Distributed Data Interface kickoff program.
 Initiating 1 compute processes on 1 nodes to run the following command:
 /afs/crc.nd.edu/x86_64_linux/g/gamess/nov-2017/gamess/gamess.00.x acetaldehyde 

          ******************************************************
          *         GAMESS VERSION = 11 NOV 2017 (R3)         *
          *             FROM IOWA STATE UNIVERSITY             *
          * M.W.SCHMIDT, K.K.BALDRIDGE, J.A.BOATZ, S.T.ELBERT, *
          *   M.S.GORDON, J.H.JENSEN, S.KOSEKI, N.MATSUNAGA,   *
          *          K.A.NGUYEN, S.J.SU, T.L.WINDUS,           *
          *       TOGETHER WITH M.DUPUIS, J.A.MONTGOMERY       *
          *         J.COMPUT.CHEM.  14, 1347-1363(1993)        *
          **************** 64 BIT INTEL VERSION ****************

  SINCE 1993, STUDENTS AND POSTDOCS WORKING AT IOWA STATE UNIVERSITY
  AND ALSO IN THEIR VARIOUS JOBS AFTER LEAVING ISU HAVE MADE IMPORTANT
  CONTRIBUTIONS TO THE CODE:
     IVANA ADAMOVIC, CHRISTINE AIKENS, YURI ALEXEEV, POOJA ARORA,
     ANDREY ASADCHEV, ROB BELL, PRADIPTA BANDYOPADHYAY, JONATHAN BENTZ,
     BRETT BODE, KURT BRORSEN, CALEB CARLIN, GALINA CHABAN, WEI CHEN,
     CHEOL HO CHOI, PAUL DAY, ALBERT DEFUSCO, NUWAN DESILVA, TIM DUDLEY,
     DMITRI FEDOROV, ALEX FINDLATER, GRAHAM FLETCHER, MARK FREITAG,
     KURT GLAESEMANN, ANASTASIA GUININA,
     DAN KEMP, GRANT MERRILL, NORIYUKI MINEZAWA, JONATHAN MULLIN,
     TAKESHI NAGATA, SEAN NEDD, HEATHER NETZLOFF, BOSILJKA NJEGIC, RYAN OLSON,
     MIKE PAK, BUU PHAM,
     SPENCER PRUITT, LUKE ROSKOP, JIM SHOEMAKER, LYUDMILA SLIPCHENKO,
     TONY SMITH, SAROM SOK LEANG, JIE SONG, TETSUYA TAKETSUGU, SIMON WEBB,
     PENG XU, SOOHAENG YOO, FEDERICO ZAHARIEV

  ADDITIONAL CODE HAS BEEN PROVIDED BY COLLABORATORS IN OTHER GROUPS:
     IOWA STATE UNIVERSITY:
          JOE IVANIC, AARON WEST, LAIMUTIS BYTAUTAS, KLAUS RUEDENBERG
     UNIVERSITY OF TOKYO: KIMIHIKO HIRAO, TAKAHITO NAKAJIMA,
          TAKAO TSUNEDA, MUNEAKI KAMIYA, SUSUMU YANAGISAWA,
          KIYOSHI YAGI, MAHITO CHIBA, SEIKEN TOKURA, NAOAKI KAWAKAMI
     UNIVERSITY OF AARHUS: FRANK JENSEN
     UNIVERSITY OF IOWA: VISVALDAS KAIRYS, HUI LI
     NATIONAL INST. OF STANDARDS AND TECHNOLOGY: WALT STEVENS, DAVID GARMER
     UNIVERSITY OF PISA: BENEDETTA MENNUCCI, JACOPO TOMASI
     UNIVERSITY OF MEMPHIS: HENRY KURTZ, PRAKASHAN KORAMBATH
     UNIVERSITY OF ALBERTA: TOBY ZENG, MARIUSZ KLOBUKOWSKI
     UNIVERSITY OF NEW ENGLAND: MARK SPACKMAN
     MIE UNIVERSITY: HIROAKI UMEDA
     NAT. INST. OF ADVANCED INDUSTRIAL SCIENCE AND TECHNOLOGY: KAZUO KITAURA
     MICHIGAN STATE UNIVERSITY:
          KAROL KOWALSKI, MARTA WLOCH, JEFFREY GOUR, JESSE LUTZ,
          WEI LI, PIOTR PIECUCH
     UNIVERSITY OF SILESIA: MONIKA MUSIAL, STANISLAW KUCHARSKI
     FACULTES UNIVERSITAIRES NOTRE-DAME DE LA PAIX:
          OLIVIER QUINET, BENOIT CHAMPAGNE
     UNIVERSITY OF CALIFORNIA - SANTA BARBARA: BERNARD KIRTMAN
     INSTITUTE FOR MOLECULAR SCIENCE:
          KAZUYA ISHIMURA, MICHIO KATOUDA, AND SHIGERU NAGASE
     UNIVERSITY OF NOTRE DAME: ANNA POMOGAEVA, DAN CHIPMAN
     KYUSHU UNIVERSITY:
          HARUYUKI NAKANO,
          FENG LONG GU, JACEK KORCHOWIEC, MARCIN MAKOWSKI, AND YURIKO AOKI,
          HIROTOSHI MORI AND EISAKU MIYOSHI
     PENNSYLVANIA STATE UNIVERSITY:
          TZVETELIN IORDANOV, CHET SWALINA, JONATHAN SKONE,
          SHARON HAMMES-SCHIFFER
     WASEDA UNIVERSITY:
          MASATO KOBAYASHI, TOMOKO AKAMA, TSUGUKI TOUMA,
          TAKESHI YOSHIKAWA, YASUHIRO IKABATA, JUNJI SEINO,
          YUYA NAKAJIMA, HIROMI NAKAI
     NANJING UNIVERSITY: SHUHUA LI
     UNIVERSITY OF NEBRASKA:
          PEIFENG SU, DEJUN SI, NANDUN THELLAMUREGE, YALI WANG, HUI LI
     UNIVERSITY OF ZURICH: ROBERTO PEVERATI, KIM BALDRIDGE
     N. COPERNICUS UNIVERSITY AND JACKSON STATE UNIVERSITY:
          MARIA BARYSZ
     UNIVERSITY OF COPENHAGEN: Jimmy Kromann, CASPER STEINMANN
     TOKYO INSTITUTE OF TECHNOLOGY: HIROYA NAKATA
     NAGOYA UNIVERSITY: YOSHIO NISHIMOTO, STEPHAN IRLE
     MOSCOW STATE UNIVERSITY: VLADIMIR MIRONOV

 EXECUTION OF GAMESS BEGUN Thu Oct 17 23:41:35 2019

            ECHO OF THE FIRST FEW INPUT CARDS -
 INPUT CARD> $CONTRL SCFTYP=RHF DFTTYP=B3LYP RUNTYP=ENERGY                                  
 INPUT CARD>       ISPHER=1 MULT=1 COORD=ZMT NZVAR=15 $END                                  
 INPUT CARD> $BASIS GBASIS=N31 NGAUSS=6 NDFUNC=1 $END                                       
 INPUT CARD> $STATPT IFREEZ(1)=9 $END                                                       
 INPUT CARD> $DATA                                                                          
 INPUT CARD>Title Single Point Energy Calculation of Acetaldehyde                           
 INPUT CARD>C1                                                                              
 INPUT CARD>C                                                                               
 INPUT CARD>C      1   1.5086892                                                            
 INPUT CARD>O      2   1.2107245  1  124.7161                                               
 INPUT CARD>H      2   1.1145804  1  114.7739  3  180.0000  0                               
 INPUT CARD>H      1   1.0926781  2  110.5176  3  50.      0                                
 INPUT CARD>H      1   1.0983769  2  109.8265  3  121.4889  0                               
 INPUT CARD>H      1   1.0983769  2  109.8265  3 -121.4889  0                               
 INPUT CARD> $END                                                                           
    1000000 WORDS OF MEMORY AVAILABLE

     BASIS OPTIONS
     -------------
     GBASIS=N31          IGAUSS=       6      POLAR=POPN31  
     NDFUNC=       1     NFFUNC=       0     DIFFSP=       F
     NPFUNC=       0      DIFFS=       F     BASNAM=        


     RUN TITLE
     ---------
 Title Single Point Energy Calculation of Acetaldehyde                           

 THE POINT GROUP OF THE MOLECULE IS C1      
 THE ORDER OF THE PRINCIPAL AXIS IS     0

 YOUR FULLY SUBSTITUTED Z-MATRIX IS
 C   
 C      1   1.5086892
 O      2   1.2107245  1  124.7161
 H      2   1.1145804  1  114.7739  3  180.0000  0
 H      1   1.0926781  2  110.5176  3   50.0000  0
 H      1   1.0983769  2  109.8265  3  121.4889  0
 H      1   1.0983769  2  109.8265  3 -121.4889  0

 THE MOMENTS OF INERTIA ARE (AMU-ANGSTROM**2)
 IXX=     8.726   IYY=    51.049   IZZ=    55.723

 ATOM      ATOMIC                      COORDINATES (BOHR)
           CHARGE         X                   Y                   Z
 C           6.0    -2.3788223997        0.3227441230        0.1417798864
 C           6.0     0.2422797265       -0.7732255408       -0.0968150294
 O           8.0     2.1788461953        0.4356573195        0.0547461198
 H           1.0     0.3025951528       -2.8511629769       -0.4356861570
 H           1.0    -2.5897587424        1.9685092677       -1.0872924711
 H           1.0    -3.4646126199       -0.0670140169       -1.5837327283
 H           1.0    -3.3886367786       -0.6007230692        1.7024620638

          INTERNUCLEAR DISTANCES (ANGS.)
          ------------------------------

                1 C          2 C          3 O          4 H          5 H     

   1 C       0.0000000    1.5086892 *  2.4129941 *  2.2198436 *  1.0926781 *
   2 C       1.5086892 *  0.0000000    1.2107245 *  1.1145804 *  2.1507392 *
   3 O       2.4129941 *  1.2107245 *  0.0000000    2.0194911 *  2.7186262 *
   4 H       2.2198436 *  1.1145804 *  2.0194911 *  0.0000000    2.9943925 *
   5 H       1.0926781 *  2.1507392 *  2.7186262 *  2.9943925 *  0.0000000  
   6 H       1.0983769 *  2.1463151 *  3.1210656    2.5522231 *  1.2014978 *
   7 H       1.0983769 *  2.1463151 *  3.1210656    2.5522231 *  2.0509897 *

                6 H          7 H     

   1 C       1.0983769 *  1.0983769 *
   2 C       2.1463151 *  2.1463151 *
   3 O       3.1210656    3.1210656  
   4 H       2.5522231 *  2.5522231 *
   5 H       1.2014978 *  2.0509897 *
   6 H       0.0000000    1.7622233 *
   7 H       1.7622233 *  0.0000000  

  * ... LESS THAN  3.000


     ATOMIC BASIS SET
     ----------------
 THE CONTRACTED PRIMITIVE FUNCTIONS HAVE BEEN UNNORMALIZED
 THE CONTRACTED BASIS FUNCTIONS ARE NOW NORMALIZED TO UNITY

  SHELL TYPE  PRIMITIVE        EXPONENT          CONTRACTION COEFFICIENT(S)

 C         

      1   S       1          3047.5248800    0.001834737132
      1   S       2           457.3695180    0.014037322813
      1   S       3           103.9486850    0.068842622264
      1   S       4            29.2101553    0.232184443216
      1   S       5             9.2866630    0.467941348435
      1   S       6             3.1639270    0.362311985337

      2   L       7             7.8682723   -0.119332419775    0.068999066591
      2   L       8             1.8812885   -0.160854151696    0.316423960957
      2   L       9             0.5442493    1.143456437840    0.744308290898

      3   L      10             0.1687145    1.000000000000    1.000000000000

      4   D      11             0.8000000    1.000000000000

 C         

      5   S      12          3047.5248800    0.001834737132
      5   S      13           457.3695180    0.014037322813
      5   S      14           103.9486850    0.068842622264
      5   S      15            29.2101553    0.232184443216
      5   S      16             9.2866630    0.467941348435
      5   S      17             3.1639270    0.362311985337

      6   L      18             7.8682723   -0.119332419775    0.068999066591
      6   L      19             1.8812885   -0.160854151696    0.316423960957
      6   L      20             0.5442493    1.143456437840    0.744308290898

      7   L      21             0.1687145    1.000000000000    1.000000000000

      8   D      22             0.8000000    1.000000000000

 O         

      9   S      23          5484.6716600    0.001831074430
      9   S      24           825.2349460    0.013950172200
      9   S      25           188.0469580    0.068445078098
      9   S      26            52.9645000    0.232714335992
      9   S      27            16.8975704    0.470192897984
      9   S      28             5.7996353    0.358520852987

     10   L      29            15.5396162   -0.110777549525    0.070874268231
     10   L      30             3.5999336   -0.148026262701    0.339752839147
     10   L      31             1.0137618    1.130767015354    0.727158577316

     11   L      32             0.2700058    1.000000000000    1.000000000000

     12   D      33             0.8000000    1.000000000000

 H         

     13   S      34            18.7311370    0.033494604338
     13   S      35             2.8253944    0.234726953484
     13   S      36             0.6401217    0.813757326146

     14   S      37             0.1612778    1.000000000000

 H         

     15   S      38            18.7311370    0.033494604338
     15   S      39             2.8253944    0.234726953484
     15   S      40             0.6401217    0.813757326146

     16   S      41             0.1612778    1.000000000000

 H         

     17   S      42            18.7311370    0.033494604338
     17   S      43             2.8253944    0.234726953484
     17   S      44             0.6401217    0.813757326146

     18   S      45             0.1612778    1.000000000000

 H         

     19   S      46            18.7311370    0.033494604338
     19   S      47             2.8253944    0.234726953484
     19   S      48             0.6401217    0.813757326146

     20   S      49             0.1612778    1.000000000000

 TOTAL NUMBER OF BASIS SET SHELLS             =   20
 NUMBER OF CARTESIAN GAUSSIAN BASIS FUNCTIONS =   53
 NOTE: THIS RUN WILL RESTRICT THE MO VARIATION SPACE TO SPHERICAL HARMONICS.
 THE NUMBER OF ORBITALS KEPT IN THE VARIATIONAL SPACE WILL BE PRINTED LATER.
 NUMBER OF ELECTRONS                          =   24
 CHARGE OF MOLECULE                           =    0
 SPIN MULTIPLICITY                            =    1
 NUMBER OF OCCUPIED ORBITALS (ALPHA)          =   12
 NUMBER OF OCCUPIED ORBITALS (BETA )          =   12
 TOTAL NUMBER OF ATOMS                        =    7
 THE NUCLEAR REPULSION ENERGY IS       69.4906524675

     LEBEDEV GRID-BASED DFT OPTIONS
     ------------------------------
     DFTTYP=B3LYP   
     NRAD  =      96     NLEB  =     302
     NRAD0 =      24     NLEB0 =     110
     SWOFF =    5.00E-03 (PURE SCF -> DFT)
     SWITCH=    3.00E-04 (COARSE -> TIGHT GRID)
     THRESH=    0.00E+00 GTHRE=    1.00E+00

 GRIMME'S EMPIRICAL DISPERSION CORRECTION= F

     $CONTRL OPTIONS
     ---------------
 SCFTYP=RHF          RUNTYP=ENERGY       EXETYP=RUN     
 MPLEVL=       0     CITYP =NONE         CCTYP =NONE         VBTYP =NONE    
 DFTTYP=B3LYP        TDDFT =NONE    
 MULT  =       1     ICHARG=       0     NZVAR =      15     COORD =ZMT     
 PP    =NONE         RELWFN=NONE         LOCAL =NONE         NUMGRD=       F
 ISPHER=       1     NOSYM =       0     MAXIT =      30     UNITS =ANGS    
 PLTORB=       F     MOLPLT=       F     AIMPAC=       F     FRIEND=        
 NPRINT=       7     IREST =       0     GEOM  =INPUT   
 NORMF =       0     NORMP =       0     ITOL  =      20     ICUT  =       9
 INTTYP=BEST         GRDTYP=BEST         QMTTOL= 1.0E-06

     $SYSTEM OPTIONS
     ---------------
  REPLICATED MEMORY=     1000000 WORDS (ON EVERY NODE).
 DISTRIBUTED MEMDDI=           0 MILLION WORDS IN AGGREGATE,
 MEMDDI DISTRIBUTED OVER   1 PROCESSORS IS           0 WORDS/PROCESSOR.
 TOTAL MEMORY REQUESTED ON EACH PROCESSOR=     1000000 WORDS.
 TIMLIM=      525600.00 MINUTES, OR     365.0 DAYS.
 PARALL= F  BALTYP=  DLB     KDIAG=    0  COREFL= F
 MXSEQ2=     300 MXSEQ3=     150  mem10=         0

          ----------------
          PROPERTIES INPUT
          ----------------

     MOMENTS            FIELD           POTENTIAL          DENSITY
 IEMOM =       1   IEFLD =       0   IEPOT =       0   IEDEN =       0
 WHERE =COMASS     WHERE =NUCLEI     WHERE =NUCLEI     WHERE =NUCLEI  
 OUTPUT=BOTH       OUTPUT=BOTH       OUTPUT=BOTH       OUTPUT=BOTH    
 IEMINT=       0   IEFINT=       0                     IEDINT=       0
                                                       MORB  =       0
          EXTRAPOLATION IN EFFECT
          DIIS IN EFFECT
 ORBITAL PRINTING OPTION: NPREO=     1    53     2     1

     -------------------------------
     INTEGRAL TRANSFORMATION OPTIONS
     -------------------------------
     NWORD  =            0
     CUTOFF = 1.0E-09     MPTRAN =       0
     DIRTRF =       F     AOINTS =DUP     

          ----------------------
          INTEGRAL INPUT OPTIONS
          ----------------------
 NOPK  =       1 NORDER=       0 SCHWRZ=       T

   --- ENCODED Z MATRIX ---
 COORD  TYPE   I   J   K   L   M   N
    1      1    2   1
    2      1    3   2
    3      2    3   2   1
    4      1    4   2
    5      2    4   2   1
    6      3    4   2   1   3
    7      1    5   1
    8      2    5   1   2
    9      3    5   1   2   3
   10      1    6   1
   11      2    6   1   2
   12      3    6   1   2   3
   13      1    7   1
   14      2    7   1   2
   15      3    7   1   2   3

 THE DETERMINANT OF THE G MATRIX IS 10**(    -8)


                     --------------------
                     INTERNAL COORDINATES
                     --------------------

                 - - ATOMS - -         COORDINATE      COORDINATE
 NO.   TYPE    I  J  K  L  M  N        (BOHR,RAD)       (ANG,DEG)
 ----------------------------------------------------------------
   1 STRETCH   2  1                     2.8510092       1.5086892
   2 STRETCH   3  2                     2.2879376       1.2107245
   3 BEND      3  2  1                  2.1767066     124.7161000
   4 STRETCH   4  2                     2.1062515       1.1145804
   5 BEND      4  2  1                  2.0031825     114.7739000
   6 TORSION   4  2  1  3               3.1415927     180.0000000
   7 STRETCH   5  1                     2.0648622       1.0926781
   8 BEND      5  1  2                  1.9288960     110.5176000
   9 TORSION   5  1  2  3               0.8726646      50.0000000
  10 STRETCH   6  1                     2.0756314       1.0983769
  11 BEND      6  1  2                  1.9168340     109.8265000
  12 TORSION   6  1  2  3               2.1203813     121.4889000
  13 STRETCH   7  1                     2.0756314       1.0983769
  14 BEND      7  1  2                  1.9168340     109.8265000
  15 TORSION   7  1  2  3              -2.1203813    -121.4889000

     ------------------------------------------
     THE POINT GROUP IS C1 , NAXIS= 0, ORDER= 1
     ------------------------------------------

 -- VARIATIONAL SPACE WILL BE RESTRICTED TO PURE SPHERICAL HARMONICS ONLY --
 AFTER EXCLUDING CONTAMINANT COMBINATIONS FROM THE CARTESIAN GAUSSIAN BASIS
 SET, THE NUMBER OF SPHERICAL HARMONICS KEPT IN THE VARIATION SPACE IS   50

     DIMENSIONS OF THE SYMMETRY SUBSPACES ARE
 A   =   50

 ..... DONE SETTING UP THE RUN .....
 STEP CPU TIME =     0.02 TOTAL CPU TIME =          0.0 (      0.0 MIN)
 TOTAL WALL CLOCK TIME=          0.0 SECONDS, CPU UTILIZATION IS   100.00%

          ********************
          1 ELECTRON INTEGRALS
          ********************
 ...... END OF ONE-ELECTRON INTEGRALS ......
 STEP CPU TIME =     0.00 TOTAL CPU TIME =          0.0 (      0.0 MIN)
 TOTAL WALL CLOCK TIME=          0.0 SECONDS, CPU UTILIZATION IS   100.00%

          -------------
          GUESS OPTIONS
          -------------
          GUESS =HUCKEL            NORB  =       0          NORDER=       0
          MIX   =       F          PRTMO =       F          PUNMO =       F
          TOLZ  = 1.0E-08          TOLE  = 1.0E-05
          SYMDEN=       F          PURIFY=       F

 INITIAL GUESS ORBITALS GENERATED BY HUCKEL   ROUTINE.
 HUCKEL GUESS REQUIRES     27154 WORDS.

 STATISTICS FOR GENERATION OF SYMMETRY ORBITAL -Q- MATRIX
 NUMBER OF CARTESIAN ATOMIC ORBITALS=         53
 NUMBER OF SPHERICAL CONTAMINANTS DROPPED=     3
 NUMBER OF LINEARLY DEPENDENT MOS DROPPED=     0
 TOTAL NUMBER OF MOS IN VARIATION SPACE=      50

 SYMMETRIES FOR INITIAL GUESS ORBITALS FOLLOW.   BOTH SET(S).
    12 ORBITALS ARE OCCUPIED (    3 CORE ORBITALS).
     4=A        5=A        6=A        7=A        8=A        9=A       10=A   
    11=A       12=A       13=A       14=A       15=A       16=A       17=A   
    18=A       19=A       20=A       21=A       22=A   
 ...... END OF INITIAL ORBITAL SELECTION ......
 STEP CPU TIME =     0.00 TOTAL CPU TIME =          0.0 (      0.0 MIN)
 TOTAL WALL CLOCK TIME=          0.0 SECONDS, CPU UTILIZATION IS    66.67%

                    ----------------------
                    AO INTEGRAL TECHNOLOGY
                    ----------------------
     S,P,L SHELL ROTATED AXIS INTEGRALS, REPROGRAMMED BY
        KAZUYA ISHIMURA (IMS) AND JOSE SIERRA (SYNSTAR).
     S,P,D,L SHELL ROTATED AXIS INTEGRALS PROGRAMMED BY
        KAZUYA ISHIMURA (INSTITUTE FOR MOLECULAR SCIENCE).
     S,P,D,F,G SHELL TO TOTAL QUARTET ANGULAR MOMENTUM SUM 5,
        ERIC PROGRAM BY GRAHAM FLETCHER (ELORET AND NASA ADVANCED
        SUPERCOMPUTING DIVISION, AMES RESEARCH CENTER).
     S,P,D,F,G,L SHELL GENERAL RYS QUADRATURE PROGRAMMED BY
        MICHEL DUPUIS (PACIFIC NORTHWEST NATIONAL LABORATORY).

          --------------------
          2 ELECTRON INTEGRALS
          --------------------

 THE -PK- OPTION IS OFF, THE INTEGRALS ARE NOT IN SUPERMATRIX FORM.
 STORING   15000 INTEGRALS/RECORD ON DISK, USING 12 BYTES/INTEGRAL.
 TWO ELECTRON INTEGRAL EVALUATION REQUIRES   90606 WORDS OF MEMORY.
 SCHWARZ INEQUALITY OVERHEAD:      1430 INTEGRALS, T=        0.00
 II,JST,KST,LST =  1  1  1  1 NREC =         1 INTLOC =    1
 II,JST,KST,LST =  2  1  1  1 NREC =         1 INTLOC =    2
 II,JST,KST,LST =  3  1  1  1 NREC =         1 INTLOC =   34
 II,JST,KST,LST =  4  1  1  1 NREC =         1 INTLOC =  214
 II,JST,KST,LST =  5  1  1  1 NREC =         1 INTLOC = 1189
 II,JST,KST,LST =  6  1  1  1 NREC =         1 INTLOC = 3237
 II,JST,KST,LST =  7  1  1  1 NREC =         2 INTLOC =  986
 II,JST,KST,LST =  8  1  1  1 NREC =         3 INTLOC = 8245
 II,JST,KST,LST =  9  1  1  1 NREC =         7 INTLOC = 6182
 II,JST,KST,LST = 10  1  1  1 NREC =         8 INTLOC = 3673
 II,JST,KST,LST = 11  1  1  1 NREC =        13 INTLOC = 1317
 II,JST,KST,LST = 12  1  1  1 NREC =        20 INTLOC =   80
 II,JST,KST,LST = 13  1  1  1 NREC =        34 INTLOC =11167
 II,JST,KST,LST = 14  1  1  1 NREC =        37 INTLOC =14145
 II,JST,KST,LST = 15  1  1  1 NREC =        41 INTLOC = 5729
 II,JST,KST,LST = 16  1  1  1 NREC =        44 INTLOC =14514
 II,JST,KST,LST = 17  1  1  1 NREC =        48 INTLOC =12930
 II,JST,KST,LST = 18  1  1  1 NREC =        52 INTLOC =12141
 II,JST,KST,LST = 19  1  1  1 NREC =        57 INTLOC = 2902
 II,JST,KST,LST = 20  1  1  1 NREC =        61 INTLOC = 9600
 SCHWARZ INEQUALITY TEST SKIPPED         791 INTEGRAL BLOCKS.
 TOTAL NUMBER OF NONZERO TWO-ELECTRON INTEGRALS =              983396
         66 INTEGRAL RECORDS WERE STORED ON DISK FILE  8.
  ...... END OF TWO-ELECTRON INTEGRALS .....
 STEP CPU TIME =     0.11 TOTAL CPU TIME =          0.1 (      0.0 MIN)
 TOTAL WALL CLOCK TIME=          0.1 SECONDS, CPU UTILIZATION IS   100.00%

          --------------------------
             R-B3LYP SCF CALCULATION
          --------------------------

     NUCLEAR ENERGY =        69.4906524675
     MAXIT =   30     NPUNCH=    2
     EXTRAP=T  DAMP=F  SHIFT=F  RSTRCT=F  DIIS=T  DEM=F  SOSCF=F
         DENSITY MATRIX CONVERGENCE THRESHOLD=  1.00E-05
     COARSE -> FINE DFT GRID SWITCH THRESHOLD=  3.00E-04 (SWITCH IN $DFT)
                   HF -> DFT SWITCH THRESHOLD=  5.00E-03 (SWOFF IN $DFT)
     MEMORY REQUIRED FOR RHF ITERS=    307426 WORDS.

 DFT CODE IS SWITCHING FROM THE FINE GRID NRAD= 96,  NLEB=  302
                      TO THE COARSE GRID NRAD0= 24, NLEB0=  110

     EXCHANGE FUNCTIONAL   =B88&HFX   
     CORRELATION FUNCTIONAL=LYP88&VWN5
     DFT THRESHOLD         =.197E-07
     GRID CHANGE THRESHOLD =.300E-03
 FOR AN EULER-MACLAURIN QUADRATURE USING  96 RADIAL POINTS:
 SMALLEST GAUSSIAN PRIMITIVE EXPONENT=        0.1612777588 OF TYPE -S-
 ON ATOM NUMBER   4 HAS RADIAL NORMALIZATION=  1.000000
  LARGEST GAUSSIAN PRIMITIVE EXPONENT=     5484.6716600000 OF TYPE -S-
 ON ATOM NUMBER   3 HAS RADIAL NORMALIZATION=  1.000000
 DFT IS SWITCHED OFF, PERFORMING PURE SCF UNTIL SWOFF THRESHOLD IS REACHED.

 ITER EX DEM     TOTAL ENERGY        E CHANGE  DENSITY CHANGE    DIIS ERROR
   1  0  0     -152.3749760272  -152.3749760272   0.256887956   0.529057264
          * * *   INITIATING DIIS PROCEDURE   * * *
   2  1  0     -152.7826387639    -0.4076627367   0.141738921   0.091718348
   3  2  0     -152.8131641820    -0.0305254182   0.071688274   0.084607939
   4  3  0     -152.8371089711    -0.0239447891   0.011374896   0.006532647
   5  4  0     -152.8378257543    -0.0007167832   0.004531508   0.003053291
 CONVERGED TO SWOFF, SO DFT CALCULATION IS NOW SWITCHED ON.
          * * *   INITIATING DIIS PROCEDURE   * * *
   6  5  0     -153.6579722446    -0.8201464903   0.079226792   0.050615549
   7  6  0     -153.6683854364    -0.0104131918   0.054898757   0.025547539
   8  7  0     -153.6661831304     0.0022023060   0.042083363   0.034081839
   9  8  0     -153.6718229275    -0.0056397971   0.008087162   0.009070984
  10  9  0     -153.6720423824    -0.0002194549   0.001076131   0.000732214
  11 10  0     -153.6720460523    -0.0000036699   0.000269697   0.000209131
 DFT CODE IS SWITCHING BACK TO THE FINE GRID
          * * *   INITIATING DIIS PROCEDURE   * * *
  12 11  0     -153.6707608487     0.0012852036   0.002159531   0.001787586
  13 12  0     -153.6707688865    -0.0000080379   0.000757146   0.000240296
  14 13  0     -153.6707684943     0.0000003922   0.000446627   0.000379579
  15 14  0     -153.6707691788    -0.0000006845   0.000062345   0.000041035
  16 15  0     -153.6707691856    -0.0000000068   0.000018629   0.000016559
  17 16  0     -153.6707691864    -0.0000000008   0.000005127   0.000003970
  18 17  0     -153.6707691865    -0.0000000001   0.000001002   0.000000824

          -----------------
          DENSITY CONVERGED
          -----------------
     TIME TO FORM FOCK OPERATORS=       4.5 SECONDS (       0.3 SEC/ITER)
     TIME TO SOLVE SCF EQUATIONS=       0.0 SECONDS (       0.0 SEC/ITER)

 FINAL R-B3LYP ENERGY IS     -153.6707691865 AFTER  18 ITERATIONS
 DFT EXCHANGE + CORRELATION ENERGY =       -16.8169658602
 TOTAL ELECTRON NUMBER             =        23.9999589639

          ------------
          EIGENVECTORS
          ------------

                      1          2          3          4          5
                  -19.1420   -10.2715   -10.1878    -1.0407    -0.7665
                     A          A          A          A          A   
    1  C  1  S    0.000005   0.000967   0.995179  -0.018038  -0.180205
    2  C  1  S   -0.000364  -0.000963   0.036530   0.034379   0.348550
    3  C  1  X   -0.000251  -0.000943  -0.000075   0.024822   0.003829
    4  C  1  Y    0.000120   0.000388  -0.000436  -0.004394  -0.021652
    5  C  1  Z   -0.000038   0.000001  -0.000904  -0.003656  -0.073386
    6  C  1  S    0.000167   0.005383  -0.029613   0.017595   0.298227
    7  C  1  X   -0.001227   0.002727  -0.001057   0.005229  -0.005670
    8  C  1  Y   -0.001945  -0.002075   0.001878   0.007296  -0.007059
    9  C  1  Z    0.000347  -0.000120   0.003153  -0.002579  -0.029191
   10  C  1 XX   -0.000366  -0.000999   0.000008   0.004769  -0.003164
   11  C  1 YY    0.000342   0.000310   0.000009  -0.002825  -0.005904
   12  C  1 ZZ    0.000024   0.000689  -0.000017  -0.001943   0.009068
   13  C  1 XY   -0.000174   0.000684  -0.000003  -0.001844  -0.003101
   14  C  1 XZ   -0.000051   0.000157  -0.000048  -0.000535   0.003829
   15  C  1 YZ    0.000108  -0.000154  -0.000224  -0.000905  -0.012468
   16  C  2  S    0.000230   0.995148  -0.000922  -0.117381  -0.068962
   17  C  2  S    0.000032   0.035749  -0.001187   0.224058   0.138124
   18  C  2  X   -0.000048   0.001707   0.000466   0.154837  -0.166514
   19  C  2  Y   -0.000233   0.001334  -0.000419   0.100329  -0.005344
   20  C  2  Z   -0.000034   0.000192  -0.000088   0.012380  -0.004179
   21  C  2  S    0.009012  -0.016075   0.006357   0.084737   0.103378
   22  C  2  X    0.005216   0.005838  -0.004117  -0.013133  -0.032901
   23  C  2  Y    0.005326   0.002522   0.001514  -0.017765  -0.009843
   24  C  2  Z    0.000583   0.000227  -0.000263  -0.002307   0.000146
   25  C  2 XX   -0.000532   0.001319  -0.000890   0.016332   0.003831
   26  C  2 YY    0.000263  -0.000145   0.000454  -0.001201   0.000586
   27  C  2 ZZ    0.000269  -0.001174   0.000436  -0.015131  -0.004417
   28  C  2 XY   -0.000800   0.001283   0.000694   0.022604  -0.012932
   29  C  2 XZ   -0.000086   0.000148   0.000241   0.002698  -0.001638
   30  C  2 YZ   -0.000001   0.000164  -0.000059   0.002018   0.000571
   31  O  3  S    0.995116  -0.000048  -0.000021  -0.194476   0.048512
   32  O  3  S    0.029459   0.000457  -0.000527   0.429222  -0.111539
   33  O  3  X   -0.001952   0.000960   0.000153  -0.138946  -0.011220
   34  O  3  Y   -0.001200   0.000540  -0.000018  -0.085926   0.016084
   35  O  3  Z   -0.000171   0.000057  -0.000054  -0.011176   0.000765
   36  O  3  S   -0.019549  -0.005880   0.001195   0.375393  -0.110946
   37  O  3  X    0.005108   0.003667  -0.000257  -0.041331  -0.009888
   38  O  3  Y    0.002779   0.002733  -0.000578  -0.024125   0.002367
   39  O  3  Z    0.000391   0.000384   0.000134  -0.003612  -0.000877
   40  O  3 XX   -0.000185  -0.001095  -0.000005   0.005887   0.002781
   41  O  3 YY    0.000109  -0.000009   0.000233  -0.002916  -0.001471
   42  O  3 ZZ    0.000077   0.001104  -0.000228  -0.002971  -0.001310
   43  O  3 XY   -0.000118  -0.001512   0.000095   0.010072  -0.000133
   44  O  3 XZ   -0.000018  -0.000188  -0.000012   0.001542   0.000123
   45  O  3 YZ    0.000002  -0.000176   0.000068  -0.000189   0.000105
   46  H  4  S   -0.000221  -0.000977  -0.000434   0.027966   0.044033
   47  H  4  S    0.001248   0.004929   0.000753  -0.011633   0.005405
   48  H  5  S    0.000133  -0.000394  -0.000679   0.007618   0.138410
   49  H  5  S    0.000662   0.000834   0.004231  -0.001419   0.032601
   50  H  6  S    0.000035  -0.000431  -0.000417   0.006377   0.147983
   51  H  6  S   -0.000544   0.000527   0.005537  -0.000762   0.034101
   52  H  7  S   -0.000105  -0.000497  -0.000914   0.005527   0.102704
   53  H  7  S   -0.000824   0.000568   0.004607   0.001386   0.025765

                      6          7          8          9         10
                   -0.5888    -0.4917    -0.4707    -0.4232    -0.3738
                     A          A          A          A          A   
    1  C  1  S    0.044394  -0.046013   0.005707   0.006783   0.003323
    2  C  1  S   -0.090395   0.089205  -0.008778  -0.019280  -0.005353
    3  C  1  X    0.161332   0.011685   0.279181   0.189651   0.057956
    4  C  1  Y   -0.130446  -0.175281   0.073665  -0.057540   0.127324
    5  C  1  Z    0.104233   0.329193  -0.049549  -0.099783  -0.061105
    6  C  1  S   -0.099352   0.123075  -0.015287   0.002348  -0.009610
    7  C  1  X    0.050279  -0.004626   0.121092   0.098300   0.029637
    8  C  1  Y   -0.037336  -0.075126   0.048442  -0.043993   0.070502
    9  C  1  Z    0.036953   0.136715  -0.026660  -0.045660  -0.025058
   10  C  1 XX    0.009724   0.006999   0.009791   0.000969  -0.002624
   11  C  1 YY    0.002282  -0.001321  -0.001675   0.002720   0.004242
   12  C  1 ZZ   -0.012006  -0.005678  -0.008115  -0.003689  -0.001618
   13  C  1 XY   -0.007912   0.006990  -0.006274  -0.009024  -0.007138
   14  C  1 XZ   -0.009722  -0.013904  -0.003457  -0.001827   0.012238
   15  C  1 YZ    0.009316  -0.004251   0.001347   0.008121  -0.005398
   16  C  2  S   -0.138622   0.030608  -0.038298   0.011777  -0.001804
   17  C  2  S    0.290685  -0.067563   0.089933  -0.037244   0.002635
   18  C  2  X   -0.079399  -0.116257  -0.120257  -0.345276  -0.023557
   19  C  2  Y   -0.182510   0.113431   0.342054  -0.097826  -0.099449
   20  C  2  Z   -0.002001   0.145649   0.032043  -0.079438   0.317363
   21  C  2  S    0.265535  -0.063314   0.049817   0.012964   0.018177
   22  C  2  X   -0.049757  -0.026968  -0.060583  -0.061420   0.002855
   23  C  2  Y   -0.079019   0.047375   0.091022  -0.002201  -0.049993
   24  C  2  Z   -0.005017   0.063259   0.001723  -0.040968   0.193819
   25  C  2 XX   -0.008222   0.004860  -0.001843  -0.009021  -0.003859
   26  C  2 YY    0.011999  -0.007934   0.000441   0.007264   0.001003
   27  C  2 ZZ   -0.003778   0.003074   0.001402   0.001756   0.002856
   28  C  2 XY   -0.005602   0.001708   0.000235  -0.010766  -0.008826
   29  C  2 XZ   -0.003125  -0.004542   0.000365  -0.002378   0.023212
   30  C  2 YZ    0.004352   0.003408  -0.001401  -0.001636   0.013680
   31  O  3  S    0.071224  -0.028568   0.042517  -0.069387  -0.005251
   32  O  3  S   -0.168391   0.064918  -0.098639   0.150639   0.010179
   33  O  3  X   -0.069008   0.032517  -0.279766   0.348363   0.076412
   34  O  3  Y   -0.097853   0.118372   0.109907   0.321180  -0.049139
   35  O  3  Z   -0.001897   0.103235   0.003997  -0.028263   0.478353
   36  O  3  S   -0.193457   0.103156  -0.147456   0.296835   0.026691
   37  O  3  X   -0.044665   0.015149  -0.153879   0.179723   0.042977
   38  O  3  Y   -0.051794   0.060208   0.061697   0.173651  -0.031254
   39  O  3  Z   -0.000825   0.054276   0.003018  -0.017140   0.298747
   40  O  3 XX    0.001610   0.003148   0.020247  -0.007407  -0.003144
   41  O  3 YY    0.003621  -0.005142  -0.014638  -0.003649   0.005726
   42  O  3 ZZ   -0.005230   0.001994  -0.005609   0.011056  -0.002581
   43  O  3 XY    0.008639  -0.006167  -0.001259  -0.017561   0.001932
   44  O  3 XZ    0.000012  -0.007315   0.000558   0.001919  -0.025993
   45  O  3 YZ    0.000927  -0.004808  -0.001057   0.000124  -0.015773
   46  H  4  S    0.192543  -0.101634  -0.141334   0.047646   0.034390
   47  H  4  S    0.085604  -0.062463  -0.122325   0.053190   0.030108
   48  H  5  S   -0.139809  -0.151081   0.018616  -0.022853   0.093644
   49  H  5  S   -0.070011  -0.087011   0.014913  -0.007284   0.073107
   50  H  6  S   -0.119044  -0.112569  -0.082015  -0.016317   0.001620
   51  H  6  S   -0.058173  -0.086377  -0.067048  -0.012135  -0.000287
   52  H  7  S   -0.014133   0.225142  -0.128670  -0.107278  -0.095557
   53  H  7  S   -0.004768   0.142291  -0.081826  -0.086431  -0.083017

                     11         12         13         14         15
                   -0.3120    -0.2495    -0.0201     0.0822     0.1130
                     A          A          A          A          A   
    1  C  1  S   -0.029002   0.036809   0.010013  -0.132668   0.033920
    2  C  1  S    0.065788  -0.072305  -0.003759   0.168019  -0.008704
    3  C  1  X    0.095040  -0.209996   0.009083  -0.150655   0.164323
    4  C  1  Y    0.371707   0.088621  -0.022909   0.127308   0.162283
    5  C  1  Z    0.227708   0.037914  -0.011370   0.024263   0.260352
    6  C  1  S    0.083125  -0.272764  -0.138319   1.975095  -0.828557
    7  C  1  X    0.035601  -0.159807  -0.006198  -0.433083   0.333931
    8  C  1  Y    0.205638   0.083504  -0.092414   0.296369   0.312404
    9  C  1  Z    0.142945   0.051748   0.107584  -0.059836   0.831166
   10  C  1 XX   -0.006067  -0.002917   0.001296   0.010561   0.010492
   11  C  1 YY    0.013856   0.003733   0.001944  -0.009217  -0.014357
   12  C  1 ZZ   -0.007789  -0.000815  -0.003240  -0.001345   0.003865
   13  C  1 XY   -0.006096   0.005398  -0.006723  -0.001808   0.006614
   14  C  1 XZ   -0.014953   0.002326   0.031830   0.014345   0.004923
   15  C  1 YZ   -0.023907  -0.002277  -0.006211   0.010239   0.021798
   16  C  2  S    0.003698   0.000800  -0.002103   0.003214   0.023920
   17  C  2  S   -0.014042  -0.015219   0.004939   0.035474  -0.073896
   18  C  2  X    0.016822   0.082742   0.002107   0.011310   0.010614
   19  C  2  Y   -0.087146  -0.122787  -0.077639  -0.019406   0.157723
   20  C  2  Z   -0.047011  -0.018349   0.500529  -0.012880  -0.027042
   21  C  2  S    0.046399   0.041146   0.022837  -0.112281  -0.139707
   22  C  2  X    0.044395  -0.068762  -0.000982   0.063769   0.071908
   23  C  2  Y   -0.011024   0.034778  -0.080782  -0.045085   0.446396
   24  C  2  Z   -0.024531   0.009415   0.540453   0.001148  -0.163242
   25  C  2 XX   -0.008260  -0.039310   0.000148  -0.000586  -0.007017
   26  C  2 YY    0.009541   0.040384   0.003695   0.006910   0.001049
   27  C  2 ZZ   -0.001281  -0.001074  -0.003843  -0.006324   0.005968
   28  C  2 XY   -0.014104   0.018409   0.004246  -0.007402  -0.012199
   29  C  2 XZ   -0.014792   0.002880  -0.023870  -0.003355  -0.005906
   30  C  2 YZ   -0.001563   0.006883  -0.016915   0.009738   0.012842
   31  O  3  S    0.002117   0.000484  -0.000400  -0.002940   0.015069
   32  O  3  S   -0.005407  -0.003789   0.000866   0.008043  -0.026849
   33  O  3  X    0.133102  -0.302067  -0.010788  -0.015307   0.067661
   34  O  3  Y   -0.025222   0.485693   0.064166   0.035808  -0.041473
   35  O  3  Z   -0.147087   0.071877  -0.425439  -0.016592   0.013831
   36  O  3  S   -0.030116   0.011904   0.002820   0.024911  -0.228798
   37  O  3  X    0.091360  -0.216089  -0.010822  -0.033921   0.146790
   38  O  3  Y   -0.008213   0.343447   0.066772   0.025854  -0.049885
   39  O  3  Z   -0.101908   0.049330  -0.442662  -0.004179   0.064102
   40  O  3 XX   -0.006850   0.013849  -0.000113   0.003203  -0.002604
   41  O  3 YY    0.005133  -0.013517  -0.000024  -0.000798   0.000805
   42  O  3 ZZ    0.001716  -0.000332   0.000137  -0.002405   0.001799
   43  O  3 XY   -0.001882  -0.007884   0.000254   0.001305  -0.005477
   44  O  3 XZ    0.005964  -0.000998  -0.000342  -0.001149  -0.004618
   45  O  3 YZ    0.004837  -0.002276  -0.000532   0.003165   0.003072
   46  H  4  S    0.067442   0.180998  -0.007463   0.051599   0.025838
   47  H  4  S    0.074350   0.292627  -0.019079   0.043677   0.669979
   48  H  5  S    0.182565   0.030077   0.022347  -0.130287  -0.144745
   49  H  5  S    0.257734   0.079795   0.147947  -1.271869  -0.354356
   50  H  6  S   -0.226155   0.013153   0.097439   0.052046   0.128550
   51  H  6  S   -0.304712   0.043001   0.232306  -0.442108   1.787022
   52  H  7  S    0.039631   0.040027  -0.094448  -0.119623  -0.065297
   53  H  7  S    0.055400   0.070515  -0.236834  -1.086735  -0.173020

                     16         17         18         19         20
                    0.1352     0.1742     0.2577     0.2879     0.5236
                     A          A          A          A          A   
    1  C  1  S    0.043419   0.034959  -0.075381  -0.024627   0.009953
    2  C  1  S   -0.024447  -0.058771   0.042543   0.048974  -0.001065
    3  C  1  X   -0.124323   0.045841   0.125047   0.187651  -0.365025
    4  C  1  Y   -0.009256   0.293359  -0.089478   0.127681   0.530236
    5  C  1  Z    0.196604  -0.252243   0.030311   0.049242   0.344241
    6  C  1  S   -0.779909  -0.421787   1.713686  -0.129582  -0.015606
    7  C  1  X   -0.459561   0.202490   1.664654   0.720776   0.379115
    8  C  1  Y    0.088781   1.187763  -0.605255   0.559824  -0.579883
    9  C  1  Z    0.763922  -1.032753  -0.017772   0.067058  -0.408179
   10  C  1 XX    0.008765   0.004876  -0.032124  -0.037241  -0.001524
   11  C  1 YY   -0.002006  -0.015898  -0.002472   0.028683   0.007916
   12  C  1 ZZ   -0.006759   0.011022   0.034596   0.008558  -0.006393
   13  C  1 XY   -0.013841  -0.003211   0.023923  -0.007437   0.004495
   14  C  1 XZ   -0.000151   0.007172  -0.000695  -0.000204  -0.025499
   15  C  1 YZ    0.008270   0.003953  -0.011577  -0.000962  -0.060643
   16  C  2  S   -0.111941  -0.057454   0.048733   0.063422  -0.038205
   17  C  2  S    0.151860   0.067603  -0.099075  -0.040011   0.043847
   18  C  2  X   -0.070641  -0.006816   0.386120   0.041637   0.010199
   19  C  2  Y   -0.249816  -0.068276  -0.296401  -0.265772   0.007817
   20  C  2  Z   -0.079175   0.012165  -0.046757  -0.067794   0.611207
   21  C  2  S    1.828350   0.966528  -0.866492  -1.775526  -0.084923
   22  C  2  X   -0.279477  -0.016056   1.822688  -1.441055  -0.041983
   23  C  2  Y   -0.512913  -0.332183  -0.730459  -1.449984   0.203398
   24  C  2  Z   -0.276919   0.248711  -0.204047  -0.208152  -0.587406
   25  C  2 XX   -0.004346  -0.015900  -0.003345   0.000002  -0.061689
   26  C  2 YY   -0.003871   0.006801   0.002239   0.009887   0.005479
   27  C  2 ZZ    0.008217   0.009099   0.001106  -0.009889   0.056210
   28  C  2 XY    0.002247  -0.013746  -0.009329  -0.000448   0.023047
   29  C  2 XZ   -0.002533   0.004073  -0.003729  -0.003753   0.007503
   30  C  2 YZ    0.004999  -0.006287   0.002720   0.008936  -0.003429
   31  O  3  S    0.010299   0.018448   0.031153  -0.098543   0.009684
   32  O  3  S   -0.025796  -0.042965  -0.046284   0.139842  -0.036024
   33  O  3  X    0.042632   0.074146  -0.059486  -0.151415   0.062749
   34  O  3  Y    0.074438   0.068841   0.141206  -0.067830   0.007277
   35  O  3  Z    0.042122  -0.041198   0.025834  -0.013426   0.036185
   36  O  3  S   -0.082574  -0.180428  -0.637081   2.025630  -0.038610
   37  O  3  X    0.046774   0.109184  -0.013870  -0.806872   0.083419
   38  O  3  Y    0.137338   0.121110   0.442886  -0.386820  -0.040520
   39  O  3  Z    0.087138  -0.073028   0.082425  -0.036954   0.040904
   40  O  3 XX   -0.005299  -0.001279  -0.012519   0.022911   0.011778
   41  O  3 YY   -0.001027  -0.001775   0.009643   0.003474  -0.007025
   42  O  3 ZZ    0.006326   0.003054   0.002876  -0.026384  -0.004753
   43  O  3 XY    0.002581  -0.001627  -0.012182   0.039458   0.018341
   44  O  3 XZ   -0.001419   0.002645  -0.002876   0.004645  -0.031692
   45  O  3 YZ   -0.000250  -0.000309   0.001540   0.007257  -0.026228
   46  H  4  S   -0.078375  -0.027299   0.009294   0.070768  -0.089176
   47  H  4  S   -1.603622  -0.699701  -0.796525  -0.629136   0.041811
   48  H  5  S   -0.033429  -0.050971   0.022492   0.080986   0.225525
   49  H  5  S    0.452194  -1.613817   0.015727  -0.507175  -0.249182
   50  H  6  S    0.016887   0.057757   0.098057  -0.002660  -0.192192
   51  H  6  S    0.601231   0.188776   0.236873   0.625638   0.116259
   52  H  7  S   -0.035819   0.006558   0.101010  -0.015139   0.248581
   53  H  7  S   -0.681510   1.753449  -0.014960   0.342184  -0.069680

                     21         22         23         24         25
                    0.5465     0.5730     0.6683     0.6801     0.7183
                     A          A          A          A          A   
    1  C  1  S    0.018941   0.012728  -0.010870  -0.039653  -0.015221
    2  C  1  S   -0.176009  -0.237286  -0.150106   0.015835  -0.009232
    3  C  1  X   -0.632857  -0.564872  -0.132383   0.274020   0.078911
    4  C  1  Y    0.289413  -0.263731   0.165233   0.177732   0.197625
    5  C  1  Z    0.093170  -0.407000  -0.279805  -0.186615   0.230031
    6  C  1  S   -0.079435  -0.336286   0.744518  -0.749121  -0.421394
    7  C  1  X    0.772225   0.694816   0.394561  -1.343074  -0.884949
    8  C  1  Y   -0.371378   0.487764  -0.494375  -0.530627  -0.419877
    9  C  1  Z   -0.024505   0.814448   0.856354   0.557416  -0.700940
   10  C  1 XX   -0.019655  -0.023978  -0.038036  -0.066006  -0.004371
   11  C  1 YY    0.001524  -0.019314   0.073385   0.071654   0.016363
   12  C  1 ZZ    0.018131   0.043292  -0.035349  -0.005648  -0.011992
   13  C  1 XY    0.005098   0.022663  -0.089150   0.041089   0.045787
   14  C  1 XZ    0.010586   0.036647   0.018487   0.022357  -0.015824
   15  C  1 YZ   -0.012370   0.058970   0.026637   0.026117   0.018898
   16  C  2  S   -0.037089  -0.007299   0.027727  -0.032936   0.036836
   17  C  2  S   -0.092762  -0.211704  -0.606197  -0.317337  -0.347142
   18  C  2  X    0.024194   0.113935  -0.526633   0.879577  -0.195247
   19  C  2  Y    0.196203  -0.166390  -0.063333  -0.131017  -0.868276
   20  C  2  Z   -0.695501   0.397198   0.067624  -0.024477  -0.181460
   21  C  2  S   -0.172681  -0.132280   0.376194   1.671753   0.443926
   22  C  2  X   -0.247232  -0.753618   1.000354  -1.174789  -0.138404
   23  C  2  Y   -0.167361   0.118821  -0.656168   1.051640   2.248648
   24  C  2  Z    0.827591  -0.703557  -0.478503   0.027329   0.616968
   25  C  2 XX   -0.072650  -0.037638   0.073398   0.014068   0.058927
   26  C  2 YY    0.000917  -0.003397  -0.098077  -0.075068   0.011207
   27  C  2 ZZ    0.071733   0.041035   0.024679   0.061000  -0.070133
   28  C  2 XY    0.042890   0.028098   0.123297  -0.032814   0.077088
   29  C  2 XZ   -0.000780   0.011877   0.004549  -0.008862   0.024408
   30  C  2 YZ   -0.026300   0.010609  -0.001827  -0.016279  -0.010082
   31  O  3  S    0.009484  -0.003763  -0.016387   0.042594  -0.011279
   32  O  3  S   -0.074154  -0.054909   0.064199  -0.161507   0.071129
   33  O  3  X    0.105482   0.130066  -0.342918   0.096320  -0.140568
   34  O  3  Y   -0.052133  -0.175031   0.036930   0.066096  -0.342874
   35  O  3  Z   -0.055879   0.004377   0.032961   0.026323  -0.058038
   36  O  3  S    0.171238   0.446593  -0.247453  -0.309923  -0.611080
   37  O  3  X    0.020201  -0.104688  -0.096970   0.480357   0.117829
   38  O  3  Y   -0.043522  -0.123577   0.043875   0.110199  -0.106267
   39  O  3  Z   -0.088047   0.081076   0.069746   0.029950  -0.069402
   40  O  3 XX    0.019434   0.009894  -0.066070  -0.024862  -0.106723
   41  O  3 YY   -0.024275  -0.003623  -0.000211   0.027332   0.039153
   42  O  3 ZZ    0.004841  -0.006271   0.066281  -0.002470   0.067570
   43  O  3 XY    0.000680  -0.001043  -0.077286   0.075918  -0.077569
   44  O  3 XZ    0.043353  -0.032158  -0.020849   0.008509   0.002211
   45  O  3 YZ    0.021893  -0.007499   0.000163   0.009492  -0.014455
   46  H  4  S   -0.108239   0.056298  -0.545212  -0.391578   0.098571
   47  H  4  S    0.028740   0.053953  -0.238425   0.616830   1.161887
   48  H  5  S    0.121663  -0.245480   0.117950  -0.033815  -0.202761
   49  H  5  S    0.120575   0.226483   0.178924   0.422457   0.096743
   50  H  6  S    0.108238   0.286950  -0.168547  -0.242903  -0.076148
   51  H  6  S    0.123211   0.066134   0.396321  -0.280596  -0.556322
   52  H  7  S    0.007612  -0.098717  -0.347015  -0.369378  -0.032443
   53  H  7  S   -0.095451   0.145869  -0.205559  -0.555206   0.037027

                     26         27         28         29         30
                    0.8014     0.8134     0.8604     0.8990     0.9162
                     A          A          A          A          A   
    1  C  1  S    0.033989  -0.017325  -0.018011   0.032271   0.043634
    2  C  1  S   -0.081773  -0.087456   0.190621  -0.226567  -1.301935
    3  C  1  X    0.000075  -0.228451   0.006372   0.013395   0.467258
    4  C  1  Y   -0.180547  -0.784439   0.113908  -0.255118   0.026108
    5  C  1  Z   -0.694574   0.563751  -0.072154   0.326506   0.152107
    6  C  1  S   -0.299056   0.017942  -0.692164   0.266919   2.131734
    7  C  1  X   -0.246628   0.270207  -0.376666   0.027736  -1.035473
    8  C  1  Y   -0.009065   2.283582  -0.030885   0.201748  -0.004288
    9  C  1  Z    1.389225  -1.913220   0.103033  -0.195788  -0.173091
   10  C  1 XX   -0.039958  -0.055465  -0.024560  -0.058899  -0.081691
   11  C  1 YY    0.046119   0.057825   0.012207   0.043876  -0.016281
   12  C  1 ZZ   -0.006161  -0.002360   0.012354   0.015022   0.097971
   13  C  1 XY    0.011745  -0.012294   0.039012  -0.079351   0.058480
   14  C  1 XZ   -0.097856  -0.085199  -0.019802   0.132462   0.051706
   15  C  1 YZ   -0.132674  -0.005448   0.003358  -0.053436  -0.060083
   16  C  2  S   -0.002028  -0.005389   0.050898   0.016660  -0.018143
   17  C  2  S    0.180590  -0.563686  -1.003156   0.712360  -0.841184
   18  C  2  X    0.014925   0.139798   0.143429   0.080865   0.025118
   19  C  2  Y   -0.173765   0.039060   0.527799  -0.067293   0.049237
   20  C  2  Z   -0.065966   0.004119   0.070969   0.014887   0.024419
   21  C  2  S    0.092475   1.041435   2.912539  -0.283463   1.296770
   22  C  2  X   -0.134417  -0.675882  -0.092533   0.211793  -0.390824
   23  C  2  Y    0.900177  -0.807763  -0.591671   0.659915  -0.132343
   24  C  2  Z   -0.050053   0.384188  -0.064306  -0.027077  -0.064206
   25  C  2 XX    0.023071   0.033548   0.004912   0.085319  -0.083815
   26  C  2 YY   -0.005018  -0.063590   0.096620  -0.042660   0.002799
   27  C  2 ZZ   -0.018053   0.030042  -0.101532  -0.042659   0.081016
   28  C  2 XY    0.022982   0.009886   0.091353   0.141663   0.016327
   29  C  2 XZ    0.017749   0.047618   0.027723  -0.070473  -0.024210
   30  C  2 YZ    0.011157  -0.068086   0.023358   0.065994   0.009972
   31  O  3  S    0.011745  -0.003896   0.024800   0.046880  -0.013501
   32  O  3  S   -0.032163  -0.021445  -0.079629  -0.209358   0.031646
   33  O  3  X   -0.019187   0.035859  -0.306783  -0.409817   0.123015
   34  O  3  Y   -0.090578   0.021916  -0.291976  -0.294544   0.057245
   35  O  3  Z   -0.166452  -0.162763  -0.059297   0.123322   0.007864
   36  O  3  S   -0.262137   0.315917  -0.542529  -0.377143   0.057341
   37  O  3  X    0.212626  -0.106453   0.670637   0.924362  -0.263392
   38  O  3  Y    0.014621   0.010032   0.491426   0.505749  -0.192639
   39  O  3  Z    0.173942   0.048528   0.072308  -0.058619  -0.005800
   40  O  3 XX   -0.016047  -0.009539   0.000460  -0.008431  -0.004737
   41  O  3 YY   -0.001959   0.012238  -0.049679  -0.001127  -0.027682
   42  O  3 ZZ    0.018006  -0.002699   0.049219   0.009558   0.032418
   43  O  3 XY   -0.006448  -0.013126  -0.067929  -0.009548  -0.019168
   44  O  3 XZ   -0.019880   0.007853  -0.009300  -0.003273  -0.004178
   45  O  3 YZ    0.016034  -0.028093  -0.020929   0.021387  -0.002007
   46  H  4  S    0.087576  -0.271840   0.717559  -0.043608  -0.005577
   47  H  4  S    0.516813  -0.301443  -1.700005   0.575718  -0.401730
   48  H  5  S    0.550791   0.135350  -0.110065   0.591184   0.308678
   49  H  5  S   -0.604979  -2.046317   0.194056  -0.715750  -0.596744
   50  H  6  S   -0.534862  -0.418299  -0.191502   0.373794   0.532486
   51  H  6  S    1.498423   0.316765   0.098052  -0.240749  -1.229520
   52  H  7  S    0.542222  -0.053006  -0.048586  -0.271357   0.380955
   53  H  7  S   -1.302379   1.349732  -0.090426   0.427094  -1.087931

                     31         32         33         34         35
                    0.9547     1.0080     1.0862     1.0987     1.5165
                     A          A          A          A          A   
    1  C  1  S    0.010042  -0.016105  -0.019809  -0.076747   0.007366
    2  C  1  S   -0.175081  -0.269610  -0.364069  -1.716262   0.127785
    3  C  1  X    0.101140  -0.023508  -0.111489  -0.050547   0.028681
    4  C  1  Y    0.196352   0.055333  -0.091904   0.094937   0.007043
    5  C  1  Z   -0.070199   0.092548   0.007258   0.029043   0.057575
    6  C  1  S    0.293303   0.915455   0.134848   5.422854  -0.332082
    7  C  1  X    0.037528   0.172255  -0.216517   1.228761  -0.111788
    8  C  1  Y    0.350086  -0.794015   0.048183  -0.728525  -0.212941
    9  C  1  Z   -0.284772   0.249708  -0.183976  -0.648312   0.075340
   10  C  1 XX   -0.030732   0.029625  -0.018880   0.059762  -0.052109
   11  C  1 YY   -0.072170   0.040913   0.019150   0.143954  -0.054626
   12  C  1 ZZ    0.102903  -0.070539  -0.000270  -0.203716   0.106735
   13  C  1 XY   -0.009217   0.005296   0.066932   0.071540  -0.029485
   14  C  1 XZ   -0.135915   0.104807  -0.032891  -0.126656  -0.032164
   15  C  1 YZ    0.081782   0.034443   0.029527   0.162849   0.147607
   16  C  2  S    0.004887   0.007344   0.002156   0.031654  -0.001128
   17  C  2  S    0.294323   0.218791   0.080696   0.732460   0.032381
   18  C  2  X    0.059750  -0.040601   0.126495  -0.101264  -0.016727
   19  C  2  Y    0.010720  -0.023942  -0.252749   0.121008   0.028264
   20  C  2  Z    0.022112   0.113436  -0.055015   0.000748  -0.179319
   21  C  2  S    0.005302  -0.924772  -0.403783  -3.264835   0.008942
   22  C  2  X   -0.217072   0.557674  -0.724409   1.847532   0.018682
   23  C  2  Y   -0.425010   0.327314   1.377723  -1.338589   0.190344
   24  C  2  Z   -0.022729  -0.689556   0.358247   0.041285   0.125421
   25  C  2 XX    0.071525  -0.040802  -0.134507  -0.006398   0.005963
   26  C  2 YY   -0.049606   0.048785   0.157299   0.115776  -0.178261
   27  C  2 ZZ   -0.021920  -0.007983  -0.022793  -0.109378   0.172298
   28  C  2 XY    0.071111  -0.001056   0.054457  -0.029663  -0.036823
   29  C  2 XZ    0.100970  -0.116247   0.051724   0.119773   0.396878
   30  C  2 YZ   -0.084955   0.073483   0.009256  -0.031173   0.510494
   31  O  3  S    0.018624   0.001565   0.003459   0.011262   0.002330
   32  O  3  S   -0.115040  -0.016227  -0.059179  -0.188776  -0.025379
   33  O  3  X   -0.397009   0.068060  -0.416166   0.114249   0.023378
   34  O  3  Y   -0.028465   0.169948   0.659245  -0.200001   0.022061
   35  O  3  Z   -0.383200  -0.791096   0.178071   0.098160  -0.125068
   36  O  3  S    0.167136  -0.085153   0.077435   0.427940  -0.039140
   37  O  3  X    0.571796  -0.095140   0.740694  -0.428026  -0.016471
   38  O  3  Y    0.215450  -0.260579  -1.225603   0.511320  -0.002886
   39  O  3  Z    0.436982   1.155670  -0.333505  -0.186596  -0.105929
   40  O  3 XX   -0.007947   0.022438   0.097413   0.056316  -0.036538
   41  O  3 YY    0.025982  -0.019817  -0.081479   0.067185  -0.000782
   42  O  3 ZZ   -0.018035  -0.002621  -0.015935  -0.123501   0.037319
   43  O  3 XY    0.007739  -0.008221  -0.056953  -0.004605   0.090726
   44  O  3 XZ    0.011362   0.025505  -0.017299  -0.019042  -0.483268
   45  O  3 YZ   -0.021915   0.048546  -0.027931  -0.016069  -0.142632
   46  H  4  S   -0.445879   0.239704   0.220947   0.100147   0.064677
   47  H  4  S    0.199292   0.009599   0.698648  -0.451121   0.087257
   48  H  5  S   -0.569268   0.182224  -0.049692  -0.257847   0.151651
   49  H  5  S    0.314749   0.304537  -0.188608  -0.377838   0.188637
   50  H  6  S    0.214995   0.017499  -0.158440  -0.463534   0.044623
   51  H  6  S   -0.396736  -0.337289  -0.067603  -0.443321  -0.086766
   52  H  7  S    0.598105  -0.445151  -0.084409  -0.239341  -0.060296
   53  H  7  S   -0.317857   0.100972  -0.052318  -0.397779   0.029828

                     36         37         38         39         40
                    1.6107     1.6236     1.7209     1.7711     1.8202
                     A          A          A          A          A   
    1  C  1  S    0.016659   0.006608  -0.000731  -0.032204   0.010497
    2  C  1  S    0.295058  -0.075334   0.442914  -0.558884  -0.234978
    3  C  1  X    0.053748  -0.121861   0.194050  -0.088186  -0.171965
    4  C  1  Y    0.011703  -0.021092  -0.106416   0.050296  -0.014198
    5  C  1  Z   -0.002841   0.019593  -0.002190   0.060129  -0.004575
    6  C  1  S   -0.837977  -0.305423  -0.435722   1.549055   0.053942
    7  C  1  X    0.007815   0.120766   0.226857   0.287726   0.320838
    8  C  1  Y    0.098477   0.906464   0.641057  -0.134457   0.271235
    9  C  1  Z    0.419012  -0.704237  -0.404459  -0.742878   0.056295
   10  C  1 XX   -0.178750   0.302011  -0.159551  -0.140016   0.394808
   11  C  1 YY    0.031798  -0.052206   0.521385  -0.096070  -0.024790
   12  C  1 ZZ    0.146952  -0.249805  -0.361834   0.236086  -0.370017
   13  C  1 XY   -0.216652   0.075368   0.346931  -0.379019   0.280559
   14  C  1 XZ   -0.097847   0.136959   0.032174  -0.186261   0.129937
   15  C  1 YZ    0.086276  -0.164340   0.143650   0.108215  -0.109144
   16  C  2  S   -0.014123  -0.013163  -0.008258   0.023497   0.016365
   17  C  2  S    0.011821  -0.368162   0.236389   0.176912  -0.053997
   18  C  2  X   -0.100422   0.021737  -0.136575   0.050384  -0.086322
   19  C  2  Y    0.001978  -0.019313   0.016552   0.047769   0.078764
   20  C  2  Z    0.027406  -0.042270   0.012679   0.049403  -0.014158
   21  C  2  S   -1.763928  -0.116174  -0.659708  -1.033684  -0.581842
   22  C  2  X   -1.314655  -1.202850  -0.106149   0.446180  -0.602187
   23  C  2  Y   -0.659772  -1.015831  -0.847859   0.383880  -0.242336
   24  C  2  Z   -0.219765   0.145891   0.049841   0.345538  -0.076902
   25  C  2 XX   -0.042890   0.032461  -0.253348   0.178468   0.095028
   26  C  2 YY    0.039684   0.084033   0.027795  -0.331733  -0.244925
   27  C  2 ZZ    0.003206  -0.116495   0.225553   0.153264   0.149897
   28  C  2 XY   -0.199741  -0.225018   0.238325   0.067952  -0.221960
   29  C  2 XZ    0.116247  -0.320669  -0.120313  -0.226341   0.001594
   30  C  2 YZ   -0.189559   0.398245   0.084960   0.002157  -0.045444
   31  O  3  S    0.035457   0.005330   0.008065   0.005366  -0.009102
   32  O  3  S   -1.504422  -0.647713  -0.401868  -0.002089  -0.151636
   33  O  3  X    0.132911  -0.086119   0.103853   0.012851  -0.213360
   34  O  3  Y    0.090834   0.023175  -0.080010   0.118825   0.079838
   35  O  3  Z   -0.006108   0.042317   0.020184   0.089122  -0.001236
   36  O  3  S    3.389873   1.899903   1.016973  -0.187641   0.857716
   37  O  3  X   -1.025306  -0.406549  -0.401966   0.052801  -0.029515
   38  O  3  Y   -0.669622  -0.299225   0.018612  -0.113474  -0.298015
   39  O  3  Z   -0.037150  -0.131038  -0.052230  -0.139182  -0.019416
   40  O  3 XX   -0.132904  -0.017317   0.075119  -0.231570  -0.471407
   41  O  3 YY    0.042943   0.219339  -0.440916  -0.174340   0.102126
   42  O  3 ZZ    0.089961  -0.202022   0.365798   0.405909   0.369281
   43  O  3 XY   -0.148105  -0.156612   0.042372   0.253431   0.376228
   44  O  3 XZ    0.072644  -0.186812  -0.069593  -0.098652   0.153997
   45  O  3 YZ   -0.154394   0.367917   0.115381   0.469940  -0.325736
   46  H  4  S    0.128102  -0.282365  -0.184088   0.471273   0.234958
   47  H  4  S   -0.038533  -0.366902  -0.164996   0.193373  -0.096984
   48  H  5  S    0.125497  -0.257204  -0.189281  -0.214191   0.037269
   49  H  5  S    0.168639  -0.393460  -0.165869  -0.249670  -0.164447
   50  H  6  S    0.158738  -0.072197   0.076797  -0.219590   0.070161
   51  H  6  S    0.193964  -0.051323   0.138528  -0.311257   0.114022
   52  H  7  S   -0.023744   0.298254   0.246163   0.012999   0.067404
   53  H  7  S    0.001843   0.350039   0.419645   0.083293   0.043491

                     41         42         43         44         45
                    1.9038     2.0107     2.0691     2.1619     2.2945
                     A          A          A          A          A   
    1  C  1  S    0.000019  -0.076808  -0.009131  -0.070006  -0.011084
    2  C  1  S    0.102517  -0.560475   0.077561  -0.365374  -0.115507
    3  C  1  X    0.015806   0.052531   0.034552   0.066295   0.020334
    4  C  1  Y   -0.093786  -0.081821  -0.034693   0.010866  -0.038418
    5  C  1  Z    0.030729  -0.032633  -0.018748   0.003256  -0.064320
    6  C  1  S   -0.050525   2.725551  -0.017478   2.047807   0.484232
    7  C  1  X   -0.010447   0.726874  -0.255287   0.468245   0.178681
    8  C  1  Y   -0.269869   0.207393   0.168093  -0.028804   0.224913
    9  C  1  Z    0.619183  -1.024102  -0.400853  -0.277551  -0.474125
   10  C  1 XX    0.242378   0.087986  -0.309985  -0.170858   0.093949
   11  C  1 YY   -0.577506  -0.492374  -0.007902   0.067421  -0.098543
   12  C  1 ZZ    0.335128   0.404388   0.317888   0.103436   0.004593
   13  C  1 XY    0.499441  -0.128742   0.346411  -0.018720  -0.193058
   14  C  1 XZ   -0.224255   0.197451   0.099857   0.136696   0.951512
   15  C  1 YZ    0.092345  -0.087577   0.223342  -0.905921   0.370394
   16  C  2  S    0.006713   0.028894   0.009823   0.030313   0.014992
   17  C  2  S    0.093444   0.310658   0.287837   0.417526   0.041978
   18  C  2  X   -0.176382  -0.016424  -0.272197  -0.133925   0.020926
   19  C  2  Y   -0.042033  -0.077571   0.137101   0.062168  -0.016951
   20  C  2  Z    0.061901  -0.032407   0.047359  -0.087137  -0.073632
   21  C  2  S   -0.443700  -1.949788  -0.463373  -1.808286  -0.360229
   22  C  2  X   -0.203835   0.712109  -0.167119   0.570090   0.049199
   23  C  2  Y   -0.640685  -1.327131   0.191089  -0.675230  -0.212324
   24  C  2  Z   -0.278810   0.140872   0.251546  -0.217020   0.008201
   25  C  2 XX   -0.294551  -0.272658  -0.188420  -0.219501  -0.090630
   26  C  2 YY    0.258864   0.133748  -0.422939  -0.044501   0.048976
   27  C  2 ZZ    0.035687   0.138910   0.611359   0.264002   0.041655
   28  C  2 XY   -0.233286   0.046698   0.064917   0.076949  -0.113970
   29  C  2 XZ    0.132356  -0.298936  -0.160883   0.084624   0.197063
   30  C  2 YZ   -0.213413   0.402131   0.074796  -0.320714  -0.378642
   31  O  3  S   -0.014958  -0.005184  -0.007723  -0.004806  -0.005906
   32  O  3  S   -0.067758  -0.180728  -0.010093  -0.129756   0.043311
   33  O  3  X   -0.145905   0.021141  -0.126985  -0.021309  -0.066251
   34  O  3  Y   -0.174084  -0.153443  -0.015998  -0.047579  -0.048385
   35  O  3  Z   -0.024669   0.023027   0.038540  -0.054935  -0.010473
   36  O  3  S    0.772035   0.843222   0.307901   0.630506   0.144706
   37  O  3  X   -0.223185  -0.456793   0.015590  -0.284667  -0.034477
   38  O  3  Y    0.059466   0.232354  -0.159487   0.005285   0.034903
   39  O  3  Z    0.043926  -0.087698  -0.133555   0.160247   0.031368
   40  O  3 XX   -0.067206   0.112085  -0.167308  -0.027306   0.029342
   41  O  3 YY   -0.122367  -0.330647   0.561079   0.054005  -0.075050
   42  O  3 ZZ    0.189573   0.218562  -0.393771  -0.026699   0.045708
   43  O  3 XY    0.044019  -0.006713  -0.123390   0.025118  -0.009898
   44  O  3 XZ   -0.133573   0.254445   0.189526  -0.360024  -0.216167
   45  O  3 YZ    0.338903  -0.393387   0.055561   0.015534   0.132597
   46  H  4  S   -0.266258  -0.276926   0.382079   0.124923   0.019000
   47  H  4  S   -0.176773  -0.281527   0.099183  -0.132215  -0.049628
   48  H  5  S    0.445436  -0.374355  -0.036828  -0.747191   0.019334
   49  H  5  S    0.198442  -0.460640  -0.146741   0.030969  -0.330637
   50  H  6  S   -0.037974  -0.660797  -0.336267  -0.123704  -0.591673
   51  H  6  S    0.129946  -0.213347  -0.022496  -0.248677   0.138077
   52  H  7  S   -0.447997  -0.017354   0.024362  -0.411998   0.587522
   53  H  7  S   -0.153822   0.193056   0.120873   0.100277  -0.024024

                     46         47         48         49         50
                    2.3413     2.5234     2.5952     2.8592     2.9488
                     A          A          A          A          A   
    1  C  1  S    0.024708   0.042009  -0.008473   0.027590  -0.010183
    2  C  1  S    0.216572   0.045960  -0.064449  -0.126260   0.085778
    3  C  1  X   -0.102161  -0.265781  -0.018639  -0.232299   0.097197
    4  C  1  Y    0.020006   0.063614   0.005734   0.152557  -0.053862
    5  C  1  Z    0.002887   0.007501   0.030054   0.035128  -0.013045
    6  C  1  S   -1.145079  -1.263961   0.227116  -0.156692   0.037699
    7  C  1  X   -0.680713  -0.803801   0.013119  -0.181471   0.171088
    8  C  1  Y    0.343215   0.201330   0.065627   0.220295   0.042579
    9  C  1  Z   -0.105582  -0.047486  -0.134643  -0.066451   0.044596
   10  C  1 XX   -0.360825  -0.793641  -0.095809  -0.253055   0.084288
   11  C  1 YY   -0.038290   0.498303   0.107019  -0.031074   0.002623
   12  C  1 ZZ    0.399115   0.295338  -0.011210   0.284129  -0.086911
   13  C  1 XY    0.356955   0.064303  -0.039493   0.499932  -0.185323
   14  C  1 XZ    0.253789   0.045309   0.167265   0.124324  -0.046412
   15  C  1 YZ   -0.055886  -0.009045  -0.249092  -0.098033   0.030342
   16  C  2  S   -0.076915  -0.026120   0.001402  -0.043601  -0.029449
   17  C  2  S   -0.190628  -0.010198   0.046198  -0.319187  -1.335250
   18  C  2  X   -0.206791  -0.243528  -0.031334  -0.381473  -1.065129
   19  C  2  Y    0.172130   0.056412  -0.026290  -0.168248  -0.681372
   20  C  2  Z    0.013951  -0.016145   0.232088  -0.018229  -0.085857
   21  C  2  S    1.369063   1.489063  -0.118224   0.096814  -1.699082
   22  C  2  X   -0.408601  -0.676947   0.025512  -0.326056  -0.690932
   23  C  2  Y    0.565281   0.739474  -0.094270  -0.570664  -0.532395
   24  C  2  Z    0.130995   0.140545   0.269580  -0.053646  -0.083036
   25  C  2 XX    0.385572  -0.120920  -0.010645   0.910593  -0.670708
   26  C  2 YY    0.329279   0.375231  -0.078421  -0.799188   0.220560
   27  C  2 ZZ   -0.714851  -0.254311   0.089066  -0.111405   0.450148
   28  C  2 XY    0.479420  -0.843937  -0.190453  -0.512106  -0.434272
   29  C  2 XZ    0.060406  -0.238808   0.853816  -0.101368  -0.043625
   30  C  2 YZ    0.131395   0.104369   0.441654  -0.110048  -0.037149
   31  O  3  S    0.028176  -0.020835  -0.002472  -0.010289  -0.061398
   32  O  3  S   -0.367633   0.568095   0.034117  -0.336128  -0.680506
   33  O  3  X    0.329335  -0.340727  -0.030869  -0.011667  -0.245330
   34  O  3  Y    0.250108  -0.162673  -0.017064   0.043576  -0.171452
   35  O  3  Z    0.033584  -0.018494  -0.012932   0.008607  -0.022934
   36  O  3  S   -0.184714  -0.679348   0.025227   1.022303   3.081234
   37  O  3  X    0.060930   0.477695  -0.004348  -0.666916  -1.485567
   38  O  3  Y   -0.310406  -0.005750   0.070164   0.060792  -0.996801
   39  O  3  Z   -0.047288   0.031575  -0.450682   0.011526  -0.121924
   40  O  3 XX   -0.333945  -0.182809   0.003305   0.838827   0.687959
   41  O  3 YY    0.295010   0.040749  -0.142388  -0.661840   0.018488
   42  O  3 ZZ    0.038935   0.142060   0.139082  -0.176987  -0.706447
   43  O  3 XY    0.364966   0.137756  -0.092537  -0.064446   1.170896
   44  O  3 XZ    0.021741  -0.060250   0.805672  -0.027901   0.149084
   45  O  3 YZ    0.053752  -0.081410   0.530615  -0.081402   0.107500
   46  H  4  S   -0.148038  -0.250973  -0.023813   0.253649  -0.023793
   47  H  4  S    0.150119   0.322387   0.006927  -0.428998   0.009732
   48  H  5  S   -0.060938  -0.159407  -0.195746  -0.067394   0.022945
   49  H  5  S   -0.085556   0.067953  -0.002529  -0.049543   0.023441
   50  H  6  S   -0.214117   0.005444  -0.031291  -0.132792   0.045101
   51  H  6  S    0.062682  -0.110578  -0.048772   0.008983   0.034977
   52  H  7  S    0.003612   0.025257  -0.024914  -0.092849   0.028439
   53  H  7  S    0.093929  -0.013452   0.022417   0.063874   0.015532
 ...... END OF RHF CALCULATION ......
 STEP CPU TIME =     4.67 TOTAL CPU TIME =          4.8 (      0.1 MIN)
 TOTAL WALL CLOCK TIME=          4.8 SECONDS, CPU UTILIZATION IS    99.17%

     ---------------------------------------------------------------------
     PROPERTIES FOR THE B3LYP    DFT FUNCTIONAL (RHF  TYPE) DENSITY MATRIX
     ---------------------------------------------------------------------

          -----------------
          ENERGY COMPONENTS
          -----------------

         WAVEFUNCTION NORMALIZATION =       1.0000000000

                ONE ELECTRON ENERGY =    -345.6208713107
                TWO ELECTRON ENERGY =     122.4594496568
           NUCLEAR REPULSION ENERGY =      69.4906524675
                                      ------------------
                       TOTAL ENERGY =    -153.6707691865

 ELECTRON-ELECTRON POTENTIAL ENERGY =     122.4594496568
  NUCLEUS-ELECTRON POTENTIAL ENERGY =    -498.4497839446
   NUCLEUS-NUCLEUS POTENTIAL ENERGY =      69.4906524675
                                      ------------------
             TOTAL POTENTIAL ENERGY =    -306.4996818204
               TOTAL KINETIC ENERGY =     152.8289126339
                 VIRIAL RATIO (V/T) =       2.0055084901

          ---------------------------------------
          MULLIKEN AND LOWDIN POPULATION ANALYSES
          ---------------------------------------

     ATOMIC MULLIKEN POPULATION IN EACH MOLECULAR ORBITAL

                      1          2          3          4          5

                  2.000000   2.000000   2.000000   2.000000   2.000000

    1            -0.000038   0.001241   1.995657   0.020950   1.127067
    2             0.002291   2.000589   0.001611   0.526766   0.348841
    3             1.997714  -0.002779   0.000007   1.452220   0.069182
    4             0.000031   0.000890   0.000019  -0.000766   0.015441
    5             0.000003   0.000025   0.000794   0.000193   0.160601
    6            -0.000001   0.000016   0.001067   0.000200   0.183581
    7            -0.000001   0.000017   0.000846   0.000436   0.095286

                      6          7          8          9         10

                  2.000000   2.000000   2.000000   2.000000   2.000000

    1             0.373432   0.828810   0.485007   0.272154   0.114598
    2             0.813378   0.284787   0.615890   0.422777   0.613062
    3             0.250708   0.163324   0.534258   1.189590   1.148493
    4             0.301827   0.077817   0.177628   0.023393   0.008506
    5             0.152140   0.155064   0.003292   0.002697   0.053101
    6             0.107224   0.095813   0.056505   0.001823   0.000017
    7             0.001292   0.394385   0.127420   0.087566   0.062223

                     11         12

                  2.000000   2.000000

    1             1.068893   0.231371
    2             0.049557   0.092467
    3             0.166073   1.374159
    4             0.031102   0.264268
    5             0.278730   0.015660
    6             0.390077   0.004519
    7             0.015568   0.017556

               ----- POPULATIONS IN EACH AO -----
                             MULLIKEN      LOWDIN
              1  C  1  S      1.99643     1.97992
              2  C  1  S      0.67049     0.36189
              3  C  1  X      0.70240     0.63166
              4  C  1  Y      0.75361     0.68888
              5  C  1  Z      0.70440     0.62813
              6  C  1  S      0.60634     0.33222
              7  C  1  X      0.29952     0.41061
              8  C  1  Y      0.39643     0.53423
              9  C  1  Z      0.35513     0.48101
             10  C  1 XX      0.00489     0.14639
             11  C  1 YY      0.00491     0.14016
             12  C  1 ZZ      0.00543     0.16159
             13  C  1 XY      0.00920     0.00995
             14  C  1 XZ      0.00997     0.01698
             15  C  1 YZ      0.00000     0.01525
             16  C  2  S      1.99655     1.97463
             17  C  2  S      0.70820     0.36616
             18  C  2  X      0.74194     0.64799
             19  C  2  Y      0.74355     0.64710
             20  C  2  Z      0.46113     0.41373
             21  C  2  S      0.45666     0.30978
             22  C  2  X      0.10300     0.28293
             23  C  2  Y      0.19398     0.37414
             24  C  2  Z      0.28113     0.33228
             25  C  2 XX      0.00487     0.21643
             26  C  2 YY      0.04043     0.19391
             27  C  2 ZZ      0.02367     0.10620
             28  C  2 XY      0.01273     0.04846
             29  C  2 XZ      0.00417     0.02451
             30  C  2 YZ      0.00000     0.00746
             31  O  3  S      1.99729     1.97772
             32  O  3  S      0.92876     0.72088
             33  O  3  X      0.99972     0.93773
             34  O  3  Y      1.08398     1.03578
             35  O  3  Z      0.77252     0.72140
             36  O  3  S      0.93157     0.47003
             37  O  3  X      0.49729     0.57353
             38  O  3  Y      0.59298     0.65627
             39  O  3  Z      0.51092     0.54977
             40  O  3 XX      0.00235     0.18370
             41  O  3 YY      0.00724     0.17465
             42  O  3 ZZ      0.00723     0.17374
             43  O  3 XY      0.00801     0.01578
             44  O  3 XZ      0.00308     0.01059
             45  O  3 YZ      0.00000     0.00414
             46  H  4  S      0.53453     0.50249
             47  H  4  S      0.36562     0.38946
             48  H  5  S      0.51105     0.46081
             49  H  5  S      0.31125     0.33479
             50  H  6  S      0.51991     0.48252
             51  H  6  S      0.32093     0.33735
             52  H  7  S      0.50696     0.45745
             53  H  7  S      0.29563     0.34483

          ----- MULLIKEN ATOMIC OVERLAP POPULATIONS -----
          (OFF-DIAGONAL ELEMENTS NEED TO BE MULTIPLIED BY 2)

             1           2           3           4           5

    1    5.3897417
    2    0.3182225   4.5482143
    3   -0.0774593   0.6134711   7.8667306
    4   -0.1290766   0.3474349  -0.0625518   0.7317452
    5    0.3453063  -0.0189301  -0.0015847   0.0073441   0.6165096
    6    0.3099097  -0.0154409   0.0036015  -0.0012800  -0.1232693
    7    0.3624976  -0.0209559   0.0007422   0.0065395  -0.0030764

             6           7

    6    0.6920109
    7   -0.0246898   0.4815381

          TOTAL MULLIKEN AND LOWDIN ATOMIC POPULATIONS
       ATOM         MULL.POP.    CHARGE          LOW.POP.     CHARGE
    1 C             6.519142   -0.519142         6.538857   -0.538857
    2 C             5.772016    0.227984         5.945709    0.054291
    3 O             8.342950   -0.342950         8.205716   -0.205716
    4 H             0.900155    0.099845         0.891955    0.108045
    5 H             0.822300    0.177700         0.795606    0.204394
    6 H             0.840842    0.159158         0.819875    0.180125
    7 H             0.802595    0.197405         0.802282    0.197718

          MULLIKEN SPHERICAL HARMONIC POPULATIONS
       ATOM           S       P       D      F      G      H      I    TOTAL
    1 C             3.27    3.21    0.03   0.00   0.00   0.00   0.00    6.52
    2 C             3.16    2.52    0.09   0.00   0.00   0.00   0.00    5.77
    3 O             3.86    4.46    0.03   0.00   0.00   0.00   0.00    8.34
    4 H             0.90    0.00    0.00   0.00   0.00   0.00   0.00    0.90
    5 H             0.82    0.00    0.00   0.00   0.00   0.00   0.00    0.82
    6 H             0.84    0.00    0.00   0.00   0.00   0.00   0.00    0.84
    7 H             0.80    0.00    0.00   0.00   0.00   0.00   0.00    0.80

          -------------------------------
          BOND ORDER AND VALENCE ANALYSIS     BOND ORDER THRESHOLD=0.050
          -------------------------------

                   BOND                       BOND                       BOND
  ATOM PAIR DIST  ORDER      ATOM PAIR DIST  ORDER      ATOM PAIR DIST  ORDER
    1   2  1.509  0.980        1   5  1.093  0.936        1   6  1.098  0.910
    1   7  1.098  0.930        2   3  1.211  2.028        2   4  1.115  0.887

                       TOTAL       BONDED        FREE
      ATOM            VALENCE     VALENCE     VALENCE
    1 C                 3.757       3.757      -0.000
    2 C                 3.896       3.896      -0.000
    3 O                 2.110       2.110      -0.000
    4 H                 0.925       0.925      -0.000
    5 H                 0.922       0.922      -0.000
    6 H                 0.896       0.896      -0.000
    7 H                 0.938       0.938      -0.000

          ---------------------
          ELECTROSTATIC MOMENTS
          ---------------------

 POINT   1           X           Y           Z (BOHR)    CHARGE
                -0.000000    0.000000    0.000000       -0.00 (A.U.)
         DX          DY          DZ         /D/  (DEBYE)
    -2.655452   -1.066934   -0.604520    2.924930
 ...... END OF PROPERTY EVALUATION ......
 STEP CPU TIME =     0.01 TOTAL CPU TIME =          4.8 (      0.1 MIN)
 TOTAL WALL CLOCK TIME=          4.8 SECONDS, CPU UTILIZATION IS    99.18%
                580000  WORDS OF DYNAMIC MEMORY USED
 EXECUTION OF GAMESS TERMINATED NORMALLY Thu Oct 17 23:41:40 2019
 DDI: 263640 bytes (0.3 MB / 0 MWords) used by master data server.

 ----------------------------------------
 CPU timing information for all processes
 ========================================
 0: 4.707 + 0.111 = 4.819
 ----------------------------------------
 ddikick.x: exited gracefully.
----- accounting info -----
Files used on the master node crcfe01.crc.nd.edu were:
-rw-r--r-- 1 cdrisko campus      489 Oct 17 23:41 /afs/crc.nd.edu/user/c/cdrisko/acetaldehyde.F05
-rw-r--r-- 1 cdrisko campus    45118 Oct 17 23:41 /afs/crc.nd.edu/user/c/cdrisko/acetaldehyde.F07
-rw-r--r-- 1 cdrisko campus 11881056 Oct 17 23:41 /afs/crc.nd.edu/user/c/cdrisko/acetaldehyde.F08
-rw-r--r-- 1 cdrisko campus  1799600 Oct 17 23:41 /afs/crc.nd.edu/user/c/cdrisko/acetaldehyde.F10
Thu Oct 17 23:41:43 EDT 2019
0.419u 0.195s 0:08.44 7.1%	0+0k 0+24io 0pf+0w
