   4   4   0   0
  0.2075851E+02  0.4362667E-09  0.4362667E-09  0.4362667E-09  0.5000000E-15
  1.000000000000000E-004
  CAR 
 unknown system                          
     33.18749586     -2.05752451  301      5.97889637      1.00000000
     -2.058  0.0000E+00  0.0000E+00
     -1.940  0.0000E+00  0.0000E+00
     -1.823  0.0000E+00  0.0000E+00
     -1.705  0.0000E+00  0.0000E+00
     -1.588  0.0000E+00  0.0000E+00
     -1.470  0.0000E+00  0.0000E+00
     -1.353 -0.6554E-36 -0.7699E-37
     -1.235 -0.2046E-27 -0.2404E-28
     -1.118 -0.3951E-20 -0.4642E-21
     -1.000 -0.4518E-14 -0.5308E-15
     -0.883 -0.3157E-09 -0.3709E-10
     -0.765 -0.1256E-05 -0.1476E-06
     -0.648 -0.2480E-03 -0.2928E-04
     -0.530 -0.9732E-03 -0.1436E-03
     -0.413  0.2275E-01  0.2529E-02
     -0.295  0.1451E+00  0.1958E-01
     -0.178  0.2830E+00  0.5283E-01
     -0.060  0.1896E+00  0.7511E-01
      0.057  0.3135E+00  0.1119E+00
      0.175  0.7118E+00  0.1956E+00
      0.292  0.2412E+00  0.2239E+00
      0.410  0.4556E+00  0.2774E+00
      0.527  0.7381E+00  0.3641E+00
      0.645  0.8671E+00  0.4660E+00
      0.762  0.4124E+01  0.9505E+00
      0.880  0.9901E+01  0.2114E+01
      0.997  0.1450E+02  0.3817E+01
      1.115  0.2004E+02  0.6172E+01
      1.232  0.1703E+02  0.8173E+01
      1.349  0.1298E+02  0.9698E+01
      1.467  0.1145E+02  0.1104E+02
      1.584  0.1603E+02  0.1293E+02
      1.702  0.1413E+02  0.1459E+02
      1.819  0.1545E+02  0.1640E+02
      1.937  0.1959E+02  0.1870E+02
      2.054  0.2309E+02  0.2142E+02
      2.172  0.1700E+02  0.2341E+02
      2.289  0.1452E+02  0.2512E+02
      2.407  0.1633E+02  0.2704E+02
      2.524  0.1882E+02  0.2925E+02
      2.642  0.1787E+02  0.3135E+02
      2.759  0.1527E+02  0.3314E+02
      2.877  0.1578E+02  0.3500E+02
      2.994  0.1747E+02  0.3705E+02
      3.112  0.2292E+02  0.3974E+02
      3.229  0.1210E+02  0.4116E+02
      3.347  0.1915E+01  0.4139E+02
      3.464  0.4382E+00  0.4144E+02
      3.582  0.3892E+00  0.4149E+02
      3.699  0.2929E+00  0.4152E+02
      3.817  0.2028E+01  0.4176E+02
      3.934  0.1085E+01  0.4189E+02
      4.052  0.1116E+01  0.4202E+02
      4.169  0.6180E+00  0.4209E+02
      4.287  0.4143E+00  0.4214E+02
      4.404  0.5053E+00  0.4220E+02
      4.522  0.1166E+01  0.4233E+02
      4.639  0.2020E+01  0.4257E+02
      4.757  0.9251E+00  0.4268E+02
      4.874  0.1208E+01  0.4282E+02
      4.991  0.6818E+00  0.4290E+02
      5.109  0.7062E+00  0.4299E+02
      5.226  0.9188E+00  0.4309E+02
      5.344  0.4523E+00  0.4315E+02
      5.461  0.1485E+01  0.4332E+02
      5.579  0.1331E+01  0.4348E+02
      5.696  0.1025E+01  0.4360E+02
      5.814  0.1571E+01  0.4378E+02
      5.931  0.1558E+01  0.4397E+02
      6.049  0.7170E+00  0.4405E+02
      6.166  0.1150E+01  0.4418E+02
      6.284  0.4645E+00  0.4424E+02
      6.401  0.8851E+00  0.4434E+02
      6.519  0.1733E+01  0.4455E+02
      6.636  0.2510E+01  0.4484E+02
      6.754  0.6579E+00  0.4492E+02
      6.871  0.8469E+00  0.4502E+02
      6.989  0.1155E+01  0.4515E+02
      7.106  0.1424E+01  0.4532E+02
      7.224  0.1420E+01  0.4549E+02
      7.341  0.3862E+00  0.4553E+02
      7.459  0.4808E+00  0.4559E+02
      7.576  0.1784E+01  0.4580E+02
      7.694  0.1597E+01  0.4599E+02
      7.811  0.1051E+01  0.4611E+02
      7.929  0.9662E+00  0.4622E+02
      8.046  0.2383E+01  0.4650E+02
      8.164  0.4236E+00  0.4655E+02
      8.281  0.8086E+00  0.4665E+02
      8.398  0.7352E+00  0.4674E+02
      8.516  0.5025E+00  0.4679E+02
      8.633  0.6490E+00  0.4687E+02
      8.751  0.1903E+01  0.4709E+02
      8.868  0.1665E+01  0.4729E+02
      8.986  0.2353E+01  0.4757E+02
      9.103  0.9731E+00  0.4768E+02
      9.221  0.1623E+01  0.4787E+02
      9.338  0.7365E+00  0.4796E+02
      9.456  0.1239E+01  0.4810E+02
      9.573  0.2241E+01  0.4837E+02
      9.691  0.1316E+01  0.4852E+02
      9.808  0.7498E+00  0.4861E+02
      9.926  0.1553E+01  0.4879E+02
     10.043  0.2346E+01  0.4907E+02
     10.161  0.1488E+01  0.4924E+02
     10.278  0.1394E+00  0.4926E+02
     10.396  0.6868E+00  0.4934E+02
     10.513  0.1711E+01  0.4954E+02
     10.631  0.2446E+01  0.4983E+02
     10.748  0.9112E+00  0.4993E+02
     10.866  0.1250E+01  0.5008E+02
     10.983  0.1409E+01  0.5025E+02
     11.101  0.8572E+00  0.5035E+02
     11.218  0.1205E+01  0.5049E+02
     11.336  0.1262E+01  0.5064E+02
     11.453  0.1896E+01  0.5086E+02
     11.571  0.2075E+01  0.5110E+02
     11.688  0.1561E+01  0.5129E+02
     11.806  0.7722E+00  0.5138E+02
     11.923  0.9004E+00  0.5148E+02
     12.040  0.2885E+01  0.5182E+02
     12.158  0.1941E+01  0.5205E+02
     12.275  0.4537E+00  0.5210E+02
     12.393  0.3370E+01  0.5250E+02
     12.510  0.2785E+01  0.5283E+02
     12.628  0.1123E+01  0.5296E+02
     12.745  0.1011E+01  0.5308E+02
     12.863  0.7249E+00  0.5316E+02
     12.980  0.1659E+01  0.5336E+02
     13.098  0.1563E+01  0.5354E+02
     13.215  0.3029E+01  0.5390E+02
     13.333  0.2875E+01  0.5424E+02
     13.450  0.2581E+01  0.5454E+02
     13.568  0.1682E+01  0.5474E+02
     13.685  0.7057E+00  0.5482E+02
     13.803  0.9288E+00  0.5493E+02
     13.920  0.2014E+01  0.5516E+02
     14.038  0.1652E+01  0.5536E+02
     14.155  0.1897E+01  0.5558E+02
     14.273  0.2051E+01  0.5582E+02
     14.390  0.2536E+01  0.5612E+02
     14.508  0.2989E+01  0.5647E+02
     14.625  0.1735E+01  0.5668E+02
     14.743  0.1902E+01  0.5690E+02
     14.860  0.1688E+01  0.5710E+02
     14.978  0.1660E+01  0.5729E+02
     15.095  0.2099E+01  0.5754E+02
     15.213  0.1969E+01  0.5777E+02
     15.330  0.3637E+01  0.5820E+02
     15.448  0.3370E+01  0.5859E+02
     15.565  0.1027E+01  0.5871E+02
     15.682  0.8654E+00  0.5882E+02
     15.800  0.1683E+01  0.5901E+02
     15.917  0.4252E+01  0.5951E+02
     16.035  0.3993E+01  0.5998E+02
     16.152  0.1757E+01  0.6019E+02
     16.270  0.1885E+01  0.6041E+02
     16.387  0.1189E+01  0.6055E+02
     16.505  0.2948E+01  0.6090E+02
     16.622  0.1973E+01  0.6113E+02
     16.740  0.8695E+00  0.6123E+02
     16.857  0.1817E+01  0.6144E+02
     16.975  0.3953E+01  0.6191E+02
     17.092  0.2380E+01  0.6219E+02
     17.210  0.3331E+01  0.6258E+02
     17.327  0.3140E+01  0.6295E+02
     17.445  0.1023E+01  0.6307E+02
     17.562  0.3419E+01  0.6347E+02
     17.680  0.2330E+01  0.6374E+02
     17.797  0.2312E+00  0.6377E+02
     17.915  0.9827E+00  0.6389E+02
     18.032  0.3355E+01  0.6428E+02
     18.150  0.2633E+01  0.6459E+02
     18.267  0.1552E+01  0.6477E+02
     18.385  0.1583E+01  0.6496E+02
     18.502  0.4969E+00  0.6502E+02
     18.620  0.3225E+01  0.6540E+02
     18.737  0.2236E+01  0.6566E+02
     18.855  0.1824E+01  0.6587E+02
     18.972  0.1492E+01  0.6605E+02
     19.089  0.2014E+01  0.6628E+02
     19.207  0.1849E+01  0.6650E+02
     19.324  0.1855E+01  0.6672E+02
     19.442  0.1657E+01  0.6691E+02
     19.559  0.9643E+00  0.6703E+02
     19.677  0.1731E+01  0.6723E+02
     19.794  0.3716E+01  0.6767E+02
     19.912  0.2605E+01  0.6797E+02
     20.029  0.1986E+00  0.6800E+02
     20.147  0.9208E+00  0.6810E+02
     20.264  0.2024E+01  0.6834E+02
     20.382  0.1659E+01  0.6854E+02
     20.499  0.2013E+01  0.6877E+02
     20.617  0.2117E+01  0.6902E+02
     20.734  0.1228E+01  0.6917E+02
     20.852  0.7705E+00  0.6926E+02
     20.969  0.4896E+01  0.6983E+02
     21.087  0.5374E+01  0.7046E+02
     21.204  0.3217E+01  0.7084E+02
     21.322  0.1633E+01  0.7103E+02
     21.439  0.2529E+01  0.7133E+02
     21.557  0.6082E+01  0.7205E+02
     21.674  0.6740E+01  0.7284E+02
     21.792  0.5791E+01  0.7352E+02
     21.909  0.4922E+01  0.7410E+02
     22.027  0.4292E+01  0.7460E+02
     22.144  0.2661E+01  0.7491E+02
     22.262  0.1752E+01  0.7512E+02
     22.379  0.2929E+01  0.7546E+02
     22.497  0.8567E+00  0.7556E+02
     22.614  0.1905E+01  0.7579E+02
     22.731  0.4553E+01  0.7632E+02
     22.849  0.2774E+01  0.7665E+02
     22.966  0.4312E+01  0.7715E+02
     23.084  0.5256E+01  0.7777E+02
     23.201  0.3236E+01  0.7815E+02
     23.319  0.3160E+01  0.7852E+02
     23.436  0.1654E+01  0.7872E+02
     23.554  0.2286E+01  0.7899E+02
     23.671  0.1430E+01  0.7915E+02
     23.789  0.1793E+01  0.7937E+02
     23.906  0.1824E+01  0.7958E+02
     24.024  0.1023E+01  0.7970E+02
     24.141  0.1720E+01  0.7990E+02
     24.259  0.1518E+01  0.8008E+02
     24.376  0.1482E+01  0.8025E+02
     24.494  0.1171E+01  0.8039E+02
     24.611  0.3945E+01  0.8086E+02
     24.729  0.3164E+01  0.8123E+02
     24.846  0.1630E+01  0.8142E+02
     24.964  0.3199E+01  0.8179E+02
     25.081  0.1576E+01  0.8198E+02
     25.199  0.6027E+00  0.8205E+02
     25.316  0.1371E+01  0.8221E+02
     25.434  0.9613E+00  0.8232E+02
     25.551  0.9629E+00  0.8244E+02
     25.669  0.1052E+01  0.8256E+02
     25.786  0.1185E+01  0.8270E+02
     25.904  0.1650E+01  0.8289E+02
     26.021  0.1034E+01  0.8302E+02
     26.138  0.1047E+01  0.8314E+02
     26.256  0.2467E+01  0.8343E+02
     26.373  0.4426E+01  0.8395E+02
     26.491  0.4360E+01  0.8446E+02
     26.608  0.4360E+01  0.8497E+02
     26.726  0.5544E+01  0.8562E+02
     26.843  0.3643E+01  0.8605E+02
     26.961  0.1065E+01  0.8618E+02
     27.078  0.2662E+01  0.8649E+02
     27.196  0.3550E+01  0.8691E+02
     27.313  0.2289E+01  0.8718E+02
     27.431  0.2791E+01  0.8750E+02
     27.548  0.2411E+01  0.8779E+02
     27.666  0.2097E+01  0.8803E+02
     27.783  0.2197E+01  0.8829E+02
     27.901  0.3188E+01  0.8867E+02
     28.018  0.3288E+01  0.8905E+02
     28.136  0.2183E+01  0.8931E+02
     28.253  0.2780E+01  0.8964E+02
     28.371  0.4481E+01  0.9016E+02
     28.488  0.2731E+01  0.9048E+02
     28.606  0.3888E+01  0.9094E+02
     28.723  0.3319E+01  0.9133E+02
     28.841  0.1846E+01  0.9155E+02
     28.958  0.2186E+01  0.9180E+02
     29.076  0.4906E+01  0.9238E+02
     29.193  0.3682E+01  0.9281E+02
     29.311  0.2851E+01  0.9315E+02
     29.428  0.2787E+01  0.9347E+02
     29.546  0.3249E+01  0.9386E+02
     29.663  0.4636E+01  0.9440E+02
     29.780  0.4611E+01  0.9494E+02
     29.898  0.2138E+01  0.9519E+02
     30.015  0.1516E+01  0.9537E+02
     30.133  0.4597E+00  0.9543E+02
     30.250  0.7886E+00  0.9552E+02
     30.368  0.4099E+00  0.9557E+02
     30.485  0.4253E+00  0.9562E+02
     30.603  0.2791E+00  0.9565E+02
     30.720  0.1897E+00  0.9567E+02
     30.838  0.8691E+00  0.9577E+02
     30.955  0.6124E+00  0.9585E+02
     31.073  0.1149E+00  0.9586E+02
     31.190  0.5646E-01  0.9587E+02
     31.308 -0.1040E-01  0.9586E+02
     31.425  0.6907E+00  0.9595E+02
     31.543  0.4765E+00  0.9600E+02
     31.660 -0.1011E-01  0.9600E+02
     31.778 -0.1301E-02  0.9600E+02
     31.895 -0.2410E-03  0.9600E+02
     32.013 -0.1253E-05  0.9600E+02
     32.130 -0.3156E-09  0.9600E+02
     32.248 -0.4516E-14  0.9600E+02
     32.365  0.0000E+00  0.9600E+02
     32.483  0.0000E+00  0.9600E+02
     32.600  0.0000E+00  0.9600E+02
     32.718  0.0000E+00  0.9600E+02
     32.835  0.0000E+00  0.9600E+02
     32.953  0.0000E+00  0.9600E+02
     33.070  0.0000E+00  0.9600E+02
     33.187  0.0000E+00  0.9600E+02
