    4    4    1    1
  0.2075851E+02  0.4362667E-09  0.4362667E-09  0.4362667E-09  0.5000000E-15
  1.000000000000000E-004
  CAR 
 unknown system                          
     44     35     48
 
  0.0000000E+00  0.0000000E+00  0.0000000E+00  0.1371742E-02
    1       -0.455478   1.000000
    2        0.655640   1.000000
    3        0.655640   1.000000
    4        0.655640   1.000000
    5        0.732115   1.000000
    6        0.732115   1.000000
    7        0.732115   1.000000
    8        1.788163   1.000000
    9        1.788163   1.000000
   10        1.788163   1.000000
   11        2.514107   1.000000
   12        2.514107   1.000000
   13        3.050574   1.000000
   14        3.050574   1.000000
   15        3.050574   1.000000
   16        3.220656   1.000000
   17        3.220656   1.000000
   18        3.220656   1.000000
   19        3.220656   1.000000
   20        3.220656   1.000000
   21        3.220656   1.000000
   22        7.766179  -0.000000
   23        7.766179  -0.000000
   24        7.766179  -0.000000
   25       11.331401   0.000000
   26       11.331401   0.000000
   27       11.331401   0.000000
   28       15.668605   0.000000
   29       15.668605   0.000000
   30       15.668605   0.000000
   31       15.668605   0.000000
   32       15.668605   0.000000
   33       15.668605   0.000000
   34       20.854149   0.000000
   35       20.854149   0.000000
   36       20.854149   0.000000
   37       21.010121   0.000000
   38       21.010121   0.000000
   39       21.010121   0.000000
   40       21.459374   0.000000
   41       23.874468   0.000000
   42       23.874468   0.000000
   43       23.874468   0.000000
   44       28.291977   0.000000
   45       28.419112   0.000000
   46       28.419112   0.000000
   47       28.419112   0.000000
   48       31.585449   0.000000
 
  0.1111111E+00  0.0000000E+00  0.0000000E+00  0.8230453E-02
    1       -0.345130   1.000000
    2        0.694771   1.000000
    3        0.706563   1.000000
    4        0.706563   1.000000
    5        0.761468   1.000000
    6        0.777856   1.000000
    7        0.777856   1.000000
    8        1.753347   1.000000
    9        1.822007   1.000000
   10        1.822007   1.000000
   11        2.479641   1.000000
   12        2.529559   1.000000
   13        3.005283   1.000000
   14        3.005283   1.000000
   15        3.033700   1.000000
   16        3.073230   1.000000
   17        3.073230   1.000000
   18        3.164717   1.000000
   19        3.164717   1.000000
   20        3.220912   1.000000
   21        3.220912   1.000000
   22        6.957652  -0.000000
   23        8.012119  -0.000000
   24        8.012119  -0.000000
   25       11.354405   0.000000
   26       11.354405   0.000000
   27       12.326422   0.000000
   28       15.251242   0.000000
   29       15.251242   0.000000
   30       15.262877   0.000000
   31       15.262877   0.000000
   32       15.851574   0.000000
   33       15.851574   0.000000
   34       20.853970   0.000000
   35       21.014450   0.000000
   36       21.428415   0.000000
   37       21.482908   0.000000
   38       21.482908   0.000000
   39       21.523814   0.000000
   40       21.523814   0.000000
   41       23.425343   0.000000
   42       23.425343   0.000000
   43       23.445034   0.000000
   44       28.512862   0.000000
   45       28.512862   0.000000
   46       28.664730   0.000000
   47       28.748342   0.000000
   48       30.520640   0.000000
 
  0.2222222E+00  0.0000000E+00  0.0000000E+00  0.8230453E-02
    1       -0.024494   1.000000
    2        0.803143   1.000000
    3        0.846451   1.000000
    4        0.846998   1.000000
    5        0.846998   1.000000
    6        0.913908   1.000000
    7        0.913908   1.000000
    8        1.654149   1.000000
    9        1.922192   1.000000
   10        1.922192   1.000000
   11        2.391176   1.000000
   12        2.574014   1.000000
   13        2.710359   1.000000
   14        2.710359   1.000000
   15        2.878262   1.000000
   16        2.878262   1.000000
   17        2.985273   1.000000
   18        3.009332   1.000000
   19        3.009332   1.000000
   20        3.221095   1.000000
   21        3.221095   1.000000
   22        5.547634   1.000000
   23        8.667590  -0.000000
   24        8.667590  -0.000000
   25       11.425093   0.000000
   26       11.425093   0.000000
   27       14.275072   0.000000
   28       14.275072   0.000000
   29       14.297232   0.000000
   30       14.453606   0.000000
   31       14.453606   0.000000
   32       16.384381   0.000000
   33       16.384381   0.000000
   34       20.871483   0.000000
   35       21.028604   0.000000
   36       21.350275   0.000000
   37       22.327647   0.000000
   38       22.327647   0.000000
   39       22.620234   0.000000
   40       22.632849   0.000000
   41       22.632849   0.000000
   42       23.114735   0.000000
   43       23.114735   0.000000
   44       27.334983   0.000000
   45       28.884289   0.000000
   46       28.884289   0.000000
   47       29.379524   0.000000
   48       31.069481   0.000000
 
  0.3333333E+00  0.0000000E+00  0.0000000E+00  0.8230453E-02
    1        0.457377   1.000000
    2        0.949762   1.000000
    3        0.979091   1.000000
    4        1.035486   1.000000
    5        1.035486   1.000000
    6        1.138667   1.000000
    7        1.138667   1.000000
    8        1.505749   1.000000
    9        2.083321   1.000000
   10        2.083321   1.000000
   11        2.266584   1.000000
   12        2.266584   1.000000
   13        2.309282   1.000000
   14        2.643491   1.000000
   15        2.704002   1.000000
   16        2.704002   1.000000
   17        2.787385   1.000000
   18        2.787385   1.000000
   19        2.911943   1.000000
   20        3.221292   1.000000
   21        3.221292   1.000000
   22        4.193158   1.000000
   23        9.590375   0.000000
   24        9.590375   0.000000
   25       11.540188   0.000000
   26       11.540188   0.000000
   27       13.090285   0.000000
   28       13.090285   0.000000
   29       13.703866   0.000000
   30       13.703866   0.000000
   31       16.592305   0.000000
   32       17.224755   0.000000
   33       17.224755   0.000000
   34       20.958360   0.000000
   35       20.971144   0.000000
   36       20.971144   0.000000
   37       21.056169   0.000000
   38       21.255464   0.000000
   39       21.831832   0.000000
   40       24.131422   0.000000
   41       24.131422   0.000000
   42       24.696985   0.000000
   43       25.121014   0.000000
   44       25.121014   0.000000
   45       29.582176   0.000000
   46       29.582176   0.000000
   47       29.684644   0.000000
   48       29.684644   0.000000
 
  0.4444444E+00  0.0000000E+00  0.0000000E+00  0.8230453E-02
    1        0.920176   1.000000
    2        1.055203   1.000000
    3        1.145850   1.000000
    4        1.186052   1.000000
    5        1.186052   1.000000
    6        1.328657   1.000000
    7        1.447623   1.000000
    8        1.447623   1.000000
    9        1.830740   1.000000
   10        1.830740   1.000000
   11        2.294318   1.000000
   12        2.294318   1.000000
   13        2.431048   1.000000
   14        2.537606   1.000000
   15        2.537606   1.000000
   16        2.562388   1.000000
   17        2.562388   1.000000
   18        2.729819   1.000000
   19        2.823028   1.000000
   20        3.084038   1.000000
   21        3.221490   1.000000
   22        3.221490   1.000000
   23       10.678181   0.000000
   24       10.678181   0.000000
   25       11.654859   0.000000
   26       11.654859   0.000000
   27       11.864292   0.000000
   28       11.864292   0.000000
   29       13.241840   0.000000
   30       13.241840   0.000000
   31       18.315797   0.000000
   32       18.315797   0.000000
   33       19.028072   0.000000
   34       19.591778   0.000000
   35       19.591778   0.000000
   36       21.017393   0.000000
   37       21.101739   0.000000
   38       21.168707   0.000000
   39       21.214699   0.000000
   40       22.225092   0.000000
   41       25.840782   0.000000
   42       25.840782   0.000000
   43       27.085395   0.000000
   44       27.085395   0.000000
   45       27.708087   0.000000
   46       27.708087   0.000000
   47       30.587830   0.000000
   48       30.587831   0.000000
 
  0.1111111E+00  0.1111111E+00  0.0000000E+00  0.1646091E-01
    1       -0.237420   1.000000
    2        0.737997   1.000000
    3        0.746266   1.000000
    4        0.746266   1.000000
    5        0.805974   1.000000
    6        0.805974   1.000000
    7        0.839412   1.000000
    8        1.742239   1.000000
    9        1.833757   1.000000
   10        1.852119   1.000000
   11        2.470992   1.000000
   12        2.524854   1.000000
   13        2.939967   1.000000
   14        2.939967   1.000000
   15        2.963095   1.000000
   16        2.978075   1.000000
   17        3.065335   1.000000
   18        3.065335   1.000000
   19        3.164368   1.000000
   20        3.164368   1.000000
   21        3.181113   1.000000
   22        7.181563  -0.000000
   23        7.181563  -0.000000
   24        8.245815  -0.000000
   25       11.374143   0.000000
   26       12.366825   0.000000
   27       12.366825   0.000000
   28       14.071770   0.000000
   29       15.424113   0.000000
   30       15.424113   0.000000
   31       15.431893   0.000000
   32       15.431893   0.000000
   33       16.019863   0.000000
   34       20.929692   0.000000
   35       21.241164   0.000000
   36       21.499173   0.000000
   37       21.499173   0.000000
   38       21.537720   0.000000
   39       21.537720   0.000000
   40       22.229984   0.000000
   41       22.822212   0.000000
   42       23.275321   0.000000
   43       24.257508   0.000000
   44       27.380307   0.000000
   45       28.421837   0.000000
   46       28.956427   0.000000
   47       30.196151   0.000000
   48       30.238394   0.000000
 
  0.2222222E+00  0.1111111E+00  0.0000000E+00  0.3292181E-01
    1        0.074633   1.000000
    2        0.844345   1.000000
    3        0.856573   1.000000
    4        0.887878   1.000000
    5        0.888453   1.000000
    6        0.938820   1.000000
    7        0.999449   1.000000
    8        1.658680   1.000000
    9        1.922999   1.000000
   10        1.936911   1.000000
   11        2.400371   1.000000
   12        2.573575   1.000000
   13        2.610864   1.000000
   14        2.660377   1.000000
   15        2.779596   1.000000
   16        2.844149   1.000000
   17        2.910408   1.000000
   18        3.008383   1.000000
   19        3.018823   1.000000
   20        3.162020   1.000000
   21        3.163715   1.000000
   22        5.768402   1.005613
   23        7.761865  -0.000000
   24        8.876618   0.000000
   25       11.413767   0.000000
   26       12.478777   0.000000
   27       12.884553   0.000000
   28       14.318836   0.000000
   29       14.435370   0.000000
   30       14.624673   0.000000
   31       15.894519   0.000000
   32       15.924331   0.000000
   33       15.930301   0.000000
   34       20.696090   0.000000
   35       20.984000   0.000000
   36       21.534410   0.000000
   37       21.551095   0.000000
   38       21.601678   0.000000
   39       22.667431   0.000000
   40       22.870734   0.000000
   41       23.133277   0.000000
   42       23.994748   0.000000
   43       24.518741   0.000000
   44       26.726902   0.000000
   45       28.615860   0.000000
   46       28.654054   0.000000
   47       29.600105   0.000000
   48       31.386061   0.000000
 
  0.3333333E+00  0.1111111E+00  0.0000000E+00  0.3292181E-01
    1        0.540792   1.000000
    2        1.007276   1.000000
    3        1.015389   1.000000
    4        1.020358   1.000000
    5        1.079415   1.000000
    6        1.157689   1.000000
    7        1.219896   1.000000
    8        1.519223   1.000000
    9        2.033577   1.000000
   10        2.081604   1.000000
   11        2.191039   1.000000
   12        2.244407   1.000000
   13        2.371047   1.000000
   14        2.554288   1.000000
   15        2.665635   1.000000
   16        2.680550   1.000000
   17        2.726985   1.000000
   18        2.785600   1.000000
   19        2.933268   1.000000
   20        3.159111   1.000000
   21        3.162543   1.000000
   22        4.434455   1.000000
   23        8.547753  -0.000000
   24        9.776805   0.000000
   25       11.217997   0.000000
   26       12.096745   0.000000
   27       12.582178   0.000000
   28       13.246577   0.000000
   29       13.991556   0.000000
   30       15.205449   0.000000
   31       16.367864   0.000000
   32       16.701859   0.000000
   33       16.900899   0.000000
   34       19.778596   0.000000
   35       19.833078   0.000000
   36       21.647987   0.000000
   37       21.779281   0.000000
   38       22.409912   0.000000
   39       22.952567   0.000000
   40       22.973260   0.000000
   41       24.179560   0.000000
   42       24.879704   0.000000
   43       25.058646   0.000000
   44       26.448975   0.000000
   45       28.728279   0.000000
   46       29.346203   0.000000
   47       29.446583   0.000000
   48       29.758257   0.000000
 
  0.4444444E+00  0.1111111E+00  0.0000000E+00  0.3292181E-01
    1        0.988875   1.000000
    2        1.118992   1.000000
    3        1.175455   1.000000
    4        1.203347   1.000000
    5        1.228870   1.000000
    6        1.350452   1.000000
    7        1.457628   1.000000
    8        1.471051   1.000000
    9        1.791814   1.000000
   10        1.827630   1.000000
   11        2.092736   1.000000
   12        2.291875   1.000000
   13        2.292821   1.000000
   14        2.535235   1.000000
   15        2.552217   1.000000
   16        2.570624   1.000000
   17        2.581060   1.000000
   18        2.811908   1.000000
   19        2.822083   1.000000
   20        3.159618   1.000000
   21        3.160976   1.000000
   22        3.374934   1.000000
   23        9.440011   0.000000
   24       10.381731   0.000000
   25       10.848227   0.000000
   26       12.024232   0.000000
   27       12.146132   0.000000
   28       12.438700   0.000000
   29       13.954195   0.000000
   30       14.463949   0.000000
   31       17.525533   0.000000
   32       17.683652   0.000000
   33       18.621871   0.000000
   34       18.772565   0.000000
   35       19.097792   0.000000
   36       21.380423   0.000000
   37       21.806316   0.000000
   38       22.050747   0.000000
   39       22.176968   0.000000
   40       23.036772   0.000000
   41       24.711756   0.000000
   42       25.899155   0.000000
   43       26.116772   0.000000
   44       27.775469   0.000000
   45       28.375835   0.000000
   46       28.481281   0.000000
   47       29.666142   0.000000
   48       30.399307   0.000000
 
  0.2222222E+00  0.2222222E+00  0.0000000E+00  0.1646091E-01
    1        0.358098   1.000000
    2        0.904184   1.000000
    3        1.004482   1.000000
    4        1.004482   1.000000
    5        1.010769   1.000000
    6        1.010769   1.000000
    7        1.176570   1.000000
    8        1.634968   1.000000
    9        1.964823   1.000000
   10        1.979217   1.000000
   11        2.369173   1.000000
   12        2.414318   1.000000
   13        2.414318   1.000000
   14        2.476365   1.000000
   15        2.645853   1.000000
   16        2.746201   1.000000
   17        2.913352   1.000000
   18        2.913352   1.000000
   19        3.005428   1.000000
   20        3.005428   1.000000
   21        3.065726   1.000000
   22        6.319278  -0.000008
   23        6.319278  -0.000008
   24        9.454497   0.000000
   25       11.031218   0.000000
   26       11.976846   0.000000
   27       14.216371   0.000000
   28       14.216371   0.000000
   29       14.897336   0.000000
   30       14.897336   0.000000
   31       15.275385   0.000000
   32       15.275385   0.000000
   33       17.020154   0.000000
   34       19.610251   0.000000
   35       19.676585   0.000000
   36       20.928332   0.000000
   37       22.772868   0.000000
   38       22.772868   0.000000
   39       23.213526   0.000000
   40       23.213526   0.000000
   41       23.461294   0.000000
   42       25.368129   0.000000
   43       25.408389   0.000000
   44       26.326275   0.000000
   45       27.717201   0.000000
   46       28.454897   0.000000
   47       30.185245   0.000000
   48       30.744707   0.000000
 
  0.3333333E+00  0.2222222E+00  0.0000000E+00  0.3292181E-01
    1        0.770403   1.000000
    2        1.041869   1.000000
    3        1.122264   1.000000
    4        1.167329   1.000000
    5        1.204513   1.000000
    6        1.212122   1.000000
    7        1.388812   1.000000
    8        1.543630   1.000000
    9        1.994285   1.000000
   10        2.023475   1.000000
   11        2.093739   1.000000
   12        2.164770   1.000000
   13        2.183040   1.000000
   14        2.356641   1.000000
   15        2.609311   1.000000
   16        2.740201   1.000000
   17        2.781052   1.000000
   18        2.840402   1.000000
   19        2.847288   1.000000
   20        3.001701   1.000000
   21        3.016446   1.000000
   22        4.988020   1.000000
   23        7.052356  -0.000000
   24        9.944554   0.000000
   25       10.302433   0.000000
   26       12.036326   0.000000
   27       13.608966   0.000000
   28       13.696743   0.000000
   29       15.315921   0.000000
   30       15.341437   0.000000
   31       15.611487   0.000000
   32       17.026464   0.000000
   33       17.053120   0.000000
   34       18.363165   0.000000
   35       18.603259   0.000000
   36       21.686840   0.000000
   37       22.952101   0.000000
   38       23.421925   0.000000
   39       23.639308   0.000000
   40       23.729810   0.000000
   41       24.322427   0.000000
   42       24.899055   0.000000
   43       25.701037   0.000000
   44       27.066561   0.000000
   45       28.285485   0.000000
   46       28.826139   0.000000
   47       28.981117   0.000000
   48       29.900859   0.000000
 
  0.4444444E+00  0.2222222E+00  0.0000000E+00  0.3292181E-01
    1        1.168060   1.000000
    2        1.237475   1.000000
    3        1.260704   1.000000
    4        1.295937   1.000000
    5        1.347444   1.000000
    6        1.408679   1.000000
    7        1.484720   1.000000
    8        1.559919   1.000000
    9        1.706664   1.000000
   10        1.812811   1.000000
   11        1.918517   1.000000
   12        1.967541   1.000000
   13        2.292029   1.000000
   14        2.511588   1.000000
   15        2.511907   1.000000
   16        2.531201   1.000000
   17        2.567157   1.000000
   18        2.709675   1.000000
   19        2.998994   1.000000
   20        3.001025   1.000000
   21        3.212369   1.000000
   22        3.918624   1.000000
   23        7.904525  -0.000000
   24        8.867130   0.000000
   25       11.333645   0.000000
   26       12.382951   0.000000
   27       12.483876   0.000000
   28       12.917726   0.000000
   29       15.784776   0.000000
   30       16.242928   0.000000
   31       16.434166   0.000000
   32       16.512359   0.000000
   33       17.242704   0.000000
   34       17.530911   0.000000
   35       19.307386   0.000000
   36       21.633915   0.000000
   37       23.199357   0.000000
   38       23.319567   0.000000
   39       23.473074   0.000000
   40       23.850353   0.000000
   41       24.605530   0.000000
   42       24.938027   0.000000
   43       26.069780   0.000000
   44       27.972769   0.000000
   45       27.990052   0.000000
   46       28.967025   0.000000
   47       29.137195   0.000000
   48       29.817095   0.000000
 
  0.3333333E+00  0.3333333E+00  0.0000000E+00  0.1646091E-01
    1        1.076648   1.000000
    2        1.126883   1.000000
    3        1.294378   1.000000
    4        1.294378   1.000000
    5        1.389009   1.000000
    6        1.389009   1.000000
    7        1.538785   1.000000
    8        1.586943   1.000000
    9        1.833099   1.000000
   10        1.833099   1.000000
   11        1.999215   1.000000
   12        2.002868   1.000000
   13        2.163998   1.000000
   14        2.270489   1.000000
   15        2.500579   1.000000
   16        2.685442   1.000000
   17        2.685442   1.000000
   18        2.777684   1.000000
   19        2.777684   1.000000
   20        2.884133   1.000000
   21        3.196165   1.000000
   22        5.697693   1.000257
   23        5.697693   1.000257
   24        8.645226  -0.000000
   25       11.093511   0.000000
   26       12.306977   0.000000
   27       14.289648   0.000000
   28       14.289648   0.000000
   29       14.393815   0.000000
   30       14.393815   0.000000
   31       17.095984   0.000000
   32       17.399173   0.000000
   33       17.399173   0.000000
   34       17.420704   0.000000
   35       18.547920   0.000000
   36       21.039411   0.000000
   37       23.566432   0.000000
   38       24.549348   0.000000
   39       24.549348   0.000000
   40       24.599418   0.000000
   41       24.711737   0.000000
   42       24.711737   0.000000
   43       25.149587   0.000000
   44       27.105101   0.000000
   45       28.554352   0.000000
   46       28.554352   0.000000
   47       28.584025   0.000000
   48       30.222184   0.000000
 
  0.4444444E+00  0.3333333E+00  0.0000000E+00  0.3292181E-01
    1        1.279567   1.000000
    2        1.356591   1.000000
    3        1.390896   1.000000
    4        1.481130   1.000000
    5        1.481479   1.000000
    6        1.518841   1.000000
    7        1.529114   1.000000
    8        1.664450   1.000000
    9        1.716524   1.000000
   10        1.718521   1.000000
   11        1.770243   1.000000
   12        1.883965   1.000000
   13        2.318192   1.000000
   14        2.356308   1.000000
   15        2.423650   1.000000
   16        2.505411   1.000000
   17        2.535574   1.000000
   18        2.546237   1.000000
   19        2.782552   1.000000
   20        2.810373   1.000000
   21        3.751386   1.000000
   22        4.581029   1.000000
   23        6.532275  -0.000000
   24        7.507237  -0.000000
   25       12.077017   0.000000
   26       12.764272   0.000000
   27       13.194103   0.000000
   28       13.421279   0.000000
   29       15.064643   0.000000
   30       15.280492   0.000000
   31       15.997004   0.000000
   32       16.303497   0.000000
   33       17.940359   0.000000
   34       18.554120   0.000000
   35       19.674867   0.000000
   36       21.935023   0.000000
   37       22.126551   0.000000
   38       23.903206   0.000000
   39       24.572338   0.000000
   40       24.574790   0.000000
   41       24.813976   0.000000
   42       24.952802   0.000000
   43       26.326330   0.000000
   44       27.851464   0.000000
   45       28.219211   0.000000
   46       28.258802   0.000000
   47       29.150421   0.000000
   48       29.579001   0.000000
 
  0.4444444E+00  0.4444444E+00  0.0000000E+00  0.1646091E-01
    1        1.352822   1.000000
    2        1.439201   1.000000
    3        1.477441   1.000000
    4        1.477441   1.000000
    5        1.533665   1.000000
    6        1.542862   1.000000
    7        1.542862   1.000000
    8        1.680016   1.000000
    9        1.814707   1.000000
   10        1.814707   1.000000
   11        1.872143   1.000000
   12        1.955455   1.000000
   13        2.239481   1.000000
   14        2.316198   1.000000
   15        2.366816   1.000000
   16        2.366816   1.000000
   17        2.404594   1.000000
   18        2.567752   1.000000
   19        2.567752   1.000000
   20        2.655073   1.000000
   21        4.457090   1.000000
   22        5.377702   1.000000
   23        5.377702   1.000000
   24        6.344392  -0.000002
   25       13.016231   0.000000
   26       13.325127   0.000000
   27       14.087908   0.000000
   28       14.087908   0.000000
   29       14.098759   0.000000
   30       14.098759   0.000000
   31       14.943594   0.000000
   32       15.148255   0.000000
   33       20.208102   0.000000
   34       20.208102   0.000000
   35       20.477104   0.000000
   36       21.418806   0.000000
   37       22.226016   0.000000
   38       22.705354   0.000000
   39       23.069971   0.000000
   40       23.069971   0.000000
   41       26.186260   0.000000
   42       26.541049   0.000000
   43       26.541049   0.000000
   44       28.106939   0.000000
   45       28.895007   0.000000
   46       29.330856   0.000000
   47       29.469851   0.000000
   48       29.775219   0.000000
 
  0.1111111E+00  0.1111111E+00  0.1111111E+00  0.1097394E-01
    1       -0.133444   1.000000
    2        0.773505   1.000000
    3        0.773505   1.000000
    4        0.773505   1.000000
    5        0.870793   1.000000
    6        0.870793   1.000000
    7        0.870793   1.000000
    8        1.741850   1.000000
    9        1.858171   1.000000
   10        1.858171   1.000000
   11        2.494097   1.000000
   12        2.494097   1.000000
   13        2.912903   1.000000
   14        2.912903   1.000000
   15        2.912903   1.000000
   16        2.916396   1.000000
   17        2.916396   1.000000
   18        2.916396   1.000000
   19        3.165371   1.000000
   20        3.165371   1.000000
   21        3.165371   1.000000
   22        7.390589  -0.000000
   23        7.390589  -0.000000
   24        7.390589  -0.000000
   25       12.391532   0.000000
   26       12.391532   0.000000
   27       12.391532   0.000000
   28       14.251160   0.000000
   29       14.251160   0.000000
   30       14.251160   0.000000
   31       16.194389   0.000000
   32       16.194389   0.000000
   33       16.194389   0.000000
   34       20.585275   0.000000
   35       20.930078   0.000000
   36       20.930078   0.000000
   37       20.930078   0.000000
   38       22.151653   0.000000
   39       22.855373   0.000000
   40       22.855373   0.000000
   41       22.855373   0.000000
   42       23.772224   0.000000
   43       23.772224   0.000000
   44       27.347254   0.000000
   45       28.362206   0.000000
   46       28.362206   0.000000
   47       30.909805   0.000000
   48       30.909810   0.000000
 
  0.2222222E+00  0.1111111E+00  0.1111111E+00  0.3292181E-01
    1        0.165643   1.000000
    2        0.867301   1.000000
    3        0.875182   1.000000
    4        0.875182   1.000000
    5        0.966665   1.000000
    6        1.032558   1.000000
    7        1.032558   1.000000
    8        1.679892   1.000000
    9        1.930925   1.000000
   10        1.932378   1.000000
   11        2.426102   1.000000
   12        2.560283   1.000000
   13        2.579540   1.000000
   14        2.579540   1.000000
   15        2.743848   1.000000
   16        2.780317   1.000000
   17        2.824313   1.000000
   18        2.824313   1.000000
   19        3.113020   1.000000
   20        3.144741   1.000000
   21        3.144741   1.000000
   22        5.966157   0.606849
   23        7.941883  -0.000000
   24        7.941883  -0.000000
   25       12.320146   0.000000
   26       12.320146   0.000000
   27       13.237876   0.000000
   28       13.237876   0.000000
   29       14.153419   0.000000
   30       14.920864   0.000000
   31       16.047377   0.000000
   32       16.047377   0.000000
   33       16.704988   0.000000
   34       19.457509   0.000000
   35       20.941918   0.000000
   36       21.544738   0.000000
   37       21.544738   0.000000
   38       21.862555   0.000000
   39       22.614821   0.000000
   40       22.967117   0.000000
   41       24.357602   0.000000
   42       24.557367   0.000000
   43       24.557367   0.000000
   44       26.352790   0.000000
   45       28.565352   0.000000
   46       28.702762   0.000000
   47       29.363807   0.000000
   48       31.436167   0.000000
 
  0.3333333E+00  0.1111111E+00  0.1111111E+00  0.3292181E-01
    1        0.604331   1.000000
    2        0.989555   1.000000
    3        1.049563   1.000000
    4        1.049563   1.000000
    5        1.119532   1.000000
    6        1.246976   1.000000
    7        1.246976   1.000000
    8        1.559754   1.000000
    9        2.013241   1.000000
   10        2.050397   1.000000
   11        2.181489   1.000000
   12        2.181489   1.000000
   13        2.452844   1.000000
   14        2.491516   1.000000
   15        2.598455   1.000000
   16        2.660609   1.000000
   17        2.676454   1.000000
   18        2.676454   1.000000
   19        3.023768   1.000000
   20        3.127433   1.000000
   21        3.127433   1.000000
   22        4.628200   1.000000
   23        8.702836  -0.000000
   24        8.702836  -0.000000
   25       11.544813   0.000000
   26       11.544813   0.000000
   27       13.141347   0.000000
   28       13.141347   0.000000
   29       15.225007   0.000000
   30       15.343924   0.000000
   31       15.343924   0.000000
   32       16.816378   0.000000
   33       17.516878   0.000000
   34       18.298487   0.000000
   35       20.995395   0.000000
   36       21.225387   0.000000
   37       21.509474   0.000000
   38       22.978498   0.000000
   39       22.978498   0.000000
   40       23.189155   0.000000
   41       23.814510   0.000000
   42       24.989614   0.000000
   43       26.430088   0.000000
   44       26.430088   0.000000
   45       28.598387   0.000000
   46       29.118117   0.000000
   47       29.521524   0.000000
   48       29.521525   0.000000
 
  0.4444444E+00  0.1111111E+00  0.1111111E+00  0.3292181E-01
    1        1.007013   1.000000
    2        1.094419   1.000000