       N       E                     dE             d eps       ncg     rms          rms(c)
DAV:   1     0.189786615577E+03    0.18979E+03   -0.18516E+04  3360   0.711E+02
DAV:   2    -0.830869042794E+01   -0.19810E+03   -0.18546E+03  4320   0.177E+02
DAV:   3    -0.112304339951E+02   -0.29217E+01   -0.29192E+01  3912   0.233E+01
DAV:   4    -0.112399069239E+02   -0.94729E-02   -0.94727E-02  4704   0.142E+00
DAV:   5    -0.112400044378E+02   -0.97514E-04   -0.97514E-04  3984   0.146E-01    0.641E+00
DAV:   6    -0.105088807317E+02    0.73112E+00   -0.21522E+00  4224   0.783E+00    0.456E+00
DAV:   7    -0.104988073332E+02    0.10073E-01   -0.11843E-02  4032   0.554E-01    0.276E+00
DAV:   8    -0.104936885677E+02    0.51188E-02   -0.28504E-03  4128   0.248E-01    0.898E-02
DAV:   9    -0.104937463462E+02   -0.57779E-04   -0.35840E-05  3432   0.227E-02
   1 F= -.10493746E+02 E0= -.10494177E+02  d E =0.129303E-02
