 vasp.5.4.1 05Feb16 (build Feb 08 2018 09:21:51) complex                        
  
 executed on             LinuxIFC date 2019.11.21  15:55:00
 running on   24 total cores
 distrk:  each k-point on   24 cores,    1 groups
 distr:  one band on NCORES_PER_BAND=   1 cores,   24 groups


--------------------------------------------------------------------------------------------------------


 INCAR:
 POTCAR:    PAW_PBE Ag 02Apr2005                  

 ----------------------------------------------------------------------------- 
|                                                                             |
|           W    W    AA    RRRRR   N    N  II  N    N   GGGG   !!!           |
|           W    W   A  A   R    R  NN   N  II  NN   N  G    G  !!!           |
|           W    W  A    A  R    R  N N  N  II  N N  N  G       !!!           |
|           W WW W  AAAAAA  RRRRR   N  N N  II  N  N N  G  GGG   !            |
|           WW  WW  A    A  R   R   N   NN  II  N   NN  G    G                |
|           W    W  A    A  R    R  N    N  II  N    N   GGGG   !!!           |
|                                                                             |
|      For optimal performance we recommend to set                            |
|        NCORE= 4 - approx SQRT( number of cores)                             |
|      NCORE specifies how many cores store one orbital (NPAR=cpu/NCORE).     |
|      This setting can  greatly improve the performance of VASP for DFT.     |
|      The default, NPAR=number of cores might be grossly inefficient         |
|      on modern multi-core architectures or massively parallel machines.     |
|      Do your own testing !!!!                                               |
|      Unfortunately you need to use the default for GW and RPA calculations. |
|      (for HF NCORE is supported but not extensively tested yet)             |
|                                                                             |
 ----------------------------------------------------------------------------- 

 POTCAR:    PAW_PBE Ag 02Apr2005                  
   VRHFIN =Ag : s1 d10                                                          
   LEXCH  = PE                                                                  
   EATOM  =  1037.2675 eV,   76.2370 Ry                                         
                                                                                
   TITEL  = PAW_PBE Ag 02Apr2005                                                
   LULTRA =        F    use ultrasoft PP ?                                      
   IUNSCR =        1    unscreen: 0-lin 1-nonlin 2-no                           
   RPACOR =    2.000    partial core radius                                     
   POMASS =  107.868; ZVAL   =   11.000    mass and valenz                      
   RCORE  =    2.500    outmost cutoff radius                                   
   RWIGS  =    2.840; RWIGS  =    1.503    wigner-seitz radius (au A)           
   ENMAX  =  249.844; ENMIN  =  187.383 eV                                      
   ICORE  =        3    local potential                                         
   LCOR   =        T    correct aug charges                                     
   LPAW   =        T    paw PP                                                  
   EAUG   =  412.496                                                            
   DEXC   =    0.000                                                            
   RMAX   =    2.560    core radius for proj-oper                               
   RAUG   =    1.300    factor for augmentation sphere                          
   RDEP   =    2.576    radius for radial grids                                 
   RDEPT  =    2.072    core radius for aug-charge                              
                                                                                
   Atomic configuration                                                         
   12 entries                                                                   
     n  l   j            E        occ.                                          
     1  0  0.50    -25324.9161   2.0000                                         
     2  0  0.50     -3728.5341   2.0000                                         
     2  1  1.50     -3344.0404   6.0000                                         
     3  0  0.50      -683.5581   2.0000                                         
     3  1  1.50      -557.3225   6.0000                                         
     3  2  2.50      -358.3853  10.0000                                         
     4  0  0.50       -95.0341   2.0000                                         
     4  1  1.50       -58.5511   6.0000                                         
     4  2  2.50        -7.4440  10.0000                                         
     5  0  0.50        -4.4045   1.0000                                         
     5  1  0.50        -1.3606   0.0000                                         
     4  3  2.50        -1.3606   0.0000                                         
   Description                                                                  
     l       E           TYP  RCUT    TYP  RCUT                                 
     2     -7.4439781     23  2.400                                             
     2     -8.8045607     23  2.400                                             
     0     -4.4044681     23  2.400                                             
     0      1.9520038     23  2.400                                             
     1     -1.3605826     23  2.500                                             
     1     27.2116520     23  2.500                                             
     3     -4.0817478     23  2.400                                             
  local pseudopotential read in
  partial core-charges read in
  partial kinetic energy density read in
  atomic valenz-charges read in
  non local Contribution for L=           2  read in
    real space projection operators read in
  non local Contribution for L=           2  read in
    real space projection operators read in
  non local Contribution for L=           0  read in
    real space projection operators read in
  non local Contribution for L=           0  read in
    real space projection operators read in
  non local Contribution for L=           1  read in
    real space projection operators read in
  non local Contribution for L=           1  read in
    real space projection operators read in
    PAW grid and wavefunctions read in
 
   number of l-projection  operators is LMAX  =           6
   number of lm-projection operators is LMMAX =          18
 
  PAW_PBE Ag 02Apr2005                  :
 energy of atom  1       EATOM=-1037.2675
 kinetic energy error for atom=    0.0091 (will be added to EATOM!!)
 
 
 POSCAR: Ag                                      
  positions in cartesian coordinates
  No initial velocities read in
 exchange correlation table for  LEXCH =        8
   RHO(1)=    0.500       N(1)  =     2000
   RHO(2)=  100.500       N(2)  =     4000
 


--------------------------------------------------------------------------------------------------------


 ion  position               nearest neighbor table
   1  0.000  0.000  0.000-   2 3.08   3 3.08   4 3.08   2 3.08   3 3.08   2 3.08   4 3.08   2 3.08
                             3 3.08   4 3.08   3 3.08   4 3.08
   2  0.000  0.500  0.500-   1 3.08   3 3.08   4 3.08   1 3.08   4 3.08   1 3.08   3 3.08   1 3.08
                             3 3.08   4 3.08   4 3.08   3 3.08
   3  0.500  0.000  0.500-   1 3.08   2 3.08   4 3.08   1 3.08   4 3.08   2 3.08   4 3.08   4 3.08
                             1 3.08   2 3.08   1 3.08   2 3.08
   4  0.500  0.500  0.000-   1 3.08   2 3.08   3 3.08   2 3.08   3 3.08   1 3.08   3 3.08   3 3.08
                             1 3.08   2 3.08   2 3.08   1 3.08
 
  LATTYP: Found a simple cubic cell.
 ALAT       =     4.3626666667
  
  Lattice vectors:
  
 A1 = (   4.3626666667,   0.0000000000,   0.0000000000)
 A2 = (   0.0000000000,   4.3626666667,   0.0000000000)
 A3 = (   0.0000000000,   0.0000000000,   4.3626666667)


Analysis of symmetry for initial positions (statically):
=====================================================================
 Subroutine PRICEL returns following result:
 
  LATTYP: Found a face centered cubic cell.
 ALAT       =     4.3626666667
  
  Lattice vectors:
  
 A1 = (   2.1813333333,   2.1813333333,   0.0000000000)
 A2 = (   2.1813333333,   0.0000000000,  -2.1813333333)
 A3 = (   0.0000000000,   2.1813333333,  -2.1813333333)
 
   4 primitive cells build up your supercell.
 

 Routine SETGRP: Setting up the symmetry group for a 
 simple cubic supercell.


 Subroutine GETGRP returns: Found 48 space group operations
 (whereof 48 operations were pure point group operations)
 out of a pool of 48 trial point group operations.


The static configuration has the point symmetry O_h .


Analysis of symmetry for dynamics (positions and initial velocities):
=====================================================================
 Subroutine PRICEL returns following result:
 
  LATTYP: Found a face centered cubic cell.
 ALAT       =     4.3626666667
  
  Lattice vectors:
  
 A1 = (   2.1813333333,   2.1813333333,   0.0000000000)
 A2 = (   2.1813333333,   0.0000000000,  -2.1813333333)
 A3 = (   0.0000000000,   2.1813333333,  -2.1813333333)
 
   4 primitive cells build up your supercell.
 

 Routine SETGRP: Setting up the symmetry group for a 
 simple cubic supercell.


 Subroutine GETGRP returns: Found 48 space group operations
 (whereof 48 operations were pure point group operations)
 out of a pool of 48 trial point group operations.


The dynamic configuration has the point symmetry O_h .


 Subroutine INISYM returns: Found 48 space group operations
 (whereof 48 operations are pure point group operations),
 and found     4 'primitive' translations

 
 
 KPOINTS: KPOINTS created by Atomic Simulation Env

Automatic generation of k-mesh.
Space group operators:
 irot       det(A)        alpha          n_x          n_y          n_z        tau_x        tau_y        tau_z
    1     1.000000     0.000001     1.000000     0.000000     0.000000     0.000000     0.000000     0.000000
    2    -1.000000     0.000001     1.000000     0.000000     0.000000     0.000000     0.000000     0.000000
    3     1.000000   120.000000    -0.577350    -0.577350    -0.577350     0.000000     0.000000     0.000000
    4    -1.000000   120.000000    -0.577350    -0.577350    -0.577350     0.000000     0.000000     0.000000
    5     1.000000   120.000000     0.577350     0.577350     0.577350     0.000000     0.000000     0.000000
    6    -1.000000   120.000000     0.577350     0.577350     0.577350     0.000000     0.000000     0.000000
    7     1.000000    90.000000     0.000000     0.000000    -1.000000     0.000000     0.000000     0.000000
    8    -1.000000    90.000000     0.000000     0.000000    -1.000000     0.000000     0.000000     0.000000
    9     1.000000   180.000000     0.000000     0.707107     0.707107     0.000000     0.000000     0.000000
   10    -1.000000   180.000000     0.000000     0.707107     0.707107     0.000000     0.000000     0.000000
   11     1.000000    90.000000     0.000000     1.000000     0.000000     0.000000     0.000000     0.000000
   12    -1.000000    90.000000     0.000000     1.000000     0.000000     0.000000     0.000000     0.000000
   13     1.000000   180.000000     0.000000     0.000000     1.000000     0.000000     0.000000     0.000000
   14    -1.000000   180.000000     0.000000     0.000000     1.000000     0.000000     0.000000     0.000000
   15     1.000000   120.000000    -0.577350     0.577350     0.577350     0.000000     0.000000     0.000000
   16    -1.000000   120.000000    -0.577350     0.577350     0.577350     0.000000     0.000000     0.000000
   17     1.000000   120.000000    -0.577350     0.577350    -0.577350     0.000000     0.000000     0.000000
   18    -1.000000   120.000000    -0.577350     0.577350    -0.577350     0.000000     0.000000     0.000000
   19     1.000000    90.000000     0.000000     0.000000     1.000000     0.000000     0.000000     0.000000
   20    -1.000000    90.000000     0.000000     0.000000     1.000000     0.000000     0.000000     0.000000
   21     1.000000    90.000000    -1.000000     0.000000     0.000000     0.000000     0.000000     0.000000
   22    -1.000000    90.000000    -1.000000     0.000000     0.000000     0.000000     0.000000     0.000000
   23     1.000000   180.000000     0.707107     0.000000     0.707107     0.000000     0.000000     0.000000
   24    -1.000000   180.000000     0.707107     0.000000     0.707107     0.000000     0.000000     0.000000
   25     1.000000   120.000000     0.577350    -0.577350     0.577350     0.000000     0.000000     0.000000
   26    -1.000000   120.000000     0.577350    -0.577350     0.577350     0.000000     0.000000     0.000000
   27     1.000000   120.000000    -0.577350    -0.577350     0.577350     0.000000     0.000000     0.000000
   28    -1.000000   120.000000    -0.577350    -0.577350     0.577350     0.000000     0.000000     0.000000
   29     1.000000   180.000000     1.000000     0.000000     0.000000     0.000000     0.000000     0.000000
   30    -1.000000   180.000000     1.000000     0.000000     0.000000     0.000000     0.000000     0.000000
   31     1.000000    90.000000     0.000000    -1.000000     0.000000     0.000000     0.000000     0.000000
   32    -1.000000    90.000000     0.000000    -1.000000     0.000000     0.000000     0.000000     0.000000
   33     1.000000   180.000000     0.707107     0.707107     0.000000     0.000000     0.000000     0.000000
   34    -1.000000   180.000000     0.707107     0.707107     0.000000     0.000000     0.000000     0.000000
   35     1.000000    90.000000     1.000000     0.000000     0.000000     0.000000     0.000000     0.000000
   36    -1.000000    90.000000     1.000000     0.000000     0.000000     0.000000     0.000000     0.000000
   37     1.000000   120.000000     0.577350    -0.577350    -0.577350     0.000000     0.000000     0.000000
   38    -1.000000   120.000000     0.577350    -0.577350    -0.577350     0.000000     0.000000     0.000000
   39     1.000000   180.000000     0.000000     1.000000     0.000000     0.000000     0.000000     0.000000
   40    -1.000000   180.000000     0.000000     1.000000     0.000000     0.000000     0.000000     0.000000
   41     1.000000   120.000000     0.577350     0.577350    -0.577350     0.000000     0.000000     0.000000
   42    -1.000000   120.000000     0.577350     0.577350    -0.577350     0.000000     0.000000     0.000000
   43     1.000000   180.000000     0.000000    -0.707107     0.707107     0.000000     0.000000     0.000000
   44    -1.000000   180.000000     0.000000    -0.707107     0.707107     0.000000     0.000000     0.000000
   45     1.000000   180.000000     0.707107    -0.707107     0.000000     0.000000     0.000000     0.000000
   46    -1.000000   180.000000     0.707107    -0.707107     0.000000     0.000000     0.000000     0.000000
   47     1.000000   180.000000     0.707107     0.000000    -0.707107     0.000000     0.000000     0.000000
   48    -1.000000   180.000000     0.707107     0.000000    -0.707107     0.000000     0.000000     0.000000
 
 Subroutine IBZKPT returns following result:
 ===========================================
 
 Found     35 irreducible k-points:
 
 Following reciprocal coordinates:
            Coordinates               Weight
  0.000000  0.000000  0.000000      1.000000
  0.111111  0.000000  0.000000      6.000000
  0.222222  0.000000  0.000000      6.000000
  0.333333  0.000000  0.000000      6.000000
  0.444444  0.000000  0.000000      6.000000
  0.111111  0.111111  0.000000     12.000000
  0.222222  0.111111  0.000000     24.000000
  0.333333  0.111111  0.000000     24.000000
  0.444444  0.111111  0.000000     24.000000
  0.222222  0.222222  0.000000     12.000000
  0.333333  0.222222  0.000000     24.000000
  0.444444  0.222222  0.000000     24.000000
  0.333333  0.333333  0.000000     12.000000
  0.444444  0.333333  0.000000     24.000000
  0.444444  0.444444  0.000000     12.000000
  0.111111  0.111111  0.111111      8.000000
  0.222222  0.111111  0.111111     24.000000
  0.333333  0.111111  0.111111     24.000000
  0.444444  0.111111  0.111111     24.000000
  0.222222  0.222222  0.111111     24.000000
  0.333333  0.222222  0.111111     48.000000
  0.444444  0.222222  0.111111     48.000000
  0.333333  0.333333  0.111111     24.000000
  0.444444  0.333333  0.111111     48.000000
  0.444444  0.444444  0.111111     24.000000
  0.222222  0.222222  0.222222      8.000000
  0.333333  0.222222  0.222222     24.000000
  0.444444  0.222222  0.222222     24.000000
  0.333333  0.333333  0.222222     24.000000
  0.444444  0.333333  0.222222     48.000000
  0.444444  0.444444  0.222222     24.000000
  0.333333  0.333333  0.333333      8.000000
  0.444444  0.333333  0.333333     24.000000
  0.444444  0.444444  0.333333     24.000000
  0.444444  0.444444  0.444444      8.000000
 
 Following cartesian coordinates:
            Coordinates               Weight
  0.000000  0.000000  0.000000      1.000000
  0.025469  0.000000  0.000000      6.000000
  0.050937  0.000000  0.000000      6.000000
  0.076406  0.000000  0.000000      6.000000
  0.101874  0.000000  0.000000      6.000000
  0.025469  0.025469  0.000000     12.000000
  0.050937  0.025469  0.000000     24.000000
  0.076406  0.025469  0.000000     24.000000
  0.101874  0.025469  0.000000     24.000000
  0.050937  0.050937  0.000000     12.000000
  0.076406  0.050937  0.000000     24.000000
  0.101874  0.050937  0.000000     24.000000
  0.076406  0.076406  0.000000     12.000000
  0.101874  0.076406  0.000000     24.000000
  0.101874  0.101874  0.000000     12.000000
  0.025469  0.025469  0.025469      8.000000
  0.050937  0.025469  0.025469     24.000000
  0.076406  0.025469  0.025469     24.000000
  0.101874  0.025469  0.025469     24.000000
  0.050937  0.050937  0.025469     24.000000
  0.076406  0.050937  0.025469     48.000000
  0.101874  0.050937  0.025469     48.000000
  0.076406  0.076406  0.025469     24.000000
  0.101874  0.076406  0.025469     48.000000
  0.101874  0.101874  0.025469     24.000000
  0.050937  0.050937  0.050937      8.000000
  0.076406  0.050937  0.050937     24.000000
  0.101874  0.050937  0.050937     24.000000
  0.076406  0.076406  0.050937     24.000000
  0.101874  0.076406  0.050937     48.000000
  0.101874  0.101874  0.050937     24.000000
  0.076406  0.076406  0.076406      8.000000
  0.101874  0.076406  0.076406     24.000000
  0.101874  0.101874  0.076406     24.000000
  0.101874  0.101874  0.101874      8.000000
 


--------------------------------------------------------------------------------------------------------




 Dimension of arrays:
   k-points           NKPTS =     35   k-points in BZ     NKDIM =     35   number of bands    NBANDS=     48
   number of dos      NEDOS =    301   number of ions     NIONS =      4
   non local maximal  LDIM  =      6   non local SUM 2l+1 LMDIM =     18
   total plane-waves  NPLWV =  13824
   max r-space proj   IRMAX =      1   max aug-charges    IRDMAX=   8384
   dimension x,y,z NGX =    24 NGY =   24 NGZ =   24
   dimension x,y,z NGXF=    48 NGYF=   48 NGZF=   48
   support grid    NGXF=    48 NGYF=   48 NGZF=   48
   ions per type =               4
 NGX,Y,Z   is equivalent  to a cutoff of   9.15,  9.15,  9.15 a.u.
 NGXF,Y,Z  is equivalent  to a cutoff of  18.29, 18.29, 18.29 a.u.


 I would recommend the setting:
   dimension x,y,z NGX =    21 NGY =   21 NGZ =   21
 SYSTEM =  unknown system                          
 POSCAR =  Ag                                      

 Startparameter for this run:
   NWRITE =      2    write-flag & timer
   PREC   = normal    normal or accurate (medium, high low for compatibility)
   ISTART =      0    job   : 0-new  1-cont  2-samecut
   ICHARG =      2    charge: 1-file 2-atom 10-const
   ISPIN  =      1    spin polarized calculation?
   LNONCOLLINEAR =      F non collinear calculations
   LSORBIT =      F    spin-orbit coupling
   INIWAV =      1    electr: 0-lowe 1-rand  2-diag
   LASPH  =      F    aspherical Exc in radial PAW
   METAGGA=      F    non-selfconsistent MetaGGA calc.

 Electronic Relaxation 1
   ENCUT  =  400.0 eV  29.40 Ry    5.42 a.u.   7.11  7.11  7.11*2*pi/ulx,y,z
   ENINI  =  400.0     initial cutoff
   ENAUG  =  412.5 eV  augmentation charge cutoff
   NELM   =     60;   NELMIN=  2; NELMDL= -5     # of ELM steps 
   EDIFF  = 0.1E-03   stopping-criterion for ELM
   LREAL  =      F    real-space projection
   NLSPLINE    = F    spline interpolate recip. space projectors
   LCOMPAT=      F    compatible to vasp.4.4
   GGA_COMPAT  = T    GGA compatible to vasp.4.4-vasp.4.6
   LMAXPAW     = -100 max onsite density
   LMAXMIX     =    2 max onsite mixed and CHGCAR
   VOSKOWN=      0    Vosko Wilk Nusair interpolation
   ROPT   =    0.00000
 Ionic relaxation
   EDIFFG = 0.1E-02   stopping-criterion for IOM
   NSW    =      0    number of steps for IOM
   NBLOCK =      1;   KBLOCK =      1    inner block; outer block 
   IBRION =     -1    ionic relax: 0-MD 1-quasi-New 2-CG
   NFREE  =      0    steps in history (QN), initial steepest desc. (CG)
   ISIF   =      2    stress and relaxation
   IWAVPR =     10    prediction:  0-non 1-charg 2-wave 3-comb
   ISYM   =      2    0-nonsym 1-usesym 2-fastsym
   LCORR  =      T    Harris-Foulkes like correction to forces

   POTIM  = 0.5000    time-step for ionic-motion
   TEIN   =    0.0    initial temperature
   TEBEG  =    0.0;   TEEND  =   0.0 temperature during run
   SMASS  =  -3.00    Nose mass-parameter (am)
   estimated Nose-frequenzy (Omega)   =  0.10E-29 period in steps =****** mass=  -0.435E-27a.u.
   SCALEE = 1.0000    scale energy and forces
   NPACO  =    256;   APACO  = 16.0  distance and # of slots for P.C.
   PSTRESS=    0.0 pullay stress

  Mass of Ions in am
   POMASS = 107.87
  Ionic Valenz
   ZVAL   =  11.00
  Atomic Wigner-Seitz radii
   RWIGS  =  -1.00
  virtual crystal weights 
   VCA    =   1.00
   NELECT =      44.0000    total number of electrons
   NUPDOWN=      -1.0000    fix difference up-down

 DOS related values:
   EMIN   =  10.00;   EMAX   =-10.00  energy-range for DOS
   EFERMI =   0.00
   ISMEAR =     1;   SIGMA  =   0.10  broadening in eV -4-tet -1-fermi 0-gaus

 Electronic relaxation 2 (details)
   IALGO  =     38    algorithm
   LDIAG  =      T    sub-space diagonalisation (order eigenvalues)
   LSUBROT=      F    optimize rotation matrix (better conditioning)
   TURBO    =      0    0=normal 1=particle mesh
   IRESTART =      0    0=no restart 2=restart with 2 vectors
   NREBOOT  =      0    no. of reboots
   NMIN     =      0    reboot dimension
   EREF     =   0.00    reference energy to select bands
   IMIX   =      4    mixing-type and parameters
     AMIX     =   0.40;   BMIX     =  1.00
     AMIX_MAG =   1.60;   BMIX_MAG =  1.00
     AMIN     =   0.10
     WC   =   100.;   INIMIX=   1;  MIXPRE=   1;  MAXMIX= -45

 Intra band minimization:
   WEIMIN = 0.0000     energy-eigenvalue tresh-hold
   EBREAK =  0.52E-06  absolut break condition
   DEPER  =   0.30     relativ break condition  

   TIME   =   0.40     timestep for ELM

  volume/ion in A,a.u.               =      20.76       140.09
  Fermi-wavevector in a.u.,A,eV,Ry     =   1.324770  2.503452 23.878422  1.755015
  Thomas-Fermi vector in A             =   2.454280
 
 Write flags
   LWAVE  =      F    write WAVECAR
   LCHARG =      F    write CHGCAR
   LVTOT  =      F    write LOCPOT, total local potential
   LVHAR  =      F    write LOCPOT, Hartree potential only
   LELF   =      F    write electronic localiz. function (ELF)
   LORBIT =      0    0 simple, 1 ext, 2 COOP (PROOUT)


 Dipole corrections
   LMONO  =      F    monopole corrections only (constant potential shift)
   LDIPOL =      F    correct potential (dipole corrections)
   IDIPOL =      0    1-x, 2-y, 3-z, 4-all directions 
   EPSILON=  1.0000000 bulk dielectric constant

 Exchange correlation treatment:
   GGA     =    --    GGA type
   LEXCH   =     8    internal setting for exchange type
   VOSKOWN=      0    Vosko Wilk Nusair interpolation
   LHFCALC =     F    Hartree Fock is set to
   LHFONE  =     F    Hartree Fock one center treatment
   AEXX    =    0.0000 exact exchange contribution

 Linear response parameters
   LEPSILON=     F    determine dielectric tensor
   LRPA    =     F    only Hartree local field effects (RPA)
   LNABLA  =     F    use nabla operator in PAW spheres
   LVEL    =     F    velocity operator in full k-point grid
   LINTERFAST=   F  fast interpolation
   KINTER  =     0    interpolate to denser k-point grid
   CSHIFT  =0.1000    complex shift for real part using Kramers Kronig
   OMEGAMAX=  -1.0    maximum frequency
   DEG_THRESHOLD= 0.2000000E-02 threshold for treating states as degnerate
   RTIME   =    0.100 relaxation time in fs

 Orbital magnetization related:
   ORBITALMAG=     F  switch on orbital magnetization
   LCHIMAG   =     F  perturbation theory with respect to B field
   DQ        =  0.001000  dq finite difference perturbation B field



--------------------------------------------------------------------------------------------------------


 Static calculation
 charge density and potential will be updated during run
 non-spin polarized calculation
 Variant of blocked Davidson
 Davidson routine will perform the subspace rotation
 perform sub-space diagonalisation
    after iterative eigenvector-optimisation
 modified Broyden-mixing scheme, WC =      100.0
 initial mixing is a Kerker type mixing with AMIX =  0.4000 and BMIX =      1.0000
 Hartree-type preconditioning will be used
 using additional bands           26
 reciprocal scheme for non local part
 use partial core corrections
 calculate Harris-corrections to forces 
   (improved forces if not selfconsistent)
 use gradient corrections 
 use of overlap-Matrix (Vanderbilt PP)
 Methfessel and Paxton  Order N= 1 SIGMA  =   0.10


--------------------------------------------------------------------------------------------------------


  energy-cutoff  :      400.00
  volume of cell :       83.03
      direct lattice vectors                 reciprocal lattice vectors
     4.362666667  0.000000000  0.000000000     0.229217604  0.000000000  0.000000000
     0.000000000  4.362666667  0.000000000     0.000000000  0.229217604  0.000000000
     0.000000000  0.000000000  4.362666667     0.000000000  0.000000000  0.229217604

  length of vectors
     4.362666667  4.362666667  4.362666667     0.229217604  0.229217604  0.229217604


 
 k-points in units of 2pi/SCALE and weight: KPOINTS created by Atomic Simulation Env
   0.00000000  0.00000000  0.00000000       0.001
   0.02546862  0.00000000  0.00000000       0.008
   0.05093725  0.00000000  0.00000000       0.008
   0.07640587  0.00000000  0.00000000       0.008
   0.10187449  0.00000000  0.00000000       0.008
   0.02546862  0.02546862  0.00000000       0.016
   0.05093725  0.02546862  0.00000000       0.033
   0.07640587  0.02546862  0.00000000       0.033
   0.10187449  0.02546862  0.00000000       0.033
   0.05093725  0.05093725  0.00000000       0.016
   0.07640587  0.05093725  0.00000000       0.033
   0.10187449  0.05093725  0.00000000       0.033
   0.07640587  0.07640587  0.00000000       0.016
   0.10187449  0.07640587  0.00000000       0.033
   0.10187449  0.10187449  0.00000000       0.016
   0.02546862  0.02546862  0.02546862       0.011
   0.05093725  0.02546862  0.02546862       0.033
   0.07640587  0.02546862  0.02546862       0.033
   0.10187449  0.02546862  0.02546862       0.033
   0.05093725  0.05093725  0.02546862       0.033
   0.07640587  0.05093725  0.02546862       0.066
   0.10187449  0.05093725  0.02546862       0.066
   0.07640587  0.07640587  0.02546862       0.033
   0.10187449  0.07640587  0.02546862       0.066
   0.10187449  0.10187449  0.02546862       0.033
   0.05093725  0.05093725  0.05093725       0.011
   0.07640587  0.05093725  0.05093725       0.033
   0.10187449  0.05093725  0.05093725       0.033
   0.07640587  0.07640587  0.05093725       0.033
   0.10187449  0.07640587  0.05093725       0.066
   0.10187449  0.10187449  0.05093725       0.033
   0.07640587  0.07640587  0.07640587       0.011
   0.10187449  0.07640587  0.07640587       0.033
   0.10187449  0.10187449  0.07640587       0.033
   0.10187449  0.10187449  0.10187449       0.011
 
 k-points in reciprocal lattice and weights: KPOINTS created by Atomic Simulation Env
   0.00000000  0.00000000  0.00000000       0.001
   0.11111111  0.00000000  0.00000000       0.008
   0.22222222  0.00000000  0.00000000       0.008
   0.33333333  0.00000000  0.00000000       0.008
   0.44444444  0.00000000  0.00000000       0.008
   0.11111111  0.11111111  0.00000000       0.016
   0.22222222  0.11111111  0.00000000       0.033
   0.33333333  0.11111111  0.00000000       0.033
   0.44444444  0.11111111  0.00000000       0.033
   0.22222222  0.22222222  0.00000000       0.016
   0.33333333  0.22222222  0.00000000       0.033
   0.44444444  0.22222222  0.00000000       0.033
   0.33333333  0.33333333  0.00000000       0.016
   0.44444444  0.33333333  0.00000000       0.033
   0.44444444  0.44444444  0.00000000       0.016
   0.11111111  0.11111111  0.11111111       0.011
   0.22222222  0.11111111  0.11111111       0.033
   0.33333333  0.11111111  0.11111111       0.033
   0.44444444  0.11111111  0.11111111       0.033
   0.22222222  0.22222222  0.11111111       0.033
   0.33333333  0.22222222  0.11111111       0.066
   0.44444444  0.22222222  0.11111111       0.066
   0.33333333  0.33333333  0.11111111       0.033
   0.44444444  0.33333333  0.11111111       0.066
   0.44444444  0.44444444  0.11111111       0.033
   0.22222222  0.22222222  0.22222222       0.011
   0.33333333  0.22222222  0.22222222       0.033
   0.44444444  0.22222222  0.22222222       0.033
   0.33333333  0.33333333  0.22222222       0.033
   0.44444444  0.33333333  0.22222222       0.066
   0.44444444  0.44444444  0.22222222       0.033
   0.33333333  0.33333333  0.33333333       0.011
   0.44444444  0.33333333  0.33333333       0.033
   0.44444444  0.44444444  0.33333333       0.033
   0.44444444  0.44444444  0.44444444       0.011
 
 position of ions in fractional coordinates (direct lattice) 
   0.00000000  0.00000000  0.00000000
   0.00000000  0.50000000  0.50000000
   0.50000000  0.00000000  0.50000000
   0.50000000  0.50000000  0.00000000
 
 position of ions in cartesian coordinates  (Angst):
   0.00000000  0.00000000  0.00000000
   0.00000000  2.18133333  2.18133333
   2.18133333  0.00000000  2.18133333
   2.18133333  2.18133333  0.00000000
 


--------------------------------------------------------------------------------------------------------


 k-point  1 :   0.0000 0.0000 0.0000  plane waves:    1503
 k-point  2 :   0.1111 0.0000 0.0000  plane waves:    1483
 k-point  3 :   0.2222 0.0000 0.0000  plane waves:    1506
 k-point  4 :   0.3333 0.0000 0.0000  plane waves:    1510
 k-point  5 :   0.4444 0.0000 0.0000  plane waves:    1502
 k-point  6 :   0.1111 0.1111 0.0000  plane waves:    1492
 k-point  7 :   0.2222 0.1111 0.0000  plane waves:    1490
 k-point  8 :   0.3333 0.1111 0.0000  plane waves:    1497
 k-point  9 :   0.4444 0.1111 0.0000  plane waves:    1505
 k-point 10 :   0.2222 0.2222 0.0000  plane waves:    1512
 k-point 11 :   0.3333 0.2222 0.0000  plane waves:    1521
 k-point 12 :   0.4444 0.2222 0.0000  plane waves:    1518
 k-point 13 :   0.3333 0.3333 0.0000  plane waves:    1506
 k-point 14 :   0.4444 0.3333 0.0000  plane waves:    1517
 k-point 15 :   0.4444 0.4444 0.0000  plane waves:    1512
 k-point 16 :   0.1111 0.1111 0.1111  plane waves:    1493
 k-point 17 :   0.2222 0.1111 0.1111  plane waves:    1493
 k-point 18 :   0.3333 0.1111 0.1111  plane waves:    1510
 k-point 19 :   0.4444 0.1111 0.1111  plane waves:    1504
 k-point 20 :   0.2222 0.2222 0.1111  plane waves:    1506
 k-point 21 :   0.3333 0.2222 0.1111  plane waves:    1509
 k-point 22 :   0.4444 0.2222 0.1111  plane waves:    1512
 k-point 23 :   0.3333 0.3333 0.1111  plane waves:    1503
 k-point 24 :   0.4444 0.3333 0.1111  plane waves:    1519
 k-point 25 :   0.4444 0.4444 0.1111  plane waves:    1514
 k-point 26 :   0.2222 0.2222 0.2222  plane waves:    1505
 k-point 27 :   0.3333 0.2222 0.2222  plane waves:    1511
 k-point 28 :   0.4444 0.2222 0.2222  plane waves:    1509
 k-point 29 :   0.3333 0.3333 0.2222  plane waves:    1513
 k-point 30 :   0.4444 0.3333 0.2222  plane waves:    1506
 k-point 31 :   0.4444 0.4444 0.2222  plane waves:    1508
 k-point 32 :   0.3333 0.3333 0.3333  plane waves:    1502
 k-point 33 :   0.4444 0.3333 0.3333  plane waves:    1512
 k-point 34 :   0.4444 0.4444 0.3333  plane waves:    1504
 k-point 35 :   0.4444 0.4444 0.4444  plane waves:    1514

 maximum and minimum number of plane-waves per node :      1521     1483

 maximum number of plane-waves:      1521
 maximum index in each direction: 
   IXMAX=    7   IYMAX=    7   IZMAX=    7
   IXMIN=   -7   IYMIN=   -7   IZMIN=   -7

 WARNING: aliasing errors must be expected set NGX to  30 to avoid them
 WARNING: aliasing errors must be expected set NGY to  30 to avoid them
 WARNING: aliasing errors must be expected set NGZ to  30 to avoid them
 aliasing errors are usually negligible using standard VASP settings
 and one can safely disregard these warnings

 serial   3D FFT for wavefunctions
 parallel 3D FFT for charge:
    minimum data exchange during FFTs selected (reduces bandwidth)


 total amount of memory used by VASP on root node    40711. kBytes
========================================================================

   base      :      30000. kBytes
   nonl-proj :       7839. kBytes
   fftplans  :        221. kBytes
   grid      :        789. kBytes
   one-center:         62. kBytes
   wavefun   :       1800. kBytes
 
     INWAV:  cpu time    0.0000: real time    0.0000
 Broyden mixing: mesh for mixing (old mesh)
   NGX = 15   NGY = 15   NGZ = 15
  (NGX  = 48   NGY  = 48   NGZ  = 48)
  gives a total of   3375 points

 initial charge density was supplied:
 charge density of overlapping atoms calculated
 number of electron      44.0000000 magnetization 
 keeping initial charge density in first step


--------------------------------------------------------------------------------------------------------


 Maximum index for augmentation-charges          489 (set IRDMAX)


--------------------------------------------------------------------------------------------------------


 First call to EWALD:  gamma=   0.406
 Maximum number of real-space cells 3x 3x 3
 Maximum number of reciprocal cells 3x 3x 3

 FEWALD executed in parallel
    FEWALD:  cpu time    0.0023: real time    0.0023


----------------------------------------- Iteration    1(   1)  ---------------------------------------


    POTLOK:  cpu time    0.0155: real time    0.0156
    SETDIJ:  cpu time    0.0027: real time    0.0027
     EDDAV:  cpu time    0.5425: real time    0.5426
       DOS:  cpu time    0.0009: real time    0.0009
    --------------------------------------------
      LOOP:  cpu time    0.5643: real time    0.5784

 eigenvalue-minimisations  :  3360
 total energy-change (2. order) : 0.1897866E+03  (-0.1851596E+04)
 number of electron      44.0000000 magnetization 
 augmentation part       44.0000000 magnetization 

 Free energy of the ion-electron system (eV)
  ---------------------------------------------------
  alpha Z        PSCENC =       163.89966604
  Ewald energy   TEWEN  =     -3662.23060343
  -Hartree energ DENC   =      -933.67252697
  -exchange      EXHF   =         0.00000000
  -V(xc)+E(xc)   XCENC  =       -43.57531923
  PAW double counting   =      4013.84859731    -3829.39709692
  entropy T*S    EENTRO =         0.00081683
  eigenvalues    EBANDS =       331.87936846
  atomic energy  EATOM  =      4149.03371350
  Solvation  Ediel_sol  =         0.00000000
  ---------------------------------------------------
  free energy    TOTEN  =       189.78661558 eV

  energy without entropy =      189.78579875  energy(sigma->0) =      189.78634330


--------------------------------------------------------------------------------------------------------




----------------------------------------- Iteration    1(   2)  ---------------------------------------


     EDDAV:  cpu time    0.8274: real time    0.8345
       DOS:  cpu time    0.0007: real time    0.0007
    --------------------------------------------
      LOOP:  cpu time    0.8294: real time    0.8378

 eigenvalue-minimisations  :  4320
 total energy-change (2. order) :-0.1980953E+03  (-0.1854590E+03)
 number of electron      44.0000000 magnetization 
 augmentation part       44.0000000 magnetization 

 Free energy of the ion-electron system (eV)
  ---------------------------------------------------
  alpha Z        PSCENC =       163.89966604
  Ewald energy   TEWEN  =     -3662.23060343
  -Hartree energ DENC   =      -933.67252697
  -exchange      EXHF   =         0.00000000
  -V(xc)+E(xc)   XCENC  =       -43.57531923
  PAW double counting   =      4013.84859731    -3829.39709692
  entropy T*S    EENTRO =        -0.00117670
  eigenvalues    EBANDS =       133.78605598
  atomic energy  EATOM  =      4149.03371350
  Solvation  Ediel_sol  =         0.00000000
  ---------------------------------------------------
  free energy    TOTEN  =        -8.30869043 eV

  energy without entropy =       -8.30751373  energy(sigma->0) =       -8.30829819


--------------------------------------------------------------------------------------------------------




----------------------------------------- Iteration    1(   3)  ---------------------------------------


     EDDAV:  cpu time    0.6716: real time    0.6716
       DOS:  cpu time    0.0007: real time    0.0007
    --------------------------------------------
      LOOP:  cpu time    0.6732: real time    0.6747

 eigenvalue-minimisations  :  3912
 total energy-change (2. order) :-0.2921744E+01  (-0.2919187E+01)
 number of electron      44.0000000 magnetization 
 augmentation part       44.0000000 magnetization 

 Free energy of the ion-electron system (eV)
  ---------------------------------------------------
  alpha Z        PSCENC =       163.89966604
  Ewald energy   TEWEN  =     -3662.23060343
  -Hartree energ DENC   =      -933.67252697
  -exchange      EXHF   =         0.00000000
  -V(xc)+E(xc)   XCENC  =       -43.57531923
  PAW double counting   =      4013.84859731    -3829.39709692
  entropy T*S    EENTRO =        -0.00067625
  eigenvalues    EBANDS =       130.86381196
  atomic energy  EATOM  =      4149.03371350
  Solvation  Ediel_sol  =         0.00000000
  ---------------------------------------------------
  free energy    TOTEN  =       -11.23043400 eV

  energy without entropy =      -11.22975774  energy(sigma->0) =      -11.23020858


--------------------------------------------------------------------------------------------------------




----------------------------------------- Iteration    1(   4)  ---------------------------------------


     EDDAV:  cpu time    0.9265: real time    0.9308
       DOS:  cpu time    0.0007: real time    0.0007
    --------------------------------------------
      LOOP:  cpu time    0.9281: real time    0.9339

 eigenvalue-minimisations  :  4704
 total energy-change (2. order) :-0.9472929E-02  (-0.9472696E-02)
 number of electron      44.0000000 magnetization 
 augmentation part       44.0000000 magnetization 

 Free energy of the ion-electron system (eV)
  ---------------------------------------------------
  alpha Z        PSCENC =       163.89966604
  Ewald energy   TEWEN  =     -3662.23060343
  -Hartree energ DENC   =      -933.67252697
  -exchange      EXHF   =         0.00000000
  -V(xc)+E(xc)   XCENC  =       -43.57531923
  PAW double counting   =      4013.84859731    -3829.39709692
  entropy T*S    EENTRO =        -0.00067333
  eigenvalues    EBANDS =       130.85433611
  atomic energy  EATOM  =      4149.03371350
  Solvation  Ediel_sol  =         0.00000000
  ---------------------------------------------------
  free energy    TOTEN  =       -11.23990692 eV

  energy without entropy =      -11.23923360  energy(sigma->0) =      -11.23968248


--------------------------------------------------------------------------------------------------------




----------------------------------------- Iteration    1(   5)  ---------------------------------------


     EDDAV:  cpu time    0.7271: real time    0.7286
       DOS:  cpu time    0.0007: real time    0.0007
    CHARGE:  cpu time    0.0157: real time    0.0158
    MIXING:  cpu time    0.0005: real time    0.0005
    --------------------------------------------
      LOOP:  cpu time    0.7450: real time    0.7483

 eigenvalue-minimisations  :  3984
 total energy-change (2. order) :-0.9751397E-04  (-0.9751444E-04)
 number of electron      44.0000123 magnetization 
 augmentation part       20.4929764 magnetization 

 Broyden mixing:
  rms(total) = 0.64143E+00    rms(broyden)= 0.64142E+00
  rms(prec ) = 0.12899E+01
  weight for this iteration     100.00

 Free energy of the ion-electron system (eV)
  ---------------------------------------------------
  alpha Z        PSCENC =       163.89966604
  Ewald energy   TEWEN  =     -3662.23060343
  -Hartree energ DENC   =      -933.67252697
  -exchange      EXHF   =         0.00000000
  -V(xc)+E(xc)   XCENC  =       -43.57531923
  PAW double counting   =      4013.84859731    -3829.39709692
  entropy T*S    EENTRO =        -0.00067328
  eigenvalues    EBANDS =       130.85423855
  atomic energy  EATOM  =      4149.03371350
  Solvation  Ediel_sol  =         0.00000000
  ---------------------------------------------------
  free energy    TOTEN  =       -11.24000444 eV

  energy without entropy =      -11.23933116  energy(sigma->0) =      -11.23978001


--------------------------------------------------------------------------------------------------------




----------------------------------------- Iteration    1(   6)  ---------------------------------------


    POTLOK:  cpu time    0.0045: real time    0.0045
    SETDIJ:  cpu time    0.0023: real time    0.0023
     EDDAV:  cpu time    0.8408: real time    0.8411
       DOS:  cpu time    0.0007: real time    0.0007
    CHARGE:  cpu time    0.0163: real time    0.0163
    MIXING:  cpu time    0.0004: real time    0.0005
    --------------------------------------------
      LOOP:  cpu time    0.8663: real time    0.8683

 eigenvalue-minimisations  :  4224
 total energy-change (2. order) : 0.7311237E+00  (-0.2152223E+00)
 number of electron      44.0000126 magnetization 
 augmentation part       21.1124436 magnetization 

 Broyden mixing:
  rms(total) = 0.45582E+00    rms(broyden)= 0.45581E+00
  rms(prec ) = 0.48111E+00
  weight for this iteration     100.00

 eigenvalues of (default mixing * dielectric matrix)
  average eigenvalue GAMMA=   0.8383
  0.8383

 Free energy of the ion-electron system (eV)
  ---------------------------------------------------
  alpha Z        PSCENC =       163.89966604
  Ewald energy   TEWEN  =     -3662.23060343
  -Hartree energ DENC   =      -897.73316920
  -exchange      EXHF   =         0.00000000
  -V(xc)+E(xc)   XCENC  =       -44.89117617
  PAW double counting   =      4085.68555098    -3903.68438748
  entropy T*S    EENTRO =         0.00140423
  eigenvalues    EBANDS =        99.41012080
  atomic energy  EATOM  =      4149.03371350
  Solvation  Ediel_sol  =         0.00000000
  ---------------------------------------------------
  free energy    TOTEN  =       -10.50888073 eV

  energy without entropy =      -10.51028496  energy(sigma->0) =      -10.50934881


--------------------------------------------------------------------------------------------------------




----------------------------------------- Iteration    1(   7)  ---------------------------------------


    POTLOK:  cpu time    0.0038: real time    0.0038
    SETDIJ:  cpu time    0.0022: real time    0.0022
     EDDAV:  cpu time    0.7348: real time    0.7356
       DOS:  cpu time    0.0007: real time    0.0007
    CHARGE:  cpu time    0.0164: real time    0.0164
    MIXING:  cpu time    0.0004: real time    0.0004
    --------------------------------------------
      LOOP:  cpu time    0.7594: real time    0.7617

 eigenvalue-minimisations  :  4032
 total energy-change (2. order) : 0.1007340E-01  (-0.1184342E-02)
 number of electron      44.0000126 magnetization 
 augmentation part       21.1354530 magnetization 

 Broyden mixing:
  rms(total) = 0.27569E+00    rms(broyden)= 0.27569E+00
  rms(prec ) = 0.28830E+00
  weight for this iteration     100.00

 eigenvalues of (default mixing * dielectric matrix)
  average eigenvalue GAMMA=   1.7977
  1.0317  2.5637

 Free energy of the ion-electron system (eV)
  ---------------------------------------------------
  alpha Z        PSCENC =       163.89966604
  Ewald energy   TEWEN  =     -3662.23060343
  -Hartree energ DENC   =      -893.82386540
  -exchange      EXHF   =         0.00000000
  -V(xc)+E(xc)   XCENC  =       -45.05163510
  PAW double counting   =      4148.23876469    -3967.98713187
  entropy T*S    EENTRO =         0.00132348
  eigenvalues    EBANDS =        97.42096075
  atomic energy  EATOM  =      4149.03371350
  Solvation  Ediel_sol  =         0.00000000
  ---------------------------------------------------
  free energy    TOTEN  =       -10.49880733 eV

  energy without entropy =      -10.50013081  energy(sigma->0) =      -10.49924849


--------------------------------------------------------------------------------------------------------




----------------------------------------- Iteration    1(   8)  ---------------------------------------


    POTLOK:  cpu time    0.0044: real time    0.0044
    SETDIJ:  cpu time    0.0023: real time    0.0023
     EDDAV:  cpu time    0.7431: real time    0.7441
       DOS:  cpu time    0.0007: real time    0.0007
    CHARGE:  cpu time    0.0161: real time    0.0161
    MIXING:  cpu time    0.0003: real time    0.0003
    --------------------------------------------
      LOOP:  cpu time    0.7679: real time    0.7706

 eigenvalue-minimisations  :  4128
 total energy-change (2. order) : 0.5118765E-02  (-0.2850431E-03)
 number of electron      44.0000126 magnetization 
 augmentation part       21.1445575 magnetization 

 Broyden mixing:
  rms(total) = 0.89820E-02    rms(broyden)= 0.89810E-02
  rms(prec ) = 0.10216E-01
  weight for this iteration     100.00

 eigenvalues of (default mixing * dielectric matrix)
  average eigenvalue GAMMA=   1.6178
  2.4682  1.0239  1.3613

 Free energy of the ion-electron system (eV)
  ---------------------------------------------------
  alpha Z        PSCENC =       163.89966604
  Ewald energy   TEWEN  =     -3662.23060343
  -Hartree energ DENC   =      -889.43854088
  -exchange      EXHF   =         0.00000000
  -V(xc)+E(xc)   XCENC  =       -45.23750434
  PAW double counting   =      4238.54605454    -4060.78838184
  entropy T*S    EENTRO =         0.00128935
  eigenvalues    EBANDS =        95.72061848
  atomic energy  EATOM  =      4149.03371350
  Solvation  Ediel_sol  =         0.00000000
  ---------------------------------------------------
  free energy    TOTEN  =       -10.49368857 eV

  energy without entropy =      -10.49497792  energy(sigma->0) =      -10.49411835


--------------------------------------------------------------------------------------------------------




----------------------------------------- Iteration    1(   9)  ---------------------------------------


    POTLOK:  cpu time    0.0038: real time    0.0038
    SETDIJ:  cpu time    0.0022: real time    0.0022
     EDDAV:  cpu time    0.6611: real time    0.6620
       DOS:  cpu time    0.0007: real time    0.0007
    --------------------------------------------
      LOOP:  cpu time    0.6688: real time    0.6718

 eigenvalue-minimisations  :  3432
 total energy-change (2. order) :-0.5777851E-04  (-0.3584009E-05)
 number of electron      44.0000126 magnetization 
 augmentation part       21.1445575 magnetization 

 Free energy of the ion-electron system (eV)
  ---------------------------------------------------
  alpha Z        PSCENC =       163.89966604
  Ewald energy   TEWEN  =     -3662.23060343
  -Hartree energ DENC   =      -889.58463982
  -exchange      EXHF   =         0.00000000
  -V(xc)+E(xc)   XCENC  =       -45.23292948
  PAW double counting   =      4236.56381965    -4058.66489878
  entropy T*S    EENTRO =         0.00129303
  eigenvalues    EBANDS =        95.72083293
  atomic energy  EATOM  =      4149.03371350
  Solvation  Ediel_sol  =         0.00000000
  ---------------------------------------------------
  free energy    TOTEN  =       -10.49374635 eV

  energy without entropy =      -10.49503938  energy(sigma->0) =      -10.49417736


--------------------------------------------------------------------------------------------------------




 average (electrostatic) potential at core
  the test charge radii are     1.1249
  (the norm of the test charge is              1.0000)
       1 -72.7777       2 -72.7777       3 -72.7777       4 -72.7777
 
 
 
 E-fermi :   5.9789     XC(G=0): -11.0731     alpha+bet :-11.0574


 k-point     1 :       0.0000    0.0000    0.0000
  band No.  band energies     occupation 
      1      -0.4555      2.00000
      2       0.6556      2.00000
      3       0.6556      2.00000
      4       0.6556      2.00000
      5       0.7321      2.00000
      6       0.7321      2.00000
      7       0.7321      2.00000
      8       1.7882      2.00000
      9       1.7882      2.00000
     10       1.7882      2.00000
     11       2.5141      2.00000
     12       2.5141      2.00000
     13       3.0506      2.00000
     14       3.0506      2.00000
     15       3.0506      2.00000
     16       3.2207      2.00000
     17       3.2207      2.00000
     18       3.2207      2.00000
     19       3.2207      2.00000
     20       3.2207      2.00000
     21       3.2207      2.00000
     22       7.7662     -0.00000
     23       7.7662     -0.00000
     24       7.7662     -0.00000
     25      11.3314      0.00000
     26      11.3314      0.00000
     27      11.3314      0.00000
     28      15.6686      0.00000
     29      15.6686      0.00000
     30      15.6686      0.00000
     31      15.6686      0.00000
     32      15.6686      0.00000
     33      15.6686      0.00000
     34      20.8541      0.00000
     35      20.8541      0.00000
     36      20.8541      0.00000
     37      21.0101      0.00000
     38      21.0101      0.00000
     39      21.0101      0.00000
     40      21.4594      0.00000
     41      23.8745      0.00000
     42      23.8745      0.00000
     43      23.8745      0.00000
     44      28.2920      0.00000
     45      28.4191      0.00000
     46      28.4191      0.00000
     47      28.4191      0.00000
     48      31.5854      0.00000

 k-point     2 :       0.1111    0.0000    0.0000
  band No.  band energies     occupation 
      1      -0.3451      2.00000
      2       0.6948      2.00000
      3       0.7066      2.00000
      4       0.7066      2.00000
      5       0.7615      2.00000
      6       0.7779      2.00000
      7       0.7779      2.00000
      8       1.7533      2.00000
      9       1.8220      2.00000
     10       1.8220      2.00000
     11       2.4796      2.00000
     12       2.5296      2.00000
     13       3.0053      2.00000
     14       3.0053      2.00000
     15       3.0337      2.00000
     16       3.0732      2.00000
     17       3.0732      2.00000
     18       3.1647      2.00000
     19       3.1647      2.00000
     20       3.2209      2.00000
     21       3.2209      2.00000
     22       6.9577     -0.00000
     23       8.0121     -0.00000
     24       8.0121     -0.00000
     25      11.3544      0.00000
     26      11.3544      0.00000
     27      12.3264      0.00000
     28      15.2512      0.00000
     29      15.2512      0.00000
     30      15.2629      0.00000
     31      15.2629      0.00000
     32      15.8516      0.00000
     33      15.8516      0.00000
     34      20.8540      0.00000
     35      21.0144      0.00000
     36      21.4284      0.00000
     37      21.4829      0.00000
     38      21.4829      0.00000
     39      21.5238      0.00000
     40      21.5238      0.00000
     41      23.4253      0.00000
     42      23.4253      0.00000
     43      23.4450      0.00000
     44      28.5129      0.00000
     45      28.5129      0.00000
     46      28.6647      0.00000
     47      28.7483      0.00000
     48      30.5206      0.00000

 k-point     3 :       0.2222    0.0000    0.0000
  band No.  band energies     occupation 
      1      -0.0245      2.00000
      2       0.8031      2.00000
      3       0.8465      2.00000
      4       0.8470      2.00000
      5       0.8470      2.00000
      6       0.9139      2.00000
      7       0.9139      2.00000
      8       1.6541      2.00000
      9       1.9222      2.00000
     10       1.9222      2.00000
     11       2.3912      2.00000
     12       2.5740      2.00000
     13       2.7104      2.00000
     14       2.7104      2.00000
     15       2.8783      2.00000
     16       2.8783      2.00000
     17       2.9853      2.00000
     18       3.0093      2.00000
     19       3.0093      2.00000
     20       3.2211      2.00000
     21       3.2211      2.00000
     22       5.5476      2.00000
     23       8.6676     -0.00000
     24       8.6676     -0.00000
     25      11.4251      0.00000
     26      11.4251      0.00000
     27      14.2751      0.00000
     28      14.2751      0.00000
     29      14.2972      0.00000
     30      14.4536      0.00000
     31      14.4536      0.00000
     32      16.3844      0.00000
     33      16.3844      0.00000
     34      20.8715      0.00000
     35      21.0286      0.00000
     36      21.3503      0.00000
     37      22.3276      0.00000
     38      22.3276      0.00000
     39      22.6202      0.00000
     40      22.6328      0.00000
     41      22.6328      0.00000
     42      23.1147      0.00000
     43      23.1147      0.00000
     44      27.3350      0.00000
     45      28.8843      0.00000
     46      28.8843      0.00000
     47      29.3795      0.00000
     48      31.0695      0.00000

 k-point     4 :       0.3333    0.0000    0.0000
  band No.  band energies     occupation 
      1       0.4574      2.00000
      2       0.9498      2.00000
      3       0.9791      2.00000
      4       1.0355      2.00000
      5       1.0355      2.00000
      6       1.1387      2.00000
      7       1.1387      2.00000
      8       1.5057      2.00000
      9       2.0833      2.00000
     10       2.0833      2.00000
     11       2.2666      2.00000
     12       2.2666      2.00000
     13       2.3093      2.00000
     14       2.6435      2.00000
     15       2.7040      2.00000
     16       2.7040      2.00000
     17       2.7874      2.00000
     18       2.7874      2.00000
     19       2.9119      2.00000
     20       3.2213      2.00000
     21       3.2213      2.00000
     22       4.1932      2.00000
     23       9.5904      0.00000
     24       9.5904      0.00000
     25      11.5402      0.00000
     26      11.5402      0.00000
     27      13.0903      0.00000
     28      13.0903      0.00000
     29      13.7039      0.00000
     30      13.7039      0.00000
     31      16.5923      0.00000
     32      17.2248      0.00000
     33      17.2248      0.00000
     34      20.9584      0.00000
     35      20.9711      0.00000
     36      20.9711      0.00000
     37      21.0562      0.00000
     38      21.2555      0.00000
     39      21.8318      0.00000
     40      24.1314      0.00000
     41      24.1314      0.00000
     42      24.6970      0.00000
     43      25.1210      0.00000
     44      25.1210      0.00000
     45      29.5822      0.00000
     46      29.5822      0.00000
     47      29.6846      0.00000
     48      29.6846      0.00000

 k-point     5 :       0.4444    0.0000    0.0000
  band No.  band energies     occupation 
      1       0.9202      2.00000
      2       1.0552      2.00000
      3       1.1458      2.00000
      4       1.1861      2.00000
      5       1.1861      2.00000
      6       1.3287      2.00000
      7       1.4476      2.00000
      8       1.4476      2.00000
      9       1.8307      2.00000
     10       1.8307      2.00000
     11       2.2943      2.00000
     12       2.2943      2.00000
     13       2.4310      2.00000
     14       2.5376      2.00000
     15       2.5376      2.00000
     16       2.5624      2.00000
     17       2.5624      2.00000
     18       2.7298      2.00000
     19       2.8230      2.00000
     20       3.0840      2.00000
     21       3.2215      2.00000
     22       3.2215      2.00000
     23      10.6782      0.00000
     24      10.6782      0.00000
     25      11.6549      0.00000
     26      11.6549      0.00000
     27      11.8643      0.00000
     28      11.8643      0.00000
     29      13.2418      0.00000
     30      13.2418      0.00000
     31      18.3158      0.00000
     32      18.3158      0.00000
     33      19.0281      0.00000
     34      19.5918      0.00000
     35      19.5918      0.00000
     36      21.0174      0.00000
     37      21.1017      0.00000
     38      21.1687      0.00000
     39      21.2147      0.00000
     40      22.2251      0.00000
     41      25.8408      0.00000
     42      25.8408      0.00000
     43      27.0854      0.00000
     44      27.0854      0.00000
     45      27.7081      0.00000
     46      27.7081      0.00000
     47      30.5878      0.00000
     48      30.5878      0.00000

 k-point     6 :       0.1111    0.1111    0.0000
  band No.  band energies     occupation 
      1      -0.2374      2.00000
      2       0.7380      2.00000
      3       0.7463      2.00000
      4       0.7463      2.00000
      5       0.8060      2.00000
      6       0.8060      2.00000
      7       0.8394      2.00000
      8       1.7422      2.00000
      9       1.8338      2.00000
     10       1.8521      2.00000
     11       2.4710      2.00000
     12       2.5249      2.00000
     13       2.9400      2.00000
     14       2.9400      2.00000
     15       2.9631      2.00000
     16       2.9781      2.00000
     17       3.0653      2.00000
     18       3.0653      2.00000
     19       3.1644      2.00000
     20       3.1644      2.00000
     21       3.1811      2.00000
     22       7.1816     -0.00000
     23       7.1816     -0.00000
     24       8.2458     -0.00000
     25      11.3741      0.00000
     26      12.3668      0.00000
     27      12.3668      0.00000
     28      14.0718      0.00000
     29      15.4241      0.00000
     30      15.4241      0.00000
     31      15.4319      0.00000
     32      15.4319      0.00000
     33      16.0199      0.00000
     34      20.9297      0.00000
     35      21.2412      0.00000
     36      21.4992      0.00000
     37      21.4992      0.00000
     38      21.5377      0.00000
     39      21.5377      0.00000
     40      22.2300      0.00000
     41      22.8222      0.00000
     42      23.2753      0.00000
     43      24.2575      0.00000
     44      27.3803      0.00000
     45      28.4218      0.00000
     46      28.9564      0.00000
     47      30.1962      0.00000
     48      30.2384      0.00000

 k-point     7 :       0.2222    0.1111    0.0000
  band No.  band energies     occupation 
      1       0.0746      2.00000
      2       0.8443      2.00000
      3       0.8566      2.00000
      4       0.8879      2.00000
      5       0.8885      2.00000
      6       0.9388      2.00000
      7       0.9994      2.00000
      8       1.6587      2.00000
      9       1.9230      2.00000
     10       1.9369      2.00000
     11       2.4004      2.00000
     12       2.5736      2.00000
     13       2.6109      2.00000
     14       2.6604      2.00000
     15       2.7796      2.00000
     16       2.8441      2.00000
     17       2.9104      2.00000
     18       3.0084      2.00000
     19       3.0188      2.00000
     20       3.1620      2.00000
     21       3.1637      2.00000
     22       5.7684      2.01123
     23       7.7619     -0.00000
     24       8.8766      0.00000
     25      11.4138      0.00000
     26      12.4788      0.00000
     27      12.8846      0.00000
     28      14.3188      0.00000
     29      14.4354      0.00000
     30      14.6247      0.00000
     31      15.8945      0.00000
     32      15.9243      0.00000
     33      15.9303      0.00000
     34      20.6961      0.00000
     35      20.9840      0.00000
     36      21.5344      0.00000
     37      21.5511      0.00000
     38      21.6017      0.00000
     39      22.6674      0.00000
     40      22.8707      0.00000
     41      23.1333      0.00000
     42      23.9947      0.00000
     43      24.5187      0.00000
     44      26.7269      0.00000
     45      28.6159      0.00000
     46      28.6541      0.00000
     47      29.6001      0.00000
     48      31.3861      0.00000

 k-point     8 :       0.3333    0.1111    0.0000
  band No.  band energies     occupation 
      1       0.5408      2.00000
      2       1.0073      2.00000
      3       1.0154      2.00000
      4       1.0204      2.00000
      5       1.0794      2.00000
      6       1.1577      2.00000
      7       1.2199      2.00000
      8       1.5192      2.00000
      9       2.0336      2.00000
     10       2.0816      2.00000
     11       2.1910      2.00000
     12       2.2444      2.00000
     13       2.3710      2.00000
     14       2.5543      2.00000
     15       2.6656      2.00000
     16       2.6806      2.00000
     17       2.7270      2.00000
     18       2.7856      2.00000
     19       2.9333      2.00000
     20       3.1591      2.00000
     21       3.1625      2.00000
     22       4.4345      2.00000
     23       8.5478     -0.00000
     24       9.7768      0.00000
     25      11.2180      0.00000
     26      12.0967      0.00000
     27      12.5822      0.00000
     28      13.2466      0.00000
     29      13.9916      0.00000
     30      15.2054      0.00000
     31      16.3679      0.00000
     32      16.7019      0.00000
     33      16.9009      0.00000
     34      19.7786      0.00000
     35      19.8331      0.00000
     36      21.6480      0.00000
     37      21.7793      0.00000
     38      22.4099      0.00000
     39      22.9526      0.00000
     40      22.9733      0.00000
     41      24.1796      0.00000
     42      24.8797      0.00000
     43      25.0586      0.00000
     44      26.4490      0.00000
     45      28.7283      0.00000
     46      29.3462      0.00000
     47      29.4466      0.00000
     48      29.7583      0.00000

 k-point     9 :       0.4444    0.1111    0.0000
  band No.  band energies     occupation 
      1       0.9889      2.00000
      2       1.1190      2.00000
      3       1.1755      2.00000
      4       1.2033      2.00000
      5       1.2289      2.00000
      6       1.3505      2.00000
      7       1.4576      2.00000
      8       1.4711      2.00000
      9       1.7918      2.00000
     10       1.8276      2.00000
     11       2.0927      2.00000
     12       2.2919      2.00000
     13       2.2928      2.00000
     14       2.5352      2.00000
     15       2.5522      2.00000
     16       2.5706      2.00000
     17       2.5811      2.00000
     18       2.8119      2.00000
     19       2.8221      2.00000
     20       3.1596      2.00000
     21       3.1610      2.00000
     22       3.3749      2.00000
     23       9.4400      0.00000
     24      10.3817      0.00000
     25      10.8482      0.00000
     26      12.0242      0.00000
     27      12.1461      0.00000
     28      12.4387      0.00000
     29      13.9542      0.00000
     30      14.4639      0.00000
     31      17.5255      0.00000
     32      17.6837      0.00000
     33      18.6219      0.00000
     34      18.7726      0.00000
     35      19.0978      0.00000
     36      21.3804      0.00000
     37      21.8063      0.00000
     38      22.0507      0.00000
     39      22.1770      0.00000
     40      23.0368      0.00000
     41      24.7118      0.00000
     42      25.8992      0.00000
     43      26.1168      0.00000
     44      27.7755      0.00000
     45      28.3758      0.00000
     46      28.4813      0.00000
     47      29.6661      0.00000
     48      30.3993      0.00000

 k-point    10 :       0.2222    0.2222    0.0000
  band No.  band energies     occupation 
      1       0.3581      2.00000
      2       0.9042      2.00000
      3       1.0045      2.00000
      4       1.0045      2.00000
      5       1.0108      2.00000
      6       1.0108      2.00000
      7       1.1766      2.00000
      8       1.6350      2.00000
      9       1.9648      2.00000
     10       1.9792      2.00000
     11       2.3692      2.00000
     12       2.4143      2.00000
     13       2.4143      2.00000
     14       2.4764      2.00000
     15       2.6459      2.00000
     16       2.7462      2.00000
     17       2.9134      2.00000
     18       2.9134      2.00000
     19       3.0054      2.00000
     20       3.0054      2.00000
     21       3.0657      2.00000
     22       6.3193     -0.00002
     23       6.3193     -0.00002
     24       9.4545      0.00000
     25      11.0312      0.00000
     26      11.9768      0.00000
     27      14.2164      0.00000
     28      14.2164      0.00000
     29      14.8973      0.00000
     30      14.8973      0.00000
     31      15.2754      0.00000
     32      15.2754      0.00000
     33      17.0202      0.00000
     34      19.6103      0.00000
     35      19.6766      0.00000
     36      20.9283      0.00000
     37      22.7729      0.00000
     38      22.7729      0.00000
     39      23.2135      0.00000
     40      23.2135      0.00000
     41      23.4613      0.00000
     42      25.3681      0.00000
     43      25.4084      0.00000
     44      26.3263      0.00000
     45      27.7172      0.00000
     46      28.4549      0.00000
     47      30.1852      0.00000
     48      30.7447      0.00000

 k-point    11 :       0.3333    0.2222    0.0000
  band No.  band energies     occupation 
      1       0.7704      2.00000
      2       1.0419      2.00000
      3       1.1223      2.00000
      4       1.1673      2.00000
      5       1.2045      2.00000
      6       1.2121      2.00000
      7       1.3888      2.00000
      8       1.5436      2.00000
      9       1.9943      2.00000
     10       2.0235      2.00000
     11       2.0937      2.00000
     12       2.1648      2.00000
     13       2.1830      2.00000
     14       2.3566      2.00000
     15       2.6093      2.00000
     16       2.7402      2.00000
     17       2.7811      2.00000
     18       2.8404      2.00000
     19       2.8473      2.00000
     20       3.0017      2.00000
     21       3.0164      2.00000
     22       4.9880      2.00000
     23       7.0524     -0.00000
     24       9.9446      0.00000
     25      10.3024      0.00000
     26      12.0363      0.00000
     27      13.6090      0.00000
     28      13.6967      0.00000
     29      15.3159      0.00000
     30      15.3414      0.00000
     31      15.6115      0.00000
     32      17.0265      0.00000
     33      17.0531      0.00000
     34      18.3632      0.00000
     35      18.6033      0.00000
     36      21.6868      0.00000
     37      22.9521      0.00000
     38      23.4219      0.00000
     39      23.6393      0.00000
     40      23.7298      0.00000
     41      24.3224      0.00000
     42      24.8991      0.00000
     43      25.7010      0.00000
     44      27.0666      0.00000
     45      28.2855      0.00000
     46      28.8261      0.00000
     47      28.9811      0.00000
     48      29.9009      0.00000

 k-point    12 :       0.4444    0.2222    0.0000
  band No.  band energies     occupation 
      1       1.1681      2.00000
      2       1.2375      2.00000
      3       1.2607      2.00000
      4       1.2959      2.00000
      5       1.3474      2.00000
      6       1.4087      2.00000
      7       1.4847      2.00000
      8       1.5599      2.00000
      9       1.7067      2.00000
     10       1.8128      2.00000
     11       1.9185      2.00000
     12       1.9675      2.00000
     13       2.2920      2.00000
     14       2.5116      2.00000
     15       2.5119      2.00000
     16       2.5312      2.00000
     17       2.5672      2.00000
     18       2.7097      2.00000
     19       2.9990      2.00000
     20       3.0010      2.00000
     21       3.2124      2.00000
     22       3.9186      2.00000
     23       7.9045     -0.00000
     24       8.8671      0.00000
     25      11.3336      0.00000
     26      12.3830      0.00000
     27      12.4839      0.00000
     28      12.9177      0.00000
     29      15.7848      0.00000
     30      16.2429      0.00000
     31      16.4342      0.00000
     32      16.5124      0.00000
     33      17.2427      0.00000
     34      17.5309      0.00000
     35      19.3074      0.00000
     36      21.6339      0.00000
     37      23.1994      0.00000
     38      23.3196      0.00000
     39      23.4731      0.00000
     40      23.8504      0.00000
     41      24.6055      0.00000
     42      24.9380      0.00000
     43      26.0698      0.00000
     44      27.9728      0.00000
     45      27.9901      0.00000
     46      28.9670      0.00000
     47      29.1372      0.00000
     48      29.8171      0.00000

 k-point    13 :       0.3333    0.3333    0.0000
  band No.  band energies     occupation 
      1       1.0766      2.00000
      2       1.1269      2.00000
      3       1.2944      2.00000
      4       1.2944      2.00000
      5       1.3890      2.00000
      6       1.3890      2.00000
      7       1.5388      2.00000
      8       1.5869      2.00000
      9       1.8331      2.00000
     10       1.8331      2.00000
     11       1.9992      2.00000
     12       2.0029      2.00000
     13       2.1640      2.00000
     14       2.2705      2.00000
     15       2.5006      2.00000
     16       2.6854      2.00000
     17       2.6854      2.00000
     18       2.7777      2.00000
     19       2.7777      2.00000
     20       2.8841      2.00000
     21       3.1962      2.00000
     22       5.6977      2.00051
     23       5.6977      2.00051
     24       8.6452     -0.00000
     25      11.0935      0.00000
     26      12.3070      0.00000
     27      14.2896      0.00000
     28      14.2896      0.00000
     29      14.3938      0.00000
     30      14.3938      0.00000
     31      17.0960      0.00000
     32      17.3992      0.00000
     33      17.3992      0.00000
     34      17.4207      0.00000
     35      18.5479      0.00000
     36      21.0394      0.00000
     37      23.5664      0.00000
     38      24.5493      0.00000
     39      24.5493      0.00000
     40      24.5994      0.00000
     41      24.7117      0.00000
     42      24.7117      0.00000
     43      25.1496      0.00000
     44      27.1051      0.00000
     45      28.5544      0.00000
     46      28.5544      0.00000
     47      28.5840      0.00000
     48      30.2222      0.00000

 k-point    14 :       0.4444    0.3333    0.0000
  band No.  band energies     occupation 
      1       1.2796      2.00000
      2       1.3566      2.00000
      3       1.3909      2.00000
      4       1.4811      2.00000
      5       1.4815      2.00000
      6       1.5188      2.00000
      7       1.5291      2.00000
      8       1.6645      2.00000
      9       1.7165      2.00000
     10       1.7185      2.00000
     11       1.7702      2.00000
     12       1.8840      2.00000
     13       2.3182      2.00000
     14       2.3563      2.00000
     15       2.4237      2.00000
     16       2.5054      2.00000
     17       2.5356      2.00000
     18       2.5462      2.00000
     19       2.7826      2.00000
     20       2.8104      2.00000
     21       3.7514      2.00000
     22       4.5810      2.00000
     23       6.5323     -0.00000
     24       7.5072     -0.00000
     25      12.0770      0.00000
     26      12.7643      0.00000
     27      13.1941      0.00000
     28      13.4213      0.00000
     29      15.0646      0.00000
     30      15.2805      0.00000
     31      15.9970      0.00000
     32      16.3035      0.00000
     33      17.9404      0.00000
     34      18.5541      0.00000
     35      19.6749      0.00000
     36      21.9350      0.00000
     37      22.1266      0.00000
     38      23.9032      0.00000
     39      24.5723      0.00000
     40      24.5748      0.00000
     41      24.8140      0.00000
     42      24.9528      0.00000
     43      26.3263      0.00000
     44      27.8515      0.00000
     45      28.2192      0.00000
     46      28.2588      0.00000
     47      29.1504      0.00000
     48      29.5790      0.00000

 k-point    15 :       0.4444    0.4444    0.0000
  band No.  band energies     occupation 
      1       1.3528      2.00000
      2       1.4392      2.00000
      3       1.4774      2.00000
      4       1.4774      2.00000
      5       1.5337      2.00000
      6       1.5429      2.00000
      7       1.5429      2.00000
      8       1.6800      2.00000
      9       1.8147      2.00000
     10       1.8147      2.00000
     11       1.8721      2.00000
     12       1.9555      2.00000
     13       2.2395      2.00000
     14       2.3162      2.00000
     15       2.3668      2.00000
     16       2.3668      2.00000
     17       2.4046      2.00000
     18       2.5678      2.00000
     19       2.5678      2.00000
     20       2.6551      2.00000
     21       4.4571      2.00000
     22       5.3777      2.00000
     23       5.3777      2.00000
     24       6.3444     -0.00000
     25      13.0162      0.00000
     26      13.3251      0.00000
     27      14.0879      0.00000
     28      14.0879      0.00000
     29      14.0988      0.00000
     30      14.0988      0.00000
     31      14.9436      0.00000
     32      15.1483      0.00000
     33      20.2081      0.00000
     34      20.2081      0.00000
     35      20.4771      0.00000
     36      21.4188      0.00000
     37      22.2260      0.00000
     38      22.7054      0.00000
     39      23.0700      0.00000
     40      23.0700      0.00000
     41      26.1863      0.00000
     42      26.5410      0.00000
     43      26.5410      0.00000
     44      28.1069      0.00000
     45      28.8950      0.00000
     46      29.3309      0.00000
     47      29.4699      0.00000
     48      29.7752      0.00000

 k-point    16 :       0.1111    0.1111    0.1111
  band No.  band energies     occupation 
      1      -0.1334      2.00000
      2       0.7735      2.00000
      3       0.7735      2.00000
      4       0.7735      2.00000
      5       0.8708      2.00000
      6       0.8708      2.00000
      7       0.8708      2.00000
      8       1.7419      2.00000
      9       1.8582      2.00000
     10       1.8582      2.00000
     11       2.4941      2.00000
     12       2.4941      2.00000
     13       2.9129      2.00000
     14       2.9129      2.00000
     15       2.9129      2.00000
     16       2.9164      2.00000
     17       2.9164      2.00000
     18       2.9164      2.00000
     19       3.1654      2.00000
     20       3.1654      2.00000
     21       3.1654      2.00000
     22       7.3906     -0.00000
     23       7.3906     -0.00000
     24       7.3906     -0.00000
     25      12.3915      0.00000
     26      12.3915      0.00000
     27      12.3915      0.00000
     28      14.2512      0.00000
     29      14.2512      0.00000
     30      14.2512      0.00000
     31      16.1944      0.00000
     32      16.1944      0.00000
     33      16.1944      0.00000
     34      20.5853      0.00000
     35      20.9301      0.00000
     36      20.9301      0.00000
     37      20.9301      0.00000
     38      22.1517      0.00000
     39      22.8554      0.00000
     40      22.8554      0.00000
     41      22.8554      0.00000
     42      23.7722      0.00000
     43      23.7722      0.00000
     44      27.3473      0.00000
     45      28.3622      0.00000
     46      28.3622      0.00000
     47      30.9098      0.00000
     48      30.9098      0.00000

 k-point    17 :       0.2222    0.1111    0.1111
  band No.  band energies     occupation 
      1       0.1656      2.00000
      2       0.8673      2.00000
      3       0.8752      2.00000
      4       0.8752      2.00000
      5       0.9667      2.00000
      6       1.0326      2.00000
      7       1.0326      2.00000
      8       1.6799      2.00000
      9       1.9309      2.00000
     10       1.9324      2.00000
     11       2.4261      2.00000
     12       2.5603      2.00000
     13       2.5795      2.00000
     14       2.5795      2.00000
     15       2.7438      2.00000
     16       2.7803      2.00000
     17       2.8243      2.00000
     18       2.8243      2.00000
     19       3.1130      2.00000
     20       3.1447      2.00000
     21       3.1447      2.00000
     22       5.9662      1.21370
     23       7.9419     -0.00000
     24       7.9419     -0.00000
     25      12.3201      0.00000
     26      12.3201      0.00000
     27      13.2379      0.00000
     28      13.2379      0.00000
     29      14.1534      0.00000
     30      14.9209      0.00000
     31      16.0474      0.00000
     32      16.0474      0.00000
     33      16.7050      0.00000
     34      19.4575      0.00000
     35      20.9419      0.00000
     36      21.5447      0.00000
     37      21.5447      0.00000
     38      21.8626      0.00000
     39      22.6148      0.00000
     40      22.9671      0.00000
     41      24.3576      0.00000
     42      24.5574      0.00000
     43      24.5574      0.00000
     44      26.3528      0.00000
     45      28.5654      0.00000
     46      28.7028      0.00000
     47      29.3638      0.00000
     48      31.4362      0.00000

 k-point    18 :       0.3333    0.1111    0.1111
  band No.  band energies     occupation 
      1       0.6043      2.00000
      2       0.9896      2.00000
      3       1.0496      2.00000
      4       1.0496      2.00000
      5       1.1195      2.00000
      6       1.2470      2.00000
      7       1.2470      2.00000
      8       1.5598      2.00000
      9       2.0132      2.00000
     10       2.0504      2.00000
     11       2.1815      2.00000
     12       2.1815      2.00000
     13       2.4528      2.00000
     14       2.4915      2.00000
     15       2.5985      2.00000
     16       2.6606      2.00000
     17       2.6765      2.00000
     18       2.6765      2.00000
     19       3.0238      2.00000
     20       3.1274      2.00000
     21       3.1274      2.00000
     22       4.6282      2.00000
     23       8.7028     -0.00000
     24       8.7028     -0.00000
     25      11.5448      0.00000
     26      11.5448      0.00000
     27      13.1413      0.00000
[...]
  band No.  band energies     occupation 
      1       0.8960      2.00000
      2       0.9807      2.00000
      3       1.0868      2.00000
      4       1.0891      2.00000
      5       1.5651      2.00000
      6       1.5684      2.00000
      7       1.7232      2.00000
      8       1.8235      2.00000
      9       1.9631      2.00000
     10       2.0392      2.00000
     11       2.1158      2.00000
     12       2.1568      2.00000
     13       2.2163      2.00000
     14       2.2537      2.00000
     15       2.2662      2.00000
     16       2.3353      2.00000
     17       2.8237      2.00000
     18       2.9865      2.00000
     19       2.9957      2.00000
     20       3.0043      2.00000
     21       3.8077      2.00000
     22       4.8314      2.00000
     23       6.8421     -0.00000
     24       7.7002     -0.00000
     25       9.1936      0.00000
     26      10.0331      0.00000
     27      11.9591      0.00000
     28      12.9611      0.00000
     29      16.4549      0.00000
     30      17.2139      0.00000
     31      18.2217      0.00000
     32      18.8499      0.00000
     33      18.8685      0.00000
     34      19.7362      0.00000
     35      19.8438      0.00000
     36      21.5927      0.00000
     37      21.9187      0.00000
     38      21.9865      0.00000
     39      22.6378      0.00000
     40      22.8146      0.00000
     41      26.7373      0.00000
     42      26.7825      0.00000
     43      26.9211      0.00000
     44      27.2979      0.00000
     45      27.5070      0.00000
     46      28.4746      0.00000
     47      29.5071      0.00000
     48      29.7457      0.00000

 k-point    31 :       0.4444    0.4444    0.2222
  band No.  band energies     occupation 
      1       0.9115      2.00000
      2       0.9793      2.00000
      3       0.9793      2.00000
      4       1.0143      2.00000
      5       1.6404      2.00000
      6       1.6847      2.00000
      7       1.6847      2.00000
      8       1.7757      2.00000
      9       1.9449      2.00000
     10       2.0109      2.00000
     11       2.0109      2.00000
     12       2.0415      2.00000
     13       2.4182      2.00000
     14       2.4182      2.00000
     15       2.4231      2.00000
     16       2.5433      2.00000
     17       2.7595      2.00000
     18       2.9033      2.00000
     19       2.9033      2.00000
     20       2.9151      2.00000
     21       4.5735      2.00000
     22       5.5940      2.00000
     23       5.5940      2.00000
     24       6.5668     -0.00000
     25       9.8930      0.00000
     26      10.8307      0.00000
     27      10.8307      0.00000
     28      11.8095      0.00000
     29      17.1022      0.00000
     30      17.9186      0.00000
     31      17.9186      0.00000
     32      18.7614      0.00000
     33      20.3198      0.00000
     34      20.3198      0.00000
     35      20.7325      0.00000
     36      21.1841      0.00000
     37      21.6804      0.00000
     38      22.3406      0.00000
     39      22.3406      0.00000
     40      22.5890      0.00000
     41      26.6595      0.00000
     42      26.6708      0.00000
     43      26.6708      0.00000
     44      26.8292      0.00000
     45      27.7861      0.00000
     46      28.0381      0.00000
     47      28.3243      0.00000
     48      28.3243      0.00000

 k-point    32 :       0.3333    0.3333    0.3333
  band No.  band energies     occupation 
      1       0.7623      2.00000
      2       0.9628      2.00000
      3       0.9628      2.00000
      4       0.9628      2.00000
      5       1.6331      2.00000
      6       1.6331      2.00000
      7       1.6331      2.00000
      8       1.8720      2.00000
      9       1.8720      2.00000
     10       2.0725      2.00000
     11       2.0725      2.00000
     12       2.0725      2.00000
     13       2.3260      2.00000
     14       2.3260      2.00000
     15       2.3260      2.00000
     16       2.8168      2.00000
     17       2.8168      2.00000
     18       3.0943      2.00000
     19       3.0943      2.00000
     20       3.0943      2.00000
     21       3.2510      2.00000
     22       6.5431     -0.00000
     23       6.5431     -0.00000
     24       6.5431     -0.00000
     25       9.8441      0.00000
     26       9.8441      0.00000
     27       9.8441      0.00000
     28      12.7897      0.00000
     29      18.0145      0.00000
     30      18.0145      0.00000
     31      18.0145      0.00000
     32      19.5867      0.00000
     33      19.5867      0.00000
     34      19.5867      0.00000
     35      20.9348      0.00000
     36      20.9348      0.00000
     37      20.9348      0.00000
     38      21.2700      0.00000
     39      22.5872      0.00000
     40      22.5872      0.00000
     41      26.5699      0.00000
     42      26.5699      0.00000
     43      27.4917      0.00000
     44      28.5030      0.00000
     45      28.5030      0.00000
     46      28.5082      0.00000
     47      28.5393      0.00000
     48      28.5393      0.00000

 k-point    33 :       0.4444    0.3333    0.3333
  band No.  band energies     occupation 
      1       0.7769      2.00000
      2       0.8520      2.00000
      3       0.9217      2.00000
      4       0.9217      2.00000
      5       1.6390      2.00000
      6       1.6390      2.00000
      7       1.7294      2.00000
      8       1.8146      2.00000
      9       1.8777      2.00000
     10       1.9472      2.00000
     11       1.9987      2.00000
     12       1.9987      2.00000
     13       2.5051      2.00000
     14       2.5061      2.00000
     15       2.5061      2.00000
     16       2.6915      2.00000
     17       2.9719      2.00000
     18       3.0563      2.00000
     19       3.0563      2.00000
     20       3.0690      2.00000
     21       4.1207      2.00000
     22       5.2361      2.00000
     23       7.0278     -0.00000
     24       7.0278     -0.00000
     25       8.9410      0.00000
     26       8.9410      0.00000
     27      10.6425      0.00000
     28      11.6283      0.00000
     29      18.5589      0.00000
     30      18.5589      0.00000
     31      19.2595      0.00000
     32      19.2595      0.00000
     33      20.0444      0.00000
     34      20.3888      0.00000
     35      20.9187      0.00000
     36      21.1465      0.00000
     37      21.4003      0.00000
     38      21.7779      0.00000
     39      21.7779      0.00000
     40      22.3421      0.00000
     41      26.4537      0.00000
     42      27.0355      0.00000
     43      27.0355      0.00000
     44      27.0976      0.00000
     45      27.5647      0.00000
     46      27.7693      0.00000
     47      28.3120      0.00000
     48      28.8027      0.00000

 k-point    34 :       0.4444    0.4444    0.3333
  band No.  band energies     occupation 
      1       0.7471      2.00000
      2       0.7996      2.00000
      3       0.7996      2.00000
      4       0.8238      2.00000
      5       1.6997      2.00000
      6       1.7269      2.00000
      7       1.7269      2.00000
      8       1.7961      2.00000
      9       1.8360      2.00000
     10       1.8853      2.00000
     11       1.8853      2.00000
     12       1.9002      2.00000
     13       2.7271      2.00000
     14       2.7362      2.00000
     15       2.7362      2.00000
     16       2.9054      2.00000
     17       2.9305      2.00000
     18       3.0318      2.00000
     19       3.0369      2.00000
     20       3.0369      2.00000
     21       4.8499      2.00000
     22       5.8724      2.06127
     23       5.8724      2.06127
     24       6.6312     -0.00000
     25       8.8495      0.00000
     26       9.5691      0.00000
     27       9.5691      0.00000
     28      10.4913      0.00000
     29      19.0965      0.00000
     30      19.7817      0.00000
     31      19.7817      0.00000
     32      20.4020      0.00000
     33      20.5107      0.00000
     34      20.5107      0.00000
     35      21.0485      0.00000
     36      21.0521      0.00000
     37      21.4513      0.00000
     38      21.8011      0.00000
     39      21.8011      0.00000
     40      22.3440      0.00000
     41      26.2915      0.00000
     42      26.6608      0.00000
     43      26.6608      0.00000
     44      26.7263      0.00000
     45      27.2098      0.00000
     46      27.3739      0.00000
     47      27.5582      0.00000
     48      27.5582      0.00000

 k-point    35 :       0.4444    0.4444    0.4444
  band No.  band energies     occupation 
      1       0.6793      2.00000
      2       0.7070      2.00000
      3       0.7070      2.00000
      4       0.7070      2.00000
      5       1.7562      2.00000
      6       1.7562      2.00000
      7       1.7562      2.00000
      8       1.7905      2.00000
      9       1.7905      2.00000
     10       1.8127      2.00000
     11       1.8127      2.00000
     12       1.8127      2.00000
     13       2.9548      2.00000
     14       2.9548      2.00000
     15       2.9548      2.00000
     16       3.0422      2.00000
     17       3.0422      2.00000
     18       3.0776      2.00000
     19       3.0776      2.00000
     20       3.0776      2.00000
     21       5.4195      2.00000
     22       6.1679     -0.02244
     23       6.1679     -0.02244
     24       6.1679     -0.02244
     25       8.7573      0.00000
     26       8.7573      0.00000
     27       8.7573      0.00000
     28       9.4337      0.00000
     29      20.5067      0.00000
     30      20.5067      0.00000
     31      20.5067      0.00000
     32      20.7521      0.00000
     33      21.3787      0.00000
     34      21.3787      0.00000
     35      21.3787      0.00000
     36      21.4692      0.00000
     37      21.4692      0.00000
     38      21.4692      0.00000
     39      21.9374      0.00000
     40      21.9374      0.00000
     41      26.2364      0.00000
     42      26.2364      0.00000
     43      26.5799      0.00000
     44      26.5799      0.00000
     45      26.5799      0.00000
     46      26.6430      0.00000
     47      26.6430      0.00000
     48      26.6430      0.00000


--------------------------------------------------------------------------------------------------------


 soft charge-density along one line, spin component           1
         0         1         2         3         4         5         6         7         8         9
 total charge-density along one line
 
 pseudopotential strength for first ion, spin component:           1
 -5.187   0.000  -0.000   0.000   0.000  -5.372   0.000  -0.000
  0.000  -5.187   0.000   0.000  -0.000   0.000  -5.372   0.000
 -0.000   0.000  -5.179  -0.000   0.000  -0.000   0.000  -5.365
  0.000   0.000  -0.000  -5.187   0.000   0.000   0.000  -0.000
  0.000  -0.000  -0.000   0.000  -5.179   0.000  -0.000   0.000
 -5.372   0.000  -0.000   0.000   0.000  -5.525   0.000  -0.000
  0.000  -5.372   0.000   0.000  -0.000   0.000  -5.525   0.000
 -0.000   0.000  -5.365  -0.000   0.000  -0.000   0.000  -5.518
  0.000   0.000  -0.000  -5.372   0.000   0.000   0.000  -0.000
  0.000  -0.000   0.000   0.000  -5.365   0.000  -0.000  -0.000
 -0.000  -0.000   0.000  -0.000   0.000  -0.000  -0.000   0.000
 -0.000  -0.000   0.000  -0.000  -0.000  -0.000  -0.000   0.000
 -0.000  -0.000   0.000   0.000   0.000  -0.000  -0.000   0.000
  0.000  -0.000  -0.000  -0.000  -0.000   0.000  -0.000  -0.000
 -0.000   0.000  -0.000  -0.000  -0.000  -0.000   0.000  -0.000
 -0.000  -0.000   0.000   0.000   0.000  -0.000  -0.000   0.000
  0.000  -0.000  -0.000  -0.000  -0.000   0.000  -0.000  -0.000
 -0.000   0.000   0.000  -0.000  -0.000  -0.000   0.000  -0.000
 total augmentation occupancy for first ion, spin component:           1
  2.948  -0.000  -0.000   0.000   0.000  -0.901  -0.000   0.000  -0.000   0.000  -0.000   0.000   0.000   0.000   0.000  -0.000
  0.000   2.948   0.000  -0.000   0.000   0.000  -0.901  -0.000   0.000  -0.000  -0.000   0.000   0.000  -0.000   0.000  -0.000
  0.000  -0.000   2.978   0.000   0.000   0.000   0.000  -0.833   0.000   0.000   0.000  -0.000   0.000  -0.000   0.000   0.000
  0.000  -0.000   0.000   2.948   0.000  -0.000  -0.000  -0.000  -0.901   0.000   0.000   0.000   0.000  -0.000   0.000  -0.000
  0.000  -0.000   0.000   0.000   2.978   0.000   0.000  -0.000  -0.000  -0.833  -0.000   0.000  -0.000  -0.000  -0.000  -0.000
 -0.901  -0.000   0.000  -0.000   0.000   0.803   0.000  -0.000  -0.000   0.000   0.000  -0.000  -0.000   0.000   0.000  -0.000
 -0.000  -0.901   0.000  -0.000   0.000   0.000   0.803  -0.000   0.000   0.000   0.000   0.000  -0.000   0.000  -0.000   0.000
  0.000  -0.000  -0.833   0.000  -0.000  -0.000  -0.000   0.659  -0.000   0.000  -0.000  -0.000   0.000   0.000   0.000   0.000
 -0.000   0.000   0.000  -0.901  -0.000  -0.000   0.000  -0.000   0.803   0.000  -0.000  -0.000  -0.000   0.000   0.000  -0.000
 -0.000  -0.000  -0.000   0.000  -0.833   0.000   0.000   0.000   0.000   0.659   0.000  -0.000   0.000  -0.000   0.000   0.000
 -0.000  -0.000   0.000  -0.000   0.000   0.000  -0.000  -0.000   0.000   0.000   1.747  -0.286   0.000   0.000  -0.000   0.000
 -0.000   0.000   0.000   0.000   0.000  -0.000   0.000  -0.000  -0.000   0.000  -0.286   0.060  -0.000  -0.000   0.000   0.000
  0.000   0.000   0.000   0.000   0.000  -0.000  -0.000  -0.000  -0.000   0.000  -0.000  -0.000   0.112   0.000   0.000  -0.007
  0.000  -0.000  -0.000   0.000   0.000  -0.000   0.000  -0.000   0.000  -0.000   0.000   0.000  -0.000   0.112  -0.000   0.000
  0.000   0.000   0.000   0.000   0.000  -0.000  -0.000   0.000   0.000  -0.000  -0.000  -0.000  -0.000   0.000   0.112  -0.000
 -0.000   0.000  -0.000  -0.000   0.000  -0.000   0.000   0.000  -0.000   0.000  -0.000   0.000  -0.007  -0.000  -0.000   0.000
  0.000   0.000  -0.000  -0.000   0.000  -0.000   0.000   0.000   0.000   0.000   0.000   0.000  -0.000  -0.007  -0.000   0.000
 -0.000   0.000  -0.000  -0.000   0.000  -0.000   0.000  -0.000  -0.000   0.000   0.000  -0.000  -0.000   0.000  -0.007   0.000


------------------------ aborting loop because EDIFF is reached ----------------------------------------


    CHARGE:  cpu time    0.0124: real time    0.0126
    FORLOC:  cpu time    0.0002: real time    0.0002
    FORNL :  cpu time    0.0987: real time    0.0987
    STRESS:  cpu time    0.3280: real time    0.3280
    FORCOR:  cpu time    0.0039: real time    0.0039
    FORHAR:  cpu time    0.0010: real time    0.0010
    MIXING:  cpu time    0.0003: real time    0.0003
    OFIELD:  cpu time    0.0000: real time    0.0000

  FORCE on cell =-STRESS in cart. coord.  units (eV):
  Direction    XX          YY          ZZ          XY          YZ          ZX
  --------------------------------------------------------------------------------------
  Alpha Z   163.89967   163.89967   163.89967
  Ewald   -1220.74407 -1220.74407 -1220.74407    -0.00000    -0.00000    -0.00000
  Hartree   296.49318   296.49318   296.49318    -0.00000    -0.00000    -0.00000
  E(xc)    -231.33642  -231.33642  -231.33642    -0.00000    -0.00000    -0.00000
  Local     118.80156   118.80156   118.80156     0.00000     0.00000     0.00000
  n-local   -36.21822   -48.15887   -51.11997    -0.05501     3.55131     1.39684
  augment   368.83961   368.83961   368.83961    -0.00000     0.00000     0.00000
  Kinetic   551.41817   543.37253   538.48149    -3.27418     0.72906    -0.65784
  Fock        0.00000     0.00000     0.00000     0.00000     0.00000     0.00000
  -------------------------------------------------------------------------------------
  Total      -4.78810    -4.78810    -4.78810    -0.00000    -0.00000     0.00000
  in kB     -92.38849   -92.38849   -92.38849    -0.00000    -0.00000     0.00000
  external pressure =      -92.39 kB  Pullay stress =        0.00 kB


 VOLUME and BASIS-vectors are now :
 -----------------------------------------------------------------------------
  energy-cutoff  :      400.00
  volume of cell :       83.03
      direct lattice vectors                 reciprocal lattice vectors
     4.362666667  0.000000000  0.000000000     0.229217604  0.000000000  0.000000000
     0.000000000  4.362666667  0.000000000     0.000000000  0.229217604  0.000000000
     0.000000000  0.000000000  4.362666667     0.000000000  0.000000000  0.229217604

  length of vectors
     4.362666667  4.362666667  4.362666667     0.229217604  0.229217604  0.229217604


 FORCES acting on ions
    electron-ion (+dipol)            ewald-force                    non-local-force                 convergence-correction
 -----------------------------------------------------------------------------------------------
   -.120E-13 -.252E-13 -.452E-13   0.195E-14 -.129E-13 -.619E-14   0.496E-23 0.703E-23 -.455E-23   0.518E-13 -.342E-13 -.708E-13
   -.117E-13 0.406E-12 0.382E-12   0.173E-14 0.160E-13 0.430E-14   0.165E-23 -.414E-24 0.331E-23   0.519E-13 0.287E-13 0.348E-14
   0.425E-12 -.273E-13 -.373E-11   -.204E-14 -.174E-13 0.420E-14   0.165E-23 -.827E-24 0.579E-23   0.186E-13 -.294E-13 0.151E-12
   0.424E-12 -.234E-11 -.336E-11   -.225E-14 0.114E-13 -.769E-15   -.827E-24 0.662E-23 -.517E-24   0.128E-13 0.120E-12 0.877E-14
 -----------------------------------------------------------------------------------------------
   0.824E-12 -.198E-11 -.676E-11   -.614E-15 -.297E-14 0.155E-14   0.744E-23 0.124E-22 0.403E-23   0.135E-12 0.846E-13 0.929E-13
 
 
 POSITION                                       TOTAL-FORCE (eV/Angst)
 -----------------------------------------------------------------------------------
      0.00000      0.00000      0.00000         0.000000      0.000000     -0.000000
      0.00000      2.18133      2.18133        -0.000000      0.000000      0.000000
      2.18133      0.00000      2.18133         0.000000     -0.000000     -0.000000
      2.18133      2.18133      0.00000         0.000000     -0.000000     -0.000000
 -----------------------------------------------------------------------------------
    total drift:                                0.000000     -0.000000     -0.000000


--------------------------------------------------------------------------------------------------------



  FREE ENERGIE OF THE ION-ELECTRON SYSTEM (eV)
  ---------------------------------------------------
  free  energy   TOTEN  =       -10.49374635 eV

  energy  without entropy=      -10.49503938  energy(sigma->0) =      -10.49417736
 


--------------------------------------------------------------------------------------------------------


    POTLOK:  cpu time    0.0062: real time    0.0062


--------------------------------------------------------------------------------------------------------


     LOOP+:  cpu time    7.2698: real time    7.3272
    4ORBIT:  cpu time    0.0000: real time    0.0000

 total amount of memory used by VASP on root node    40711. kBytes
========================================================================

   base      :      30000. kBytes
   nonl-proj :       7839. kBytes
   fftplans  :        221. kBytes
   grid      :        789. kBytes
   one-center:         62. kBytes
   wavefun   :       1800. kBytes
 
  
  
 General timing and accounting informations for this job:
 ========================================================
  
                  Total CPU time used (sec):       25.574
                            User time (sec):       25.414
                          System time (sec):        0.160
                         Elapsed time (sec):       25.879
  
                   Maximum memory used (kb):       69360.
                   Average memory used (kb):           0.
  
                          Minor page faults:        20739
                          Major page faults:           10
                 Voluntary context switches:         1813
