<?xml version="1.0" encoding="ISO-8859-1"?>
<modeling>
 <generator>
  <i name="program" type="string">vasp </i>
  <i name="version" type="string">5.4.1  </i>
  <i name="subversion" type="string">05Feb16 (build Feb 08 2018 09:21:51) complex                          parallel </i>
  <i name="platform" type="string">LinuxIFC </i>
  <i name="date" type="string">2019 11 21 </i>
  <i name="time" type="string">15:55:00 </i>
 </generator>
 <incar>
  <i type="string" name="PREC">normal</i>
  <i name="ENCUT">    400.00000000</i>
  <i type="int" name="ISMEAR">     1</i>
  <i name="SIGMA">      0.10000000</i>
  <i type="logical" name="LWAVE"> F  </i>
  <i type="logical" name="LCHARG"> F  </i>
  <v type="int" name="KPOINT_BSE">    -1     0     0     0</v>
 </incar>
 <kpoints>
  <generation param="Monkhorst-Pack">
   <v type="int" name="divisions">       9        9        9 </v>
   <v name="usershift">      0.00000000       0.00000000       0.00000000 </v>
   <v name="genvec1">      0.11111111       0.00000000       0.00000000 </v>
   <v name="genvec2">      0.00000000       0.11111111       0.00000000 </v>
   <v name="genvec3">      0.00000000       0.00000000       0.11111111 </v>
   <v name="shift">      0.00000000       0.00000000       0.00000000 </v>
  </generation>
  <varray name="kpointlist" >
   <v>       0.00000000       0.00000000       0.00000000 </v>
   <v>       0.11111111       0.00000000       0.00000000 </v>
   <v>       0.22222222       0.00000000       0.00000000 </v>
   <v>       0.33333333       0.00000000       0.00000000 </v>
   <v>       0.44444444       0.00000000       0.00000000 </v>
   <v>       0.11111111       0.11111111       0.00000000 </v>
   <v>       0.22222222       0.11111111       0.00000000 </v>
   <v>       0.33333333       0.11111111       0.00000000 </v>
   <v>       0.44444444       0.11111111       0.00000000 </v>
   <v>       0.22222222       0.22222222       0.00000000 </v>
   <v>       0.33333333       0.22222222       0.00000000 </v>
   <v>       0.44444444       0.22222222       0.00000000 </v>
   <v>       0.33333333       0.33333333       0.00000000 </v>
   <v>       0.44444444       0.33333333       0.00000000 </v>
   <v>       0.44444444       0.44444444       0.00000000 </v>
   <v>       0.11111111       0.11111111       0.11111111 </v>
   <v>       0.22222222       0.11111111       0.11111111 </v>
   <v>       0.33333333       0.11111111       0.11111111 </v>
   <v>       0.44444444       0.11111111       0.11111111 </v>
   <v>       0.22222222       0.22222222       0.11111111 </v>
   <v>       0.33333333       0.22222222       0.11111111 </v>
   <v>       0.44444444       0.22222222       0.11111111 </v>
   <v>       0.33333333       0.33333333       0.11111111 </v>
   <v>       0.44444444       0.33333333       0.11111111 </v>
   <v>       0.44444444       0.44444444       0.11111111 </v>
   <v>       0.22222222       0.22222222       0.22222222 </v>
   <v>       0.33333333       0.22222222       0.22222222 </v>
   <v>       0.44444444       0.22222222       0.22222222 </v>
   <v>       0.33333333       0.33333333       0.22222222 </v>
   <v>       0.44444444       0.33333333       0.22222222 </v>
   <v>       0.44444444       0.44444444       0.22222222 </v>
   <v>       0.33333333       0.33333333       0.33333333 </v>
   <v>       0.44444444       0.33333333       0.33333333 </v>
   <v>       0.44444444       0.44444444       0.33333333 </v>
   <v>       0.44444444       0.44444444       0.44444444 </v>
  </varray>
  <varray name="weights" >
   <v>       0.00137174 </v>
   <v>       0.00823045 </v>
   <v>       0.00823045 </v>
   <v>       0.00823045 </v>
   <v>       0.00823045 </v>
   <v>       0.01646091 </v>
   <v>       0.03292181 </v>
   <v>       0.03292181 </v>
   <v>       0.03292181 </v>
   <v>       0.01646091 </v>
   <v>       0.03292181 </v>
   <v>       0.03292181 </v>
   <v>       0.01646091 </v>
   <v>       0.03292181 </v>
   <v>       0.01646091 </v>
   <v>       0.01097394 </v>
   <v>       0.03292181 </v>
   <v>       0.03292181 </v>
   <v>       0.03292181 </v>
   <v>       0.03292181 </v>
   <v>       0.06584362 </v>
   <v>       0.06584362 </v>
   <v>       0.03292181 </v>
   <v>       0.06584362 </v>
   <v>       0.03292181 </v>
   <v>       0.01097394 </v>
   <v>       0.03292181 </v>
   <v>       0.03292181 </v>
   <v>       0.03292181 </v>
   <v>       0.06584362 </v>
   <v>       0.03292181 </v>
   <v>       0.01097394 </v>
   <v>       0.03292181 </v>
   <v>       0.03292181 </v>
   <v>       0.01097394 </v>
  </varray>
 </kpoints>
 <parameters>
  <separator name="general" >
   <i type="string" name="SYSTEM">unknown system</i>
   <i type="logical" name="LCOMPAT"> F  </i>
  </separator>
  <separator name="electronic" >
   <i type="string" name="PREC">normal</i>
   <i name="ENMAX">    400.00000000</i>
   <i name="ENAUG">    412.49600000</i>
   <i name="EDIFF">      0.00010000</i>
   <i type="int" name="IALGO">    38</i>
   <i type="int" name="IWAVPR">    10</i>
   <i type="int" name="NBANDS">    48</i>
   <i name="NELECT">     44.00000000</i>
   <i type="int" name="TURBO">     0</i>
   <i type="int" name="IRESTART">     0</i>
   <i type="int" name="NREBOOT">     0</i>
   <i type="int" name="NMIN">     0</i>
   <i name="EREF">      0.00000000</i>
   <separator name="electronic smearing" >
    <i type="int" name="ISMEAR">     1</i>
    <i name="SIGMA">      0.10000000</i>
    <i name="KSPACING">      0.50000000</i>
    <i type="logical" name="KGAMMA"> T  </i>
   </separator>
   <separator name="electronic projectors" >
    <i type="logical" name="LREAL"> F  </i>
    <v name="ROPT">      0.00000000</v>
    <i type="int" name="LMAXPAW">  -100</i>
    <i type="int" name="LMAXMIX">     2</i>
    <i type="logical" name="NLSPLINE"> F  </i>
   </separator>
   <separator name="electronic startup" >
    <i type="int" name="ISTART">     0</i>
    <i type="int" name="ICHARG">     2</i>
    <i type="int" name="INIWAV">     1</i>
   </separator>
   <separator name="electronic spin" >
    <i type="int" name="ISPIN">     1</i>
    <i type="logical" name="LNONCOLLINEAR"> F  </i>
    <v name="MAGMOM">      1.00000000      1.00000000      1.00000000      1.00000000</v>
    <i name="NUPDOWN">     -1.00000000</i>
    <i type="logical" name="LSORBIT"> F  </i>
    <v name="SAXIS">      0.00000000      0.00000000      1.00000000</v>
    <i type="logical" name="LSPIRAL"> F  </i>
    <v name="QSPIRAL">      0.00000000      0.00000000      0.00000000</v>
    <i type="logical" name="LZEROZ"> F  </i>
   </separator>
   <separator name="electronic exchange-correlation" >
    <i type="logical" name="LASPH"> F  </i>
    <i type="logical" name="LMETAGGA"> F  </i>
   </separator>
   <separator name="electronic convergence" >
    <i type="int" name="NELM">    60</i>
    <i type="int" name="NELMDL">    -5</i>
    <i type="int" name="NELMIN">     2</i>
    <i name="ENINI">    400.00000000</i>
    <separator name="electronic convergence detail" >
     <i type="logical" name="LDIAG"> T  </i>
     <i type="logical" name="LSUBROT"> F  </i>
     <i name="WEIMIN">      0.00000000</i>
     <i name="EBREAK">      0.00000052</i>
     <i name="DEPER">      0.30000000</i>
     <i type="int" name="NRMM">     4</i>
     <i name="TIME">      0.40000000</i>
    </separator>
   </separator>
   <separator name="electronic mixer" >
    <i name="AMIX">      0.40000000</i>
    <i name="BMIX">      1.00000000</i>
    <i name="AMIN">      0.10000000</i>
    <i name="AMIX_MAG">      1.60000000</i>
    <i name="BMIX_MAG">      1.00000000</i>
    <separator name="electronic mixer details" >
     <i type="int" name="IMIX">     4</i>
     <i type="logical" name="MIXFIRST"> F  </i>
     <i type="int" name="MAXMIX">   -45</i>
     <i name="WC">    100.00000000</i>
     <i type="int" name="INIMIX">     1</i>
     <i type="int" name="MIXPRE">     1</i>
     <i type="int" name="MREMOVE">     5</i>
    </separator>
   </separator>
   <separator name="electronic dipolcorrection" >
    <i type="logical" name="LDIPOL"> F  </i>
    <i type="logical" name="LMONO"> F  </i>
    <i type="int" name="IDIPOL">     0</i>
    <i name="EPSILON">      1.00000000</i>
    <v name="DIPOL">   -100.00000000   -100.00000000   -100.00000000</v>
    <i name="EFIELD">      0.00000000</i>
   </separator>
  </separator>
  <separator name="grids" >
   <i type="int" name="NGX">    24</i>
   <i type="int" name="NGY">    24</i>
   <i type="int" name="NGZ">    24</i>
   <i type="int" name="NGXF">    48</i>
   <i type="int" name="NGYF">    48</i>
   <i type="int" name="NGZF">    48</i>
   <i type="logical" name="ADDGRID"> F  </i>
  </separator>
  <separator name="ionic" >
   <i type="int" name="NSW">     0</i>
   <i type="int" name="IBRION">    -1</i>
   <i type="int" name="ISIF">     2</i>
   <i name="PSTRESS">      0.00000000</i>
   <i name="EDIFFG">      0.00100000</i>
   <i type="int" name="NFREE">     0</i>
   <i name="POTIM">      0.50000000</i>
   <i name="SMASS">     -3.00000000</i>
   <i name="SCALEE">      1.00000000</i>
  </separator>
  <separator name="ionic md" >
   <i name="TEBEG">      0.00010000</i>
   <i name="TEEND">      0.00010000</i>
   <i type="int" name="NBLOCK">     1</i>
   <i type="int" name="KBLOCK">     1</i>
   <i type="int" name="NPACO">   256</i>
   <i name="APACO">     16.00000000</i>
  </separator>
  <separator name="symmetry" >
   <i type="int" name="ISYM">     2</i>
   <i name="SYMPREC">      0.00001000</i>
  </separator>
  <separator name="dos" >
   <i type="logical" name="LORBIT"> F  </i>
   <v name="RWIGS">     -1.00000000</v>
   <i type="int" name="NEDOS">   301</i>
   <i name="EMIN">     10.00000000</i>
   <i name="EMAX">    -10.00000000</i>
   <i name="EFERMI">      0.00000000</i>
  </separator>
  <separator name="writing" >
   <i type="int" name="NWRITE">     2</i>
   <i type="logical" name="LWAVE"> F  </i>
   <i type="logical" name="LCHARG"> F  </i>
   <i type="logical" name="LPARD"> F  </i>
   <i type="logical" name="LVTOT"> F  </i>
   <i type="logical" name="LVHAR"> F  </i>
   <i type="logical" name="LELF"> F  </i>
   <i type="logical" name="LOPTICS"> F  </i>
   <v name="STM">      0.00000000      0.00000000      0.00000000      0.00000000      0.00000000      0.00000000      0.00000000</v>
  </separator>
  <separator name="performance" >
   <i type="int" name="NPAR">    24</i>
   <i type="int" name="NSIM">     4</i>
   <i type="int" name="NBLK">    -1</i>
   <i type="logical" name="LPLANE"> T  </i>
   <i type="logical" name="LSCALAPACK"> F  </i>
   <i type="logical" name="LSCAAWARE"> F  </i>
   <i type="logical" name="LSCALU"> F  </i>
   <i type="logical" name="LASYNC"> F  </i>
   <i type="logical" name="LORBITALREAL"> F  </i>
  </separator>
  <separator name="miscellaneous" >
   <i type="int" name="IDIOT">     3</i>
   <i type="logical" name="LMUSIC"> F  </i>
   <v name="POMASS">    107.86800000</v>
   <v name="DARWINR">      0.00000000</v>
   <v name="DARWINV">      1.00000000</v>
   <i type="logical" name="LCORR"> T  </i>
  </separator>
  <i type="logical" name="GGA_COMPAT"> T  </i>
  <i type="logical" name="LBERRY"> F  </i>
  <i type="int" name="ICORELEVEL">     0</i>
  <i type="logical" name="LDAU"> F  </i>
  <i type="int" name="I_CONSTRAINED_M">     0</i>
  <separator name="electronic exchange-correlation" >
   <i type="string" name="GGA">--</i>
   <i type="int" name="VOSKOWN">     0</i>
   <i type="logical" name="LHFCALC"> F  </i>
   <i type="string" name="PRECFOCK"></i>
   <i type="logical" name="LSYMGRAD"> F  </i>
   <i type="logical" name="LHFONE"> F  </i>
   <i type="logical" name="LRHFCALC"> F  </i>
   <i type="logical" name="LTHOMAS"> F  </i>
   <i type="logical" name="LMODELHF"> F  </i>
   <i name="ENCUT4O">     -1.00000000</i>
   <i type="int" name="EXXOEP">     0</i>
   <i type="int" name="FOURORBIT">     0</i>
   <i name="AEXX">      0.00000000</i>
   <i name="HFALPHA">      0.00000000</i>
   <i name="MCALPHA">      0.00000000</i>
   <i name="ALDAX">      1.00000000</i>
   <i name="AGGAX">      1.00000000</i>
   <i name="ALDAC">      1.00000000</i>
   <i name="AGGAC">      1.00000000</i>
   <i type="int" name="NKREDX">     1</i>
   <i type="int" name="NKREDY">     1</i>
   <i type="int" name="NKREDZ">     1</i>
   <i type="logical" name="SHIFTRED"> F  </i>
   <i type="logical" name="ODDONLY"> F  </i>
   <i type="logical" name="EVENONLY"> F  </i>
   <i type="int" name="LMAXFOCK">     0</i>
   <i type="int" name="NMAXFOCKAE">     0</i>
   <i type="logical" name="LFOCKAEDFT"> F  </i>
   <i name="HFSCREEN">      0.00000000</i>
   <i name="HFSCREENC">      0.00000000</i>
   <i type="int" name="NBANDSGWLOW">     0</i>
  </separator>
  <separator name="vdW DFT" >
   <i type="logical" name="LUSE_VDW"> F  </i>
   <i name="Zab_VDW">     -0.84910000</i>
   <i name="PARAM1">      0.12340000</i>
   <i name="PARAM2">      1.00000000</i>
   <i name="PARAM3">      0.00000000</i>
  </separator>
  <separator name="model GW" >
   <i type="int" name="MODEL_GW">     0</i>
   <i name="MODEL_EPS0">     12.45510387</i>
   <i name="MODEL_ALPHA">      1.00000000</i>
  </separator>
  <separator name="linear response parameters" >
   <i type="logical" name="LEPSILON"> F  </i>
   <i type="logical" name="LRPA"> F  </i>
   <i type="logical" name="LNABLA"> F  </i>
   <i type="logical" name="LVEL"> F  </i>
   <i type="int" name="KINTER">     0</i>
   <i name="CSHIFT">      0.10000000</i>
   <i name="OMEGAMAX">     -1.00000000</i>
   <i name="DEG_THRESHOLD">      0.00200000</i>
  </separator>
  <separator name="orbital magnetization" >
   <i type="logical" name="NUCIND"> F  </i>
   <v name="MAGPOS">      0.00000000      0.00000000      0.00000000</v>
   <i type="logical" name="LNICSALL"> T  </i>
   <i type="logical" name="ORBITALMAG"> F  </i>
   <i type="logical" name="LMAGBLOCH"> F  </i>
   <i type="logical" name="LCHIMAG"> F  </i>
   <i type="logical" name="LGAUGE"> T  </i>
   <i type="int" name="MAGATOM">     0</i>
   <v name="MAGDIPOL">      0.00000000      0.00000000      0.00000000</v>
   <v name="AVECCONST">      0.00000000      0.00000000      0.00000000</v>
  </separator>
  <separator name="response functions" >
   <i type="logical" name="LADDER"> F  </i>
   <i type="logical" name="LFXC"> F  </i>
   <i type="logical" name="LHARTREE"> T  </i>
   <i type="int" name="IBSE">     0</i>
   <v type="int" name="KPOINT">    -1     0     0     0</v>
   <i type="logical" name="LTCTE"> F  </i>
   <i type="logical" name="LTETE"> F  </i>
   <i type="logical" name="LTRIPLET"> F  </i>
   <i type="logical" name="LFXCEPS"> F  </i>
   <i type="logical" name="LFXHEG"> F  </i>
   <i type="int" name="NATURALO">     0</i>
   <i type="logical" name="L2ORDER"> F  </i>
   <i type="logical" name="LUSEW"> F  </i>
   <i name="ENCUTGW">     -2.00000000</i>
   <i name="ENCUTGWSOFT">     -2.00000000</i>
   <i name="ENCUTLF">     -1.00000000</i>
   <i type="int" name="LMAXMP2">    -1</i>
   <i name="SCISSOR">      0.00000000</i>
   <i type="int" name="NOMEGA">     0</i>
   <i type="int" name="NOMEGAR">     0</i>
   <i type="int" name="NBANDSGW">    -1</i>
   <i type="int" name="NBANDSO">    -1</i>
   <i type="int" name="NBANDSV">    -1</i>
   <i type="int" name="NELM">     1</i>
   <i type="int" name="NELMHF">     1</i>
   <i type="int" name="DIM">     3</i>
   <i type="int" name="ANTIRES">     0</i>
   <i name="OMEGAMAX">    -30.00000000</i>
   <i name="OMEGAMIN">    -30.00000000</i>
   <i name="OMEGATL">   -200.00000000</i>
   <i type="int" name="OMEGAGRID">     0</i>
   <i name="CSHIFT">     -0.10000000</i>
   <i type="logical" name="SELFENERGY"> F  </i>
   <i type="logical" name="LSPECTRAL"> F  </i>
   <i type="logical" name="LSPECTRALGW"> F  </i>
   <i type="logical" name="LSINGLES"> F  </i>
   <i type="logical" name="LFERMIGW"> F  </i>
   <i type="logical" name="ODDONLYGW"> F  </i>
   <i type="logical" name="EVENONLYGW"> F  </i>
   <i type="int" name="NKREDLFX">     1</i>
   <i type="int" name="NKREDLFY">     1</i>
   <i type="int" name="NKREDLFZ">     1</i>
   <i type="int" name="MAXMEM">  1800</i>
   <i type="int" name="TELESCOPE">     0</i>
   <i type="int" name="TAUPAR">     1</i>
   <i type="int" name="OMEGAPAR">    -1</i>
   <i name="LAMBDA">      1.00000000</i>
  </separator>
  <separator name="External order field" >
   <i name="OFIELD_KAPPA">      0.00000000</i>
   <v name="OFIELD_K">      0.00000000      0.00000000      0.00000000</v>
   <i name="OFIELD_Q6_NEAR">      0.00000000</i>
   <i name="OFIELD_Q6_FAR">      0.00000000</i>
   <i name="OFIELD_A">      0.00000000</i>
  </separator>
 </parameters>
 <atominfo>
  <atoms>       4 </atoms>
  <types>       1 </types>
  <array name="atoms" >
   <dimension dim="1">ion</dimension>
   <field type="string">element</field>
   <field type="int">atomtype</field>
   <set>
    <rc><c>Ag</c><c>   1</c></rc>
    <rc><c>Ag</c><c>   1</c></rc>
    <rc><c>Ag</c><c>   1</c></rc>
    <rc><c>Ag</c><c>   1</c></rc>
   </set>
  </array>
  <array name="atomtypes" >
   <dimension dim="1">type</dimension>
   <field type="int">atomspertype</field>
   <field type="string">element</field>
   <field>mass</field>
   <field>valence</field>
   <field type="string">pseudopotential</field>
   <set>
    <rc><c>   4</c><c>Ag</c><c>    107.86800000</c><c>     11.00000000</c><c>  PAW_PBE Ag 02Apr2005                  </c></rc>
   </set>
  </array>
 </atominfo>
 <structure name="initialpos" >
  <crystal>
   <varray name="basis" >
    <v>       4.36266667       0.00000000       0.00000000 </v>
    <v>       0.00000000       4.36266667       0.00000000 </v>
    <v>       0.00000000       0.00000000       4.36266667 </v>
   </varray>
   <i name="volume">     83.03402583 </i>
   <varray name="rec_basis" >
    <v>       0.22921760       0.00000000       0.00000000 </v>
    <v>       0.00000000       0.22921760       0.00000000 </v>
    <v>       0.00000000       0.00000000       0.22921760 </v>
   </varray>
  </crystal>
  <varray name="positions" >
   <v>       0.00000000       0.00000000       0.00000000 </v>
   <v>       0.00000000       0.50000000       0.50000000 </v>
   <v>       0.50000000       0.00000000       0.50000000 </v>
   <v>       0.50000000       0.50000000       0.00000000 </v>
  </varray>
 </structure>
 <calculation>
  <scstep>
   <time name="dav">    0.54    0.54</time>
   <time name="total">    0.56    0.58</time>
   <energy>
    <i name="alphaZ">    163.89966604 </i>
    <i name="ewald">  -3662.23060343 </i>
    <i name="hartreedc">   -933.67252697 </i>
    <i name="XCdc">    -43.57531923 </i>
    <i name="pawpsdc">   4013.84859731 </i>
    <i name="pawaedc">  -3829.39709692 </i>
    <i name="eentropy">      0.00081683 </i>
    <i name="bandstr">    331.87936846 </i>
    <i name="atom">   4149.03371350 </i>
    <i name="e_fr_energy">    189.78661558 </i>
    <i name="e_wo_entrp">    189.78579875 </i>
    <i name="e_0_energy">    189.78634330 </i>
   </energy>
  </scstep>
  <scstep>
   <time name="dav">    0.83    0.83</time>
   <time name="total">    0.83    0.84</time>
   <energy>
    <i name="e_fr_energy">     -8.30869043 </i>
    <i name="e_wo_entrp">     -8.30751373 </i>
    <i name="e_0_energy">     -8.30829819 </i>
   </energy>
  </scstep>
  <scstep>
   <time name="dav">    0.67    0.67</time>
   <time name="total">    0.67    0.67</time>
   <energy>
    <i name="e_fr_energy">    -11.23043400 </i>
    <i name="e_wo_entrp">    -11.22975774 </i>
    <i name="e_0_energy">    -11.23020858 </i>
   </energy>
  </scstep>
  <scstep>
   <time name="dav">    0.93    0.93</time>
   <time name="total">    0.93    0.93</time>
   <energy>
    <i name="e_fr_energy">    -11.23990692 </i>
    <i name="e_wo_entrp">    -11.23923360 </i>
    <i name="e_0_energy">    -11.23968248 </i>
   </energy>
  </scstep>
  <scstep>
   <time name="dav">    0.73    0.73</time>
   <time name="total">    0.75    0.75</time>
   <energy>
    <i name="e_fr_energy">    -11.24000444 </i>
    <i name="e_wo_entrp">    -11.23933116 </i>
    <i name="e_0_energy">    -11.23978001 </i>
   </energy>
  </scstep>
  <scstep>
   <time name="dav">    0.84    0.84</time>
   <time name="total">    0.87    0.87</time>
   <energy>
    <i name="e_fr_energy">    -10.50888073 </i>
    <i name="e_wo_entrp">    -10.51028496 </i>
    <i name="e_0_energy">    -10.50934881 </i>
   </energy>
  </scstep>
  <scstep>
   <time name="dav">    0.73    0.74</time>
   <time name="total">    0.76    0.76</time>
   <energy>
    <i name="e_fr_energy">    -10.49880733 </i>
    <i name="e_wo_entrp">    -10.50013081 </i>
    <i name="e_0_energy">    -10.49924849 </i>
   </energy>
  </scstep>
  <scstep>
   <time name="dav">    0.74    0.74</time>
   <time name="total">    0.77    0.77</time>
   <energy>
    <i name="e_fr_energy">    -10.49368857 </i>
    <i name="e_wo_entrp">    -10.49497792 </i>
    <i name="e_0_energy">    -10.49411835 </i>
   </energy>
  </scstep>
  <scstep>
   <time name="dav">    0.66    0.66</time>
   <time name="total">    0.67    0.67</time>
   <energy>
    <i name="alphaZ">    163.89966604 </i>
    <i name="ewald">  -3662.23060343 </i>
    <i name="hartreedc">   -889.58463982 </i>
    <i name="XCdc">    -45.23292948 </i>
    <i name="pawpsdc">   4236.56381965 </i>
    <i name="pawaedc">  -4058.66489878 </i>
    <i name="eentropy">      0.00129303 </i>
    <i name="bandstr">     95.72083293 </i>
    <i name="atom">   4149.03371350 </i>
    <i name="e_fr_energy">    -10.49374635 </i>
    <i name="e_wo_entrp">    -10.49503938 </i>
    <i name="e_0_energy">    -10.49417736 </i>
   </energy>
  </scstep>
  <structure>
   <crystal>
    <varray name="basis" >
     <v>       4.36266667       0.00000000       0.00000000 </v>
     <v>       0.00000000       4.36266667       0.00000000 </v>
     <v>       0.00000000       0.00000000       4.36266667 </v>
    </varray>
    <i name="volume">     83.03402583 </i>
    <varray name="rec_basis" >
     <v>       0.22921760       0.00000000       0.00000000 </v>
     <v>       0.00000000       0.22921760       0.00000000 </v>
     <v>       0.00000000       0.00000000       0.22921760 </v>
    </varray>
   </crystal>
   <varray name="positions" >
    <v>       0.00000000       0.00000000       0.00000000 </v>
    <v>       0.00000000       0.50000000       0.50000000 </v>
    <v>       0.50000000       0.00000000       0.50000000 </v>
    <v>       0.50000000       0.50000000       0.00000000 </v>
   </varray>
  </structure>
  <varray name="forces" >
   <v>       0.00000000       0.00000000      -0.00000000 </v>
   <v>      -0.00000000       0.00000000       0.00000000 </v>
   <v>       0.00000000      -0.00000000      -0.00000000 </v>
   <v>       0.00000000      -0.00000000      -0.00000000 </v>
  </varray>
  <varray name="stress" >
   <v>     -92.38848930       0.00000000       0.00000000 </v>
   <v>      -0.00000000     -92.38848930       0.00000000 </v>
   <v>      -0.00000000      -0.00000000     -92.38848930 </v>
  </varray>
  <energy>
   <i name="e_fr_energy">    -10.49374635 </i>
   <i name="e_wo_entrp">    -10.49417736 </i>
   <i name="e_0_energy">      0.00129303 </i>
  </energy>
  <time name="totalsc">    7.27    7.33</time>
  <eigenvalues>
   <array>
    <dimension dim="1">band</dimension>
    <dimension dim="2">kpoint</dimension>
    <dimension dim="3">spin</dimension>
    <field>eigene</field>
    <field>occ</field>
    <set>
     <set comment="spin 1">
      <set comment="kpoint 1">
       <r>   -0.4555    1.0000 </r>
       <r>    0.6556    1.0000 </r>
       <r>    0.6556    1.0000 </r>
       <r>    0.6556    1.0000 </r>
       <r>    0.7321    1.0000 </r>
       <r>    0.7321    1.0000 </r>
       <r>    0.7321    1.0000 </r>
       <r>    1.7882    1.0000 </r>
       <r>    1.7882    1.0000 </r>
       <r>    1.7882    1.0000 </r>
       <r>    2.5141    1.0000 </r>
       <r>    2.5141    1.0000 </r>
       <r>    3.0506    1.0000 </r>
       <r>    3.0506    1.0000 </r>
       <r>    3.0506    1.0000 </r>
       <r>    3.2207    1.0000 </r>
       <r>    3.2207    1.0000 </r>
       <r>    3.2207    1.0000 </r>
       <r>    3.2207    1.0000 </r>
       <r>    3.2207    1.0000 </r>
       <r>    3.2207    1.0000 </r>
       <r>    7.7662   -0.0000 </r>
       <r>    7.7662   -0.0000 </r>
       <r>    7.7662   -0.0000 </r>
       <r>   11.3314    0.0000 </r>
       <r>   11.3314    0.0000 </r>
       <r>   11.3314    0.0000 </r>
       <r>   15.6686    0.0000 </r>
       <r>   15.6686    0.0000 </r>
       <r>   15.6686    0.0000 </r>
       <r>   15.6686    0.0000 </r>
       <r>   15.6686    0.0000 </r>
       <r>   15.6686    0.0000 </r>
       <r>   20.8541    0.0000 </r>
       <r>   20.8541    0.0000 </r>
       <r>   20.8541    0.0000 </r>
       <r>   21.0101    0.0000 </r>
       <r>   21.0101    0.0000 </r>
       <r>   21.0101    0.0000 </r>
       <r>   21.4594    0.0000 </r>
       <r>   23.8745    0.0000 </r>
       <r>   23.8745    0.0000 </r>
       <r>   23.8745    0.0000 </r>
       <r>   28.2920    0.0000 </r>
       <r>   28.4191    0.0000 </r>
       <r>   28.4191    0.0000 </r>
       <r>   28.4191    0.0000 </r>
       <r>   31.5854    0.0000 </r>
      </set>
      <set comment="kpoint 2">
       <r>   -0.3451    1.0000 </r>
       <r>    0.6948    1.0000 </r>
       <r>    0.7066    1.0000 </r>
       <r>    0.7066    1.0000 </r>
       <r>    0.7615    1.0000 </r>
       <r>    0.7779    1.0000 </r>
       <r>    0.7779    1.0000 </r>
       <r>    1.7533    1.0000 </r>
       <r>    1.8220    1.0000 </r>
       <r>    1.8220    1.0000 </r>
       <r>    2.4796    1.0000 </r>
       <r>    2.5296    1.0000 </r>
       <r>    3.0053    1.0000 </r>
       <r>    3.0053    1.0000 </r>
       <r>    3.0337    1.0000 </r>
       <r>    3.0732    1.0000 </r>
       <r>    3.0732    1.0000 </r>
       <r>    3.1647    1.0000 </r>
       <r>    3.1647    1.0000 </r>
       <r>    3.2209    1.0000 </r>
       <r>    3.2209    1.0000 </r>
       <r>    6.9577   -0.0000 </r>
       <r>    8.0121   -0.0000 </r>
       <r>    8.0121   -0.0000 </r>
       <r>   11.3544    0.0000 </r>
       <r>   11.3544    0.0000 </r>
       <r>   12.3264    0.0000 </r>
       <r>   15.2512    0.0000 </r>
       <r>   15.2512    0.0000 </r>
       <r>   15.2629    0.0000 </r>
       <r>   15.2629    0.0000 </r>
       <r>   15.8516    0.0000 </r>
       <r>   15.8516    0.0000 </r>
       <r>   20.8540    0.0000 </r>
       <r>   21.0144    0.0000 </r>
       <r>   21.4284    0.0000 </r>
       <r>   21.4829    0.0000 </r>
       <r>   21.4829    0.0000 </r>
       <r>   21.5238    0.0000 </r>
       <r>   21.5238    0.0000 </r>
       <r>   23.4253    0.0000 </r>
       <r>   23.4253    0.0000 </r>
       <r>   23.4450    0.0000 </r>
       <r>   28.5129    0.0000 </r>
       <r>   28.5129    0.0000 </r>
       <r>   28.6647    0.0000 </r>
       <r>   28.7483    0.0000 </r>
       <r>   30.5206    0.0000 </r>
      </set>
      <set comment="kpoint 3">
       <r>   -0.0245    1.0000 </r>
       <r>    0.8031    1.0000 </r>
       <r>    0.8465    1.0000 </r>
       <r>    0.8470    1.0000 </r>
       <r>    0.8470    1.0000 </r>
       <r>    0.9139    1.0000 </r>
       <r>    0.9139    1.0000 </r>
       <r>    1.6541    1.0000 </r>
       <r>    1.9222    1.0000 </r>
       <r>    1.9222    1.0000 </r>
       <r>    2.3912    1.0000 </r>
       <r>    2.5740    1.0000 </r>
       <r>    2.7104    1.0000 </r>
       <r>    2.7104    1.0000 </r>
       <r>    2.8783    1.0000 </r>
       <r>    2.8783    1.0000 </r>
       <r>    2.9853    1.0000 </r>
       <r>    3.0093    1.0000 </r>
       <r>    3.0093    1.0000 </r>
       <r>    3.2211    1.0000 </r>
       <r>    3.2211    1.0000 </r>
       <r>    5.5476    1.0000 </r>
       <r>    8.6676   -0.0000 </r>
       <r>    8.6676   -0.0000 </r>
       <r>   11.4251    0.0000 </r>
       <r>   11.4251    0.0000 </r>
       <r>   14.2751    0.0000 </r>
       <r>   14.2751    0.0000 </r>
       <r>   14.2972    0.0000 </r>
       <r>   14.4536    0.0000 </r>
       <r>   14.4536    0.0000 </r>
       <r>   16.3844    0.0000 </r>
       <r>   16.3844    0.0000 </r>
       <r>   20.8715    0.0000 </r>
       <r>   21.0286    0.0000 </r>
       <r>   21.3503    0.0000 </r>
       <r>   22.3276    0.0000 </r>
       <r>   22.3276    0.0000 </r>
       <r>   22.6202    0.0000 </r>
       <r>   22.6328    0.0000 </r>
       <r>   22.6328    0.0000 </r>
       <r>   23.1147    0.0000 </r>
       <r>   23.1147    0.0000 </r>
       <r>   27.3350    0.0000 </r>
       <r>   28.8843    0.0000 </r>
       <r>   28.8843    0.0000 </r>
       <r>   29.3795    0.0000 </r>
       <r>   31.0695    0.0000 </r>
      </set>
      <set comment="kpoint 4">
       <r>    0.4574    1.0000 </r>
       <r>    0.9498    1.0000 </r>
       <r>    0.9791    1.0000 </r>
       <r>    1.0355    1.0000 </r>
       <r>    1.0355    1.0000 </r>
       <r>    1.1387    1.0000 </r>
       <r>    1.1387    1.0000 </r>
       <r>    1.5057    1.0000 </r>
       <r>    2.0833    1.0000 </r>
       <r>    2.0833    1.0000 </r>
       <r>    2.2666    1.0000 </r>
       <r>    2.2666    1.0000 </r>
       <r>    2.3093    1.0000 </r>
       <r>    2.6435    1.0000 </r>
       <r>    2.7040    1.0000 </r>
       <r>    2.7040    1.0000 </r>
       <r>    2.7874    1.0000 </r>
       <r>    2.7874    1.0000 </r>
       <r>    2.9119    1.0000 </r>
       <r>    3.2213    1.0000 </r>
       <r>    3.2213    1.0000 </r>
       <r>    4.1932    1.0000 </r>
       <r>    9.5904    0.0000 </r>
       <r>    9.5904    0.0000 </r>
       <r>   11.5402    0.0000 </r>
       <r>   11.5402    0.0000 </r>
       <r>   13.0903    0.0000 </r>
       <r>   13.0903    0.0000 </r>
       <r>   13.7039    0.0000 </r>
       <r>   13.7039    0.0000 </r>
       <r>   16.5923    0.0000 </r>
       <r>   17.2248    0.0000 </r>
       <r>   17.2248    0.0000 </r>
       <r>   20.9584    0.0000 </r>
       <r>   20.9711    0.0000 </r>
       <r>   20.9711    0.0000 </r>
       <r>   21.0562    0.0000 </r>
       <r>   21.2555    0.0000 </r>
       <r>   21.8318    0.0000 </r>
       <r>   24.1314    0.0000 </r>
       <r>   24.1314    0.0000 </r>
       <r>   24.6970    0.0000 </r>
       <r>   25.1210    0.0000 </r>
       <r>   25.1210    0.0000 </r>
       <r>   29.5822    0.0000 </r>
       <r>   29.5822    0.0000 </r>
       <r>   29.6846    0.0000 </r>
       <r>   29.6846    0.0000 </r>
      </set>
      <set comment="kpoint 5">
       <r>    0.9202    1.0000 </r>
       <r>    1.0552    1.0000 </r>
       <r>    1.1458    1.0000 </r>
       <r>    1.1861    1.0000 </r>
       <r>    1.1861    1.0000 </r>
       <r>    1.3287    1.0000 </r>
       <r>    1.4476    1.0000 </r>
       <r>    1.4476    1.0000 </r>
       <r>    1.8307    1.0000 </r>
       <r>    1.8307    1.0000 </r>
       <r>    2.2943    1.0000 </r>
       <r>    2.2943    1.0000 </r>
       <r>    2.4310    1.0000 </r>
       <r>    2.5376    1.0000 </r>
       <r>    2.5376    1.0000 </r>
       <r>    2.5624    1.0000 </r>
       <r>    2.5624    1.0000 </r>
       <r>    2.7298    1.0000 </r>
       <r>    2.8230    1.0000 </r>
       <r>    3.0840    1.0000 </r>
       <r>    3.2215    1.0000 </r>
       <r>    3.2215    1.0000 </r>
       <r>   10.6782    0.0000 </r>
       <r>   10.6782    0.0000 </r>
       <r>   11.6549    0.0000 </r>
       <r>   11.6549    0.0000 </r>
       <r>   11.8643    0.0000 </r>
       <r>   11.8643    0.0000 </r>
       <r>   13.2418    0.0000 </r>
       <r>   13.2418    0.0000 </r>
       <r>   18.3158    0.0000 </r>
       <r>   18.3158    0.0000 </r>
       <r>   19.0281    0.0000 </r>
       <r>   19.5918    0.0000 </r>
       <r>   19.5918    0.0000 </r>
       <r>   21.0174    0.0000 </r>
       <r>   21.1017    0.0000 </r>
       <r>   21.1687    0.0000 </r>
       <r>   21.2147    0.0000 </r>
       <r>   22.2251    0.0000 </r>
       <r>   25.8408    0.0000 </r>
       <r>   25.8408    0.0000 </r>
       <r>   27.0854    0.0000 </r>
       <r>   27.0854    0.0000 </r>
       <r>   27.7081    0.0000 </r>
       <r>   27.7081    0.0000 </r>
       <r>   30.5878    0.0000 </r>
       <r>   30.5878    0.0000 </r>
      </set>
      <set comment="kpoint 6">
       <r>   -0.2374    1.0000 </r>
       <r>    0.7380    1.0000 </r>
       <r>    0.7463    1.0000 </r>
       <r>    0.7463    1.0000 </r>
       <r>    0.8060    1.0000 </r>
       <r>    0.8060    1.0000 </r>
       <r>    0.8394    1.0000 </r>
       <r>    1.7422    1.0000 </r>
       <r>    1.8338    1.0000 </r>
       <r>    1.8521    1.0000 </r>
       <r>    2.4710    1.0000 </r>
       <r>    2.5249    1.0000 </r>
       <r>    2.9400    1.0000 </r>
       <r>    2.9400    1.0000 </r>
       <r>    2.9631    1.0000 </r>
       <r>    2.9781    1.0000 </r>
       <r>    3.0653    1.0000 </r>
       <r>    3.0653    1.0000 </r>
       <r>    3.1644    1.0000 </r>
       <r>    3.1644    1.0000 </r>
       <r>    3.1811    1.0000 </r>
       <r>    7.1816   -0.0000 </r>
       <r>    7.1816   -0.0000 </r>
       <r>    8.2458   -0.0000 </r>
       <r>   11.3741    0.0000 </r>
       <r>   12.3668    0.0000 </r>
       <r>   12.3668    0.0000 </r>
       <r>   14.0718    0.0000 </r>
       <r>   15.4241    0.0000 </r>
       <r>   15.4241    0.0000 </r>
       <r>   15.4319    0.0000 </r>
       <r>   15.4319    0.0000 </r>
       <r>   16.0199    0.0000 </r>
       <r>   20.9297    0.0000 </r>
       <r>   21.2412    0.0000 </r>
       <r>   21.4992    0.0000 </r>
       <r>   21.4992    0.0000 </r>
       <r>   21.5377    0.0000 </r>
       <r>   21.5377    0.0000 </r>
       <r>   22.2300    0.0000 </r>
       <r>   22.8222    0.0000 </r>
       <r>   23.2753    0.0000 </r>
       <r>   24.2575    0.0000 </r>
       <r>   27.3803    0.0000 </r>
       <r>   28.4218    0.0000 </r>
       <r>   28.9564    0.0000 </r>
       <r>   30.1962    0.0000 </r>
       <r>   30.2384    0.0000 </r>
      </set>
      <set comment="kpoint 7">
       <r>    0.0746    1.0000 </r>
       <r>    0.8443    1.0000 </r>
       <r>    0.8566    1.0000 </r>
       <r>    0.8879    1.0000 </r>
       <r>    0.8885    1.0000 </r>
       <r>    0.9388    1.0000 </r>
       <r>    0.9994    1.0000 </r>
       <r>    1.6587    1.0000 </r>
       <r>    1.9230    1.0000 </r>
       <r>    1.9369    1.0000 </r>
       <r>    2.4004    1.0000 </r>
       <r>    2.5736    1.0000 </r>
       <r>    2.6109    1.0000 </r>
       <r>    2.6604    1.0000 </r>
       <r>    2.7796    1.0000 </r>
       <r>    2.8441    1.0000 </r>
       <r>    2.9104    1.0000 </r>
       <r>    3.0084    1.0000 </r>
       <r>    3.0188    1.0000 </r>
       <r>    3.1620    1.0000 </r>
       <r>    3.1637    1.0000 </r>
       <r>    5.7684    1.0056 </r>
       <r>    7.7619   -0.0000 </r>
       <r>    8.8766    0.0000 </r>
       <r>   11.4138    0.0000 </r>
       <r>   12.4788    0.0000 </r>
       <r>   12.8846    0.0000 </r>
       <r>   14.3188    0.0000 </r>
       <r>   14.4354    0.0000 </r>
       <r>   14.6247    0.0000 </r>
       <r>   15.8945    0.0000 </r>
       <r>   15.9243    0.0000 </r>
       <r>   15.9303    0.0000 </r>
       <r>   20.6961    0.0000 </r>
       <r>   20.9840    0.0000 </r>
       <r>   21.5344    0.0000 </r>
       <r>   21.5511    0.0000 </r>
       <r>   21.6017    0.0000 </r>
       <r>   22.6674    0.0000 </r>
       <r>   22.8707    0.0000 </r>
       <r>   23.1333    0.0000 </r>
       <r>   23.9947    0.0000 </r>
       <r>   24.5187    0.0000 </r>
       <r>   26.7269    0.0000 </r>
       <r>   28.6159    0.0000 </r>
       <r>   28.6541    0.0000 </r>
       <r>   29.6001    0.0000 </r>
       <r>   31.3861    0.0000 </r>
      </set>
      <set comment="kpoint 8">
       <r>    0.5408    1.0000 </r>
       <r>    1.0073    1.0000 </r>
       <r>    1.0154    1.0000 </r>
       <r>    1.0204    1.0000 </r>
       <r>    1.0794    1.0000 </r>
       <r>    1.1577    1.0000 </r>
       <r>    1.2199    1.0000 </r>
       <r>    1.5192    1.0000 </r>
       <r>    2.0336    1.0000 </r>
       <r>    2.0816    1.0000 </r>
       <r>    2.1910    1.0000 </r>
       <r>    2.2444    1.0000 </r>
       <r>    2.3710    1.0000 </r>
       <r>    2.5543    1.0000 </r>
       <r>    2.6656    1.0000 </r>
       <r>    2.6806    1.0000 </r>
       <r>    2.7270    1.0000 </r>
       <r>    2.7856    1.0000 </r>
       <r>    2.9333    1.0000 </r>
       <r>    3.1591    1.0000 </r>
       <r>    3.1625    1.0000 </r>
       <r>    4.4345    1.0000 </r>
       <r>    8.5478   -0.0000 </r>
       <r>    9.7768    0.0000 </r>
       <r>   11.2180    0.0000 </r>
       <r>   12.0967    0.0000 </r>
       <r>   12.5822    0.0000 </r>
       <r>   13.2466    0.0000 </r>
       <r>   13.9916    0.0000 </r>
       <r>   15.2054    0.0000 </r>
       <r>   16.3679    0.0000 </r>
       <r>   16.7019    0.0000 </r>
       <r>   16.9009    0.0000 </r>
       <r>   19.7786    0.0000 </r>
       <r>   19.8331    0.0000 </r>
       <r>   21.6480    0.0000 </r>
       <r>   21.7793    0.0000 </r>
       <r>   22.4099    0.0000 </r>
       <r>   22.9526    0.0000 </r>
       <r>   22.9733    0.0000 </r>
       <r>   24.1796    0.0000 </r>
       <r>   24.8797    0.0000 </r>
       <r>   25.0586    0.0000 </r>
       <r>   26.4490    0.0000 </r>
       <r>   28.7283    0.0000 </r>
       <r>   29.3462    0.0000 </r>
       <r>   29.4466    0.0000 </r>
       <r>   29.7583    0.0000 </r>
      </set>
      <set comment="kpoint 9">
       <r>    0.9889    1.0000 </r>
       <r>    1.1190    1.0000 </r>
       <r>    1.1755    1.0000 </r>
       <r>    1.2033    1.0000 </r>
       <r>    1.2289    1.0000 </r>
       <r>    1.3505    1.0000 </r>
       <r>    1.4576    1.0000 </r>
       <r>    1.4711    1.0000 </r>
       <r>    1.7918    1.0000 </r>
       <r>    1.8276    1.0000 </r>
       <r>    2.0927    1.0000 </r>
       <r>    2.2919    1.0000 </r>
       <r>    2.2928    1.0000 </r>
       <r>    2.5352    1.0000 </r>
       <r>    2.5522    1.0000 </r>
       <r>    2.5706    1.0000 </r>
       <r>    2.5811    1.0000 </r>
       <r>    2.8119    1.0000 </r>
       <r>    2.8221    1.0000 </r>
       <r>    3.1596    1.0000 </r>
       <r>    3.1610    1.0000 </r>
       <r>    3.3749    1.0000 </r>
       <r>    9.4400    0.0000 </r>
       <r>   10.3817    0.0000 </r>
       <r>   10.8482    0.0000 </r>
       <r>   12.0242    0.0000 </r>
       <r>   12.1461    0.0000 </r>
       <r>   12.4387    0.0000 </r>
       <r>   13.9542    0.0000 </r>
       <r>   14.4639    0.0000 </r>
       <r>   17.5255    0.0000 </r>
       <r>   17.6837    0.0000 </r>
       <r>   18.6219    0.0000 </r>
       <r>   18.7726    0.0000 </r>
       <r>   19.0978    0.0000 </r>
       <r>   21.3804    0.0000 </r>
       <r>   21.8063    0.0000 </r>
       <r>   22.0507    0.0000 </r>
       <r>   22.1770    0.0000 </r>
       <r>   23.0368    0.0000 </r>
       <r>   24.7118    0.0000 </r>
       <r>   25.8992    0.0000 </r>
       <r>   26.1168    0.0000 </r>
       <r>   27.7755    0.0000 </r>
       <r>   28.3758    0.0000 </r>
       <r>   28.4813    0.0000 </r>
       <r>   29.6661    0.0000 </r>
       <r>   30.3993    0.0000 </r>
      </set>
      <set comment="kpoint 10">
       <r>    0.3581    1.0000 </r>
       <r>    0.9042    1.0000 </r>
       <r>    1.0045    1.0000 </r>
       <r>    1.0045    1.0000 </r>
       <r>    1.0108    1.0000 </r>
       <r>    1.0108    1.0000 </r>
       <r>    1.1766    1.0000 </r>
       <r>    1.6350    1.0000 </r>
       <r>    1.9648    1.0000 </r>
       <r>    1.9792    1.0000 </r>
       <r>    2.3692    1.0000 </r>
       <r>    2.4143    1.0000 </r>
       <r>    2.4143    1.0000 </r>
       <r>    2.4764    1.0000 </r>
       <r>    2.6459    1.0000 </r>
       <r>    2.7462    1.0000 </r>
       <r>    2.9134    1.0000 </r>
       <r>    2.9134    1.0000 </r>
       <r>    3.0054    1.0000 </r>
       <r>    3.0054    1.0000 </r>
       <r>    3.0657    1.0000 </r>
       <r>    6.3193   -0.0000 </r>
       <r>    6.3193   -0.0000 </r>
       <r>    9.4545    0.0000 </r>
       <r>   11.0312    0.0000 </r>
       <r>   11.9768    0.0000 </r>
       <r>   14.2164    0.0000 </r>
       <r>   14.2164    0.0000 </r>
       <r>   14.8973    0.0000 </r>
       <r>   14.8973    0.0000 </r>
       <r>   15.2754    0.0000 </r>
       <r>   15.2754    0.0000 </r>
       <r>   17.0202    0.0000 </r>
       <r>   19.6103    0.0000 </r>
       <r>   19.6766    0.0000 </r>
       <r>   20.9283    0.0000 </r>
       <r>   22.7729    0.0000 </r>
       <r>   22.7729    0.0000 </r>
       <r>   23.2135    0.0000 </r>
       <r>   23.2135    0.0000 </r>
       <r>   23.4613    0.0000 </r>
       <r>   25.3681    0.0000 </r>
       <r>   25.4084    0.0000 </r>
       <r>   26.3263    0.0000 </r>
       <r>   27.7172    0.0000 </r>
       <r>   28.4549    0.0000 </r>
       <r>   30.1852    0.0000 </r>
       <r>   30.7447    0.0000 </r>
      </set>
      <set comment="kpoint 11">
       <r>    0.7704    1.0000 </r>
       <r>    1.0419    1.0000 </r>
       <r>    1.1223    1.0000 </r>
       <r>    1.1673    1.0000 </r>
       <r>    1.2045    1.0000 </r>
       <r>    1.2121    1.0000 </r>
       <r>    1.3888    1.0000 </r>
       <r>    1.5436    1.0000 </r>
       <r>    1.9943    1.0000 </r>
       <r>    2.0235    1.0000 </r>
       <r>    2.0937    1.0000 </r>
       <r>    2.1648    1.0000 </r>
       <r>    2.1830    1.0000 </r>
       <r>    2.3566    1.0000 </r>
       <r>    2.6093    1.0000 </r>
       <r>    2.7402    1.0000 </r>
       <r>    2.7811    1.0000 </r>
       <r>    2.8404    1.0000 </r>
       <r>    2.8473    1.0000 </r>
       <r>    3.0017    1.0000 </r>
       <r>    3.0164    1.0000 </r>
       <r>    4.9880    1.0000 </r>
       <r>    7.0524   -0.0000 </r>
       <r>    9.9446    0.0000 </r>
       <r>   10.3024    0.0000 </r>
       <r>   12.0363    0.0000 </r>
       <r>   13.6090    0.0000 </r>
       <r>   13.6967    0.0000 </r>
       <r>   15.3159    0.0000 </r>
       <r>   15.3414    0.0000 </r>
       <r>   15.6115    0.0000 </r>
       <r>   17.0265    0.0000 </r>
       <r>   17.0531    0.0000 </r>
       <r>   18.3632    0.0000 </r>
       <r>   18.6033    0.0000 </r>
       <r>   21.6868    0.0000 </r>
       <r>   22.9521    0.0000 </r>
       <r>   23.4219    0.0000 </r>
       <r>   23.6393    0.0000 </r>
       <r>   23.7298    0.0000 </r>
       <r>   24.3224    0.0000 </r>
       <r>   24.8991    0.0000 </r>
       <r>   25.7010    0.0000 </r>
       <r>   27.0666    0.0000 </r>
       <r>   28.2855    0.0000 </r>
       <r>   28.8261    0.0000 </r>
       <r>   28.9811    0.0000 </r>
       <r>   29.9009    0.0000 </r>
      </set>
      <set comment="kpoint 12">
       <r>    1.1681    1.0000 </r>
       <r>    1.2375    1.0000 </r>
       <r>    1.2607    1.0000 </r>
       <r>    1.2959    1.0000 </r>
       <r>    1.3474    1.0000 </r>
       <r>    1.4087    1.0000 </r>
       <r>    1.4847    1.0000 </r>
       <r>    1.5599    1.0000 </r>
       <r>    1.7067    1.0000 </r>
       <r>    1.8128    1.0000 </r>
       <r>    1.9185    1.0000 </r>
       <r>    1.9675    1.0000 </r>
       <r>    2.2920    1.0000 </r>
       <r>    2.5116    1.0000 </r>
       <r>    2.5119    1.0000 </r>
       <r>    2.5312    1.0000 </r>
       <r>    2.5672    1.0000 </r>
       <r>    2.7097    1.0000 </r>
       <r>    2.9990    1.0000 </r>
       <r>    3.0010    1.0000 </r>
       <r>    3.2124    1.0000 </r>
       <r>    3.9186    1.0000 </r>
       <r>    7.9045   -0.0000 </r>
       <r>    8.8671    0.0000 </r>
       <r>   11.3336    0.0000 </r>
       <r>   12.3830    0.0000 </r>
       <r>   12.4839    0.0000 </r>
       <r>   12.9177    0.0000 </r>
       <r>   15.7848    0.0000 </r>
       <r>   16.2429    0.0000 </r>
       <r>   16.4342    0.0000 </r>
       <r>   16.5124    0.0000 </r>
       <r>   17.2427    0.0000 </r>
       <r>   17.5309    0.0000 </r>
       <r>   19.3074    0.0000 </r>
       <r>   21.6339    0.0000 </r>
       <r>   23.1994    0.0000 </r>
       <r>   23.3196    0.0000 </r>
       <r>   23.4731    0.0000 </r>
       <r>   23.8504    0.0000 </r>
       <r>   24.6055    0.0000 </r>
       <r>   24.9380    0.0000 </r>
       <r>   26.0698    0.0000 </r>
       <r>   27.9728    0.0000 </r>
       <r>   27.9901    0.0000 </r>
       <r>   28.9670    0.0000 </r>
       <r>   29.1372    0.0000 </r>
       <r>   29.8171    0.0000 </r>
      </set>
      <set comment="kpoint 13">
       <r>    1.0766    1.0000 </r>
       <r>    1.1269    1.0000 </r>
       <r>    1.2944    1.0000 </r>
       <r>    1.2944    1.0000 </r>
       <r>    1.3890    1.0000 </r>
       <r>    1.3890    1.0000 </r>
       <r>    1.5388    1.0000 </r>
       <r>    1.5869    1.0000 </r>
       <r>    1.8331    1.0000 </r>
       <r>    1.8331    1.0000 </r>
       <r>    1.9992    1.0000 </r>
       <r>    2.0029    1.0000 </r>
       <r>    2.1640    1.0000 </r>
       <r>    2.2705    1.0000 </r>
       <r>    2.5006    1.0000 </r>
       <r>    2.6854    1.0000 </r>
       <r>    2.6854    1.0000 </r>
       <r>    2.7777    1.0000 </r>
       <r>    2.7777    1.0000 </r>
       <r>    2.8841    1.0000 </r>
       <r>    3.1962    1.0000 </r>
       <r>    5.6977    1.0003 </r>
       <r>    5.6977    1.0003 </r>
       <r>    8.6452   -0.0000 </r>
       <r>   11.0935    0.0000 </r>
       <r>   12.3070    0.0000 </r>
       <r>   14.2896    0.0000 </r>
       <r>   14.2896    0.0000 </r>
       <r>   14.3938    0.0000 </r>
       <r>   14.3938    0.0000 </r>
       <r>   17.0960    0.0000 </r>
       <r>   17.3992    0.0000 </r>
       <r>   17.3992    0.0000 </r>
       <r>   17.4207    0.0000 </r>
       <r>   18.5479    0.0000 </r>
       <r>   21.0394    0.0000 </r>
       <r>   23.5664    0.0000 </r>
       <r>   24.5493    0.0000 </r>
       <r>   24.5493    0.0000 </r>
       <r>   24.5994    0.0000 </r>
       <r>   24.7117    0.0000 </r>
       <r>   24.7117    0.0000 </r>
       <r>   25.1496    0.0000 </r>
       <r>   27.1051    0.0000 </r>
       <r>   28.5544    0.0000 </r>
       <r>   28.5544    0.0000 </r>
       <r>   28.5840    0.0000 </r>
       <r>   30.2222    0.0000 </r>
      </set>
      <set comment="kpoint 14">
       <r>    1.2796    1.0000 </r>
       <r>    1.3566    1.0000 </r>
       <r>    1.3909    1.0000 </r>
       <r>    1.4811    1.0000 </r>
       <r>    1.4815    1.0000 </r>
       <r>    1.5188    1.0000 </r>
       <r>    1.5291    1.0000 </r>
       <r>    1.6645    1.0000 </r>
       <r>    1.7165    1.0000 </r>
       <r>    1.7185    1.0000 </r>
       <r>    1.7702    1.0000 </r>
       <r>    1.8840    1.0000 </r>
       <r>    2.3182    1.0000 </r>
       <r>    2.3563    1.0000 </r>
       <r>    2.4237    1.0000 </r>
       <r>    2.5054    1.0000 </r>
       <r>    2.5356    1.0000 </r>
       <r>    2.5462    1.0000 </r>
       <r>    2.7826    1.0000 </r>
       <r>    2.8104    1.0000 </r>
       <r>    3.7514    1.0000 </r>
       <r>    4.5810    1.0000 </r>
       <r>    6.5323   -0.0000 </r>
       <r>    7.5072   -0.0000 </r>
       <r>   12.0770    0.0000 </r>
       <r>   12.7643    0.0000 </r>
       <r>   13.1941    0.0000 </r>
       <r>   13.4213    0.0000 </r>
       <r>   15.0646    0.0000 </r>
       <r>   15.2805    0.0000 </r>
       <r>   15.9970    0.0000 </r>
       <r>   16.3035    0.0000 </r>
       <r>   17.9404    0.0000 </r>
       <r>   18.5541    0.0000 </r>
       <r>   19.6749    0.0000 </r>
       <r>   21.9350    0.0000 </r>
       <r>   22.1266    0.0000 </r>
       <r>   23.9032    0.0000 </r>
       <r>   24.5723    0.0000 </r>
       <r>   24.5748    0.0000 </r>
       <r>   24.8140    0.0000 </r>
       <r>   24.9528    0.0000 </r>
       <r>   26.3263    0.0000 </r>
       <r>   27.8515    0.0000 </r>
       <r>   28.2192    0.0000 </r>
       <r>   28.2588    0.0000 </r>
       <r>   29.1504    0.0000 </r>
       <r>   29.5790    0.0000 </r>
      </set>
      <set comment="kpoint 15">
       <r>    1.3528    1.0000 </r>
       <r>    1.4392    1.0000 </r>
       <r>    1.4774    1.0000 </r>
       <r>    1.4774    1.0000 </r>
       <r>    1.5337    1.0000 </r>
       <r>    1.5429    1.0000 </r>
       <r>    1.5429    1.0000 </r>
       <r>    1.6800    1.0000 </r>
       <r>    1.8147    1.0000 </r>
       <r>    1.8147    1.0000 </r>
       <r>    1.8721    1.0000 </r>
       <r>    1.9555    1.0000 </r>
       <r>    2.2395    1.0000 </r>
       <r>    2.3162    1.0000 </r>
       <r>    2.3668    1.0000 </r>
       <r>    2.3668    1.0000 </r>
       <r>    2.4046    1.0000 </r>
       <r>    2.5678    1.0000 </r>
       <r>    2.5678    1.0000 </r>
       <r>    2.6551    1.0000 </r>
       <r>    4.4571    1.0000 </r>
       <r>    5.3777    1.0000 </r>
       <r>    5.3777    1.0000 </r>
       <r>    6.3444   -0.0000 </r>
       <r>   13.0162    0.0000 </r>
       <r>   13.3251    0.0000 </r>
       <r>   14.0879    0.0000 </r>
       <r>   14.0879    0.0000 </r>
       <r>   14.0988    0.0000 </r>
       <r>   14.0988    0.0000 </r>
       <r>   14.9436    0.0000 </r>
       <r>   15.1483    0.0000 </r>
       <r>   20.2081    0.0000 </r>
       <r>   20.2081    0.0000 </r>
       <r>   20.4771    0.0000 </r>
       <r>   21.4188    0.0000 </r>
       <r>   22.2260    0.0000 </r>
       <r>   22.7054    0.0000 </r>
       <r>   23.0700    0.0000 </r>
       <r>   23.0700    0.0000 </r>
       <r>   26.1863    0.0000 </r>
       <r>   26.5410    0.0000 </r>
       <r>   26.5410    0.0000 </r>
       <r>   28.1069    0.0000 </r>
       <r>   28.8950    0.0000 </r>
       <r>   29.3309    0.0000 </r>
       <r>   29.4699    0.0000 </r>
       <r>   29.7752    0.0000 </r>
      </set>
      <set comment="kpoint 16">
       <r>   -0.1334    1.0000 </r>
       <r>    0.7735    1.0000 </r>
       <r>    0.7735    1.0000 </r>
       <r>    0.7735    1.0000 </r>
       <r>    0.8708    1.0000 </r>
       <r>    0.8708    1.0000 </r>
       <r>    0.8708    1.0000 </r>
       <r>    1.7419    1.0000 </r>
       <r>    1.8582    1.0000 </r>
       <r>    1.8582    1.0000 </r>
       <r>    2.4941    1.0000 </r>
       <r>    2.4941    1.0000 </r>
       <r>    2.9129    1.0000 </r>
       <r>    2.9129    1.0000 </r>
       <r>    2.9129    1.0000 </r>
       <r>    2.9164    1.0000 </r>
       <r>    2.9164    1.0000 </r>
       <r>    2.9164    1.0000 </r>
       <r>    3.1654    1.0000 </r>
       <r>    3.1654    1.0000 </r>
       <r>    3.1654    1.0000 </r>
       <r>    7.3906   -0.0000 </r>
       <r>    7.3906   -0.0000 </r>
       <r>    7.3906   -0.0000 </r>
       <r>   12.3915    0.0000 </r>
       <r>   12.3915    0.0000 </r>
       <r>   12.3915    0.0000 </r>
       <r>   14.2512    0.0000 </r>
       <r>   14.2512    0.0000 </r>
       <r>   14.2512    0.0000 </r>
       <r>   16.1944    0.0000 </r>
       <r>   16.1944    0.0000 </r>
       <r>   16.1944    0.0000 </r>
       <r>   20.5853    0.0000 </r>
       <r>   20.9301    0.0000 </r>
       <r>   20.9301    0.0000 </r>
       <r>   20.9301    0.0000 </r>
       <r>   22.1517    0.0000 </r>
       <r>   22.8554    0.0000 </r>
       <r>   22.8554    0.0000 </r>
       <r>   22.8554    0.0000 </r>
       <r>   23.7722    0.0000 </r>
       <r>   23.7722    0.0000 </r>
       <r>   27.3473    0.0000 </r>
       <r>   28.3622    0.0000 </r>
       <r>   28.3622    0.0000 </r>
       <r>   30.9098    0.0000 </r>
       <r>   30.9098    0.0000 </r>
      </set>
      <set comment="kpoint 17">
       <r>    0.1656    1.0000 </r>
       <r>    0.8673    1.0000 </r>
       <r>    0.8752    1.0000 </r>
       <r>    0.8752    1.0000 </r>
       <r>    0.9667    1.0000 </r>
       <r>    1.0326    1.0000 </r>
       <r>    1.0326    1.0000 </r>
       <r>    1.6799    1.0000 </r>
       <r>    1.9309    1.0000 </r>
       <r>    1.9324    1.0000 </r>
       <r>    2.4261    1.0000 </r>
       <r>    2.5603    1.0000 </r>
       <r>    2.5795    1.0000 </r>
       <r>    2.5795    1.0000 </r>
       <r>    2.7438    1.0000 </r>
       <r>    2.7803    1.0000 </r>
       <r>    2.8243    1.0000 </r>
       <r>    2.8243    1.0000 </r>
       <r>    3.1130    1.0000 </r>
       <r>    3.1447    1.0000 </r>
       <r>    3.1447    1.0000 </r>
       <r>    5.9662    0.6068 </r>
       <r>    7.9419   -0.0000 </r>
       <r>    7.9419   -0.0000 </r>
       <r>   12.3201    0.0000 </r>
       <r>   12.3201    0.0000 </r>
       <r>   13.2379    0.0000 </r>
       <r>   13.2379    0.0000 </r>
       <r>   14.1534    0.0000 </r>
       <r>   14.9209    0.0000 </r>
       <r>   16.0474    0.0000 </r>
       <r>   16.0474    0.0000 </r>
       <r>   16.7050    0.0000 </r>
       <r>   19.4575    0.0000 </r>
       <r>   20.9419    0.0000 </r>
       <r>   21.5447    0.0000 </r>
       <r>   21.5447    0.0000 </r>
       <r>   21.8626    0.0000 </r>
       <r>   22.6148    0.0000 </r>
       <r>   22.9671    0.0000 </r>
       <r>   24.3576    0.0000 </r>
       <r>   24.5574    0.0000 </r>
       <r>   24.5574    0.0000 </r>
       <r>   26.3528    0.0000 </r>
       <r>   28.5654    0.0000 </r>
       <r>   28.7028    0.0000 </r>
       <r>   29.3638    0.0000 </r>
       <r>   31.4362    0.0000 </r>
      </set>
      <set comment="kpoint 18">
       <r>    0.6043    1.0000 </r>
       <r>    0.9896    1.0000 </r>
       <r>    1.0496    1.0000 </r>
       <r>    1.0496    1.0000 </r>
       <r>    1.1195    1.0000 </r>
       <r>    1.2470    1.0000 </r>
       <r>    1.2470    1.0000 </r>
       <r>    1.5598    1.0000 </r>
       <r>    2.0132    1.0000 </r>
       <r>    2.0504    1.0000 </r>
       <r>    2.1815    1.0000 </r>
       <r>    2.1815    1.0000 </r>
       <r>    2.4528    1.0000 </r>
       <r>    2.4915    1.0000 </r>
       <r>    2.5985    1.0000 </r>
       <r>    2.6606    1.0000 </r>
       <r>    2.6765    1.0000 </r>
       <r>    2.6765    1.0000 </r>
       <r>    3.0238    1.0000 </r>
       <r>    3.1274    1.0000 </r>
       <r>    3.1274    1.0000 </r>
       <r>    4.6282    1.0000 </r>
       <r>    8.7028   -0.0000 </r>
       <r>    8.7028   -0.0000 </r>
       <r>   11.5448    0.0000 </r>
       <r>   11.5448    0.0000 </r>
       <r>   13.1413    0.0000 </r>
       <r>   13.1413    0.0000 </r>
       <r>   15.2250    0.0000 </r>
       <r>   15.3439    0.0000 </r>
       <r>   15.3439    0.0000 </r>
       <r>   16.8164    0.0000 </r>
       <r>   17.5169    0.0000 </r>
       <r>   18.2985    0.0000 </r>
       <r>   20.9954    0.0000 </r>
       <r>   21.2254    0.0000 </r>
       <r>   21.5095    0.0000 </r>
       <r>   22.9785    0.0000 </r>
       <r>   22.9785    0.0000 </r>
       <r>   23.1892    0.0000 </r>
       <r>   23.8145    0.0000 </r>
       <r>   24.9896    0.0000 </r>
       <r>   26.4301    0.0000 </r>
       <r>   26.4301    0.0000 </r>
       <r>   28.5984    0.0000 </r>
       <r>   29.1181    0.0000 </r>
       <r>   29.5215    0.0000 </r>
       <r>   29.5215    0.0000 </r>
      </set>
      <set comment="kpoint 19">
       <r>    1.0070    1.0000 </r>
       <r>    1.0944    1.0000 </r>
       <r>    1.2409    1.0000 </r>
       <r>    1.2409    1.0000 </r>
       <r>    1.2852    1.0000 </r>
       <r>    1.4218    1.0000 </r>
       <r>    1.4561    1.0000 </r>
       <r>    1.4561    1.0000 </r>
       <r>    1.8234    1.0000 </r>
       <r>    1.8234    1.0000 </r>
       <r>    2.0291    1.0000 </r>
       <r>    2.2078    1.0000 </r>
       <r>    2.2105    1.0000 </r>
       <r>    2.3997    1.0000 </r>
       <r>    2.5421    1.0000 </r>
       <r>    2.5421    1.0000 </r>
       <r>    2.7818    1.0000 </r>
       <r>    2.8057    1.0000 </r>
       <r>    2.9084    1.0000 </r>
       <r>    3.1201    1.0000 </r>
       <r>    3.1201    1.0000 </r>
       <r>    3.5398    1.0000 </r>
       <r>    9.5817    0.0000 </r>
       <r>    9.5817    0.0000 </r>
       <r>   10.5408    0.0000 </r>
       <r>   10.5408    0.0000 </r>
       <r>   13.4556    0.0000 </r>
       <r>   13.4556    0.0000 </r>
       <r>   14.6698    0.0000 </r>
       <r>   14.6698    0.0000 </r>
       <r>   16.1568    0.0000 </r>
       <r>   17.1880    0.0000 </r>
       <r>   18.5817    0.0000 </r>
       <r>   19.1620    0.0000 </r>
       <r>   19.8421    0.0000 </r>
       <r>   21.0653    0.0000 </r>
       <r>   21.1428    0.0000 </r>
       <r>   21.8852    0.0000 </r>
       <r>   23.5627    0.0000 </r>
       <r>   24.1277    0.0000 </r>
       <r>   24.5813    0.0000 </r>
       <r>   24.5813    0.0000 </r>
       <r>   27.1093    0.0000 </r>
       <r>   27.1093    0.0000 </r>
       <r>   29.0333    0.0000 </r>
       <r>   29.0333    0.0000 </r>
       <r>   29.4287    0.0000 </r>
       <r>   29.9297    0.0000 </r>
      </set>
      <set comment="kpoint 20">
       <r>    0.4200    1.0000 </r>
       <r>    0.9259    1.0000 </r>
       <r>    0.9536    1.0000 </r>
       <r>    0.9536    1.0000 </r>
       <r>    1.1350    1.0000 </r>
       <r>    1.1350    1.0000 </r>
       <r>    1.2104    1.0000 </r>
       <r>    1.7030    1.0000 </r>
       <r>    1.9510    1.0000 </r>
       <r>    1.9669    1.0000 </r>
       <r>    2.3979    1.0000 </r>
       <r>    2.3979    1.0000 </r>
       <r>    2.4245    1.0000 </r>
       <r>    2.4268    1.0000 </r>
       <r>    2.6161    1.0000 </r>
       <r>    2.6678    1.0000 </r>
       <r>    2.7205    1.0000 </r>
       <r>    2.7205    1.0000 </r>
       <r>    3.0961    1.0000 </r>
       <r>    3.0996    1.0000 </r>
       <r>    3.0996    1.0000 </r>
       <r>    6.4782   -0.0000 </r>
       <r>    6.4782   -0.0000 </r>
       <r>    8.4316   -0.0000 </r>
       <r>   11.2971    0.0000 </r>
       <r>   13.0478    0.0000 </r>
       <r>   13.1533    0.0000 </r>
       <r>   13.1533    0.0000 </r>
       <r>   14.8230    0.0000 </r>
       <r>   14.8230    0.0000 </r>
       <r>   16.4960    0.0000 </r>
       <r>   16.4960    0.0000 </r>
       <r>   17.1714    0.0000 </r>
       <r>   18.1291    0.0000 </r>
       <r>   20.9209    0.0000 </r>
       <r>   21.1657    0.0000 </r>
       <r>   21.5900    0.0000 </r>
       <r>   21.5900    0.0000 </r>
       <r>   23.1433    0.0000 </r>
       <r>   24.6847    0.0000 </r>
       <r>   24.6847    0.0000 </r>
       <r>   24.7289    0.0000 </r>
       <r>   25.9177    0.0000 </r>
       <r>   26.3733    0.0000 </r>
       <r>   27.3347    0.0000 </r>
       <r>   29.1690    0.0000 </r>
       <r>   29.6409    0.0000 </r>
       <r>   30.8120    0.0000 </r>
      </set>
      <set comment="kpoint 21">
       <r>    0.7673    1.0000 </r>
       <r>    1.0493    1.0000 </r>
       <r>    1.0547    1.0000 </r>
       <r>    1.1163    1.0000 </r>
       <r>    1.3025    1.0000 </r>
       <r>    1.3377    1.0000 </r>
       <r>    1.4089    1.0000 </r>
       <r>    1.6668    1.0000 </r>
       <r>    1.9868    1.0000 </r>
       <r>    2.0334    1.0000 </r>
       <r>    2.0412    1.0000 </r>
       <r>    2.1405    1.0000 </r>
       <r>    2.1756    1.0000 </r>
       <r>    2.4690    1.0000 </r>
       <r>    2.5417    1.0000 </r>
       <r>    2.5468    1.0000 </r>
       <r>    2.6195    1.0000 </r>
       <r>    2.8060    1.0000 </r>
       <r>    3.0191    1.0000 </r>
       <r>    3.0448    1.0000 </r>
       <r>    3.0510    1.0000 </r>
       <r>    5.1212    1.0000 </r>
       <r>    7.1824   -0.0000 </r>
       <r>    9.1300    0.0000 </r>
       <r>   10.0852    0.0000 </r>
       <r>   11.9951    0.0000 </r>
       <r>   13.3641    0.0000 </r>
       <r>   13.8782    0.0000 </r>
       <r>   15.0110    0.0000 </r>
       <r>   15.8271    0.0000 </r>
       <r>   16.8910    0.0000 </r>
       <r>   16.9281    0.0000 </r>
       <r>   17.1740    0.0000 </r>
       <r>   17.2710    0.0000 </r>
       <r>   20.1517    0.0000 </r>
       <r>   21.6789    0.0000 </r>
       <r>   21.7133    0.0000 </r>
       <r>   22.6895    0.0000 </r>
       <r>   23.0032    0.0000 </r>
       <r>   24.3753    0.0000 </r>
       <r>   24.9245    0.0000 </r>
       <r>   25.4810    0.0000 </r>
       <r>   26.3812    0.0000 </r>
       <r>   27.2515    0.0000 </r>
       <r>   28.2707    0.0000 </r>
       <r>   29.0658    0.0000 </r>
       <r>   29.1837    0.0000 </r>
       <r>   29.7507    0.0000 </r>
      </set>
      <set comment="kpoint 22">
       <r>    1.0519    1.0000 </r>
       <r>    1.1185    1.0000 </r>
       <r>    1.2466    1.0000 </r>
       <r>    1.3295    1.0000 </r>
       <r>    1.4228    1.0000 </r>
       <r>    1.4949    1.0000 </r>
       <r>    1.4957    1.0000 </r>
       <r>    1.6149    1.0000 </r>
       <r>    1.8340    1.0000 </r>
       <r>    1.8969    1.0000 </r>
       <r>    1.9046    1.0000 </r>
       <r>    1.9642    1.0000 </r>
       <r>    2.1651    1.0000 </r>
       <r>    2.3420    1.0000 </r>
       <r>    2.4558    1.0000 </r>
       <r>    2.4921    1.0000 </r>
       <r>    2.6949    1.0000 </r>
       <r>    2.8890    1.0000 </r>
       <r>    3.0169    1.0000 </r>
       <r>    3.0192    1.0000 </r>
       <r>    3.2090    1.0000 </r>
       <r>    3.9993    1.0000 </r>
       <r>    8.0185   -0.0000 </r>
       <r>    8.9742    0.0000 </r>
       <r>    9.9887    0.0000 </r>
       <r>   10.9354    0.0000 </r>
       <r>   13.8972    0.0000 </r>
       <r>   14.5845    0.0000 </r>
       <r>   14.7504    0.0000 </r>
       <r>   15.7609    0.0000 </r>
       <r>   15.9127    0.0000 </r>
       <r>   16.5364    0.0000 </r>
       <r>   18.0604    0.0000 </r>
       <r>   19.0913    0.0000 </r>
       <r>   19.3616    0.0000 </r>
       <r>   21.5349    0.0000 </r>
       <r>   21.9901    0.0000 </r>
       <r>   22.6413    0.0000 </r>
       <r>   23.2287    0.0000 </r>
       <r>   24.1409    0.0000 </r>
       <r>   25.2802    0.0000 </r>
       <r>   25.6386    0.0000 </r>
       <r>   26.5966    0.0000 </r>
       <r>   27.6311    0.0000 </r>
       <r>   27.9881    0.0000 </r>
       <r>   29.0052    0.0000 </r>
       <r>   29.5809    0.0000 </r>
       <r>   29.6279    0.0000 </r>
      </set>
      <set comment="kpoint 23">
       <r>    0.9578    1.0000 </r>
       <r>    1.1190    1.0000 </r>
       <r>    1.1739    1.0000 </r>
       <r>    1.1739    1.0000 </r>
       <r>    1.5019    1.0000 </r>
       <r>    1.5019    1.0000 </r>
       <r>    1.5651    1.0000 </r>
       <r>    1.7466    1.0000 </r>
       <r>    1.8947    1.0000 </r>
       <r>    1.8947    1.0000 </r>
       <r>    2.0383    1.0000 </r>
       <r>    2.0441    1.0000 </r>
       <r>    2.0538    1.0000 </r>
       <r>    2.4084    1.0000 </r>
       <r>    2.4214    1.0000 </r>
       <r>    2.4811    1.0000 </r>
       <r>    2.4811    1.0000 </r>
       <r>    2.9451    1.0000 </r>
       <r>    2.9451    1.0000 </r>
       <r>    2.9511    1.0000 </r>
       <r>    3.1666    1.0000 </r>
       <r>    5.7969    1.0137 </r>
       <r>    5.7969    1.0137 </r>
       <r>    8.7294    0.0000 </r>
       <r>    9.8076    0.0000 </r>
       <r>   12.6444    0.0000 </r>
       <r>   12.6444    0.0000 </r>
       <r>   13.7840    0.0000 </r>
       <r>   15.6121    0.0000 </r>
       <r>   16.1619    0.0000 </r>
       <r>   16.1619    0.0000 </r>
       <r>   17.4752    0.0000 </r>
       <r>   17.4752    0.0000 </r>
       <r>   18.6632    0.0000 </r>
       <r>   19.0026    0.0000 </r>
       <r>   21.0121    0.0000 </r>
       <r>   22.9893    0.0000 </r>
       <r>   23.0773    0.0000 </r>
       <r>   23.0773    0.0000 </r>
       <r>   24.8842    0.0000 </r>
       <r>   25.2673    0.0000 </r>
       <r>   26.3064    0.0000 </r>
       <r>   26.3064    0.0000 </r>
       <r>   26.4417    0.0000 </r>
       <r>   28.6715    0.0000 </r>
       <r>   28.6715    0.0000 </r>
       <r>   29.6852    0.0000 </r>
       <r>   29.8634    0.0000 </r>
      </set>
      <set comment="kpoint 24">
       <r>    1.1075    1.0000 </r>
       <r>    1.1811    1.0000 </r>
       <r>    1.2367    1.0000 </r>
       <r>    1.3060    1.0000 </r>
       <r>    1.5132    1.0000 </r>
       <r>    1.5744    1.0000 </r>
       <r>    1.7077    1.0000 </r>
       <r>    1.7538    1.0000 </r>
       <r>    1.8026    1.0000 </r>
       <r>    1.8911    1.0000 </r>
       <r>    1.9370    1.0000 </r>
       <r>    1.9928    1.0000 </r>
       <r>    2.1472    1.0000 </r>
       <r>    2.3048    1.0000 </r>
       <r>    2.3289    1.0000 </r>
       <r>    2.3838    1.0000 </r>
       <r>    2.5761    1.0000 </r>
       <r>    2.7894    1.0000 </r>
       <r>    2.8827    1.0000 </r>
       <r>    2.8848    1.0000 </r>
       <r>    3.7531    1.0000 </r>
       <r>    4.6356    1.0000 </r>
       <r>    6.6168   -0.0000 </r>
       <r>    7.5893   -0.0000 </r>
       <r>   10.6094    0.0000 </r>
       <r>   11.5557    0.0000 </r>
       <r>   13.4784    0.0000 </r>
       <r>   14.4038    0.0000 </r>
       <r>   14.4723    0.0000 </r>
       <r>   15.2149    0.0000 </r>
       <r>   16.9924    0.0000 </r>
       <r>   17.9418    0.0000 </r>
       <r>   18.0085    0.0000 </r>
       <r>   18.6327    0.0000 </r>
       <r>   19.7147    0.0000 </r>
       <r>   21.8515    0.0000 </r>
       <r>   22.0658    0.0000 </r>
       <r>   23.2567    0.0000 </r>
       <r>   23.4834    0.0000 </r>
       <r>   23.6878    0.0000 </r>
       <r>   25.8765    0.0000 </r>
       <r>   26.1697    0.0000 </r>
       <r>   26.5047    0.0000 </r>
       <r>   27.4043    0.0000 </r>
       <r>   28.0049    0.0000 </r>
       <r>   28.2970    0.0000 </r>
       <r>   29.6990    0.0000 </r>
       <r>   29.9991    0.0000 </r>
      </set>
      <set comment="kpoint 25">
       <r>    1.1659    1.0000 </r>
       <r>    1.2316    1.0000 </r>
       <r>    1.2316    1.0000 </r>
       <r>    1.2374    1.0000 </r>
       <r>    1.6176    1.0000 </r>
       <r>    1.6378    1.0000 </r>
       <r>    1.6378    1.0000 </r>
       <r>    1.7147    1.0000 </r>
       <r>    2.0026    1.0000 </r>
       <r>    2.0026    1.0000 </r>
       <r>    2.0962    1.0000 </r>
       <r>    2.1032    1.0000 </r>
       <r>    2.1329    1.0000 </r>
       <r>    2.2104    1.0000 </r>
       <r>    2.2476    1.0000 </r>
       <r>    2.2476    1.0000 </r>
       <r>    2.5569    1.0000 </r>
       <r>    2.7135    1.0000 </r>
       <r>    2.7135    1.0000 </r>
       <r>    2.7576    1.0000 </r>
       <r>    4.4785    1.0000 </r>
       <r>    5.4299    1.0000 </r>
       <r>    5.4299    1.0000 </r>
       <r>    6.4077   -0.0000 </r>
       <r>   11.4072    0.0000 </r>
       <r>   12.3638    0.0000 </r>
       <r>   12.3638    0.0000 </r>
       <r>   13.3386    0.0000 </r>
       <r>   15.0928    0.0000 </r>
       <r>   15.9666    0.0000 </r>
       <r>   15.9666    0.0000 </r>
       <r>   16.8819    0.0000 </r>
       <r>   20.2347    0.0000 </r>
       <r>   20.2347    0.0000 </r>
       <r>   20.5409    0.0000 </r>
       <r>   21.3485    0.0000 </r>
       <r>   22.0523    0.0000 </r>
       <r>   22.6847    0.0000 </r>
       <r>   22.8476    0.0000 </r>
       <r>   22.8476    0.0000 </r>
       <r>   26.3465    0.0000 </r>
       <r>   26.5991    0.0000 </r>
       <r>   26.5991    0.0000 </r>
       <r>   27.8012    0.0000 </r>
       <r>   28.0212    0.0000 </r>
       <r>   28.9418    0.0000 </r>
       <r>   29.0343    0.0000 </r>
       <r>   29.0343    0.0000 </r>
      </set>
      <set comment="kpoint 26">
       <r>    0.5812    1.0000 </r>
       <r>    0.9766    1.0000 </r>
       <r>    0.9766    1.0000 </r>
       <r>    0.9766    1.0000 </r>
       <r>    1.3145    1.0000 </r>
       <r>    1.3145    1.0000 </r>
       <r>    1.3145    1.0000 </r>
       <r>    1.8971    1.0000 </r>
       <r>    1.9392    1.0000 </r>
       <r>    1.9392    1.0000 </r>
       <r>    2.2958    1.0000 </r>
       <r>    2.2958    1.0000 </r>
       <r>    2.2958    1.0000 </r>
       <r>    2.5040    1.0000 </r>
       <r>    2.5040    1.0000 </r>
       <r>    2.5040    1.0000 </r>
       <r>    2.5569    1.0000 </r>
       <r>    2.5569    1.0000 </r>
       <r>    3.1231    1.0000 </r>
       <r>    3.1231    1.0000 </r>
       <r>    3.1231    1.0000 </r>
       <r>    6.9125   -0.0000 </r>
       <r>    6.9125   -0.0000 </r>
       <r>    6.9125   -0.0000 </r>
       <r>   11.7506    0.0000 </r>
       <r>   11.7506    0.0000 </r>
       <r>   11.7506    0.0000 </r>
       <r>   15.0352    0.0000 </r>
       <r>   15.0352    0.0000 </r>
       <r>   15.0352    0.0000 </r>
       <r>   16.7183    0.0000 </r>
       <r>   17.6190    0.0000 </r>
       <r>   17.6190    0.0000 </r>
       <r>   17.6190    0.0000 </r>
       <r>   20.9137    0.0000 </r>
       <r>   20.9137    0.0000 </r>
       <r>   20.9137    0.0000 </r>
       <r>   21.9098    0.0000 </r>
       <r>   23.3607    0.0000 </r>
       <r>   23.3607    0.0000 </r>
       <r>   26.5237    0.0000 </r>
       <r>   26.5237    0.0000 </r>
       <r>   26.5237    0.0000 </r>
       <r>   26.7010    0.0000 </r>
       <r>   27.4471    0.0000 </r>
       <r>   27.4471    0.0000 </r>
       <r>   30.8181    0.0000 </r>
       <r>   30.8181    0.0000 </r>
      </set>
      <set comment="kpoint 27">
       <r>    0.7780    1.0000 </r>
       <r>    1.0226    1.0000 </r>
       <r>    1.0700    1.0000 </r>
       <r>    1.0700    1.0000 </r>
       <r>    1.4769    1.0000 </r>
       <r>    1.4769    1.0000 </r>
       <r>    1.4860    1.0000 </r>
       <r>    1.8964    1.0000 </r>
       <r>    1.9642    1.0000 </r>
       <r>    2.0645    1.0000 </r>
       <r>    2.0926    1.0000 </r>
       <r>    2.0926    1.0000 </r>
       <r>    2.1295    1.0000 </r>
       <r>    2.3244    1.0000 </r>
       <r>    2.4081    1.0000 </r>
       <r>    2.4081    1.0000 </r>
       <r>    2.6954    1.0000 </r>
       <r>    2.7191    1.0000 </r>
       <r>    3.0806    1.0000 </r>
       <r>    3.0806    1.0000 </r>
       <r>    3.0967    1.0000 </r>
       <r>    5.5027    1.0000 </r>
       <r>    7.5418   -0.0000 </r>
       <r>    7.5418   -0.0000 </r>
       <r>   10.4906    0.0000 </r>
       <r>   10.4906    0.0000 </r>
       <r>   12.4167    0.0000 </r>
       <r>   15.4148    0.0000 </r>
       <r>   15.4148    0.0000 </r>
       <r>   15.4333    0.0000 </r>
       <r>   17.2542    0.0000 </r>
       <r>   17.5318    0.0000 </r>
       <r>   17.5318    0.0000 </r>
       <r>   18.3458    0.0000 </r>
       <r>   20.9510    0.0000 </r>
       <r>   21.5153    0.0000 </r>
       <r>   21.6755    0.0000 </r>
       <r>   21.6755    0.0000 </r>
       <r>   21.8926    0.0000 </r>
       <r>   24.0377    0.0000 </r>
       <r>   25.7374    0.0000 </r>
       <r>   26.7885    0.0000 </r>
       <r>   27.8687    0.0000 </r>
       <r>   27.8916    0.0000 </r>
       <r>   28.1604    0.0000 </r>
       <r>   28.1604    0.0000 </r>
       <r>   29.3764    0.0000 </r>
       <r>   29.3764    0.0000 </r>
      </set>
      <set comment="kpoint 28">
       <r>    0.9411    1.0000 </r>
       <r>    1.0231    1.0000 </r>
       <r>    1.2034    1.0000 </r>
       <r>    1.2034    1.0000 </r>
       <r>    1.4749    1.0000 </r>
       <r>    1.4749    1.0000 </r>
       <r>    1.6982    1.0000 </r>
       <r>    1.8659    1.0000 </r>
       <r>    1.9694    1.0000 </r>
       <r>    1.9901    1.0000 </r>
       <r>    2.0391    1.0000 </r>
       <r>    2.0412    1.0000 </r>
       <r>    2.0412    1.0000 </r>
       <r>    2.1628    1.0000 </r>
       <r>    2.3279    1.0000 </r>
       <r>    2.3279    1.0000 </r>
       <r>    2.8790    1.0000 </r>
       <r>    3.0114    1.0000 </r>
       <r>    3.0332    1.0000 </r>
       <r>    3.0332    1.0000 </r>
       <r>    3.3284    1.0000 </r>
       <r>    4.2923    1.0000 </r>
       <r>    8.2741   -0.0000 </r>
       <r>    8.2741   -0.0000 </r>
       <r>    9.4505    0.0000 </r>
       <r>    9.4505    0.0000 </r>
       <r>   13.2703    0.0000 </r>
       <r>   14.2816    0.0000 </r>
       <r>   15.9176    0.0000 </r>
       <r>   15.9176    0.0000 </r>
       <r>   16.8706    0.0000 </r>
       <r>   16.8706    0.0000 </r>
       <r>   19.3253    0.0000 </r>
       <r>   19.5297    0.0000 </r>
       <r>   20.5227    0.0000 </r>
       <r>   21.0248    0.0000 </r>
       <r>   21.1313    0.0000 </r>
       <r>   22.2381    0.0000 </r>
       <r>   22.9767    0.0000 </r>
       <r>   22.9767    0.0000 </r>
       <r>   26.7409    0.0000 </r>
       <r>   27.0930    0.0000 </r>
       <r>   27.1121    0.0000 </r>
       <r>   27.1121    0.0000 </r>
       <r>   28.2120    0.0000 </r>
       <r>   28.5300    0.0000 </r>
       <r>   28.9607    0.0000 </r>
       <r>   29.2879    0.0000 </r>
      </set>
      <set comment="kpoint 29">
       <r>    0.8222    1.0000 </r>
       <r>    1.0475    1.0000 </r>
       <r>    1.0475    1.0000 </r>
       <r>    1.0675    1.0000 </r>
       <r>    1.5652    1.0000 </r>
       <r>    1.5942    1.0000 </r>
       <r>    1.5942    1.0000 </r>
       <r>    1.8885    1.0000 </r>
       <r>    1.9298    1.0000 </r>
       <r>    2.0678    1.0000 </r>
       <r>    2.0678    1.0000 </r>
       <r>    2.1722    1.0000 </r>
       <r>    2.2371    1.0000 </r>
       <r>    2.2614    1.0000 </r>
       <r>    2.2614    1.0000 </r>
       <r>    2.4037    1.0000 </r>
       <r>    2.6245    1.0000 </r>
       <r>    3.0478    1.0000 </r>
       <r>    3.0686    1.0000 </r>
       <r>    3.0686    1.0000 </r>
       <r>    3.0910    1.0000 </r>
       <r>    6.0888   -0.0326 </r>
       <r>    6.0888   -0.0326 </r>
       <r>    7.9961   -0.0000 </r>
       <r>    9.2802    0.0000 </r>
       <r>   11.1272    0.0000 </r>
       <r>   11.1272    0.0000 </r>
       <r>   14.1208    0.0000 </r>
       <r>   15.8511    0.0000 </r>
       <r>   17.6050    0.0000 </r>
       <r>   17.6050    0.0000 </r>
       <r>   18.1179    0.0000 </r>
       <r>   18.1179    0.0000 </r>
       <r>   19.0096    0.0000 </r>
       <r>   20.6768    0.0000 </r>
       <r>   20.9540    0.0000 </r>
       <r>   21.7382    0.0000 </r>
       <r>   21.7382    0.0000 </r>
       <r>   22.3172    0.0000 </r>
       <r>   23.8627    0.0000 </r>
       <r>   26.2363    0.0000 </r>
       <r>   26.2586    0.0000 </r>
       <r>   27.8112    0.0000 </r>
       <r>   27.8112    0.0000 </r>
       <r>   28.7303    0.0000 </r>
       <r>   29.2307    0.0000 </r>
       <r>   29.2309    0.0000 </r>
       <r>   29.2392    0.0000 </r>
      </set>
      <set comment="kpoint 30">
       <r>    0.8960    1.0000 </r>
       <r>    0.9807    1.0000 </r>
       <r>    1.0868    1.0000 </r>
       <r>    1.0891    1.0000 </r>
       <r>    1.5651    1.0000 </r>
       <r>    1.5684    1.0000 </r>
       <r>    1.7232    1.0000 </r>
       <r>    1.8235    1.0000 </r>
       <r>    1.9631    1.0000 </r>
       <r>    2.0392    1.0000 </r>
       <r>    2.1158    1.0000 </r>
       <r>    2.1568    1.0000 </r>
       <r>    2.2163    1.0000 </r>
       <r>    2.2537    1.0000 </r>
       <r>    2.2662    1.0000 </r>
       <r>    2.3353    1.0000 </r>
       <r>    2.8237    1.0000 </r>
       <r>    2.9865    1.0000 </r>
       <r>    2.9957    1.0000 </r>
       <r>    3.0043    1.0000 </r>
       <r>    3.8077    1.0000 </r>
       <r>    4.8314    1.0000 </r>
       <r>    6.8421   -0.0000 </r>
       <r>    7.7002   -0.0000 </r>
       <r>    9.1936    0.0000 </r>
       <r>   10.0331    0.0000 </r>
       <r>   11.9591    0.0000 </r>
       <r>   12.9611    0.0000 </r>
       <r>   16.4549    0.0000 </r>
       <r>   17.2139    0.0000 </r>
       <r>   18.2217    0.0000 </r>
       <r>   18.8499    0.0000 </r>
       <r>   18.8685    0.0000 </r>
       <r>   19.7362    0.0000 </r>
       <r>   19.8438    0.0000 </r>
       <r>   21.5927    0.0000 </r>
       <r>   21.9187    0.0000 </r>
       <r>   21.9865    0.0000 </r>
       <r>   22.6378    0.0000 </r>
       <r>   22.8146    0.0000 </r>
       <r>   26.7373    0.0000 </r>
       <r>   26.7825    0.0000 </r>
       <r>   26.9211    0.0000 </r>
       <r>   27.2979    0.0000 </r>
       <r>   27.5070    0.0000 </r>
       <r>   28.4746    0.0000 </r>
       <r>   29.5071    0.0000 </r>
       <r>   29.7457    0.0000 </r>
      </set>
      <set comment="kpoint 31">
       <r>    0.9115    1.0000 </r>
       <r>    0.9793    1.0000 </r>
       <r>    0.9793    1.0000 </r>
       <r>    1.0143    1.0000 </r>
       <r>    1.6404    1.0000 </r>
       <r>    1.6847    1.0000 </r>
       <r>    1.6847    1.0000 </r>
       <r>    1.7757    1.0000 </r>
       <r>    1.9449    1.0000 </r>
       <r>    2.0109    1.0000 </r>
       <r>    2.0109    1.0000 </r>
       <r>    2.0415    1.0000 </r>
       <r>    2.4182    1.0000 </r>
       <r>    2.4182    1.0000 </r>
       <r>    2.4231    1.0000 </r>
       <r>    2.5433    1.0000 </r>
       <r>    2.7595    1.0000 </r>
       <r>    2.9033    1.0000 </r>
       <r>    2.9033    1.0000 </r>
       <r>    2.9151    1.0000 </r>
       <r>    4.5735    1.0000 </r>
       <r>    5.5940    1.0000 </r>
       <r>    5.5940    1.0000 </r>
       <r>    6.5668   -0.0000 </r>
       <r>    9.8930    0.0000 </r>
       <r>   10.8307    0.0000 </r>
       <r>   10.8307    0.0000 </r>
       <r>   11.8095    0.0000 </r>
       <r>   17.1022    0.0000 </r>
       <r>   17.9186    0.0000 </r>
       <r>   17.9186    0.0000 </r>
       <r>   18.7614    0.0000 </r>
       <r>   20.3198    0.0000 </r>
       <r>   20.3198    0.0000 </r>
       <r>   20.7325    0.0000 </r>
       <r>   21.1841    0.0000 </r>
       <r>   21.6804    0.0000 </r>
       <r>   22.3406    0.0000 </r>
       <r>   22.3406    0.0000 </r>
       <r>   22.5890    0.0000 </r>
       <r>   26.6595    0.0000 </r>
       <r>   26.6708    0.0000 </r>
       <r>   26.6708    0.0000 </r>
       <r>   26.8292    0.0000 </r>
       <r>   27.7861    0.0000 </r>
       <r>   28.0381    0.0000 </r>
       <r>   28.3243    0.0000 </r>
       <r>   28.3243    0.0000 </r>
      </set>
      <set comment="kpoint 32">
       <r>    0.7623    1.0000 </r>
       <r>    0.9628    1.0000 </r>
       <r>    0.9628    1.0000 </r>
       <r>    0.9628    1.0000 </r>
       <r>    1.6331    1.0000 </r>
       <r>    1.6331    1.0000 </r>
       <r>    1.6331    1.0000 </r>
       <r>    1.8720    1.0000 </r>
       <r>    1.8720    1.0000 </r>
       <r>    2.0725    1.0000 </r>
       <r>    2.0725    1.0000 </r>
       <r>    2.0725    1.0000 </r>
       <r>    2.3260    1.0000 </r>
       <r>    2.3260    1.0000 </r>
       <r>    2.3260    1.0000 </r>
       <r>    2.8168    1.0000 </r>
       <r>    2.8168    1.0000 </r>
       <r>    3.0943    1.0000 </r>
       <r>    3.0943    1.0000 </r>
       <r>    3.0943    1.0000 </r>
       <r>    3.2510    1.0000 </r>
       <r>    6.5431   -0.0000 </r>
       <r>    6.5431   -0.0000 </r>
       <r>    6.5431   -0.0000 </r>
       <r>    9.8441    0.0000 </r>
       <r>    9.8441    0.0000 </r>
       <r>    9.8441    0.0000 </r>
       <r>   12.7897    0.0000 </r>
       <r>   18.0145    0.0000 </r>
       <r>   18.0145    0.0000 </r>
       <r>   18.0145    0.0000 </r>
       <r>   19.5867    0.0000 </r>
       <r>   19.5867    0.0000 </r>
       <r>   19.5867    0.0000 </r>
       <r>   20.9348    0.0000 </r>
       <r>   20.9348    0.0000 </r>
       <r>   20.9348    0.0000 </r>
       <r>   21.2700    0.0000 </r>
       <r>   22.5872    0.0000 </r>
       <r>   22.5872    0.0000 </r>
       <r>   26.5699    0.0000 </r>
       <r>   26.5699    0.0000 </r>
       <r>   27.4917    0.0000 </r>
       <r>   28.5030    0.0000 </r>
[...]
       <r>   27.0355    0.0000 </r>
       <r>   27.0355    0.0000 </r>
       <r>   27.0976    0.0000 </r>
       <r>   27.5647    0.0000 </r>
       <r>   27.7693    0.0000 </r>
       <r>   28.3120    0.0000 </r>
       <r>   28.8027    0.0000 </r>
      </set>
      <set comment="kpoint 34">
       <r>    0.7471    1.0000 </r>
       <r>    0.7996    1.0000 </r>
       <r>    0.7996    1.0000 </r>
       <r>    0.8238    1.0000 </r>
       <r>    1.6997    1.0000 </r>
       <r>    1.7269    1.0000 </r>
       <r>    1.7269    1.0000 </r>
       <r>    1.7961    1.0000 </r>
       <r>    1.8360    1.0000 </r>
       <r>    1.8853    1.0000 </r>
       <r>    1.8853    1.0000 </r>
       <r>    1.9002    1.0000 </r>
       <r>    2.7271    1.0000 </r>
       <r>    2.7362    1.0000 </r>
       <r>    2.7362    1.0000 </r>
       <r>    2.9054    1.0000 </r>
       <r>    2.9305    1.0000 </r>
       <r>    3.0318    1.0000 </r>
       <r>    3.0369    1.0000 </r>
       <r>    3.0369    1.0000 </r>
       <r>    4.8499    1.0000 </r>
       <r>    5.8724    1.0306 </r>
       <r>    5.8724    1.0306 </r>
       <r>    6.6312   -0.0000 </r>
       <r>    8.8495    0.0000 </r>
       <r>    9.5691    0.0000 </r>
       <r>    9.5691    0.0000 </r>
       <r>   10.4913    0.0000 </r>
       <r>   19.0965    0.0000 </r>
       <r>   19.7817    0.0000 </r>
       <r>   19.7817    0.0000 </r>
       <r>   20.4020    0.0000 </r>
       <r>   20.5107    0.0000 </r>
       <r>   20.5107    0.0000 </r>
       <r>   21.0485    0.0000 </r>
       <r>   21.0521    0.0000 </r>
       <r>   21.4513    0.0000 </r>
       <r>   21.8011    0.0000 </r>
       <r>   21.8011    0.0000 </r>
       <r>   22.3440    0.0000 </r>
       <r>   26.2915    0.0000 </r>
       <r>   26.6608    0.0000 </r>
       <r>   26.6608    0.0000 </r>
       <r>   26.7263    0.0000 </r>
       <r>   27.2098    0.0000 </r>
       <r>   27.3739    0.0000 </r>
       <r>   27.5582    0.0000 </r>
       <r>   27.5582    0.0000 </r>
      </set>
      <set comment="kpoint 35">
       <r>    0.6793    1.0000 </r>
       <r>    0.7070    1.0000 </r>
       <r>    0.7070    1.0000 </r>
       <r>    0.7070    1.0000 </r>
       <r>    1.7562    1.0000 </r>
       <r>    1.7562    1.0000 </r>
       <r>    1.7562    1.0000 </r>
       <r>    1.7905    1.0000 </r>
       <r>    1.7905    1.0000 </r>
       <r>    1.8127    1.0000 </r>
       <r>    1.8127    1.0000 </r>
       <r>    1.8127    1.0000 </r>
       <r>    2.9548    1.0000 </r>
       <r>    2.9548    1.0000 </r>
       <r>    2.9548    1.0000 </r>
       <r>    3.0422    1.0000 </r>
       <r>    3.0422    1.0000 </r>
       <r>    3.0776    1.0000 </r>
       <r>    3.0776    1.0000 </r>
       <r>    3.0776    1.0000 </r>
       <r>    5.4195    1.0000 </r>
       <r>    6.1679   -0.0112 </r>
       <r>    6.1679   -0.0112 </r>
       <r>    6.1679   -0.0112 </r>
       <r>    8.7573    0.0000 </r>
       <r>    8.7573    0.0000 </r>
       <r>    8.7573    0.0000 </r>
       <r>    9.4337    0.0000 </r>
       <r>   20.5067    0.0000 </r>
       <r>   20.5067    0.0000 </r>
       <r>   20.5067    0.0000 </r>
       <r>   20.7521    0.0000 </r>
       <r>   21.3787    0.0000 </r>
       <r>   21.3787    0.0000 </r>
       <r>   21.3787    0.0000 </r>
       <r>   21.4692    0.0000 </r>
       <r>   21.4692    0.0000 </r>
       <r>   21.4692    0.0000 </r>
       <r>   21.9374    0.0000 </r>
       <r>   21.9374    0.0000 </r>
       <r>   26.2364    0.0000 </r>
       <r>   26.2364    0.0000 </r>
       <r>   26.5799    0.0000 </r>
       <r>   26.5799    0.0000 </r>
       <r>   26.5799    0.0000 </r>
       <r>   26.6430    0.0000 </r>
       <r>   26.6430    0.0000 </r>
       <r>   26.6430    0.0000 </r>
      </set>
     </set>
    </set>
   </array>
  </eigenvalues>
  <separator name="orbital magnetization" >
   <v name="MAGDIPOLOUT">      0.00000000      0.00000000      0.00000000</v>
  </separator>
  <dos>
   <i name="efermi">      5.97889637 </i>
   <total>
    <array>
     <dimension dim="1">gridpoints</dimension>
     <dimension dim="2">spin</dimension>
     <field>energy</field>
     <field>total</field>
     <field>integrated</field>
     <set>
      <set comment="spin 1">
       <r>    -2.0575     0.0000     0.0000 </r>
       <r>    -1.9400     0.0000     0.0000 </r>
       <r>    -1.8226     0.0000     0.0000 </r>
       <r>    -1.7051     0.0000     0.0000 </r>
       <r>    -1.5876     0.0000     0.0000 </r>
       <r>    -1.4701     0.0000     0.0000 </r>
       <r>    -1.3526    -0.0000    -0.0000 </r>
       <r>    -1.2351    -0.0000    -0.0000 </r>
       <r>    -1.1177    -0.0000    -0.0000 </r>
       <r>    -1.0002    -0.0000    -0.0000 </r>
       <r>    -0.8827    -0.0000    -0.0000 </r>
       <r>    -0.7652    -0.0000    -0.0000 </r>
       <r>    -0.6477    -0.0002    -0.0000 </r>
       <r>    -0.5302    -0.0010    -0.0001 </r>
       <r>    -0.4128     0.0228     0.0025 </r>
       <r>    -0.2953     0.1451     0.0196 </r>
       <r>    -0.1778     0.2830     0.0528 </r>
       <r>    -0.0603     0.1896     0.0751 </r>
       <r>     0.0572     0.3135     0.1119 </r>
       <r>     0.1747     0.7118     0.1956 </r>
       <r>     0.2921     0.2412     0.2239 </r>
       <r>     0.4096     0.4556     0.2774 </r>
       <r>     0.5271     0.7381     0.3641 </r>
       <r>     0.6446     0.8671     0.4660 </r>
       <r>     0.7621     4.1243     0.9505 </r>
       <r>     0.8796     9.9006     2.1137 </r>
       <r>     0.9970    14.4990     3.8171 </r>
       <r>     1.1145    20.0430     6.1718 </r>
       <r>     1.2320    17.0302     8.1726 </r>
       <r>     1.3495    12.9806     9.6976 </r>
       <r>     1.4670    11.4526    11.0431 </r>
       <r>     1.5845    16.0308    12.9264 </r>
       <r>     1.7019    14.1295    14.5864 </r>
       <r>     1.8194    15.4495    16.4015 </r>
       <r>     1.9369    19.5857    18.7025 </r>
       <r>     2.0544    23.0915    21.4153 </r>
       <r>     2.1719    16.9950    23.4120 </r>
       <r>     2.2894    14.5245    25.1184 </r>
       <r>     2.4068    16.3305    27.0369 </r>
       <r>     2.5243    18.8241    29.2484 </r>
       <r>     2.6418    17.8721    31.3481 </r>
       <r>     2.7593    15.2666    33.1417 </r>
       <r>     2.8768    15.7818    34.9958 </r>
       <r>     2.9943    17.4701    37.0482 </r>
       <r>     3.1117    22.9238    39.7414 </r>
       <r>     3.2292    12.1025    41.1632 </r>
       <r>     3.3467     1.9151    41.3882 </r>
       <r>     3.4642     0.4382    41.4397 </r>
       <r>     3.5817     0.3892    41.4855 </r>
       <r>     3.6992     0.2929    41.5199 </r>
       <r>     3.8166     2.0283    41.7582 </r>
       <r>     3.9341     1.0847    41.8856 </r>
       <r>     4.0516     1.1158    42.0167 </r>
       <r>     4.1691     0.6180    42.0893 </r>
       <r>     4.2866     0.4143    42.1380 </r>
       <r>     4.4041     0.5053    42.1973 </r>
       <r>     4.5215     1.1657    42.3343 </r>
       <r>     4.6390     2.0197    42.5716 </r>
       <r>     4.7565     0.9251    42.6802 </r>
       <r>     4.8740     1.2075    42.8221 </r>
       <r>     4.9915     0.6818    42.9022 </r>
       <r>     5.1090     0.7062    42.9852 </r>
       <r>     5.2264     0.9188    43.0931 </r>
       <r>     5.3439     0.4523    43.1463 </r>
       <r>     5.4614     1.4846    43.3207 </r>
       <r>     5.5789     1.3308    43.4770 </r>
       <r>     5.6964     1.0250    43.5974 </r>
       <r>     5.8139     1.5715    43.7821 </r>
       <r>     5.9313     1.5583    43.9651 </r>
       <r>     6.0488     0.7170    44.0494 </r>
       <r>     6.1663     1.1496    44.1844 </r>
       <r>     6.2838     0.4645    44.2390 </r>
       <r>     6.4013     0.8851    44.3430 </r>
       <r>     6.5188     1.7334    44.5466 </r>
       <r>     6.6362     2.5102    44.8415 </r>
       <r>     6.7537     0.6579    44.9188 </r>
       <r>     6.8712     0.8469    45.0183 </r>
       <r>     6.9887     1.1548    45.1540 </r>
       <r>     7.1062     1.4244    45.3214 </r>
       <r>     7.2237     1.4197    45.4882 </r>
       <r>     7.3411     0.3862    45.5335 </r>
       <r>     7.4586     0.4808    45.5900 </r>
       <r>     7.5761     1.7838    45.7996 </r>
       <r>     7.6936     1.5968    45.9872 </r>
       <r>     7.8111     1.0510    46.1107 </r>
       <r>     7.9286     0.9662    46.2242 </r>
       <r>     8.0460     2.3828    46.5041 </r>
       <r>     8.1635     0.4236    46.5539 </r>
       <r>     8.2810     0.8086    46.6489 </r>
       <r>     8.3985     0.7352    46.7352 </r>
       <r>     8.5160     0.5025    46.7943 </r>
       <r>     8.6335     0.6490    46.8705 </r>
       <r>     8.7509     1.9034    47.0941 </r>
       <r>     8.8684     1.6646    47.2897 </r>
       <r>     8.9859     2.3528    47.5661 </r>
       <r>     9.1034     0.9731    47.6805 </r>
       <r>     9.2209     1.6230    47.8711 </r>
       <r>     9.3384     0.7365    47.9576 </r>
       <r>     9.4558     1.2389    48.1032 </r>
       <r>     9.5733     2.2409    48.3665 </r>
       <r>     9.6908     1.3160    48.5211 </r>
       <r>     9.8083     0.7498    48.6092 </r>
       <r>     9.9258     1.5532    48.7916 </r>
       <r>    10.0433     2.3462    49.0673 </r>
       <r>    10.1607     1.4879    49.2421 </r>
       <r>    10.2782     0.1394    49.2585 </r>
       <r>    10.3957     0.6868    49.3391 </r>
       <r>    10.5132     1.7107    49.5401 </r>
       <r>    10.6307     2.4464    49.8275 </r>
       <r>    10.7482     0.9112    49.9346 </r>
       <r>    10.8656     1.2501    50.0814 </r>
       <r>    10.9831     1.4090    50.2470 </r>
       <r>    11.1006     0.8572    50.3477 </r>
       <r>    11.2181     1.2048    50.4892 </r>
       <r>    11.3356     1.2620    50.6375 </r>
       <r>    11.4531     1.8955    50.8602 </r>
       <r>    11.5706     2.0754    51.1040 </r>
       <r>    11.6880     1.5613    51.2874 </r>
       <r>    11.8055     0.7722    51.3782 </r>
       <r>    11.9230     0.9004    51.4839 </r>
       <r>    12.0405     2.8853    51.8229 </r>
       <r>    12.1580     1.9406    52.0509 </r>
       <r>    12.2755     0.4537    52.1042 </r>
       <r>    12.3929     3.3695    52.5001 </r>
       <r>    12.5104     2.7849    52.8273 </r>
       <r>    12.6279     1.1231    52.9592 </r>
       <r>    12.7454     1.0110    53.0780 </r>
       <r>    12.8629     0.7249    53.1631 </r>
       <r>    12.9804     1.6589    53.3580 </r>
       <r>    13.0978     1.5630    53.5417 </r>
       <r>    13.2153     3.0287    53.8975 </r>
       <r>    13.3328     2.8745    54.2352 </r>
       <r>    13.4503     2.5805    54.5384 </r>
       <r>    13.5678     1.6820    54.7360 </r>
       <r>    13.6853     0.7057    54.8189 </r>
       <r>    13.8027     0.9288    54.9280 </r>
       <r>    13.9202     2.0144    55.1646 </r>
       <r>    14.0377     1.6525    55.3588 </r>
       <r>    14.1552     1.8974    55.5817 </r>
       <r>    14.2727     2.0514    55.8227 </r>
       <r>    14.3902     2.5359    56.1206 </r>
       <r>    14.5076     2.9892    56.4718 </r>
       <r>    14.6251     1.7354    56.6757 </r>
       <r>    14.7426     1.9019    56.8991 </r>
       <r>    14.8601     1.6884    57.0975 </r>
       <r>    14.9776     1.6599    57.2925 </r>
       <r>    15.0951     2.0994    57.5392 </r>
       <r>    15.2125     1.9690    57.7705 </r>
       <r>    15.3300     3.6370    58.1978 </r>
       <r>    15.4475     3.3702    58.5937 </r>
       <r>    15.5650     1.0268    58.7143 </r>
       <r>    15.6825     0.8654    58.8160 </r>
       <r>    15.8000     1.6831    59.0137 </r>
       <r>    15.9174     4.2524    59.5133 </r>
       <r>    16.0349     3.9925    59.9824 </r>
       <r>    16.1524     1.7566    60.1888 </r>
       <r>    16.2699     1.8855    60.4103 </r>
       <r>    16.3874     1.1894    60.5500 </r>
       <r>    16.5049     2.9478    60.8963 </r>
       <r>    16.6223     1.9734    61.1282 </r>
       <r>    16.7398     0.8695    61.2303 </r>
       <r>    16.8573     1.8167    61.4438 </r>
       <r>    16.9748     3.9527    61.9081 </r>
       <r>    17.0923     2.3800    62.1877 </r>
       <r>    17.2098     3.3313    62.5791 </r>
       <r>    17.3272     3.1403    62.9480 </r>
       <r>    17.4447     1.0231    63.0683 </r>
       <r>    17.5622     3.4192    63.4699 </r>
       <r>    17.6797     2.3296    63.7436 </r>
       <r>    17.7972     0.2312    63.7708 </r>
       <r>    17.9147     0.9827    63.8863 </r>
       <r>    18.0321     3.3546    64.2804 </r>
       <r>    18.1496     2.6328    64.5897 </r>
       <r>    18.2671     1.5523    64.7720 </r>
       <r>    18.3846     1.5835    64.9581 </r>
       <r>    18.5021     0.4969    65.0164 </r>
       <r>    18.6196     3.2248    65.3953 </r>
       <r>    18.7370     2.2360    65.6580 </r>
       <r>    18.8545     1.8243    65.8723 </r>
       <r>    18.9720     1.4919    66.0476 </r>
       <r>    19.0895     2.0141    66.2842 </r>
       <r>    19.2070     1.8485    66.5014 </r>
       <r>    19.3245     1.8554    66.7194 </r>
       <r>    19.4419     1.6572    66.9141 </r>
       <r>    19.5594     0.9643    67.0274 </r>
       <r>    19.6769     1.7312    67.2307 </r>
       <r>    19.7944     3.7158    67.6673 </r>
       <r>    19.9119     2.6051    67.9733 </r>
       <r>    20.0294     0.1986    67.9967 </r>
       <r>    20.1468     0.9208    68.1049 </r>
       <r>    20.2643     2.0241    68.3427 </r>
       <r>    20.3818     1.6593    68.5376 </r>
       <r>    20.4993     2.0132    68.7741 </r>
       <r>    20.6168     2.1168    69.0228 </r>
       <r>    20.7343     1.2282    69.1671 </r>
       <r>    20.8517     0.7705    69.2576 </r>
       <r>    20.9692     4.8964    69.8329 </r>
       <r>    21.0867     5.3741    70.4642 </r>
       <r>    21.2042     3.2173    70.8422 </r>
       <r>    21.3217     1.6328    71.0340 </r>
       <r>    21.4392     2.5290    71.3312 </r>
       <r>    21.5566     6.0823    72.0457 </r>
       <r>    21.6741     6.7404    72.8376 </r>
       <r>    21.7916     5.7908    73.5179 </r>
       <r>    21.9091     4.9218    74.0962 </r>
       <r>    22.0266     4.2925    74.6005 </r>
       <r>    22.1441     2.6615    74.9131 </r>
       <r>    22.2615     1.7520    75.1190 </r>
       <r>    22.3790     2.9286    75.4630 </r>
       <r>    22.4965     0.8567    75.5637 </r>
       <r>    22.6140     1.9046    75.7874 </r>
       <r>    22.7315     4.5528    76.3223 </r>
       <r>    22.8490     2.7737    76.6482 </r>
       <r>    22.9664     4.3117    77.1547 </r>
       <r>    23.0839     5.2558    77.7722 </r>
       <r>    23.2014     3.2359    78.1524 </r>
       <r>    23.3189     3.1604    78.5236 </r>
       <r>    23.4364     1.6537    78.7179 </r>
       <r>    23.5539     2.2864    78.9865 </r>
       <r>    23.6713     1.4300    79.1545 </r>
       <r>    23.7888     1.7926    79.3651 </r>
       <r>    23.9063     1.8241    79.5794 </r>
       <r>    24.0238     1.0226    79.6996 </r>
       <r>    24.1413     1.7200    79.9017 </r>
       <r>    24.2588     1.5176    80.0800 </r>
       <r>    24.3762     1.4816    80.2540 </r>
       <r>    24.4937     1.1709    80.3916 </r>
       <r>    24.6112     3.9448    80.8550 </r>
       <r>    24.7287     3.1637    81.2267 </r>
       <r>    24.8462     1.6301    81.4182 </r>
       <r>    24.9637     3.1988    81.7940 </r>
       <r>    25.0811     1.5761    81.9792 </r>
       <r>    25.1986     0.6027    82.0500 </r>
       <r>    25.3161     1.3714    82.2111 </r>
       <r>    25.4336     0.9613    82.3240 </r>
       <r>    25.5511     0.9629    82.4372 </r>
       <r>    25.6686     1.0520    82.5608 </r>
       <r>    25.7860     1.1852    82.7000 </r>
       <r>    25.9035     1.6498    82.8938 </r>
       <r>    26.0210     1.0340    83.0153 </r>
       <r>    26.1385     1.0472    83.1383 </r>
       <r>    26.2560     2.4666    83.4281 </r>
       <r>    26.3735     4.4261    83.9481 </r>
       <r>    26.4909     4.3603    84.4604 </r>
       <r>    26.6084     4.3604    84.9727 </r>
       <r>    26.7259     5.5443    85.6240 </r>
       <r>    26.8434     3.6430    86.0520 </r>
       <r>    26.9609     1.0651    86.1771 </r>
       <r>    27.0784     2.6622    86.4899 </r>
       <r>    27.1958     3.5502    86.9070 </r>
       <r>    27.3133     2.2887    87.1759 </r>
       <r>    27.4308     2.7915    87.5038 </r>
       <r>    27.5483     2.4112    87.7871 </r>
       <r>    27.6658     2.0966    88.0334 </r>
       <r>    27.7833     2.1968    88.2915 </r>
       <r>    27.9007     3.1883    88.6661 </r>
       <r>    28.0182     3.2875    89.0523 </r>
       <r>    28.1357     2.1827    89.3088 </r>
       <r>    28.2532     2.7802    89.6354 </r>
       <r>    28.3707     4.4810    90.1618 </r>
       <r>    28.4882     2.7315    90.4827 </r>
       <r>    28.6056     3.8877    90.9395 </r>
       <r>    28.7231     3.3186    91.3293 </r>
       <r>    28.8406     1.8459    91.5462 </r>
       <r>    28.9581     2.1856    91.8030 </r>
       <r>    29.0756     4.9058    92.3793 </r>
       <r>    29.1931     3.6823    92.8119 </r>
       <r>    29.3105     2.8512    93.1469 </r>
       <r>    29.4280     2.7867    93.4743 </r>
       <r>    29.5455     3.2485    93.8559 </r>
       <r>    29.6630     4.6359    94.4006 </r>
       <r>    29.7805     4.6107    94.9423 </r>
       <r>    29.8980     2.1375    95.1934 </r>
       <r>    30.0154     1.5157    95.3714 </r>
       <r>    30.1329     0.4597    95.4254 </r>
       <r>    30.2504     0.7886    95.5181 </r>
       <r>    30.3679     0.4099    95.5662 </r>
       <r>    30.4854     0.4253    95.6162 </r>
       <r>    30.6029     0.2791    95.6490 </r>
       <r>    30.7203     0.1897    95.6713 </r>
       <r>    30.8378     0.8691    95.7734 </r>
       <r>    30.9553     0.6124    95.8453 </r>
       <r>    31.0728     0.1149    95.8588 </r>
       <r>    31.1903     0.0565    95.8655 </r>
       <r>    31.3078    -0.0104    95.8642 </r>
       <r>    31.4252     0.6907    95.9454 </r>
       <r>    31.5427     0.4765    96.0014 </r>
       <r>    31.6602    -0.0101    96.0002 </r>
       <r>    31.7777    -0.0013    96.0000 </r>
       <r>    31.8952    -0.0002    96.0000 </r>
       <r>    32.0127    -0.0000    96.0000 </r>
       <r>    32.1301    -0.0000    96.0000 </r>
       <r>    32.2476    -0.0000    96.0000 </r>
       <r>    32.3651     0.0000    96.0000 </r>
       <r>    32.4826     0.0000    96.0000 </r>
       <r>    32.6001     0.0000    96.0000 </r>
       <r>    32.7176     0.0000    96.0000 </r>
       <r>    32.8350     0.0000    96.0000 </r>
       <r>    32.9525     0.0000    96.0000 </r>
       <r>    33.0700     0.0000    96.0000 </r>
       <r>    33.1875     0.0000    96.0000 </r>
      </set>
     </set>
    </array>
   </total>
  </dos>
 </calculation>
 <structure name="finalpos" >
  <crystal>
   <varray name="basis" >
    <v>       4.36266667       0.00000000       0.00000000 </v>
    <v>       0.00000000       4.36266667       0.00000000 </v>
    <v>       0.00000000       0.00000000       4.36266667 </v>
   </varray>
   <i name="volume">     83.03402583 </i>
   <varray name="rec_basis" >
    <v>       0.22921760       0.00000000       0.00000000 </v>
    <v>       0.00000000       0.22921760       0.00000000 </v>
    <v>       0.00000000       0.00000000       0.22921760 </v>
   </varray>
  </crystal>
  <varray name="positions" >
   <v>       0.00000000       0.00000000       0.00000000 </v>
   <v>       0.00000000       0.50000000       0.50000000 </v>
   <v>       0.50000000       0.00000000       0.50000000 </v>
   <v>       0.50000000       0.50000000       0.00000000 </v>
  </varray>
 </structure>
</modeling>
