----- GAMESS execution script 'rungms' -----
This job is running on host crcfe02.crc.nd.edu
under operating system Linux at Sun Sep 29 10:46:38 EDT 2019
Available scratch disk space (Kbyte units) at beginning of the job is
Filesystem      1K-blocks  Used  Available Use% Mounted on
AFS            2147483647     0 2147483647   0% /afs
GAMESS temporary binary files will be written to /afs/crc.nd.edu/user/c/cdrisko
GAMESS supplementary output files will be written to /afs/crc.nd.edu/user/c/cdrisko/scr
Copying input file SO2.inp to your run's scratch directory...

 Distributed Data Interface kickoff program.
 Initiating 1 compute processes on 1 nodes to run the following command:
 /afs/crc.nd.edu/x86_64_linux/g/gamess/nov-2017/gamess/gamess.00.x SO2 

          ******************************************************
          *         GAMESS VERSION = 11 NOV 2017 (R3)         *
          *             FROM IOWA STATE UNIVERSITY             *
          * M.W.SCHMIDT, K.K.BALDRIDGE, J.A.BOATZ, S.T.ELBERT, *
          *   M.S.GORDON, J.H.JENSEN, S.KOSEKI, N.MATSUNAGA,   *
          *          K.A.NGUYEN, S.J.SU, T.L.WINDUS,           *
          *       TOGETHER WITH M.DUPUIS, J.A.MONTGOMERY       *
          *         J.COMPUT.CHEM.  14, 1347-1363(1993)        *
          **************** 64 BIT INTEL VERSION ****************

  SINCE 1993, STUDENTS AND POSTDOCS WORKING AT IOWA STATE UNIVERSITY
  AND ALSO IN THEIR VARIOUS JOBS AFTER LEAVING ISU HAVE MADE IMPORTANT
  CONTRIBUTIONS TO THE CODE:
     IVANA ADAMOVIC, CHRISTINE AIKENS, YURI ALEXEEV, POOJA ARORA,
     ANDREY ASADCHEV, ROB BELL, PRADIPTA BANDYOPADHYAY, JONATHAN BENTZ,
     BRETT BODE, KURT BRORSEN, CALEB CARLIN, GALINA CHABAN, WEI CHEN,
     CHEOL HO CHOI, PAUL DAY, ALBERT DEFUSCO, NUWAN DESILVA, TIM DUDLEY,
     DMITRI FEDOROV, ALEX FINDLATER, GRAHAM FLETCHER, MARK FREITAG,
     KURT GLAESEMANN, ANASTASIA GUININA,
     DAN KEMP, GRANT MERRILL, NORIYUKI MINEZAWA, JONATHAN MULLIN,
     TAKESHI NAGATA, SEAN NEDD, HEATHER NETZLOFF, BOSILJKA NJEGIC, RYAN OLSON,
     MIKE PAK, BUU PHAM,
     SPENCER PRUITT, LUKE ROSKOP, JIM SHOEMAKER, LYUDMILA SLIPCHENKO,
     TONY SMITH, SAROM SOK LEANG, JIE SONG, TETSUYA TAKETSUGU, SIMON WEBB,
     PENG XU, SOOHAENG YOO, FEDERICO ZAHARIEV

  ADDITIONAL CODE HAS BEEN PROVIDED BY COLLABORATORS IN OTHER GROUPS:
     IOWA STATE UNIVERSITY:
          JOE IVANIC, AARON WEST, LAIMUTIS BYTAUTAS, KLAUS RUEDENBERG
     UNIVERSITY OF TOKYO: KIMIHIKO HIRAO, TAKAHITO NAKAJIMA,
          TAKAO TSUNEDA, MUNEAKI KAMIYA, SUSUMU YANAGISAWA,
          KIYOSHI YAGI, MAHITO CHIBA, SEIKEN TOKURA, NAOAKI KAWAKAMI
     UNIVERSITY OF AARHUS: FRANK JENSEN
     UNIVERSITY OF IOWA: VISVALDAS KAIRYS, HUI LI
     NATIONAL INST. OF STANDARDS AND TECHNOLOGY: WALT STEVENS, DAVID GARMER
     UNIVERSITY OF PISA: BENEDETTA MENNUCCI, JACOPO TOMASI
     UNIVERSITY OF MEMPHIS: HENRY KURTZ, PRAKASHAN KORAMBATH
     UNIVERSITY OF ALBERTA: TOBY ZENG, MARIUSZ KLOBUKOWSKI
     UNIVERSITY OF NEW ENGLAND: MARK SPACKMAN
     MIE UNIVERSITY: HIROAKI UMEDA
     NAT. INST. OF ADVANCED INDUSTRIAL SCIENCE AND TECHNOLOGY: KAZUO KITAURA
     MICHIGAN STATE UNIVERSITY:
          KAROL KOWALSKI, MARTA WLOCH, JEFFREY GOUR, JESSE LUTZ,
          WEI LI, PIOTR PIECUCH
     UNIVERSITY OF SILESIA: MONIKA MUSIAL, STANISLAW KUCHARSKI
     FACULTES UNIVERSITAIRES NOTRE-DAME DE LA PAIX:
          OLIVIER QUINET, BENOIT CHAMPAGNE
     UNIVERSITY OF CALIFORNIA - SANTA BARBARA: BERNARD KIRTMAN
     INSTITUTE FOR MOLECULAR SCIENCE:
          KAZUYA ISHIMURA, MICHIO KATOUDA, AND SHIGERU NAGASE
     UNIVERSITY OF NOTRE DAME: ANNA POMOGAEVA, DAN CHIPMAN
     KYUSHU UNIVERSITY:
          HARUYUKI NAKANO,
          FENG LONG GU, JACEK KORCHOWIEC, MARCIN MAKOWSKI, AND YURIKO AOKI,
          HIROTOSHI MORI AND EISAKU MIYOSHI
     PENNSYLVANIA STATE UNIVERSITY:
          TZVETELIN IORDANOV, CHET SWALINA, JONATHAN SKONE,
          SHARON HAMMES-SCHIFFER
     WASEDA UNIVERSITY:
          MASATO KOBAYASHI, TOMOKO AKAMA, TSUGUKI TOUMA,
          TAKESHI YOSHIKAWA, YASUHIRO IKABATA, JUNJI SEINO,
          YUYA NAKAJIMA, HIROMI NAKAI
     NANJING UNIVERSITY: SHUHUA LI
     UNIVERSITY OF NEBRASKA:
          PEIFENG SU, DEJUN SI, NANDUN THELLAMUREGE, YALI WANG, HUI LI
     UNIVERSITY OF ZURICH: ROBERTO PEVERATI, KIM BALDRIDGE
     N. COPERNICUS UNIVERSITY AND JACKSON STATE UNIVERSITY:
          MARIA BARYSZ
     UNIVERSITY OF COPENHAGEN: Jimmy Kromann, CASPER STEINMANN
     TOKYO INSTITUTE OF TECHNOLOGY: HIROYA NAKATA
     NAGOYA UNIVERSITY: YOSHIO NISHIMOTO, STEPHAN IRLE
     MOSCOW STATE UNIVERSITY: VLADIMIR MIRONOV

 EXECUTION OF GAMESS BEGUN Sun Sep 29 10:46:38 2019

            ECHO OF THE FIRST FEW INPUT CARDS -
 INPUT CARD> $BASIS GBASIS=PCSEG-1 $END                                                     
 INPUT CARD> $CONTRL COORD=ZMT ISPHER=1 RUNTYP=ENERGY DFTTYP=PBE MULT=1 $END                
 INPUT CARD>                                                                                
 INPUT CARD> $DATA                                                                          
 INPUT CARD>Title SO2 single-point calculation template with Z-Matrix                       
 INPUT CARD>C1                                                                              
 INPUT CARD>S                                                                               
 INPUT CARD>O 1 1.45                                                                        
 INPUT CARD>O 1 1.45 2 90                                                                   
 INPUT CARD> $END                                                                           
    1000000 WORDS OF MEMORY AVAILABLE

     BASIS OPTIONS
     -------------
     GBASIS=PCSEG-1      IGAUSS=       0      POLAR=NONE    
     NDFUNC=       0     NFFUNC=       0     DIFFSP=       F
     NPFUNC=       0      DIFFS=       F     BASNAM=        


     RUN TITLE
     ---------
 Title SO2 single-point calculation template with Z-Matrix                       

 THE POINT GROUP OF THE MOLECULE IS C1      
 THE ORDER OF THE PRINCIPAL AXIS IS     0

 YOUR FULLY SUBSTITUTED Z-MATRIX IS
 S   
 O      1   1.4500000
 O      1   1.4500000  2   90.0000

 THE MOMENTS OF INERTIA ARE (AMU-ANGSTROM**2)
 IXX=    16.810   IYY=    33.629   IZZ=    50.439

 ATOM      ATOMIC                      COORDINATES (BOHR)
           CHARGE         X                   Y                   Z
 S          16.0     0.0000000000       -0.9690414370        0.0000000000
 O           8.0     1.9375451877        0.9685037508        0.0000000000
 O           8.0    -1.9375451877        0.9685037508        0.0000000000

          INTERNUCLEAR DISTANCES (ANGS.)
          ------------------------------

                1 S          2 O          3 O     

   1 S       0.0000000    1.4500000 *  1.4500000 *
   2 O       1.4500000 *  0.0000000    2.0506097 *
   3 O       1.4500000 *  2.0506097 *  0.0000000  

  * ... LESS THAN  3.000


     ATOMIC BASIS SET
     ----------------
 THE CONTRACTED PRIMITIVE FUNCTIONS HAVE BEEN UNNORMALIZED
 THE CONTRACTED BASIS FUNCTIONS ARE NOW NORMALIZED TO UNITY

  SHELL TYPE  PRIMITIVE        EXPONENT          CONTRACTION COEFFICIENT(S)

 S         

      1   S       1         49299.4000000    0.000677492991
      1   S       2          7395.8400000    0.005232317766
      1   S       3          1683.3000000    0.026769459077
      1   S       4           476.1440000    0.102869580705
      1   S       5           154.3290000    0.286438127414
      1   S       6            55.0288000    0.454278639081
      1   S       7            20.5029000    0.271743121997

      2   S       8            45.9596000   -0.088421914560
      2   S       9             4.9274000    0.564350486135
      2   S      10             1.9179900    0.505415953466

      3   S      11             0.3684980    1.000000000000

      4   S      12             0.1291650    1.000000000000

      5   P      13           451.6620000    0.003707705453
      5   P      14           106.0980000    0.029219352245
      5   P      15            33.6996000    0.124444551509
      5   P      16            12.3054000    0.321808587656
      5   P      17             4.7141200    0.462822172957
      5   P      18             1.7810500    0.266513371364

      6   P      19             0.8722350    0.349265132972
      6   P      20             0.3102780    0.717115018770

      7   P      21             0.1001940    1.000000000000

      8   D      22             0.5500000    1.000000000000

 O         

      9   S      23          2288.6400000    0.005451138222
      9   S      24           344.4160000    0.040718922842
      9   S      25            78.2538000    0.181369420873
      9   S      26            21.7195000    0.465536820246
      9   S      27             6.5590700    0.451211321214

     10   S      28            10.4656000   -0.150211201174
     10   S      29             0.9643510    1.052867983385

     11   S      30             0.2851270    1.000000000000

     12   P      31            17.0590000    0.068749256972
     12   P      32             3.6899900    0.351671941499
     12   P      33             0.9929960    0.724532099722

     13   P      34             0.2449240    1.000000000000

     14   D      35             1.0000000    1.000000000000

 O         

     15   S      36          2288.6400000    0.005451138222
     15   S      37           344.4160000    0.040718922842
     15   S      38            78.2538000    0.181369420873
     15   S      39            21.7195000    0.465536820246
     15   S      40             6.5590700    0.451211321214

     16   S      41            10.4656000   -0.150211201174
     16   S      42             0.9643510    1.052867983385

     17   S      43             0.2851270    1.000000000000

     18   P      44            17.0590000    0.068749256972
     18   P      45             3.6899900    0.351671941499
     18   P      46             0.9929960    0.724532099722

     19   P      47             0.2449240    1.000000000000

     20   D      48             1.0000000    1.000000000000

 TOTAL NUMBER OF BASIS SET SHELLS             =   20
 NUMBER OF CARTESIAN GAUSSIAN BASIS FUNCTIONS =   49
 NOTE: THIS RUN WILL RESTRICT THE MO VARIATION SPACE TO SPHERICAL HARMONICS.
 THE NUMBER OF ORBITALS KEPT IN THE VARIATIONAL SPACE WILL BE PRINTED LATER.
 NUMBER OF ELECTRONS                          =   32
 CHARGE OF MOLECULE                           =    0
 SPIN MULTIPLICITY                            =    1
 NUMBER OF OCCUPIED ORBITALS (ALPHA)          =   16
 NUMBER OF OCCUPIED ORBITALS (BETA )          =   16
 TOTAL NUMBER OF ATOMS                        =    3
 THE NUCLEAR REPULSION ENERGY IS      109.9428995684

     LEBEDEV GRID-BASED DFT OPTIONS
     ------------------------------
     DFTTYP=PBE     
     NRAD  =      96     NLEB  =     302
     NRAD0 =      24     NLEB0 =     110
     SWOFF =    5.00E-03 (PURE SCF -> DFT)
     SWITCH=    3.00E-04 (COARSE -> TIGHT GRID)
     THRESH=    0.00E+00 GTHRE=    1.00E+00

 GRIMME'S EMPIRICAL DISPERSION CORRECTION= F

     $CONTRL OPTIONS
     ---------------
 SCFTYP=RHF          RUNTYP=ENERGY       EXETYP=RUN     
 MPLEVL=       0     CITYP =NONE         CCTYP =NONE         VBTYP =NONE    
 DFTTYP=PBE          TDDFT =NONE    
 MULT  =       1     ICHARG=       0     NZVAR =       0     COORD =ZMT     
 PP    =NONE         RELWFN=NONE         LOCAL =NONE         NUMGRD=       F
 ISPHER=       1     NOSYM =       0     MAXIT =      30     UNITS =ANGS    
 PLTORB=       F     MOLPLT=       F     AIMPAC=       F     FRIEND=        
 NPRINT=       7     IREST =       0     GEOM  =INPUT   
 NORMF =       0     NORMP =       0     ITOL  =      20     ICUT  =       9
 INTTYP=BEST         GRDTYP=BEST         QMTTOL= 1.0E-06

     $SYSTEM OPTIONS
     ---------------
  REPLICATED MEMORY=     1000000 WORDS (ON EVERY NODE).
 DISTRIBUTED MEMDDI=           0 MILLION WORDS IN AGGREGATE,
 MEMDDI DISTRIBUTED OVER   1 PROCESSORS IS           0 WORDS/PROCESSOR.
 TOTAL MEMORY REQUESTED ON EACH PROCESSOR=     1000000 WORDS.
 TIMLIM=      525600.00 MINUTES, OR     365.0 DAYS.
 PARALL= F  BALTYP=  DLB     KDIAG=    0  COREFL= F
 MXSEQ2=     300 MXSEQ3=     150  mem10=         0

          ----------------
          PROPERTIES INPUT
          ----------------

     MOMENTS            FIELD           POTENTIAL          DENSITY
 IEMOM =       1   IEFLD =       0   IEPOT =       0   IEDEN =       0
 WHERE =COMASS     WHERE =NUCLEI     WHERE =NUCLEI     WHERE =NUCLEI  
 OUTPUT=BOTH       OUTPUT=BOTH       OUTPUT=BOTH       OUTPUT=BOTH    
 IEMINT=       0   IEFINT=       0                     IEDINT=       0
                                                       MORB  =       0
          EXTRAPOLATION IN EFFECT
          DIIS IN EFFECT
 ORBITAL PRINTING OPTION: NPREO=     1    49     2     1

     -------------------------------
     INTEGRAL TRANSFORMATION OPTIONS
     -------------------------------
     NWORD  =            0
     CUTOFF = 1.0E-09     MPTRAN =       0
     DIRTRF =       F     AOINTS =DUP     

          ----------------------
          INTEGRAL INPUT OPTIONS
          ----------------------
 NOPK  =       1 NORDER=       0 SCHWRZ=       F

   --- ENCODED Z MATRIX ---
 COORD  TYPE   I   J   K   L   M   N
    1      1    2   1
    2      1    3   1
    3      2    3   1   2

 THE DETERMINANT OF THE G MATRIX IS 10**(    -4)

 THE DETERMINANT OF THE G MATRIX IS 10**(    -4)
 * * * WARNING * * *
 YOUR B MATRIX HAS A SMALL DETERMINANT.
 THIS SUGGESTS YOU MAY HAVE BADLY CHOSEN COORDINATES.

     ------------------------------------------
     THE POINT GROUP IS C1 , NAXIS= 0, ORDER= 1
     ------------------------------------------

 -- VARIATIONAL SPACE WILL BE RESTRICTED TO PURE SPHERICAL HARMONICS ONLY --
 AFTER EXCLUDING CONTAMINANT COMBINATIONS FROM THE CARTESIAN GAUSSIAN BASIS
 SET, THE NUMBER OF SPHERICAL HARMONICS KEPT IN THE VARIATION SPACE IS   46

     DIMENSIONS OF THE SYMMETRY SUBSPACES ARE
 A   =   46

 ..... DONE SETTING UP THE RUN .....
 STEP CPU TIME =     0.04 TOTAL CPU TIME =          0.0 (      0.0 MIN)
 TOTAL WALL CLOCK TIME=          0.1 SECONDS, CPU UTILIZATION IS    80.00%

          ********************
          1 ELECTRON INTEGRALS
          ********************
 ...... END OF ONE-ELECTRON INTEGRALS ......
 STEP CPU TIME =     0.01 TOTAL CPU TIME =          0.0 (      0.0 MIN)
 TOTAL WALL CLOCK TIME=          0.1 SECONDS, CPU UTILIZATION IS   100.00%

          -------------
          GUESS OPTIONS
          -------------
          GUESS =HUCKEL            NORB  =       0          NORDER=       0
          MIX   =       F          PRTMO =       F          PUNMO =       F
          TOLZ  = 1.0E-08          TOLE  = 1.0E-05
          SYMDEN=       F          PURIFY=       F

 INITIAL GUESS ORBITALS GENERATED BY HUCKEL   ROUTINE.
 HUCKEL GUESS REQUIRES     21634 WORDS.

 STATISTICS FOR GENERATION OF SYMMETRY ORBITAL -Q- MATRIX
 NUMBER OF CARTESIAN ATOMIC ORBITALS=         49
 NUMBER OF SPHERICAL CONTAMINANTS DROPPED=     3
 NUMBER OF LINEARLY DEPENDENT MOS DROPPED=     0
 TOTAL NUMBER OF MOS IN VARIATION SPACE=      46

 SYMMETRIES FOR INITIAL GUESS ORBITALS FOLLOW.   BOTH SET(S).
    16 ORBITALS ARE OCCUPIED (    7 CORE ORBITALS).
     8=A        9=A       10=A       11=A       12=A       13=A       14=A   
    15=A       16=A       17=A       18=A       19=A       20=A       21=A   
    22=A       23=A       24=A       25=A       26=A   
 ...... END OF INITIAL ORBITAL SELECTION ......
 STEP CPU TIME =     0.00 TOTAL CPU TIME =          0.0 (      0.0 MIN)
 TOTAL WALL CLOCK TIME=          0.1 SECONDS, CPU UTILIZATION IS    83.33%

                    ----------------------
                    AO INTEGRAL TECHNOLOGY
                    ----------------------
     S,P,L SHELL ROTATED AXIS INTEGRALS, REPROGRAMMED BY
        KAZUYA ISHIMURA (IMS) AND JOSE SIERRA (SYNSTAR).
     S,P,D,L SHELL ROTATED AXIS INTEGRALS PROGRAMMED BY
        KAZUYA ISHIMURA (INSTITUTE FOR MOLECULAR SCIENCE).
     S,P,D,F,G SHELL TO TOTAL QUARTET ANGULAR MOMENTUM SUM 5,
        ERIC PROGRAM BY GRAHAM FLETCHER (ELORET AND NASA ADVANCED
        SUPERCOMPUTING DIVISION, AMES RESEARCH CENTER).
     S,P,D,F,G,L SHELL GENERAL RYS QUADRATURE PROGRAMMED BY
        MICHEL DUPUIS (PACIFIC NORTHWEST NATIONAL LABORATORY).

          --------------------
          2 ELECTRON INTEGRALS
          --------------------

 THE -PK- OPTION IS OFF, THE INTEGRALS ARE NOT IN SUPERMATRIX FORM.
 STORING   15000 INTEGRALS/RECORD ON DISK, USING 12 BYTES/INTEGRAL.
 TWO ELECTRON INTEGRAL EVALUATION REQUIRES   90606 WORDS OF MEMORY.
 II,JST,KST,LST =  1  1  1  1 NREC =         1 INTLOC =    1
 II,JST,KST,LST =  2  1  1  1 NREC =         1 INTLOC =    2
 II,JST,KST,LST =  3  1  1  1 NREC =         1 INTLOC =    7
 II,JST,KST,LST =  4  1  1  1 NREC =         1 INTLOC =   22
 II,JST,KST,LST =  5  1  1  1 NREC =         1 INTLOC =   56
 II,JST,KST,LST =  6  1  1  1 NREC =         1 INTLOC =  125
 II,JST,KST,LST =  7  1  1  1 NREC =         1 INTLOC =  329
 II,JST,KST,LST =  8  1  1  1 NREC =         1 INTLOC =  776
 II,JST,KST,LST =  9  1  1  1 NREC =         1 INTLOC = 2864
 II,JST,KST,LST = 10  1  1  1 NREC =         1 INTLOC = 4985
 II,JST,KST,LST = 11  1  1  1 NREC =         1 INTLOC = 7651
 II,JST,KST,LST = 12  1  1  1 NREC =         1 INTLOC =10769
 II,JST,KST,LST = 13  1  1  1 NREC =         2 INTLOC = 6698
 II,JST,KST,LST = 14  1  1  1 NREC =         3 INTLOC = 6970
 II,JST,KST,LST = 15  1  1  1 NREC =         6 INTLOC = 9010
 II,JST,KST,LST = 16  1  1  1 NREC =         7 INTLOC = 3614
 II,JST,KST,LST = 17  1  1  1 NREC =         8 INTLOC =  983
 II,JST,KST,LST = 18  1  1  1 NREC =         8 INTLOC =14616
 II,JST,KST,LST = 19  1  1  1 NREC =        11 INTLOC =12247
 II,JST,KST,LST = 20  1  1  1 NREC =        15 INTLOC = 5197
 TOTAL NUMBER OF NONZERO TWO-ELECTRON INTEGRALS =              353777
         24 INTEGRAL RECORDS WERE STORED ON DISK FILE  8.
  ...... END OF TWO-ELECTRON INTEGRALS .....
 STEP CPU TIME =     0.11 TOTAL CPU TIME =          0.2 (      0.0 MIN)
 TOTAL WALL CLOCK TIME=          0.2 SECONDS, CPU UTILIZATION IS    88.89%

          --------------------------
               R-PBE SCF CALCULATION
          --------------------------

     NUCLEAR ENERGY =       109.9428995684
     MAXIT =   30     NPUNCH=    2
     EXTRAP=T  DAMP=F  SHIFT=F  RSTRCT=F  DIIS=T  DEM=F  SOSCF=F
         DENSITY MATRIX CONVERGENCE THRESHOLD=  1.00E-05
     COARSE -> FINE DFT GRID SWITCH THRESHOLD=  3.00E-04 (SWITCH IN $DFT)
                   HF -> DFT SWITCH THRESHOLD=  5.00E-03 (SWOFF IN $DFT)
     MEMORY REQUIRED FOR RHF ITERS=    183108 WORDS.

 DFT CODE IS SWITCHING FROM THE FINE GRID NRAD= 96,  NLEB=  302
                      TO THE COARSE GRID NRAD0= 24, NLEB0=  110

     EXCHANGE FUNCTIONAL   =PBE       
     CORRELATION FUNCTIONAL=PBE       
     DFT THRESHOLD         =.460E-07
     GRID CHANGE THRESHOLD =.300E-03
 FOR AN EULER-MACLAURIN QUADRATURE USING  96 RADIAL POINTS:
 SMALLEST GAUSSIAN PRIMITIVE EXPONENT=        0.1001940000 OF TYPE -P-
 ON ATOM NUMBER   1 HAS RADIAL NORMALIZATION=  1.000000
  LARGEST GAUSSIAN PRIMITIVE EXPONENT=    49299.4000000000 OF TYPE -S-
 ON ATOM NUMBER   1 HAS RADIAL NORMALIZATION=  1.000000
 DFT IS SWITCHED OFF, PERFORMING PURE SCF UNTIL SWOFF THRESHOLD IS REACHED.

 ITER EX DEM     TOTAL ENERGY        E CHANGE  DENSITY CHANGE    DIIS ERROR
   1  0  0     -546.0165330241  -546.0165330241   0.592819734   0.840376432
          * * *   INITIATING DIIS PROCEDURE   * * *
   2  1  0     -546.8210366019    -0.8045035777   0.443724884   0.259470141
   3  2  0     -546.9083004816    -0.0872638797   0.161539631   0.163729707
   4  3  0     -547.0358068867    -0.1275064051   0.017451278   0.010703978
   5  4  0     -547.0363628924    -0.0005560057   0.003790274   0.003292036
 CONVERGED TO SWOFF, SO DFT CALCULATION IS NOW SWITCHED ON.
          * * *   INITIATING DIIS PROCEDURE   * * *
   6  5  0     -548.1797044018    -1.1433415094   0.328852352   0.093603347
   7  6  0     -548.1795171595     0.0001872424   0.282666197   0.093924713
   8  7  0     -548.1833233547    -0.0038061953   0.100047811   0.086333559
   9  8  0     -548.2146680570    -0.0313447022   0.022395466   0.010366469
  10  9  0     -548.2150846045    -0.0004165475   0.002150912   0.000951712
  11 10  0     -548.2150877422    -0.0000031377   0.000329785   0.000437675
  12 11  0     -548.2150881742    -0.0000004320   0.000166554   0.000056638
 DFT CODE IS SWITCHING BACK TO THE FINE GRID
          * * *   INITIATING DIIS PROCEDURE   * * *
  13 12  0     -548.1832939558     0.0317942184   0.011390461   0.009720710
  14 13  0     -548.1835128762    -0.0002189204   0.007957575   0.003531021
  15 14  0     -548.1834526735     0.0000602028   0.006681458   0.004732786
  16 15  0     -548.1835379837    -0.0000853102   0.003380997   0.002223409
  17 16  0     -548.1835434410    -0.0000054573   0.001592225   0.001596271
  18 17  0     -548.1835514367    -0.0000079957   0.000237470   0.000096575
  19 18  0     -548.1835514710    -0.0000000343   0.000014444   0.000005794
  20 19  0     -548.1835514711    -0.0000000001   0.000001407   0.000001031
  21 20  0     -548.1835514711    -0.0000000000   0.000000198   0.000000106

          -----------------
          DENSITY CONVERGED
          -----------------
     TIME TO FORM FOCK OPERATORS=       2.6 SECONDS (       0.1 SEC/ITER)
     TIME TO SOLVE SCF EQUATIONS=       0.0 SECONDS (       0.0 SEC/ITER)

 FINAL R-PBE ENERGY IS     -548.1835514711 AFTER  21 ITERATIONS
 DFT EXCHANGE + CORRELATION ENERGY =       -42.5648664672
 TOTAL ELECTRON NUMBER             =        32.0000676885

          ------------
          EIGENVECTORS
          ------------

                      1          2          3          4          5
                  -88.2207   -18.7718   -18.7718    -7.8422    -5.8671
                     A          A          A          A          A   
    1  S  1  S    0.997749  -0.000001  -0.000045  -0.308355   0.000000
    2  S  1  S    0.008332   0.000007   0.000259   1.031489   0.000000
    3  S  1  S   -0.003340  -0.000003  -0.000119   0.028529   0.000000
    4  S  1  S    0.000713   0.000217   0.007997  -0.006040   0.000000
    5  S  1  X   -0.000000  -0.000020   0.000001  -0.000000   0.000000
    6  S  1  Y    0.000189  -0.000000  -0.000019   0.008755   0.000000
    7  S  1  Z    0.000000   0.000000   0.000000   0.000000   0.994825
    8  S  1  X    0.000000  -0.001495   0.000041  -0.000000   0.000000
    9  S  1  Y   -0.000735   0.000042   0.001544   0.001395   0.000000
   10  S  1  Z    0.000000   0.000000   0.000000   0.000000   0.016375
   11  S  1  X    0.000000  -0.002368   0.000064   0.000000   0.000000
   12  S  1  Y    0.000009   0.000100   0.003688  -0.000283   0.000000
   13  S  1  Z    0.000000   0.000000   0.000000   0.000000  -0.003152
   14  S  1 XX   -0.000134   0.000007   0.000253   0.000295   0.000000
   15  S  1 YY   -0.000116  -0.000002  -0.000063   0.000092   0.000000
   16  S  1 ZZ    0.000251  -0.000005  -0.000191  -0.000387   0.000000
   17  S  1 XY    0.000000   0.000259  -0.000007  -0.000000   0.000000
   18  S  1 XZ    0.000000   0.000000   0.000000   0.000000  -0.000000
   19  S  1 YZ    0.000000   0.000000   0.000000   0.000000   0.000631
   20  O  2  S   -0.000022  -0.682979   0.721067  -0.000159   0.000000
   21  O  2  S   -0.000123  -0.023471   0.024587  -0.000254   0.000000
   22  O  2  S    0.000556   0.010834  -0.012623  -0.000140   0.000000
   23  O  2  X   -0.000088   0.000841  -0.000693   0.000049   0.000000
   24  O  2  Y   -0.000075   0.000853  -0.000798   0.000019   0.000000
   25  O  2  Z    0.000000   0.000000   0.000000   0.000000  -0.000017
   26  O  2  X   -0.000383  -0.002337   0.001745   0.000613   0.000000
   27  O  2  Y   -0.000423  -0.001587   0.001916   0.000710   0.000000
   28  O  2  Z    0.000000   0.000000   0.000000   0.000000  -0.000250
   29  O  2 XX    0.000082   0.000422   0.000214   0.000073   0.000000
   30  O  2 YY    0.000072  -0.000096  -0.000179   0.000099   0.000000
   31  O  2 ZZ   -0.000154  -0.000326  -0.000036  -0.000173   0.000000
   32  O  2 XY    0.000277   0.000070  -0.000275   0.000306   0.000000
   33  O  2 XZ    0.000000   0.000000   0.000000   0.000000   0.000020
   34  O  2 YZ    0.000000   0.000000   0.000000   0.000000   0.000003
   35  O  3  S   -0.000022   0.721066   0.682980  -0.000159   0.000000
   36  O  3  S   -0.000123   0.024769   0.023278  -0.000254   0.000000
   37  O  3  S    0.000556  -0.011503  -0.012017  -0.000140   0.000000
   38  O  3  X    0.000088   0.000878   0.000646  -0.000049   0.000000
   39  O  3  Y   -0.000075  -0.000895  -0.000751   0.000019   0.000000
   40  O  3  Z    0.000000   0.000000   0.000000   0.000000  -0.000017
   41  O  3  X    0.000383  -0.002428  -0.001616  -0.000613   0.000000
   42  O  3  Y   -0.000423   0.001688   0.001827   0.000710   0.000000
   43  O  3  Z    0.000000   0.000000   0.000000   0.000000  -0.000250
   44  O  3 XX    0.000082  -0.000410   0.000237   0.000073   0.000000
   45  O  3 YY    0.000072   0.000086  -0.000184   0.000099   0.000000
   46  O  3 ZZ   -0.000154   0.000324  -0.000053  -0.000173   0.000000
   47  O  3 XY   -0.000277   0.000085   0.000271  -0.000306   0.000000
   48  O  3 XZ    0.000000   0.000000   0.000000   0.000000  -0.000020
   49  O  3 YZ    0.000000   0.000000   0.000000   0.000000   0.000003

                      6          7          8          9         10
                   -5.8669    -5.8622    -1.0731    -0.9226    -0.5942
                     A          A          A          A          A   
    1  S  1  S   -0.000000   0.002798   0.050729  -0.000000   0.068080
    2  S  1  S    0.000000  -0.009657  -0.310349   0.000000  -0.435929
    3  S  1  S   -0.000000  -0.000189   0.431116  -0.000001   0.671769
    4  S  1  S   -0.000000   0.002311   0.066782   0.000006   0.263496
    5  S  1  X    0.994472   0.000002  -0.000000   0.127705   0.000000
    6  S  1  Y   -0.000002   0.994518  -0.088662  -0.000000   0.091062
    7  S  1  Z    0.000000   0.000000   0.000000   0.000000   0.000000
    8  S  1  X    0.017615   0.000000   0.000001  -0.288238  -0.000001
    9  S  1  Y   -0.000000   0.017216   0.190015   0.000002  -0.224141
   10  S  1  Z    0.000000   0.000000   0.000000   0.000000   0.000000
   11  S  1  X   -0.002801  -0.000000   0.000001   0.007771  -0.000001
   12  S  1  Y    0.000000  -0.002350  -0.018359   0.000003  -0.061882
   13  S  1  Z    0.000000   0.000000   0.000000   0.000000   0.000000
   14  S  1 XX   -0.000000  -0.000242   0.016577   0.000000   0.003694
   15  S  1 YY   -0.000000   0.001014   0.024730   0.000001  -0.027233
   16  S  1 ZZ    0.000000  -0.000772  -0.041307  -0.000001   0.023539
   17  S  1 XY    0.001382   0.000000   0.000001  -0.099798  -0.000000
   18  S  1 XZ    0.000000   0.000000   0.000000   0.000000   0.000000
   19  S  1 YZ    0.000000   0.000000   0.000000   0.000000   0.000000
   20  O  2  S   -0.000426  -0.000431  -0.132095   0.163736   0.098351
   21  O  2  S    0.000202   0.000320   0.267050  -0.337682  -0.207648
   22  O  2  S   -0.000953  -0.001253   0.208861  -0.295904  -0.265622
   23  O  2  X   -0.000501  -0.000502  -0.096130   0.058286  -0.042733
   24  O  2  Y   -0.000483  -0.000582  -0.082779   0.094603  -0.121942
   25  O  2  Z    0.000000   0.000000   0.000000   0.000000   0.000000
   26  O  2  X    0.000713   0.000789  -0.019369   0.010263  -0.018525
   27  O  2  Y    0.000912   0.000491  -0.018549   0.018847  -0.057396
   28  O  2  Z    0.000000   0.000000   0.000000   0.000000   0.000000
   29  O  2 XX    0.000209   0.000193   0.002123   0.000978  -0.002154
   30  O  2 YY    0.000251   0.000343   0.003817  -0.003539   0.006044
   31  O  2 ZZ   -0.000461  -0.000535  -0.005940   0.002561  -0.003890
   32  O  2 XY    0.000789   0.000913   0.012778  -0.008865   0.006397
   33  O  2 XZ    0.000000   0.000000   0.000000   0.000000   0.000000
   34  O  2 YZ    0.000000   0.000000   0.000000   0.000000   0.000000
   35  O  3  S    0.000426  -0.000431  -0.132096  -0.163735   0.098351
   36  O  3  S   -0.000202   0.000320   0.267050   0.337683  -0.207648
   37  O  3  S    0.000953  -0.001253   0.208866   0.295894  -0.265624
   38  O  3  X   -0.000501   0.000502   0.096130   0.058286   0.042734
   39  O  3  Y    0.000483  -0.000582  -0.082779  -0.094603  -0.121943
   40  O  3  Z    0.000000   0.000000   0.000000   0.000000   0.000000
   41  O  3  X    0.000713  -0.000789   0.019370   0.010260   0.018525
   42  O  3  Y   -0.000912   0.000491  -0.018551  -0.018844  -0.057396
   43  O  3  Z    0.000000   0.000000   0.000000   0.000000   0.000000
   44  O  3 XX   -0.000209   0.000193   0.002123  -0.000978  -0.002154
   45  O  3 YY   -0.000251   0.000343   0.003817   0.003539   0.006044
   46  O  3 ZZ    0.000461  -0.000535  -0.005940  -0.002560  -0.003890
   47  O  3 XY    0.000789  -0.000913  -0.012779  -0.008864  -0.006397
   48  O  3 XZ    0.000000   0.000000   0.000000   0.000000   0.000000
   49  O  3 YZ    0.000000   0.000000   0.000000   0.000000   0.000000

                     11         12         13         14         15
                   -0.4532    -0.4361    -0.4221    -0.3130    -0.3000
                     A          A          A          A          A   
    1  S  1  S    0.000000  -0.002421   0.000000   0.015387   0.000000
    2  S  1  S    0.000000   0.013596  -0.000000  -0.100136   0.000000
    3  S  1  S    0.000000   0.024283   0.000000   0.126518   0.000000
    4  S  1  S    0.000000  -0.197680   0.000001   0.300462   0.000000
    5  S  1  X    0.000000  -0.000000  -0.184279   0.000000   0.000000
    6  S  1  Y    0.000000  -0.185315   0.000000   0.111578   0.000000
    7  S  1  Z   -0.217592   0.000000   0.000000   0.000000  -0.000000
    8  S  1  X    0.000000   0.000001   0.503089  -0.000001   0.000000
    9  S  1  Y    0.000000   0.498856  -0.000001  -0.304421   0.000000
   10  S  1  Z    0.582471   0.000000   0.000000   0.000000   0.000001
   11  S  1  X    0.000000   0.000001   0.031108   0.000001   0.000000
   12  S  1  Y    0.000000   0.034249   0.000000  -0.053548   0.000000
   13  S  1  Z    0.125569   0.000000   0.000000   0.000000   0.000000
   14  S  1 XX    0.000000  -0.050699  -0.000000  -0.129739   0.000000
   15  S  1 YY    0.000000   0.071684   0.000000   0.087449   0.000000
   16  S  1 ZZ    0.000000  -0.020985   0.000000   0.042290   0.000000
   17  S  1 XY    0.000000   0.000000   0.052980   0.000000   0.000000
   18  S  1 XZ   -0.000000   0.000000   0.000000   0.000000   0.121952
   19  S  1 YZ    0.066933   0.000000   0.000000   0.000000  -0.000000
   20  O  2  S    0.000000   0.060380   0.075029  -0.000623   0.000000
   21  O  2  S    0.000000  -0.126854  -0.155281  -0.003166   0.000000
   22  O  2  S    0.000000  -0.204535  -0.274698  -0.003845   0.000000
   23  O  2  X    0.000000  -0.340416  -0.161196  -0.126245   0.000000
   24  O  2  Y    0.000000  -0.032503  -0.322218   0.403600   0.000000
   25  O  2  Z    0.296690   0.000000   0.000000   0.000000   0.472516
   26  O  2  X    0.000000  -0.182777  -0.075889  -0.106515   0.000000
   27  O  2  Y    0.000000  -0.002145  -0.159710   0.282771   0.000000
   28  O  2  Z    0.170785   0.000000   0.000000   0.000000   0.340012
   29  O  2 XX    0.000000   0.016291  -0.003219   0.012334   0.000000
   30  O  2 YY    0.000000  -0.009459   0.011784  -0.016926   0.000000
   31  O  2 ZZ    0.000000  -0.006832  -0.008565   0.004592   0.000000
   32  O  2 XY    0.000000   0.010085   0.009870  -0.009781   0.000000
   33  O  2 XZ   -0.016379   0.000000   0.000000   0.000000  -0.013389
   34  O  2 YZ   -0.015466   0.000000   0.000000   0.000000  -0.018467
   35  O  3  S    0.000000   0.060381  -0.075029  -0.000623   0.000000
   36  O  3  S    0.000000  -0.126855   0.155280  -0.003166   0.000000
   37  O  3  S    0.000000  -0.204533   0.274697  -0.003845   0.000000
   38  O  3  X    0.000000   0.340417  -0.161195   0.126247   0.000000
   39  O  3  Y    0.000000  -0.032503   0.322219   0.403600   0.000000
   40  O  3  Z    0.296691   0.000000   0.000000   0.000000  -0.472516
   41  O  3  X    0.000000   0.182779  -0.075888   0.106517   0.000000
   42  O  3  Y    0.000000  -0.002146   0.159710   0.282771   0.000000
   43  O  3  Z    0.170785   0.000000   0.000000   0.000000  -0.340012
   44  O  3 XX    0.000000   0.016291   0.003219   0.012334   0.000000
   45  O  3 YY    0.000000  -0.009459  -0.011784  -0.016926   0.000000
   46  O  3 ZZ    0.000000  -0.006833   0.008565   0.004592   0.000000
   47  O  3 XY    0.000000  -0.010085   0.009870   0.009781   0.000000
   48  O  3 XZ    0.016379   0.000000   0.000000   0.000000  -0.013389
   49  O  3 YZ   -0.015466   0.000000   0.000000   0.000000   0.018466

                     16         17         18         19         20
                   -0.2392    -0.1741    -0.0411     0.0513     0.1976
                     A          A          A          A          A   
    1  S  1  S   -0.000000   0.000000  -0.000000   0.025846   0.000000
    2  S  1  S    0.000000   0.000000   0.000001  -0.175511   0.000000
    3  S  1  S   -0.000002   0.000000  -0.000001   0.206406   0.000000
    4  S  1  S    0.000010   0.000000  -0.000007   0.951485   0.000000
    5  S  1  X   -0.015711   0.000000  -0.178626  -0.000002   0.000000
    6  S  1  Y   -0.000000   0.000000   0.000001  -0.092475   0.000000
    7  S  1  Z    0.000000  -0.221770   0.000000   0.000000   0.248957
    8  S  1  X    0.042623   0.000000   0.546627   0.000008   0.000000
    9  S  1  Y    0.000002   0.000000  -0.000003   0.301013   0.000000
   10  S  1  Z    0.000000   0.662449   0.000000   0.000000  -0.976572
   11  S  1  X    0.180738   0.000000   0.769119  -0.000001   0.000000
   12  S  1  Y    0.000006   0.000000  -0.000006   1.183453   0.000000
   13  S  1  Z    0.000000   0.352951   0.000000   0.000000   1.296191
   14  S  1 XX    0.000001   0.000000   0.000000  -0.073983   0.000000
   15  S  1 YY    0.000000   0.000000   0.000000  -0.176957   0.000000
   16  S  1 ZZ   -0.000001   0.000000  -0.000000   0.250940   0.000000
   17  S  1 XY   -0.115160   0.000000  -0.239893   0.000000   0.000000
   18  S  1 XZ    0.000000  -0.000000   0.000000   0.000000   0.000000
   19  S  1 YZ    0.000000  -0.113651   0.000000   0.000000  -0.099973
   20  O  2  S    0.015150   0.000000   0.036683   0.061726   0.000000
   21  O  2  S   -0.038204   0.000000  -0.071811  -0.093966   0.000000
   22  O  2  S   -0.083085   0.000000  -0.333333  -0.718735   0.000000
   23  O  2  X    0.464456   0.000000  -0.045579   0.165341   0.000000
   24  O  2  Y   -0.161204   0.000000   0.312877   0.109714   0.000000
   25  O  2  Z    0.000000  -0.363056   0.000000   0.000000   0.002024
   26  O  2  X    0.313679   0.000000  -0.081656   0.278000   0.000000
   27  O  2  Y   -0.127293   0.000000   0.283300   0.089834   0.000000
   28  O  2  Z    0.000000  -0.329151   0.000000   0.000000  -0.110472
   29  O  2 XX   -0.016364   0.000000   0.002256  -0.005861   0.000000
   30  O  2 YY    0.016488   0.000000   0.002711  -0.003923   0.000000
   31  O  2 ZZ   -0.000124   0.000000  -0.004967   0.009784   0.000000
   32  O  2 XY   -0.009648   0.000000   0.004998   0.004911   0.000000
   33  O  2 XZ    0.000000   0.005392   0.000000   0.000000   0.018723
   34  O  2 YZ    0.000000   0.000838   0.000000   0.000000   0.014084
   35  O  3  S   -0.015149   0.000000  -0.036683   0.061727   0.000000
   36  O  3  S    0.038206   0.000000   0.071810  -0.093970   0.000000
   37  O  3  S    0.083071   0.000000   0.333345  -0.718727   0.000000
   38  O  3  X    0.464454   0.000000  -0.045578  -0.165345   0.000000
   39  O  3  Y    0.161202   0.000000  -0.312878   0.109709   0.000000
   40  O  3  Z    0.000000  -0.363055   0.000000   0.000000   0.002024
   41  O  3  X    0.313674   0.000000  -0.081652  -0.277994   0.000000
   42  O  3  Y    0.127295   0.000000  -0.283302   0.089829   0.000000
   43  O  3  Z    0.000000  -0.329151   0.000000   0.000000  -0.110472
   44  O  3 XX    0.016363   0.000000  -0.002256  -0.005860   0.000000
   45  O  3 YY   -0.016488   0.000000  -0.002711  -0.003923   0.000000
   46  O  3 ZZ    0.000124   0.000000   0.004967   0.009783   0.000000
   47  O  3 XY   -0.009647   0.000000   0.004997  -0.004911   0.000000
   48  O  3 XZ    0.000000  -0.005392   0.000000   0.000000  -0.018723
   49  O  3 YZ    0.000000   0.000838   0.000000   0.000000   0.014084

                     21         22         23         24         25
                    0.2302     0.2714     0.3191     0.5311     0.5435
                     A          A          A          A          A   
    1  S  1  S   -0.049928  -0.000000  -0.049432   0.000000   0.000000
    2  S  1  S    0.367405   0.000002   0.359904   0.000000   0.000000
    3  S  1  S   -1.433446  -0.000008  -1.305742   0.000000   0.000000
    4  S  1  S    1.899454   0.000008   1.335027   0.000000   0.000000
    5  S  1  X   -0.000003   0.269612  -0.000000   0.000000   0.000000
    6  S  1  Y   -0.198376  -0.000002   0.219042   0.000000   0.000000
    7  S  1  Z    0.000000   0.000000   0.000000  -0.000000   0.019832
    8  S  1  X    0.000011  -1.034702   0.000002   0.000000   0.000000
    9  S  1  Y    0.804426   0.000006  -0.821360   0.000000   0.000000
   10  S  1  Z    0.000000   0.000000   0.000000   0.000001  -0.103425
   11  S  1  X   -0.000010   1.354008   0.000005   0.000000   0.000000
   12  S  1  Y   -0.421553  -0.000005   1.067561   0.000000   0.000000
   13  S  1  Z    0.000000   0.000000   0.000000  -0.000000   0.174796
   14  S  1 XX   -0.097702  -0.000002   0.212541   0.000000   0.000000
   15  S  1 YY   -0.051297  -0.000003   0.065952   0.000000   0.000000
   16  S  1 ZZ    0.149000   0.000005  -0.278493   0.000000   0.000000
   17  S  1 XY   -0.000000   0.252996   0.000005   0.000000   0.000000
   18  S  1 XZ    0.000000   0.000000   0.000000   0.940352   0.000003
   19  S  1 YZ    0.000000   0.000000   0.000000  -0.000003   0.909179
   20  O  2  S    0.025156   0.003220  -0.000060   0.000000   0.000000
   21  O  2  S   -0.058121   0.053736   0.062985   0.000000   0.000000
   22  O  2  S   -0.329015  -0.344393  -0.461102   0.000000   0.000000
   23  O  2  X    0.010737  -0.180965  -0.242570   0.000000   0.000000
   24  O  2  Y   -0.012812  -0.132529  -0.209457   0.000000   0.000000
   25  O  2  Z    0.000000   0.000000   0.000000  -0.291929  -0.334067
   26  O  2  X    0.132141  -0.110632  -0.039536   0.000000   0.000000
   27  O  2  Y    0.141547   0.006359  -0.078121   0.000000   0.000000
   28  O  2  Z    0.000000   0.000000   0.000000   0.029931   0.051828
   29  O  2 XX    0.003343   0.007319  -0.031029   0.000000   0.000000
   30  O  2 YY   -0.015997  -0.025983   0.008840   0.000000   0.000000
   31  O  2 ZZ    0.012654   0.018664   0.022189   0.000000   0.000000
   32  O  2 XY   -0.008991  -0.026192  -0.043573   0.000000   0.000000
   33  O  2 XZ    0.000000   0.000000   0.000000  -0.012349  -0.049248
   34  O  2 YZ    0.000000   0.000000   0.000000  -0.049392  -0.011270
   35  O  3  S    0.025156  -0.003220  -0.000060   0.000000   0.000000
   36  O  3  S   -0.058123  -0.053742   0.062980   0.000000   0.000000
   37  O  3  S   -0.329014   0.344397  -0.461087   0.000000   0.000000
   38  O  3  X   -0.010737  -0.180968   0.242566   0.000000   0.000000
   39  O  3  Y   -0.012815   0.132532  -0.209456   0.000000   0.000000
   40  O  3  Z    0.000000   0.000000   0.000000   0.291932  -0.334065
   41  O  3  X   -0.132135  -0.110631   0.039545   0.000000   0.000000
   42  O  3  Y    0.141543  -0.006361  -0.078129   0.000000   0.000000
   43  O  3  Z    0.000000   0.000000   0.000000  -0.029932   0.051827
   44  O  3 XX    0.003343  -0.007318  -0.031028   0.000000   0.000000
   45  O  3 YY   -0.015997   0.025982   0.008840   0.000000   0.000000
   46  O  3 ZZ    0.012654  -0.018664   0.022188   0.000000   0.000000
   47  O  3 XY    0.008991  -0.026192   0.043573   0.000000   0.000000
   48  O  3 XZ    0.000000   0.000000   0.000000  -0.012349   0.049248
   49  O  3 YZ    0.000000   0.000000   0.000000   0.049392  -0.011270

                     26         27         28         29         30
                    0.5887     0.6306     0.6789     0.7761     0.8210
                     A          A          A          A          A   
    1  S  1  S    0.001833   0.022504  -0.000000   0.002265   0.000000
    2  S  1  S   -0.017091  -0.175896   0.000001  -0.018636   0.000000
    3  S  1  S    0.087696   0.673155  -0.000004   0.123259   0.000000
    4  S  1  S    0.282864   0.861054  -0.000016  -0.132123   0.000000
    5  S  1  X   -0.000000  -0.000002  -0.156143  -0.000000   0.000000
    6  S  1  Y    0.000574  -0.157907   0.000001  -0.002118   0.000000
    7  S  1  Z    0.000000   0.000000   0.000000   0.000000   0.000000
    8  S  1  X    0.000002   0.000012   0.912287   0.000002   0.000000
    9  S  1  Y    0.043409   0.837404  -0.000009  -0.010546   0.000000
   10  S  1  Z    0.000000   0.000000   0.000000   0.000000  -0.000003
   11  S  1  X    0.000001   0.000002   0.018296  -0.000001   0.000000
   12  S  1  Y    0.281094   0.069511  -0.000003  -0.412675   0.000000
   13  S  1  Z    0.000000   0.000000   0.000000   0.000000  -0.000027
   14  S  1 XX   -0.748860   0.520304  -0.000005   0.312128   0.000000
   15  S  1 YY    0.831792   0.211776  -0.000002  -0.396229   0.000000
   16  S  1 ZZ   -0.082932  -0.732081   0.000008   0.084101   0.000000
   17  S  1 XY    0.000002   0.000009   0.601761   0.000001   0.000000
   18  S  1 XZ    0.000000   0.000000   0.000000   0.000000   0.377036
   19  S  1 YZ    0.000000   0.000000   0.000000   0.000000  -0.000021
   20  O  2  S    0.013156   0.068042   0.071925   0.004197   0.000000
   21  O  2  S   -0.018498  -0.204341  -0.191791  -0.024657   0.000000
   22  O  2  S   -0.188900  -0.500244  -0.494600   0.110850   0.000000
   23  O  2  X    0.147800  -0.136001  -0.191031   0.393374   0.000000
   24  O  2  Y   -0.308679  -0.067491  -0.221624  -0.433051   0.000000
   25  O  2  Z    0.000000   0.000000   0.000000   0.000000   0.585624
   26  O  2  X    0.177861   0.636886   0.858790  -0.489693   0.000000
   27  O  2  Y    0.131362   0.674461   0.816512   0.584733   0.000000
   28  O  2  Z    0.000000   0.000000   0.000000   0.000000  -0.846771
   29  O  2 XX    0.054255   0.009027   0.000117  -0.028350   0.000000
   30  O  2 YY   -0.057884   0.019547   0.004638   0.041840   0.000000
   31  O  2 ZZ    0.003629  -0.028574  -0.004755  -0.013490   0.000000
   32  O  2 XY   -0.000967   0.008521   0.008790  -0.008472   0.000000
   33  O  2 XZ    0.000000   0.000000   0.000000   0.000000  -0.046267
   34  O  2 YZ    0.000000   0.000000   0.000000   0.000000  -0.032461
   35  O  3  S    0.013156   0.068041  -0.071927   0.004196   0.000000
   36  O  3  S   -0.018498  -0.204342   0.191799  -0.024653   0.000000
   37  O  3  S   -0.188896  -0.500222   0.494611   0.110849   0.000000
   38  O  3  X   -0.147803   0.135991  -0.191036  -0.393374   0.000000
   39  O  3  Y   -0.308679  -0.067488   0.221633  -0.433050   0.000000
   40  O  3  Z    0.000000   0.000000   0.000000   0.000000  -0.585676
   41  O  3  X   -0.177855  -0.636856   0.858806   0.489696   0.000000
   42  O  3  Y    0.131359   0.674441  -0.816534   0.584729   0.000000
   43  O  3  Z    0.000000   0.000000   0.000000   0.000000   0.846853
   44  O  3 XX    0.054255   0.009027  -0.000117  -0.028350   0.000000
   45  O  3 YY   -0.057884   0.019547  -0.004638   0.041840   0.000000
   46  O  3 ZZ    0.003629  -0.028574   0.004755  -0.013490   0.000000
   47  O  3 XY    0.000967  -0.008522   0.008790   0.008473   0.000000
   48  O  3 XZ    0.000000   0.000000   0.000000   0.000000  -0.046270
   49  O  3 YZ    0.000000   0.000000   0.000000   0.000000   0.032464

                     31         32         33         34         35
                    0.8243     0.9243     0.9349     1.1094     1.4174
                     A          A          A          A          A   
    1  S  1  S    0.000000  -0.001630  -0.000000   0.000000  -0.001201
    2  S  1  S    0.000000  -0.009432  -0.000000  -0.000000   0.018977
    3  S  1  S    0.000000   0.538910   0.000012   0.000001   0.119880
    4  S  1  S    0.000000  -0.317573  -0.000004  -0.000007  -2.022804
    5  S  1  X    0.000000   0.000000  -0.008527  -0.107475   0.000007
    6  S  1  Y    0.000000   0.064447   0.000001   0.000000   0.086014
    7  S  1  Z    0.003634   0.000000   0.000000   0.000000   0.000000
    8  S  1  X    0.000000   0.000000   0.002218   0.347567  -0.000060
    9  S  1  Y    0.000000  -0.049626  -0.000001  -0.000002  -0.593509
   10  S  1  Z   -0.058930   0.000000   0.000000   0.000000   0.000000
   11  S  1  X    0.000000   0.000014  -0.651827   0.340531  -0.000061
   12  S  1  Y    0.000000  -0.229684  -0.000004  -0.000003  -0.885103
   13  S  1  Z   -0.595747   0.000000   0.000000   0.000000   0.000000
   14  S  1 XX    0.000000  -0.287356  -0.000006  -0.000000  -0.133255
   15  S  1 YY    0.000000  -0.391666  -0.000009  -0.000001  -0.215022
   16  S  1 ZZ    0.000000   0.679022   0.000015   0.000001   0.348277
   17  S  1 XY    0.000000   0.000000   0.018015   1.046262  -0.000022
   18  S  1 XZ   -0.000017   0.000000   0.000000   0.000000   0.000000
   19  S  1 YZ   -0.452232   0.000000   0.000000   0.000000   0.000000
   20  O  2  S    0.000000  -0.034297   0.015003   0.033441   0.069347
   21  O  2  S    0.000000   0.215695  -0.120377  -0.059618  -1.222086
   22  O  2  S    0.000000   0.076994   0.203326  -0.482117   2.257832
   23  O  2  X    0.000000  -0.500515  -0.431595   0.418182  -0.085691
   24  O  2  Y    0.000000  -0.364694   0.451753   0.440197  -0.039002
   25  O  2  Z   -0.567380   0.000000   0.000000   0.000000   0.000000
   26  O  2  X    0.000000   0.388131   0.809092  -0.178658  -0.337431
   27  O  2  Y    0.000000   0.405637  -0.719378  -0.060813  -0.360302
   28  O  2  Z    0.896290   0.000000   0.000000   0.000000   0.000000
   29  O  2 XX    0.000000  -0.042582   0.057023  -0.036168   0.060494
   30  O  2 YY    0.000000   0.028300  -0.033778   0.024965  -0.047677
   31  O  2 ZZ    0.000000   0.014282  -0.023245   0.011203  -0.012816
   32  O  2 XY    0.000000   0.045603  -0.023764   0.034684  -0.154827
   33  O  2 XZ    0.027575   0.000000   0.000000   0.000000   0.000000
   34  O  2 YZ    0.040584   0.000000   0.000000   0.000000   0.000000
   35  O  3  S    0.000000  -0.034297  -0.015006  -0.033440   0.069330
   36  O  3  S    0.000000   0.215695   0.120399   0.059609  -1.221804
   37  O  3  S    0.000000   0.076998  -0.203337   0.482131   2.257412
   38  O  3  X    0.000000   0.500533  -0.431574   0.418182   0.085703
   39  O  3  Y    0.000000  -0.364673  -0.451768  -0.440198  -0.039004
   40  O  3  Z   -0.567326   0.000000   0.000000   0.000000   0.000000
   41  O  3  X    0.000000  -0.388165   0.809076  -0.178656   0.337319
   42  O  3  Y    0.000000   0.405604   0.719395   0.060811  -0.360217
   43  O  3  Z    0.896212   0.000000   0.000000   0.000000   0.000000
   44  O  3 XX    0.000000  -0.042580  -0.057025   0.036169   0.060525
   45  O  3 YY    0.000000   0.028298   0.033780  -0.024966  -0.047675
   46  O  3 ZZ    0.000000   0.014281   0.023246  -0.011203  -0.012850
   47  O  3 XY    0.000000  -0.045601  -0.023766   0.034685   0.154809
   48  O  3 XZ   -0.027571   0.000000   0.000000   0.000000   0.000000
   49  O  3 YZ    0.040581   0.000000   0.000000   0.000000   0.000000

                     36         37         38         39         40
                    1.4375     2.0680     2.0816     2.0868     2.1154
                     A          A          A          A          A   
    1  S  1  S   -0.000000   0.000000   0.002176  -0.000000   0.000000
    2  S  1  S    0.000002   0.000000  -0.015264   0.000000   0.000000
    3  S  1  S    0.000018   0.000000   0.062810  -0.000001   0.000000
    4  S  1  S   -0.000237   0.000000  -0.389119   0.000006   0.000000
    5  S  1  X   -0.060981   0.000000   0.000000   0.025452   0.000000
    6  S  1  Y    0.000010   0.000000  -0.004024   0.000000   0.000000
    7  S  1  Z    0.000000  -0.008304   0.000000   0.000000   0.000000
    8  S  1  X    0.524538   0.000000  -0.000002  -0.087363   0.000000
    9  S  1  Y   -0.000068   0.000000  -0.030113   0.000000   0.000000
   10  S  1  Z    0.000000   0.033770   0.000000   0.000000  -0.000000
   11  S  1  X    0.478474   0.000000  -0.000000  -0.021059   0.000000
   12  S  1  Y   -0.000105   0.000000  -0.208000   0.000003   0.000000
   13  S  1  Z    0.000000   0.033615   0.000000   0.000000  -0.000000
   14  S  1 XX   -0.000016   0.000000  -0.009756   0.000000   0.000000
   15  S  1 YY   -0.000026   0.000000   0.100330  -0.000002   0.000000
   16  S  1 ZZ    0.000042   0.000000  -0.090574   0.000002   0.000000
   17  S  1 XY    0.164607   0.000000   0.000001   0.068500   0.000000
   18  S  1 XZ    0.000000  -0.000000   0.000000   0.000000  -0.015902
   19  S  1 YZ    0.000000  -0.041601   0.000000   0.000000   0.000000
   20  O  2  S   -0.075124   0.000000   0.014761   0.001607   0.000000
   21  O  2  S    1.216694   0.000000  -0.244618  -0.030489   0.000000
   22  O  2  S   -1.800541   0.000000   0.408462   0.041668   0.000000
   23  O  2  X   -0.070121   0.000000   0.044808  -0.014162   0.000000
   24  O  2  Y   -0.011519   0.000000   0.009552   0.012477   0.000000
   25  O  2  Z    0.000000   0.035734   0.000000   0.000000   0.040292
   26  O  2  X    0.525401   0.000000  -0.102300   0.019080   0.000000
   27  O  2  Y    0.352667   0.000000  -0.050644  -0.016209   0.000000
   28  O  2  Z    0.000000  -0.056537   0.000000   0.000000  -0.062839
   29  O  2 XX    0.158727   0.000000  -0.425024  -0.124040   0.000000
   30  O  2 YY    0.002193   0.000000  -0.201512   0.590373   0.000000
   31  O  2 ZZ   -0.160920   0.000000   0.626536  -0.466334   0.000000
   32  O  2 XY    0.079575   0.000000   0.287868  -0.342707   0.000000
   33  O  2 XZ    0.000000  -0.445604   0.000000   0.000000   0.580206
   34  O  2 YZ    0.000000   0.548132   0.000000   0.000000  -0.407884
   35  O  3  S    0.075139   0.000000   0.014761  -0.001608   0.000000
   36  O  3  S   -1.216969   0.000000  -0.244616   0.030497   0.000000
   37  O  3  S    1.801059   0.000000   0.408461  -0.041681   0.000000
   38  O  3  X   -0.070102   0.000000  -0.044808  -0.014160   0.000000
   39  O  3  Y    0.011509   0.000000   0.009551  -0.012477   0.000000
   40  O  3  Z    0.000000   0.035734   0.000000   0.000000  -0.040293
   41  O  3  X    0.525480   0.000000   0.102300   0.019077   0.000000
   42  O  3  Y   -0.352749   0.000000  -0.050643   0.016211   0.000000
   43  O  3  Z    0.000000  -0.056537   0.000000   0.000000   0.062839
   44  O  3 XX   -0.158712   0.000000  -0.425023   0.124055   0.000000
   45  O  3 YY   -0.002204   0.000000  -0.201532  -0.590367   0.000000
   46  O  3 ZZ    0.160916   0.000000   0.626555   0.466312   0.000000
   47  O  3 XY    0.079612   0.000000  -0.287880  -0.342697   0.000000
   48  O  3 XZ    0.000000   0.445608   0.000000   0.000000   0.580202
   49  O  3 YZ    0.000000   0.548135   0.000000   0.000000   0.407880

                     41         42         43         44         45
                    2.2354     2.3203     2.3697     2.3900     2.8124
                     A          A          A          A          A   
    1  S  1  S    0.000000   0.000000   0.000000  -0.002978  -0.038102
    2  S  1  S    0.000000   0.000000  -0.000002   0.028994   0.331817
    3  S  1  S    0.000000   0.000000   0.000007  -0.147311  -1.146712
    4  S  1  S    0.000000   0.000000  -0.000005  -0.136970  -0.795952
    5  S  1  X    0.000000   0.000000   0.044223   0.000001   0.000003
    6  S  1  Y    0.000000   0.000000   0.000000  -0.040771   0.181117
    7  S  1  Z   -0.000000  -0.077749   0.000000   0.000000   0.000000
    8  S  1  X    0.000000   0.000000  -0.101337  -0.000003  -0.000017
    9  S  1  Y    0.000000   0.000000   0.000001   0.085585  -1.140156
   10  S  1  Z    0.000001   0.301249   0.000000   0.000000   0.000000
   11  S  1  X    0.000000   0.000000  -0.060191  -0.000000  -0.000003
   12  S  1  Y    0.000000   0.000000  -0.000004   0.014048  -0.129352
   13  S  1  Z    0.000000   0.074638   0.000000   0.000000   0.000000
   14  S  1 XX    0.000000   0.000000   0.000006  -0.507221  -0.170852
   15  S  1 YY    0.000000   0.000000  -0.000006   0.477187  -0.240469
   16  S  1 ZZ    0.000000   0.000000  -0.000000   0.030033   0.411320
   17  S  1 XY    0.000000   0.000000  -0.095104  -0.000002  -0.000012
   18  S  1 XZ   -0.411544   0.000001   0.000000   0.000000   0.000000
   19  S  1 YZ    0.000001   0.423065   0.000000   0.000000   0.000000
   20  O  2  S    0.000000   0.000000  -0.018323   0.010058  -0.001554
   21  O  2  S    0.000000   0.000000   0.300241  -0.166640  -0.464437
   22  O  2  S    0.000000   0.000000  -0.346095   0.225698   1.216514
   23  O  2  X    0.000000   0.000000  -0.167997   0.040063  -0.031526
   24  O  2  Y    0.000000   0.000000   0.021038   0.044045  -0.022441
   25  O  2  Z   -0.056575   0.035671   0.000000   0.000000   0.000000
   26  O  2  X    0.000000   0.000000   0.378702   0.002481  -0.516616
   27  O  2  Y    0.000000   0.000000  -0.097005  -0.206848  -0.515620
   28  O  2  Z    0.158734  -0.174765   0.000000   0.000000   0.000000
   29  O  2 XX    0.000000   0.000000  -0.674215  -0.572592   0.243393
   30  O  2 YY    0.000000   0.000000   0.359190   0.717788   0.127002
   31  O  2 ZZ    0.000000   0.000000   0.315025  -0.145196  -0.370395
   32  O  2 XY    0.000000   0.000000   0.262893  -0.017097   0.748967
   33  O  2 XZ   -0.425963   0.580528   0.000000   0.000000   0.000000
   34  O  2 YZ   -0.600622   0.475737   0.000000   0.000000   0.000000
   35  O  3  S    0.000000   0.000000   0.018323   0.010059  -0.001554
   36  O  3  S    0.000000   0.000000  -0.300240  -0.166647  -0.464426
   37  O  3  S    0.000000   0.000000   0.346097   0.225704   1.216480
   38  O  3  X    0.000000   0.000000  -0.167996  -0.040067   0.031523
   39  O  3  Y    0.000000   0.000000  -0.021039   0.044045  -0.022439
   40  O  3  Z    0.056575   0.035671   0.000000   0.000000   0.000000
   41  O  3  X    0.000000   0.000000   0.378702  -0.002473   0.516603
   42  O  3  Y    0.000000   0.000000   0.097011  -0.206844  -0.515603
   43  O  3  Z   -0.158734  -0.174765   0.000000   0.000000   0.000000
   44  O  3 XX    0.000000   0.000000   0.674225  -0.572577   0.243391
   45  O  3 YY    0.000000   0.000000  -0.359208   0.717778   0.126992
   46  O  3 ZZ    0.000000   0.000000  -0.315017  -0.145202  -0.370384
   47  O  3 XY    0.000000   0.000000   0.262898   0.017105  -0.748947
   48  O  3 XZ   -0.425965  -0.580526   0.000000   0.000000   0.000000
   49  O  3 YZ    0.600624   0.475735   0.000000   0.000000   0.000000

                     46
                    2.8620
                     A   
    1  S  1  S   -0.000000
    2  S  1  S    0.000004
    3  S  1  S   -0.000013
    4  S  1  S   -0.000017
    5  S  1  X   -0.214791
    6  S  1  Y    0.000003
    7  S  1  Z    0.000000
    8  S  1  X    1.347516
    9  S  1  Y   -0.000016
   10  S  1  Z    0.000000
   11  S  1  X    0.134522
   12  S  1  Y   -0.000005
   13  S  1  Z    0.000000
   14  S  1 XX   -0.000004
   15  S  1 YY   -0.000003
   16  S  1 ZZ    0.000007
   17  S  1 XY    0.851586
   18  S  1 XZ    0.000000
   19  S  1 YZ    0.000000
   20  O  2  S    0.006334
   21  O  2  S    0.569632
   22  O  2  S   -1.475058
   23  O  2  X    0.037944
   24  O  2  Y    0.078063
   25  O  2  Z    0.000000
   26  O  2  X    0.708413
   27  O  2  Y    0.610554
   28  O  2  Z    0.000000
   29  O  2 XX   -0.241963
   30  O  2 YY   -0.253604
   31  O  2 ZZ    0.495567
   32  O  2 XY   -0.717667
   33  O  2 XZ    0.000000
   34  O  2 YZ    0.000000
   35  O  3  S   -0.006334
   36  O  3  S   -0.569648
   37  O  3  S    1.475101
   38  O  3  X    0.037945
   39  O  3  Y   -0.078064
   40  O  3  Z    0.000000
   41  O  3  X    0.708428
   42  O  3  Y   -0.610569
   43  O  3  Z    0.000000
   44  O  3 XX    0.241967
   45  O  3 YY    0.253609
   46  O  3 ZZ   -0.495576
   47  O  3 XY   -0.717686
   48  O  3 XZ    0.000000
   49  O  3 YZ    0.000000
 ...... END OF RHF CALCULATION ......
 STEP CPU TIME =     2.63 TOTAL CPU TIME =          2.8 (      0.0 MIN)
 TOTAL WALL CLOCK TIME=          2.8 SECONDS, CPU UTILIZATION IS    98.24%

     ---------------------------------------------------------------------
     PROPERTIES FOR THE PBE      DFT FUNCTIONAL (RHF  TYPE) DENSITY MATRIX
     ---------------------------------------------------------------------

          -----------------
          ENERGY COMPONENTS
          -----------------

         WAVEFUNCTION NORMALIZATION =       1.0000000000

                ONE ELECTRON ENERGY =    -974.1194326744
                TWO ELECTRON ENERGY =     315.9929816349
           NUCLEAR REPULSION ENERGY =     109.9428995684
                                      ------------------
                       TOTAL ENERGY =    -548.1835514711

 ELECTRON-ELECTRON POTENTIAL ENERGY =     315.9929816349
  NUCLEUS-ELECTRON POTENTIAL ENERGY =   -1522.0194077458
   NUCLEUS-NUCLEUS POTENTIAL ENERGY =     109.9428995684
                                      ------------------
             TOTAL POTENTIAL ENERGY =   -1096.0835265426
               TOTAL KINETIC ENERGY =     547.8999750715
                 VIRIAL RATIO (V/T) =       2.0005175697

          ---------------------------------------
          MULLIKEN AND LOWDIN POPULATION ANALYSES
          ---------------------------------------

     ATOMIC MULLIKEN POPULATION IN EACH MOLECULAR ORBITAL

                      1          2          3          4          5

                  2.000000   2.000000   2.000000   2.000000   2.000000

    1             1.999922   0.000449   0.001613   2.000736   2.000035
    2             0.000039   0.945591   1.053378  -0.000368  -0.000017
    3             0.000039   1.053960   0.945009  -0.000368  -0.000017

                      6          7          8          9         10

                  2.000000   2.000000   2.000000   2.000000   2.000000

    1             2.000208   2.000169   0.760664   0.415153   1.246777
    2            -0.000104  -0.000085   0.619662   0.792430   0.376610
    3            -0.000104  -0.000085   0.619674   0.792417   0.376613

                     11         12         13         14         15

                  2.000000   2.000000   2.000000   2.000000   2.000000

    1             1.062989   0.665762   0.500041   0.438141   0.087114
    2             0.468504   0.667116   0.749980   0.780928   0.956444
    3             0.468507   0.667122   0.749979   0.780931   0.956442

                     16

                  2.000000

    1             0.210903
    2             0.894554
    3             0.894544

               ----- POPULATIONS IN EACH AO -----
                             MULLIKEN      LOWDIN
              1  S  1  S      1.99980     1.99923
              2  S  1  S      1.99195     1.88164
              3  S  1  S      1.30208     0.64820
              4  S  1  S      0.54733     0.47299
              5  S  1  X      1.99403     1.95917
              6  S  1  Y      1.99514     1.96626
              7  S  1  Z      1.99375     1.96046
              8  S  1  X      0.84465     0.70360
              9  S  1  Y      1.04863     0.92666
             10  S  1  Z      0.87270     0.76642
             11  S  1  X      0.12945     0.24149
             12  S  1  Y      0.06760     0.23565
             13  S  1  Z      0.16978     0.27603
             14  S  1 XX      0.03158     0.30637
             15  S  1 YY      0.12968     0.31162
             16  S  1 ZZ      0.15862     0.26284
             17  S  1 XY      0.08711     0.18179
             18  S  1 XZ      0.02680     0.10515
             19  S  1 YZ      0.00000     0.02556
             20  O  2  S      1.99548     1.97255
             21  O  2  S      0.94512     0.68814
             22  O  2  S      0.90281     0.51761
             23  O  2  X      1.07508     1.04340
             24  O  2  Y      0.92802     0.89840
             25  O  2  Z      0.86307     0.82978
             26  O  2  X      0.52023     0.59977
             27  O  2  Y      0.49836     0.61066
             28  O  2  Z      0.55465     0.59269
             29  O  2 XX      0.00228     0.20003
             30  O  2 YY      0.00499     0.20305
             31  O  2 ZZ      0.00736     0.20240
             32  O  2 XY      0.00332     0.01522
             33  O  2 XZ      0.00389     0.00534
             34  O  2 YZ      0.00000     0.00538
             35  O  3  S      1.99548     1.97255
             36  O  3  S      0.94512     0.68814
             37  O  3  S      0.90281     0.51761
             38  O  3  X      1.07508     1.04340
             39  O  3  Y      0.92802     0.89840
             40  O  3  Z      0.86308     0.82978
             41  O  3  X      0.52023     0.59977
             42  O  3  Y      0.49836     0.61066
             43  O  3  Z      0.55465     0.59269
             44  O  3 XX      0.00228     0.20003
             45  O  3 YY      0.00499     0.20305
             46  O  3 ZZ      0.00736     0.20240
             47  O  3 XY      0.00332     0.01522
             48  O  3 XZ      0.00389     0.00534
             49  O  3 YZ      0.00000     0.00538

          ----- MULLIKEN ATOMIC OVERLAP POPULATIONS -----
          (OFF-DIAGONAL ELEMENTS NEED TO BE MULTIPLIED BY 2)

             1           2           3

    1   14.5508017
    2    0.4199261   8.0742352
    3    0.4199469  -0.1894976   8.0742124

          TOTAL MULLIKEN AND LOWDIN ATOMIC POPULATIONS
       ATOM         MULL.POP.    CHARGE          LOW.POP.     CHARGE
    1 S            15.390675    0.609325        15.231126    0.768874
    2 O             8.304664   -0.304664         8.384438   -0.384438
    3 O             8.304662   -0.304662         8.384436   -0.384436

          MULLIKEN SPHERICAL HARMONIC POPULATIONS
       ATOM           S       P       D      F      G      H      I    TOTAL
    1 S             5.84    9.12    0.43   0.00   0.00   0.00   0.00   15.39
    2 O             3.84    4.44    0.02   0.00   0.00   0.00   0.00    8.30
    3 O             3.84    4.44    0.02   0.00   0.00   0.00   0.00    8.30

          -------------------------------
          BOND ORDER AND VALENCE ANALYSIS     BOND ORDER THRESHOLD=0.050
          -------------------------------

                   BOND                       BOND                       BOND
  ATOM PAIR DIST  ORDER      ATOM PAIR DIST  ORDER      ATOM PAIR DIST  ORDER
    1   2  1.450  1.876        1   3  1.450  1.876        2   3  2.051  0.236

                       TOTAL       BONDED        FREE
      ATOM            VALENCE     VALENCE     VALENCE
    1 S                 3.751       3.751       0.000
    2 O                 2.112       2.112      -0.000
    3 O                 2.112       2.112       0.000

          ---------------------
          ELECTROSTATIC MOMENTS
          ---------------------

 POINT   1           X           Y           Z (BOHR)    CHARGE
                -0.000000   -0.000000    0.000000       -0.00 (A.U.)
         DX          DY          DZ         /D/  (DEBYE)
    -0.000010   -2.876534    0.000000    2.876534
 ...... END OF PROPERTY EVALUATION ......
 STEP CPU TIME =     0.00 TOTAL CPU TIME =          2.8 (      0.0 MIN)
 TOTAL WALL CLOCK TIME=          2.8 SECONDS, CPU UTILIZATION IS    98.24%
                580000  WORDS OF DYNAMIC MEMORY USED
 EXECUTION OF GAMESS TERMINATED NORMALLY Sun Sep 29 10:46:41 2019
 DDI: 263640 bytes (0.3 MB / 0 MWords) used by master data server.

 ----------------------------------------
 CPU timing information for all processes
 ========================================
 0: 2.717 + 0.88 = 2.806
 ----------------------------------------
 ddikick.x: exited gracefully.
----- accounting info -----
Files used on the master node crcfe02.crc.nd.edu were:
-rw-r--r-- 1 cdrisko campus     207 Sep 29 10:46 /afs/crc.nd.edu/user/c/cdrisko/SO2.F05
-rw-r--r-- 1 cdrisko campus   37566 Sep 29 10:46 /afs/crc.nd.edu/user/c/cdrisko/SO2.F07
-rw-r--r-- 1 cdrisko campus 4320384 Sep 29 10:46 /afs/crc.nd.edu/user/c/cdrisko/SO2.F08
-rw-r--r-- 1 cdrisko campus 1766880 Sep 29 10:46 /afs/crc.nd.edu/user/c/cdrisko/SO2.F10
Sun Sep 29 10:46:44 EDT 2019
0.430u 0.253s 0:06.50 10.4%	0+0k 0+24io 0pf+0w
