   4   4   0   0
  0.1176147E+02  0.3610000E-09  0.3610000E-09  0.3610000E-09  0.5000000E-15
  1.000000000000000E-004
  CAR 
 unknown system                          
     46.29448712     -4.03527991  301      7.63332926      1.00000000
     -4.035  0.0000E+00  0.0000E+00
     -3.868  0.0000E+00  0.0000E+00
     -3.700  0.0000E+00  0.0000E+00
     -3.532  0.0000E+00  0.0000E+00
     -3.364  0.0000E+00  0.0000E+00
     -3.196  0.0000E+00  0.0000E+00
     -3.029  0.0000E+00  0.0000E+00
     -2.861  0.0000E+00  0.0000E+00
     -2.693 -0.3518E-40 -0.5901E-41
     -2.525 -0.1043E-27 -0.1749E-28
     -2.358 -0.1059E-17 -0.1776E-18
     -2.190 -0.3392E-10 -0.5690E-11
     -2.022 -0.3276E-05 -0.5496E-06
     -1.854 -0.6129E-03 -0.1034E-03
     -1.687  0.1562E-01  0.2517E-02
     -1.519  0.1288E+00  0.2413E-01
     -1.351  0.1178E+00  0.4389E-01
     -1.183  0.2879E+00  0.9219E-01
     -1.015  0.1852E+00  0.1233E+00
     -0.848  0.2562E+00  0.1662E+00
     -0.680  0.4066E+00  0.2345E+00
     -0.512  0.2380E+00  0.2744E+00
     -0.344  0.5358E+00  0.3643E+00
     -0.177  0.1268E+00  0.3856E+00
     -0.009  0.6149E+00  0.4887E+00
      0.159  0.4421E+00  0.5629E+00
      0.327  0.6559E+00  0.6729E+00
      0.494  0.1947E+00  0.7056E+00
      0.662  0.5944E+00  0.8053E+00
      0.830  0.7462E+00  0.9305E+00
      0.998  0.7911E+00  0.1063E+01
      1.165  0.3386E+00  0.1120E+01
      1.333  0.8232E+00  0.1258E+01
      1.501  0.8749E+00  0.1405E+01
      1.669  0.8450E+00  0.1547E+01
      1.837  0.9094E+00  0.1699E+01
      2.004  0.1178E+01  0.1897E+01
      2.172  0.1230E+01  0.2103E+01
      2.340  0.1205E+01  0.2305E+01
      2.508  0.2231E+01  0.2680E+01
      2.675  0.2808E+01  0.3151E+01
      2.843  0.4038E+01  0.3828E+01
      3.011  0.4939E+01  0.4657E+01
      3.179  0.5094E+01  0.5511E+01
      3.346  0.6536E+01  0.6608E+01
      3.514  0.9127E+01  0.8139E+01
      3.682  0.9203E+01  0.9683E+01
      3.850  0.8248E+01  0.1107E+02
      4.017  0.8357E+01  0.1247E+02
      4.185  0.9247E+01  0.1402E+02
      4.353  0.1264E+02  0.1614E+02
      4.521  0.1289E+02  0.1830E+02
      4.689  0.1614E+02  0.2101E+02
      4.856  0.1689E+02  0.2384E+02
      5.024  0.1176E+02  0.2582E+02
      5.192  0.1025E+02  0.2754E+02
      5.360  0.1404E+02  0.2989E+02
      5.527  0.1462E+02  0.3235E+02
      5.695  0.1262E+02  0.3446E+02
      5.863  0.1392E+02  0.3680E+02
      6.031  0.2174E+02  0.4044E+02
      6.198  0.9169E+01  0.4198E+02
      6.366  0.1464E+01  0.4223E+02
      6.534  0.1893E+01  0.4254E+02
      6.702  0.6812E+00  0.4266E+02
      6.870  0.2308E+01  0.4305E+02
      7.037  0.9879E+00  0.4321E+02
      7.205  0.1079E+01  0.4339E+02
      7.373  0.1823E+01  0.4370E+02
      7.541  0.9168E+00  0.4385E+02
      7.708  0.1270E+01  0.4407E+02
      7.876  0.1002E+01  0.4423E+02
      8.044  0.1054E+01  0.4441E+02
      8.212  0.1842E+01  0.4472E+02
      8.379  0.8856E+00  0.4487E+02
      8.547  0.8712E+00  0.4501E+02
      8.715  0.6621E+00  0.4513E+02
      8.883  0.9135E+00  0.4528E+02
      9.050  0.1890E+01  0.4560E+02
      9.218  0.6791E+00  0.4571E+02
      9.386  0.1325E+01  0.4593E+02
      9.554  0.1008E+01  0.4610E+02
      9.722  0.4754E+00  0.4618E+02
      9.889  0.7722E+00  0.4631E+02
     10.057  0.5637E+00  0.4640E+02
     10.225  0.1546E+01  0.4666E+02
     10.393  0.1404E+01  0.4690E+02
     10.560  0.2137E+00  0.4694E+02
     10.728  0.3518E+00  0.4699E+02
     10.896  0.1272E+01  0.4721E+02
     11.064  0.8330E-01  0.4722E+02
     11.231  0.5316E+00  0.4731E+02
     11.399  0.1080E+01  0.4749E+02
     11.567  0.5480E+00  0.4758E+02
     11.735  0.1790E+01  0.4788E+02
     11.902  0.7293E+00  0.4801E+02
     12.070  0.7671E+00  0.4814E+02
     12.238  0.1360E+01  0.4836E+02
     12.406  0.1613E+01  0.4863E+02
     12.574  0.6574E+00  0.4874E+02
     12.741  0.1366E+01  0.4897E+02
     12.909  0.9661E+00  0.4914E+02
     13.077  0.1171E+01  0.4933E+02
     13.245  0.7622E+00  0.4946E+02
     13.412  0.1710E+01  0.4975E+02
     13.580  0.1297E+01  0.4996E+02
     13.748  0.3368E+00  0.5002E+02
     13.916  0.8987E+00  0.5017E+02
     14.083  0.9124E+00  0.5033E+02
     14.251  0.1032E+01  0.5050E+02
     14.419  0.8540E+00  0.5064E+02
     14.587  0.1152E+01  0.5083E+02
     14.754  0.1354E+01  0.5106E+02
     14.922  0.5044E+00  0.5115E+02
     15.090  0.1306E+01  0.5137E+02
     15.258  0.1434E+01  0.5161E+02
     15.426  0.7021E+00  0.5172E+02
     15.593  0.1083E+01  0.5191E+02
     15.761  0.1670E+01  0.5219E+02
     15.929  0.1305E+01  0.5240E+02
     16.097  0.1908E+01  0.5272E+02
     16.264  0.1047E+01  0.5290E+02
     16.432  0.2096E+01  0.5325E+02
     16.600  0.1304E+01  0.5347E+02
     16.768  0.1129E+01  0.5366E+02
     16.935  0.1223E+01  0.5387E+02
     17.103  0.7985E+00  0.5400E+02
     17.271  0.1631E+01  0.5427E+02
     17.439  0.1424E+01  0.5451E+02
     17.607  0.1550E+01  0.5477E+02
     17.774  0.1900E+01  0.5509E+02
     17.942  0.1850E+01  0.5540E+02
     18.110  0.1424E+01  0.5564E+02
     18.278  0.9298E+00  0.5580E+02
     18.445  0.1996E+01  0.5613E+02
     18.613  0.1340E+01  0.5636E+02
     18.781  0.1538E+01  0.5661E+02
     18.949  0.1666E+01  0.5689E+02
     19.116  0.4924E+00  0.5698E+02
     19.284  0.2394E+01  0.5738E+02
     19.452  0.1569E+01  0.5764E+02
     19.620  0.1233E+01  0.5785E+02
     19.787  0.1416E+01  0.5809E+02
     19.955  0.1576E+01  0.5835E+02
     20.123  0.2442E+01  0.5876E+02
     20.291  0.1209E+01  0.5896E+02
     20.459  0.1882E+01  0.5928E+02
     20.626  0.1499E+01  0.5953E+02
     20.794  0.1555E+01  0.5979E+02
     20.962  0.2399E+01  0.6019E+02
     21.130  0.1875E+01  0.6051E+02
     21.297  0.2200E+01  0.6088E+02
     21.465  0.1084E+01  0.6106E+02
     21.633  0.1747E+01  0.6135E+02
     21.801  0.1164E+01  0.6155E+02
     21.968  0.1784E+01  0.6185E+02
     22.136  0.1280E+01  0.6206E+02
     22.304  0.2049E+01  0.6240E+02
     22.472  0.2469E+01  0.6282E+02
     22.639  0.1642E+01  0.6309E+02
     22.807  0.8506E+00  0.6324E+02
     22.975  0.1635E+01  0.6351E+02
     23.143  0.1423E+01  0.6375E+02
     23.311  0.1805E+01  0.6405E+02
     23.478  0.1384E+01  0.6428E+02
     23.646  0.1870E+01  0.6460E+02
     23.814  0.2283E+01  0.6498E+02
     23.982  0.7566E+00  0.6511E+02
     24.149  0.1013E+01  0.6528E+02
     24.317  0.1088E+01  0.6546E+02
     24.485  0.1247E+01  0.6567E+02
     24.653  0.1308E+01  0.6589E+02
     24.820  0.7497E+00  0.6601E+02
     24.988  0.2021E+01  0.6635E+02
     25.156  0.1195E+01  0.6655E+02
     25.324  0.1693E+01  0.6684E+02
     25.492  0.1164E+01  0.6703E+02
     25.659  0.1619E+01  0.6731E+02
     25.827  0.1104E+01  0.6749E+02
     25.995  0.9402E+00  0.6765E+02
     26.163  0.1743E+01  0.6794E+02
     26.330  0.1519E+01  0.6820E+02
     26.498  0.9683E+00  0.6836E+02
     26.666  0.1352E+01  0.6858E+02
     26.834  0.1458E+01  0.6883E+02
     27.001  0.1961E+01  0.6916E+02
     27.169  0.2014E+01  0.6950E+02
     27.337  0.1224E+01  0.6970E+02
     27.505  0.1887E+01  0.7002E+02
     27.672  0.2143E+01  0.7038E+02
     27.840  0.1968E+01  0.7071E+02
     28.008  0.2121E+01  0.7106E+02
     28.176  0.1994E+01  0.7140E+02
     28.344  0.1010E+01  0.7157E+02
     28.511  0.2588E+01  0.7200E+02
     28.679  0.1983E+01  0.7233E+02
     28.847  0.2435E+01  0.7274E+02
     29.015  0.1548E+01  0.7300E+02
     29.182  0.3360E+01  0.7357E+02
     29.350  0.1656E+01  0.7384E+02
     29.518  0.2882E+01  0.7433E+02
     29.686  0.2604E+01  0.7476E+02
     29.853  0.2319E+01  0.7515E+02
     30.021  0.1786E+01  0.7545E+02
     30.189  0.2590E+01  0.7589E+02
     30.357  0.1610E+01  0.7616E+02
     30.524  0.2996E+01  0.7666E+02
     30.692  0.2435E+01  0.7707E+02
     30.860  0.9900E+00  0.7724E+02
     31.028  0.7098E+00  0.7735E+02
     31.196  0.2600E+01  0.7779E+02
     31.363  0.2209E+01  0.7816E+02
     31.531  0.1938E+01  0.7849E+02
     31.699  0.1812E+01  0.7879E+02
     31.867  0.1408E+01  0.7903E+02
     32.034  0.2394E+01  0.7943E+02
     32.202  0.2113E+01  0.7978E+02
     32.370  0.1084E+01  0.7996E+02
     32.538  0.1269E+01  0.8018E+02
     32.705  0.1306E+01  0.8040E+02
     32.873  0.9502E+00  0.8056E+02
     33.041  0.1409E+01  0.8079E+02
     33.209  0.8207E+00  0.8093E+02
     33.377  0.1240E+01  0.8114E+02
     33.544  0.1834E+01  0.8145E+02
     33.712  0.1672E+01  0.8173E+02
     33.880  0.1644E+01  0.8200E+02
     34.048  0.1832E+01  0.8231E+02
     34.215  0.8641E+00  0.8245E+02
     34.383  0.1734E+01  0.8274E+02
     34.551  0.1726E+01  0.8303E+02
     34.719  0.2846E+01  0.8351E+02
     34.886  0.1605E+01  0.8378E+02
     35.054  0.1763E+01  0.8408E+02
     35.222  0.2951E+01  0.8457E+02
     35.390  0.3291E+01  0.8512E+02
     35.557  0.2954E+01  0.8562E+02
     35.725  0.2138E+01  0.8598E+02
     35.893  0.2654E+01  0.8642E+02
     36.061  0.1131E+01  0.8661E+02
     36.229  0.7596E+00  0.8674E+02
     36.396  0.2426E+01  0.8715E+02
     36.564  0.1579E+01  0.8741E+02
     36.732  0.1408E+01  0.8765E+02
     36.900  0.2255E+01  0.8803E+02
     37.067  0.1585E+01  0.8829E+02
     37.235  0.1953E+01  0.8862E+02
     37.403  0.1062E+01  0.8880E+02
     37.571  0.1880E+01  0.8911E+02
     37.738  0.1378E+01  0.8935E+02
     37.906  0.1718E+01  0.8963E+02
     38.074  0.3129E+01  0.9016E+02
     38.242  0.2701E+01  0.9061E+02
     38.409  0.1849E+01  0.9092E+02
     38.577  0.1486E+01  0.9117E+02
     38.745  0.1783E+01  0.9147E+02
     38.913  0.1947E+01  0.9180E+02
     39.081  0.1081E+01  0.9198E+02
     39.248  0.3190E+01  0.9251E+02
     39.416  0.2866E+01  0.9299E+02
     39.584  0.1705E+01  0.9328E+02
     39.752  0.1773E+01  0.9358E+02
     39.919  0.1902E+01  0.9390E+02
     40.087  0.1268E+01  0.9411E+02
     40.255  0.2057E+01  0.9445E+02
     40.423  0.2050E+01  0.9480E+02
     40.590  0.1269E+01  0.9501E+02
     40.758  0.9472E+00  0.9517E+02
     40.926  0.1215E+00  0.9519E+02
     41.094 -0.3373E-01  0.9519E+02
     41.262  0.9802E+00  0.9535E+02
     41.429  0.8268E+00  0.9549E+02
     41.597  0.7628E+00  0.9562E+02
     41.765  0.2329E+00  0.9566E+02
     41.933 -0.6927E-02  0.9565E+02
     42.100  0.3000E+00  0.9570E+02
     42.268  0.8482E+00  0.9585E+02
     42.436  0.2428E+00  0.9589E+02
     42.604  0.4093E+00  0.9596E+02
     42.771  0.2061E+00  0.9599E+02
     42.939 -0.9310E-02  0.9599E+02
     43.107  0.2168E-01  0.9599E+02
     43.275  0.3417E-01  0.9600E+02
     43.442 -0.1372E-02  0.9600E+02
     43.610 -0.1362E-05  0.9600E+02
     43.778 -0.2539E-04  0.9600E+02
     43.946  0.7018E-03  0.9600E+02
     44.114  0.8556E-02  0.9600E+02
     44.281 -0.2726E-03  0.9600E+02
     44.449 -0.3236E-05  0.9600E+02
     44.617 -0.3390E-10  0.9600E+02
     44.785 -0.1989E-17  0.9600E+02
     44.952  0.0000E+00  0.9600E+02
     45.120  0.0000E+00  0.9600E+02
     45.288  0.0000E+00  0.9600E+02
     45.456  0.0000E+00  0.9600E+02
     45.623  0.0000E+00  0.9600E+02
     45.791  0.0000E+00  0.9600E+02
     45.959  0.0000E+00  0.9600E+02
     46.127  0.0000E+00  0.9600E+02
     46.294  0.0000E+00  0.9600E+02
