    4    4    1    1
  0.1176147E+02  0.3610000E-09  0.3610000E-09  0.3610000E-09  0.5000000E-15
  1.000000000000000E-004
  CAR 
 unknown system                          
     44     56     48
 
  0.0000000E+00  0.0000000E+00  0.0000000E+00  0.7513148E-03
    1       -1.747563   1.000000
    2        2.738366   1.000000
    3        2.738366   1.000000
    4        2.738366   1.000000
    5        3.197235   1.000000
    6        3.197235   1.000000
    7        3.197235   1.000000
    8        4.601123   1.000000
    9        4.601123   1.000000
   10        4.601123   1.000000
   11        5.433555   1.000000
   12        5.433555   1.000000
   13        5.985838   1.000000
   14        5.985838   1.000000
   15        5.985838   1.000000
   16        6.141903   1.000000
   17        6.141903   1.000000
   18        6.141903   1.000000
   19        6.141903   1.000000
   20        6.141903   1.000000
   21        6.141903   1.000000
   22        9.130692  -0.000000
   23        9.130692  -0.000000
   24        9.130692  -0.000000
   25       14.780436   0.000000
   26       14.780436   0.000000
   27       14.780436   0.000000
   28       20.748491   0.000000
   29       20.748491   0.000000
   30       20.748491   0.000000
   31       20.748491   0.000000
   32       20.748491   0.000000
   33       20.748491   0.000000
   34       25.254163   0.000000
   35       25.254163   0.000000
   36       25.254163   0.000000
   37       27.962256   0.000000
   38       27.962256   0.000000
   39       27.962256   0.000000
   40       30.266298   0.000000
   41       32.938596   0.000000
   42       32.938596   0.000000
   43       32.938596   0.000000
   44       35.434113   0.000000
   45       35.434113   0.000000
   46       35.434113   0.000000
   47       39.205156   0.000000
   48       44.006770   0.000000
 
  0.9090909E-01  0.0000000E+00  0.0000000E+00  0.4507889E-02
    1       -1.646758   1.000000
    2        2.736893   1.000000
    3        2.785481   1.000000
    4        2.785481   1.000000
    5        3.224181   1.000000
    6        3.225763   1.000000
    7        3.225763   1.000000
    8        4.570943   1.000000
    9        4.624268   1.000000
   10        4.624268   1.000000
   11        5.405856   1.000000
   12        5.443927   1.000000
   13        5.950677   1.000000
   14        5.950677   1.000000
   15        5.965122   1.000000
   16        5.965122   1.000000
   17        5.974376   1.000000
   18        6.100642   1.000000
   19        6.100642   1.000000
   20        6.141968   1.000000
   21        6.141968   1.000000
   22        8.527886  -0.000000
   23        9.397563  -0.000000
   24        9.397563  -0.000000
   25       14.816773   0.000000
   26       14.816773   0.000000
   27       15.581217   0.000000
   28       20.094557   0.000000
   29       20.094557   0.000000
   30       20.326055   0.000000
   31       20.326055   0.000000
   32       20.896958   0.000000
   33       20.896958   0.000000
   34       25.296729   0.000000
   35       26.031601   0.000000
   36       26.031601   0.000000
   37       28.000839   0.000000
   38       28.605431   0.000000
   39       28.605431   0.000000
   40       29.919379   0.000000
   41       31.905338   0.000000
   42       31.905338   0.000000
   43       32.510969   0.000000
   44       35.995417   0.000000
   45       36.513475   0.000000
   46       36.513475   0.000000
   47       39.456579   0.000000
   48       42.184620   0.000000
 
  0.1818182E+00  0.0000000E+00  0.0000000E+00  0.4507889E-02
    1       -1.346931   1.000000
    2        2.708508   1.000000
    3        2.918853   1.000000
    4        2.918853   1.000000
    5        3.302884   1.000000
    6        3.311759   1.000000
    7        3.311759   1.000000
    8        4.483400   1.000000
    9        4.694874   1.000000
   10        4.694874   1.000000
   11        5.327731   1.000000
   12        5.475769   1.000000
   13        5.561923   1.000000
   14        5.561923   1.000000
   15        5.849047   1.000000
   16        5.849047   1.000000
   17        5.940929   1.000000
   18        5.983009   1.000000
   19        5.983009   1.000000
   20        6.142400   1.000000
   21        6.142400   1.000000
   22        7.313419   1.000029
   23       10.070583  -0.000000
   24       10.070583  -0.000000
   25       14.929872   0.000000
   26       14.929872   0.000000
   27       17.408336   0.000000
   28       18.767755   0.000000
   29       18.767755   0.000000
   30       19.378174   0.000000
   31       19.378174   0.000000
   32       21.334438   0.000000
   33       21.334438   0.000000
   34       25.425840   0.000000
   35       27.729744   0.000000
   36       27.729744   0.000000
   37       28.124298   0.000000
   38       29.162148   0.000000
   39       30.209209   0.000000
   40       30.209209   0.000000
   41       30.233501   0.000000
   42       30.233501   0.000000
   43       31.534156   0.000000
   44       37.392503   0.000000
   45       37.962650   0.000000
   46       38.315400   0.000000
   47       38.315400   0.000000
   48       42.033990   0.000000
 
  0.2727273E+00  0.0000000E+00  0.0000000E+00  0.4507889E-02
    1       -0.856826   1.000000
    2        2.566035   1.000000
    3        3.112973   1.000000
    4        3.112973   1.000000
    5        3.427977   1.000000
    6        3.456747   1.000000
    7        3.456747   1.000000
    8        4.346236   1.000000
    9        4.810929   1.000000
   10        4.810929   1.000000
   11        5.099186   1.000000
   12        5.099186   1.000000
   13        5.211020   1.000000
   14        5.526153   1.000000
   15        5.695806   1.000000
   16        5.695806   1.000000
   17        5.806872   1.000000
   18        5.806872   1.000000
   19        5.888428   1.000000
   20        6.138030   1.000000
   21        6.142654   1.000000
   22        6.142654   1.000000
   23       10.980097   0.000000
   24       10.980097   0.000000
   25       15.131537   0.000000
   26       15.131537   0.000000
   27       17.311128   0.000000
   28       17.311128   0.000000
   29       18.328449   0.000000
   30       18.328449   0.000000
   31       19.679866   0.000000
   32       22.039694   0.000000
   33       22.039694   0.000000
   34       25.645704   0.000000
   35       28.334357   0.000000
   36       28.356341   0.000000
   37       28.548491   0.000000
   38       28.548491   0.000000
   39       29.808072   0.000000
   40       29.808072   0.000000
   41       30.367062   0.000000
   42       32.324179   0.000000
   43       32.324179   0.000000
   44       35.100775   0.000000
   45       39.276222   0.000000
   46       40.194806   0.000000
   47       40.194806   0.000000
   48       43.120100   0.000000
 
  0.3636364E+00  0.0000000E+00  0.0000000E+00  0.4507889E-02
    1       -0.195018   1.000000
    2        2.157793   1.000000
    3        3.319212   1.000000
    4        3.319212   1.000000
    5        3.590625   1.000000
    6        3.662182   1.000000
    7        3.662182   1.000000
    8        4.173134   1.000000
    9        4.656068   1.000000
   10        4.656068   1.000000
   11        4.968132   1.000000
   12        4.968132   1.000000
   13        5.080661   1.000000
   14        5.337983   1.000000
   15        5.526820   1.000000
   16        5.526820   1.000000
   17        5.591614   1.000000
   18        5.595795   1.000000
   19        5.595795   1.000000
   20        5.821339   1.000000
   21        6.142789   1.000000
   22        6.142789   1.000000
   23       12.043386   0.000000
   24       12.043386   0.000000
   25       15.437431   0.000000
   26       15.437431   0.000000
   27       15.875713   0.000000
   28       15.875713   0.000000
   29       17.381183   0.000000
   30       17.381183   0.000000
   31       22.173455   0.000000
   32       22.983857   0.000000
   33       22.983857   0.000000
   34       25.962873   0.000000
   35       26.946595   0.000000
   36       26.946595   0.000000
   37       27.573318   0.000000
   38       28.741554   0.000000
   39       29.026764   0.000000
   40       32.119084   0.000000
   41       32.119084   0.000000
   42       32.411290   0.000000
   43       34.664787   0.000000
   44       34.664787   0.000000
   45       40.142336   0.000000
   46       40.142336   0.000000
   47       41.494748   0.000000
   48       42.042111   0.000000
 
  0.4545455E+00  0.0000000E+00  0.0000000E+00  0.4507889E-02
    1        0.599761   1.000000
    2        1.441949   1.000000
    3        3.461195   1.000000
    4        3.461195   1.000000
    5        3.778880   1.000000
    6        3.930993   1.000000
    7        3.930993   1.000000
    8        3.978286   1.000000
    9        4.263366   1.000000
   10        4.263366   1.000000
   11        4.982453   1.000000
   12        5.009192   1.000000
   13        5.159012   1.000000
   14        5.159012   1.000000
   15        5.373225   1.000000
   16        5.373225   1.000000
   17        5.407484   1.000000
   18        5.407484   1.000000
   19        5.666599   1.000000
   20        5.745304   1.000000
   21        6.143104   1.000000
   22        6.143104   1.000000
   23       13.225230   0.000000
   24       13.225230   0.000000
   25       14.507306   0.000000
   26       14.507306   0.000000
   27       15.836692   0.000000
   28       15.836692   0.000000
   29       16.642776   0.000000
   30       16.642776   0.000000
   31       24.135983   0.000000
   32       24.135983   0.000000
   33       24.751824   0.000000
   34       25.466223   0.000000
   35       25.466223   0.000000
   36       26.385363   0.000000
   37       26.920871   0.000000
   38       27.174909   0.000000
   39       29.368439   0.000000
   40       30.460174   0.000000
   41       34.621667   0.000000
   42       34.621667   0.000000
   43       36.766884   0.000000
   44       36.766884   0.000000
   45       37.300330   0.000000
   46       37.300330   0.000000
   47       42.205953   0.000000
   48       42.205953   0.000000
 
  0.9090909E-01  0.9090909E-01  0.0000000E+00  0.9015778E-02
    1       -1.546474   1.000000
    2        2.785343   1.000000
    3        2.785343   1.000000
    4        2.831217   1.000000
    5        3.252027   1.000000
    6        3.252027   1.000000
    7        3.253064   1.000000
    8        4.553447   1.000000
    9        4.635543   1.000000
   10        4.645055   1.000000
   11        5.398221   1.000000
   12        5.437639   1.000000
   13        5.838392   1.000000
   14        5.878900   1.000000
   15        5.878900   1.000000
   16        5.917242   1.000000
   17        5.973410   1.000000
   18        5.973410   1.000000
   19        6.100443   1.000000
   20        6.100443   1.000000
   21        6.115302   1.000000
   22        8.790779  -0.000000
   23        8.790779  -0.000000
   24        9.641555  -0.000000
   25       14.853219   0.000000
   26       15.632344   0.000000
   27       15.632344   0.000000
   28       18.812831   0.000000
   29       20.231842   0.000000
   30       20.231842   0.000000
   31       20.465712   0.000000
   32       20.465712   0.000000
   33       21.038314   0.000000
   34       26.086095   0.000000
   35       26.086095   0.000000
   36       26.095535   0.000000
   37       28.650025   0.000000
   38       28.650025   0.000000
   39       29.242908   0.000000
   40       29.455970   0.000000
   41       30.625300   0.000000
   42       32.008713   0.000000
   43       33.224554   0.000000
   44       35.535295   0.000000
   45       36.371847   0.000000
   46       37.798077   0.000000
   47       40.197061   0.000000
   48       41.420857   0.000000
 
  0.1818182E+00  0.9090909E-01  0.0000000E+00  0.1803156E-01
    1       -1.248209   1.000000
    2        2.761096   1.000000
    3        2.922851   1.000000
    4        2.960830   1.000000
    5        3.328921   1.000000
    6        3.335318   1.000000
    7        3.336161   1.000000
    8        4.474955   1.000000
    9        4.699676   1.000000
   10        4.706829   1.000000
   11        5.331432   1.000000
   12        5.467955   1.000000
   13        5.482014   1.000000
   14        5.488620   1.000000
   15        5.715821   1.000000
   16        5.820545   1.000000
   17        5.857597   1.000000
   18        5.942480   1.000000
   19        5.982562   1.000000
   20        6.100368   1.000000
   21        6.101019   1.000000
   22        7.604018   0.736632
   23        9.426775  -0.000000
   24       10.275846  -0.000000
   25       14.964532   0.000000
   26       15.790680   0.000000
   27       17.332000   0.000000
   28       17.474446   0.000000
   29       18.895043   0.000000
   30       19.502211   0.000000
   31       20.634465   0.000000
   32       20.767414   0.000000
   33       20.877572   0.000000
   34       26.252196   0.000000
   35       27.068699   0.000000
   36       27.796553   0.000000
   37       28.024728   0.000000
   38       28.791444   0.000000
   39       29.026477   0.000000
   40       30.259839   0.000000
   41       31.266986   0.000000
   42       31.349394   0.000000
   43       32.747870   0.000000
   44       36.403201   0.000000
   45       36.822622   0.000000
   46       38.877685   0.000000
   47       39.547212   0.000000
   48       42.035289   0.000000
 
  0.2727273E+00  0.9090909E-01  0.0000000E+00  0.1803156E-01
    1       -0.760875   1.000000
    2        2.625665   1.000000
    3        3.123706   1.000000
    4        3.150474   1.000000
    5        3.451037   1.000000
    6        3.472079   1.000000
    7        3.477698   1.000000
    8        4.344221   1.000000
    9        4.801311   1.000000
   10        4.813235   1.000000
   11        5.024273   1.000000
   12        5.060317   1.000000
   13        5.228990   1.000000
   14        5.437169   1.000000
   15        5.526002   1.000000
   16        5.674269   1.000000
   17        5.704594   1.000000
   18        5.806239   1.000000
   19        5.871487   1.000000
   20        6.097992   1.000000
   21        6.100125   1.000000
   22        6.542123   1.000000
   23       10.253833  -0.000000
   24       11.155230   0.000000
   25       15.133186   0.000000
   26       15.947883   0.000000
   27       16.069337   0.000000
   28       17.435662   0.000000
   29       18.438617   0.000000
   30       19.748231   0.000000
   31       19.852639   0.000000
   32       21.277192   0.000000
   33       21.546125   0.000000
   34       26.537757   0.000000
   35       26.741693   0.000000
   36       27.472188   0.000000
   37       28.896356   0.000000
   38       29.052420   0.000000
   39       29.881483   0.000000
   40       30.245619   0.000000
   41       31.476494   0.000000
   42       32.365412   0.000000
   43       33.465542   0.000000
   44       35.137784   0.000000
   45       38.160208   0.000000
   46       39.214647   0.000000
   47       41.366401   0.000000
   48       42.563573   0.000000
 
  0.3636364E+00  0.9090909E-01  0.0000000E+00  0.1803156E-01
    1       -0.103324   1.000000
    2        2.226343   1.000000
    3        3.339553   1.000000
    4        3.356251   1.000000
    5        3.609848   1.000000
    6        3.660664   1.000000
    7        3.678221   1.000000
    8        4.176554   1.000000
    9        4.592290   1.000000
   10        4.639654   1.000000
   11        4.888977   1.000000
   12        4.969198   1.000000
   13        5.076565   1.000000
   14        5.156875   1.000000
   15        5.513254   1.000000
   16        5.535219   1.000000
   17        5.595157   1.000000
   18        5.602705   1.000000
   19        5.717119   1.000000
   20        5.974991   1.000000
   21        6.097645   1.000000
   22        6.099537   1.000000
   23       11.194602   0.000000
   24       12.198069   0.000000
   25       14.514128   0.000000
   26       15.570731   0.000000
   27       16.002122   0.000000
   28       16.477083   0.000000
   29       17.487714   0.000000
   30       18.829114   0.000000
   31       22.115898   0.000000
   32       22.124230   0.000000
   33       22.569327   0.000000
   34       25.478787   0.000000
   35       26.007646   0.000000
   36       26.955825   0.000000
   37       29.174320   0.000000
   38       29.471954   0.000000
   39       29.807078   0.000000
   40       31.130191   0.000000
   41       32.196420   0.000000
   42       32.754918   0.000000
   43       34.627014   0.000000
   44       35.839538   0.000000
   45       39.691842   0.000000
   46       40.224380   0.000000
   47       40.281174   0.000000
   48       40.707240   0.000000
 
  0.4545455E+00  0.9090909E-01  0.0000000E+00  0.1803156E-01
    1        0.685358   1.000000
    2        1.519516   1.000000
    3        3.492764   1.000000
    4        3.499750   1.000000
    5        3.793484   1.000000
    6        3.903562   1.000000
    7        3.939580   1.000000
    8        3.987579   1.000000
    9        4.214535   1.000000
   10        4.261565   1.000000
   11        4.874642   1.000000
   12        4.879154   1.000000
   13        5.159270   1.000000
   14        5.249387   1.000000
   15        5.372896   1.000000
   16        5.402455   1.000000
   17        5.410973   1.000000
   18        5.461282   1.000000
   19        5.693133   1.000000
   20        5.798274   1.000000
   21        6.098108   1.000000
   22        6.098829   1.000000
   23       12.222149   0.000000
   24       13.331255   0.000000
   25       13.366102   0.000000
   26       14.639089   0.000000
   27       16.000734   0.000000
   28       16.576620   0.000000
   29       17.178373   0.000000
   30       17.903048   0.000000
   31       23.134461   0.000000
   32       23.419806   0.000000
   33       24.265723   0.000000
   34       24.652827   0.000000
   35       24.963772   0.000000
   36       27.523704   0.000000
   37       27.557644   0.000000
   38       28.259790   0.000000
   39       30.114224   0.000000
   40       31.111173   0.000000
   41       33.556402   0.000000
   42       34.701601   0.000000
   43       35.669148   0.000000
   44       37.382028   0.000000
   45       37.963585   0.000000
   46       38.101689   0.000000
   47       42.197273   0.000000
   48       42.313267   0.000000
 
  0.1818182E+00  0.1818182E+00  0.0000000E+00  0.9015778E-02
    1       -0.954832   1.000000
    2        2.911067   1.000000
    3        2.911067   1.000000
    4        3.079589   1.000000
    5        3.406029   1.000000
    6        3.407296   1.000000
    7        3.407296   1.000000
    8        4.429102   1.000000
    9        4.737541   1.000000
   10        4.740162   1.000000
   11        5.265434   1.000000
   12        5.278278   1.000000
   13        5.278278   1.000000
   14        5.307800   1.000000
   15        5.483253   1.000000
   16        5.737381   1.000000
   17        5.847138   1.000000
   18        5.847138   1.000000
   19        5.981456   1.000000
   20        5.981456   1.000000
   21        6.036432   1.000000
   22        8.215729  -0.000000
   23        8.215729  -0.000000
   24       10.835301   0.000000
   25       15.025054   0.000000
   26       15.786959   0.000000
   27       17.675019   0.000000
   28       17.675019   0.000000
   29       19.268052   0.000000
   30       19.268052   0.000000
   31       19.870923   0.000000
   32       19.870923   0.000000
   33       21.880133   0.000000
   34       26.560463   0.000000
   35       26.626871   0.000000
   36       27.428324   0.000000
   37       27.998670   0.000000
   38       27.998670   0.000000
   39       30.418345   0.000000
   40       30.418345   0.000000
   41       32.356593   0.000000
   42       33.235859   0.000000
   43       34.060898   0.000000
   44       35.537976   0.000000
   45       35.844943   0.000000
   46       38.120497   0.000000
   47       41.199968   0.000000
   48       41.458618   0.000000
 
  0.2727273E+00  0.1818182E+00  0.0000000E+00  0.1803156E-01
    1       -0.476230   1.000000
    2        2.796677   1.000000
    3        3.132871   1.000000
    4        3.254689   1.000000
    5        3.520195   1.000000
    6        3.520228   1.000000
    7        3.538669   1.000000
    8        4.326442   1.000000
    9        4.784861   1.000000
   10        4.832728   1.000000
   11        4.833943   1.000000
   12        4.939733   1.000000
   13        4.998799   1.000000
   14        5.239120   1.000000
   15        5.558304   1.000000
   16        5.609741   1.000000
   17        5.702387   1.000000
   18        5.784764   1.000000
   19        5.804709   1.000000
   20        5.979939   1.000000
   21        5.999516   1.000000
   22        7.124984   1.000000
   23        8.953112  -0.000000
   24       11.648116   0.000000
   25       14.151391   0.000000
   26       15.413755   0.000000
   27       17.800677   0.000000
   28       18.002804   0.000000
   29       18.784087   0.000000
   30       19.863381   0.000000
   31       19.916397   0.000000
   32       20.522604   0.000000
   33       21.780491   0.000000
   34       25.167745   0.000000
   35       25.912330   0.000000
   36       27.626176   0.000000
   37       28.341164   0.000000
   38       30.102516   0.000000
   39       30.703744   0.000000
   40       32.066506   0.000000
   41       32.493038   0.000000
   42       33.031436   0.000000
   43       35.230695   0.000000
   44       35.503394   0.000000
   45       36.901873   0.000000
   46       37.120309   0.000000
   47       41.432736   0.000000
   48       42.199022   0.000000
 
  0.3636364E+00  0.1818182E+00  0.0000000E+00  0.1803156E-01
    1        0.167779   1.000000
    2        2.423225   1.000000
    3        3.378819   1.000000
    4        3.456467   1.000000
    5        3.661052   1.000000
    6        3.666425   1.000000
    7        3.724284   1.000000
    8        4.180959   1.000000
    9        4.432926   1.000000
   10        4.587114   1.000000
   11        4.754612   1.000000
   12        4.796315   1.000000
   13        4.978880   1.000000
   14        5.206746   1.000000
   15        5.469401   1.000000
   16        5.536823   1.000000
   17        5.593994   1.000000
   18        5.654777   1.000000
   19        5.672842   1.000000
   20        5.978436   1.000000
   21        5.983998   1.000000
   22        6.405687   1.000000
   23        9.776054  -0.000000
   24       12.641594   0.000000
   25       12.863848   0.000000
   26       15.734691   0.000000
   27       16.372185   0.000000
   28       17.702866   0.000000
   29       18.582544   0.000000
   30       20.650007   0.000000
   31       20.966959   0.000000
   32       21.172849   0.000000
   33       22.586474   0.000000
   34       23.870490   0.000000
   35       24.519420   0.000000
   36       28.830745   0.000000
   37       29.628826   0.000000
   38       30.719445   0.000000
   39       31.144636   0.000000
   40       31.172495   0.000000
   41       32.428559   0.000000
   42       33.817873   0.000000
   43       34.487874   0.000000
   44       37.909972   0.000000
   45       38.177815   0.000000
   46       38.866739   0.000000
   47       38.891972   0.000000
   48       40.470241   0.000000
 
  0.4545455E+00  0.1818182E+00  0.0000000E+00  0.1803156E-01
    1        0.936774   1.000000
    2        1.744796   1.000000
    3        3.571407   1.000000
    4        3.609817   1.000000
    5        3.826927   1.000000
    6        3.834576   1.000000
    7        3.963793   1.000000
    8        4.011278   1.000000
    9        4.090700   1.000000
   10        4.254488   1.000000
   11        4.679804   1.000000
   12        4.734289   1.000000
   13        5.163155   1.000000
   14        5.292497   1.000000
   15        5.373385   1.000000
   16        5.379825   1.000000
   17        5.406111   1.000000
   18        5.467233   1.000000
   19        5.820501   1.000000
   20        5.977457   1.000000
   21        5.978399   1.000000
   22        6.028946   1.000000
   23       10.688125   0.000000
   24       11.709670   0.000000
   25       13.774653   0.000000
   26       15.023702   0.000000
   27       16.222649   0.000000
   28       16.880032   0.000000
   29       19.234590   0.000000
   30       20.052831   0.000000
   31       21.596535   0.000000
   32       22.145573   0.000000
   33       22.676374   0.000000
   34       23.261554   0.000000
   35       25.258044   0.000000
   36       28.018897   0.000000
   37       29.472525   0.000000
   38       30.263250   0.000000
   39       31.776631   0.000000
   40       31.996056   0.000000
   41       32.644596   0.000000
   42       34.272817   0.000000
   43       34.941258   0.000000
   44       37.627003   0.000000
   45       38.766999   0.000000
   46       39.429549   0.000000
   47       39.851113   0.000000
   48       40.661481   0.000000
 
  0.2727273E+00  0.2727273E+00  0.0000000E+00  0.9015778E-02
    1       -0.013475   1.000000
    2        3.052385   1.000000
    3        3.052385   1.000000
    4        3.401764   1.000000
    5        3.603464   1.000000
    6        3.635275   1.000000
    7        3.635275   1.000000
    8        4.271310   1.000000
    9        4.608110   1.000000
   10        4.608110   1.000000
   11        4.741096   1.000000
   12        4.769557   1.000000
   13        4.895935   1.000000
   14        5.197361   1.000000
   15        5.507367   1.000000
   16        5.650137   1.000000
   17        5.650137   1.000000
   18        5.667347   1.000000
   19        5.802972   1.000000
   20        5.802972   1.000000
   21        5.908423   1.000000
   22        7.768188  -0.033472
   23        7.768188  -0.033472
   24       12.392026   0.000000
   25       12.674035   0.000000
   26       15.648647   0.000000
   27       18.384103   0.000000
   28       18.384103   0.000000
   29       19.232405   0.000000
   30       19.232405   0.000000
   31       20.413168   0.000000
   32       20.413168   0.000000
   33       23.207028   0.000000
   34       23.715143   0.000000
   35       24.425389   0.000000
   36       27.102031   0.000000
   37       30.473093   0.000000
   38       30.473093   0.000000
   39       32.717031   0.000000
   40       32.717031   0.000000
   41       33.415893   0.000000
   42       33.697905   0.000000
   43       34.847202   0.000000
   44       35.557112   0.000000
   45       36.380374   0.000000
   46       37.811640   0.000000
   47       40.225610   0.000000
   48       40.225611   0.000000
 
  0.3636364E+00  0.2727273E+00  0.0000000E+00  0.1803156E-01
    1        0.605234   1.000000
    2        2.719988   1.000000
    3        3.343497   1.000000
    4        3.566556   1.000000
    5        3.700248   1.000000
    6        3.759120   1.000000
    7        3.795656   1.000000
    8        4.172340   1.000000
    9        4.273542   1.000000
   10        4.477943   1.000000
   11        4.493726   1.000000
   12        4.728115   1.000000
   13        5.014339   1.000000
   14        5.167362   1.000000
   15        5.391812   1.000000
   16        5.493112   1.000000
   17        5.532341   1.000000
   18        5.594495   1.000000
   19        5.802613   1.000000
   20        5.836511   1.000000
   21        5.850435   1.000000
   22        6.907806   1.000000
   23        8.482103  -0.000000
   24       11.366129   0.000000
   25       13.328125   0.000000
   26       16.034620   0.000000
   27       16.962709   0.000000
   28       18.184636   0.000000
   29       19.157787   0.000000
   30       19.951724   0.000000
   31       20.931228   0.000000
   32       22.383729   0.000000
   33       22.954807   0.000000
   34       23.074061   0.000000
   35       23.188977   0.000000
   36       28.315552   0.000000
   37       30.994237   0.000000
   38       31.334320   0.000000
   39       32.815324   0.000000
   40       33.047113   0.000000
   41       33.247624   0.000000
   42       34.185984   0.000000
   43       34.437691   0.000000
   44       36.273463   0.000000
   45       37.681038   0.000000
   46       38.214776   0.000000
   47       39.090998   0.000000
   48       40.243389   0.000000
 
  0.4545455E+00  0.2727273E+00  0.0000000E+00  0.1803156E-01
    1        1.336353   1.000000
    2        2.093474   1.000000
    3        3.592558   1.000000
    4        3.700128   1.000000
    5        3.782579   1.000000
    6        3.899227   1.000000
    7        3.996151   1.000000
    8        3.998756   1.000000
    9        4.042353   1.000000
   10        4.236691   1.000000
   11        4.510395   1.000000
   12        4.626006   1.000000
   13        5.180632   1.000000
   14        5.228412   1.000000
   15        5.322944   1.000000
   16        5.362135   1.000000
   17        5.370784   1.000000
   18        5.379888   1.000000
   19        5.806700   1.000000
   20        5.820078   1.000000
   21        6.059523   1.000000
   22        6.379603   1.000000
   23        9.295494  -0.000000
   24       10.245608  -0.000000
   25       14.417160   0.000000
   26       15.634462   0.000000
   27       16.576259   0.000000
   28       17.290484   0.000000
   29       20.094963   0.000000
   30       20.831988   0.000000
   31       21.174790   0.000000
   32       21.618989   0.000000
   33       21.874275   0.000000
   34       22.426299   0.000000
   35       25.663104   0.000000
   36       28.481490   0.000000
   37       30.545493   0.000000
   38       31.661407   0.000000
   39       32.450160   0.000000
   40       32.936005   0.000000
   41       33.480971   0.000000
   42       33.981938   0.000000
   43       35.339331   0.000000
   44       37.140601   0.000000
   45       38.034202   0.000000
   46       38.065466   0.000000
   47       39.256841   0.000000
   48       39.927435   0.000000
 
  0.3636364E+00  0.3636364E+00  0.0000000E+00  0.9015778E-02
    1        1.182141   1.000000
    2        3.061562   1.000000