       N       E                     dE             d eps       ncg     rms          rms(c)
DAV:   1     0.161258926546E+03    0.16126E+03   -0.16517E+04  6120   0.136E+03
DAV:   2    -0.131346265529E+02   -0.17439E+03   -0.15801E+03  5472   0.200E+02
DAV:   3    -0.184767583702E+02   -0.53421E+01   -0.52903E+01  7512   0.412E+01
DAV:   4    -0.185164050132E+02   -0.39647E-01   -0.39645E-01  5664   0.306E+00
DAV:   5    -0.185169435280E+02   -0.53851E-03   -0.53851E-03  7632   0.390E-01    0.153E+01
DAV:   6    -0.164094395390E+02    0.21075E+01   -0.33412E+01  6720   0.712E+01    0.781E+00
DAV:   7    -0.149578839570E+02    0.14516E+01   -0.55140E+00  6744   0.286E+01    0.113E+00
DAV:   8    -0.149169530410E+02    0.40931E-01   -0.25140E-02  6504   0.106E+00    0.616E-01
DAV:   9    -0.149102752640E+02    0.66778E-02   -0.21752E-02  7392   0.165E+00    0.483E-02
DAV:  10    -0.149103039795E+02   -0.28716E-04   -0.17401E-04  5328   0.109E-01
   1 F= -.14910304E+02 E0= -.14910299E+02  d E =-.158259E-04
