 vasp.5.4.1 05Feb16 (build Feb 08 2018 09:21:51) complex                        
  
 executed on             LinuxIFC date 2019.11.21  13:18:36
 running on   24 total cores
 distrk:  each k-point on   24 cores,    1 groups
 distr:  one band on NCORES_PER_BAND=   1 cores,   24 groups


--------------------------------------------------------------------------------------------------------


 INCAR:
 POTCAR:    PAW_PBE Cu 22Jun2005                  

 ----------------------------------------------------------------------------- 
|                                                                             |
|           W    W    AA    RRRRR   N    N  II  N    N   GGGG   !!!           |
|           W    W   A  A   R    R  NN   N  II  NN   N  G    G  !!!           |
|           W    W  A    A  R    R  N N  N  II  N N  N  G       !!!           |
|           W WW W  AAAAAA  RRRRR   N  N N  II  N  N N  G  GGG   !            |
|           WW  WW  A    A  R   R   N   NN  II  N   NN  G    G                |
|           W    W  A    A  R    R  N    N  II  N    N   GGGG   !!!           |
|                                                                             |
|      For optimal performance we recommend to set                            |
|        NCORE= 4 - approx SQRT( number of cores)                             |
|      NCORE specifies how many cores store one orbital (NPAR=cpu/NCORE).     |
|      This setting can  greatly improve the performance of VASP for DFT.     |
|      The default, NPAR=number of cores might be grossly inefficient         |
|      on modern multi-core architectures or massively parallel machines.     |
|      Do your own testing !!!!                                               |
|      Unfortunately you need to use the default for GW and RPA calculations. |
|      (for HF NCORE is supported but not extensively tested yet)             |
|                                                                             |
 ----------------------------------------------------------------------------- 

 POTCAR:    PAW_PBE Cu 22Jun2005                  
   VRHFIN =Cu: d10 p1                                                           
   LEXCH  = PE                                                                  
   EATOM  =  1390.9808 eV,  102.2342 Ry                                         
                                                                                
   TITEL  = PAW_PBE Cu 22Jun2005                                                
   LULTRA =        F    use ultrasoft PP ?                                      
   IUNSCR =        1    unscreen: 0-lin 1-nonlin 2-no                           
   RPACOR =    2.000    partial core radius                                     
   POMASS =   63.546; ZVAL   =   11.000    mass and valenz                      
   RCORE  =    2.300    outmost cutoff radius                                   
   RWIGS  =    2.200; RWIGS  =    1.164    wigner-seitz radius (au A)           
   ENMAX  =  295.446; ENMIN  =  221.585 eV                                      
   ICORE  =        3    local potential                                         
   LCOR   =        T    correct aug charges                                     
   LPAW   =        T    paw PP                                                  
   EAUG   =  586.980                                                            
   DEXC   =    0.000                                                            
   RMAX   =    2.344    core radius for proj-oper                               
   RAUG   =    1.300    factor for augmentation sphere                          
   RDEP   =    2.302    radius for radial grids                                 
   RDEPT  =    1.771    core radius for aug-charge                              
                                                                                
   Atomic configuration                                                         
    9 entries                                                                   
     n  l   j            E        occ.                                          
     1  0  0.50     -8850.2468   2.0000                                         
     2  0  0.50     -1062.3498   2.0000                                         
     2  1  1.50      -916.8226   6.0000                                         
     3  0  0.50      -114.6929   2.0000                                         
     3  1  1.50       -72.1325   6.0000                                         
     3  2  2.50        -5.0394  10.0000                                         
     4  0  0.50        -4.6097   1.0000                                         
     4  1  0.50        -4.0817   0.0000                                         
     4  3  2.50        -1.3606   0.0000                                         
   Description                                                                  
     l       E           TYP  RCUT    TYP  RCUT                                 
     2     -5.0393973     23  2.200                                             
     2     10.8846608     23  2.200                                             
     0     -4.6097109     23  2.200                                             
     0      8.2520465     23  2.200                                             
     1     -2.7211652     23  2.200                                             
     1     21.7055443     23  2.200                                             
     3      2.7211652     23  2.300                                             
  local pseudopotential read in
  partial core-charges read in
  partial kinetic energy density read in
  atomic valenz-charges read in
  non local Contribution for L=           2  read in
    real space projection operators read in
  non local Contribution for L=           2  read in
    real space projection operators read in
  non local Contribution for L=           0  read in
    real space projection operators read in
  non local Contribution for L=           0  read in
    real space projection operators read in
  non local Contribution for L=           1  read in
    real space projection operators read in
  non local Contribution for L=           1  read in
    real space projection operators read in
    PAW grid and wavefunctions read in
 
   number of l-projection  operators is LMAX  =           6
   number of lm-projection operators is LMMAX =          18
 
  PAW_PBE Cu 22Jun2005                  :
 energy of atom  1       EATOM=-1390.9808
 kinetic energy error for atom=    0.0232 (will be added to EATOM!!)
 
 
 POSCAR: Cu                                      
  positions in cartesian coordinates
  No initial velocities read in
 exchange correlation table for  LEXCH =        8
   RHO(1)=    0.500       N(1)  =     2000
   RHO(2)=  100.500       N(2)  =     4000
 


--------------------------------------------------------------------------------------------------------


 ion  position               nearest neighbor table
   1  0.000  0.000  0.000-   2 2.55   3 2.55   4 2.55   2 2.55   3 2.55   2 2.55   4 2.55   2 2.55
                             3 2.55   4 2.55   3 2.55   4 2.55
   2  0.000  0.500  0.500-   1 2.55   3 2.55   4 2.55   1 2.55   4 2.55   1 2.55   3 2.55   1 2.55
                             3 2.55   4 2.55   4 2.55   3 2.55
   3  0.500  0.000  0.500-   1 2.55   2 2.55   4 2.55   1 2.55   4 2.55   2 2.55   4 2.55   4 2.55
                             1 2.55   2 2.55   1 2.55   2 2.55
   4  0.500  0.500  0.000-   1 2.55   2 2.55   3 2.55   2 2.55   3 2.55   1 2.55   3 2.55   3 2.55
                             1 2.55   2 2.55   2 2.55   1 2.55
 
  LATTYP: Found a simple cubic cell.
 ALAT       =     3.6100000000
  
  Lattice vectors:
  
 A1 = (   3.6100000000,   0.0000000000,   0.0000000000)
 A2 = (   0.0000000000,   3.6100000000,   0.0000000000)
 A3 = (   0.0000000000,   0.0000000000,   3.6100000000)


Analysis of symmetry for initial positions (statically):
=====================================================================
 Subroutine PRICEL returns following result:
 
  LATTYP: Found a face centered cubic cell.
 ALAT       =     3.6100000000
  
  Lattice vectors:
  
 A1 = (   1.8050000000,   1.8050000000,  -0.0000000000)
 A2 = (   1.8050000000,   0.0000000000,  -1.8050000000)
 A3 = (   0.0000000000,   1.8050000000,  -1.8050000000)
 
   4 primitive cells build up your supercell.
 

 Routine SETGRP: Setting up the symmetry group for a 
 simple cubic supercell.


 Subroutine GETGRP returns: Found 48 space group operations
 (whereof 48 operations were pure point group operations)
 out of a pool of 48 trial point group operations.


The static configuration has the point symmetry O_h .


Analysis of symmetry for dynamics (positions and initial velocities):
=====================================================================
 Subroutine PRICEL returns following result:
 
  LATTYP: Found a face centered cubic cell.
 ALAT       =     3.6100000000
  
  Lattice vectors:
  
 A1 = (   1.8050000000,   1.8050000000,  -0.0000000000)
 A2 = (   1.8050000000,   0.0000000000,  -1.8050000000)
 A3 = (   0.0000000000,   1.8050000000,  -1.8050000000)
 
   4 primitive cells build up your supercell.
 

 Routine SETGRP: Setting up the symmetry group for a 
 simple cubic supercell.


 Subroutine GETGRP returns: Found 48 space group operations
 (whereof 48 operations were pure point group operations)
 out of a pool of 48 trial point group operations.


The dynamic configuration has the point symmetry O_h .


 Subroutine INISYM returns: Found 48 space group operations
 (whereof 48 operations are pure point group operations),
 and found     4 'primitive' translations

 
 
 KPOINTS: KPOINTS created by Atomic Simulation Env

Automatic generation of k-mesh.
Space group operators:
 irot       det(A)        alpha          n_x          n_y          n_z        tau_x        tau_y        tau_z
    1     1.000000     0.000000     1.000000     0.000000     0.000000     0.000000     0.000000     0.000000
    2    -1.000000     0.000000     1.000000     0.000000     0.000000     0.000000     0.000000     0.000000
    3     1.000000   120.000000    -0.577350    -0.577350    -0.577350     0.000000     0.000000     0.000000
    4    -1.000000   120.000000    -0.577350    -0.577350    -0.577350     0.000000     0.000000     0.000000
    5     1.000000   120.000000     0.577350     0.577350     0.577350     0.000000     0.000000     0.000000
    6    -1.000000   120.000000     0.577350     0.577350     0.577350     0.000000     0.000000     0.000000
    7     1.000000    90.000000     0.000000     0.000000    -1.000000     0.000000     0.000000     0.000000
    8    -1.000000    90.000000     0.000000     0.000000    -1.000000     0.000000     0.000000     0.000000
    9     1.000000   180.000000     0.000000     0.707107     0.707107     0.000000     0.000000     0.000000
   10    -1.000000   180.000000     0.000000     0.707107     0.707107     0.000000     0.000000     0.000000
   11     1.000000    90.000000     0.000000     1.000000     0.000000     0.000000     0.000000     0.000000
   12    -1.000000    90.000000     0.000000     1.000000     0.000000     0.000000     0.000000     0.000000
   13     1.000000   179.999999     0.000000     0.000000     1.000000     0.000000     0.000000     0.000000
   14    -1.000000   179.999999     0.000000     0.000000     1.000000     0.000000     0.000000     0.000000
   15     1.000000   120.000000    -0.577350     0.577350     0.577350     0.000000     0.000000     0.000000
   16    -1.000000   120.000000    -0.577350     0.577350     0.577350     0.000000     0.000000     0.000000
   17     1.000000   120.000000    -0.577350     0.577350    -0.577350     0.000000     0.000000     0.000000
   18    -1.000000   120.000000    -0.577350     0.577350    -0.577350     0.000000     0.000000     0.000000
   19     1.000000    90.000000     0.000000     0.000000     1.000000     0.000000     0.000000     0.000000
   20    -1.000000    90.000000     0.000000     0.000000     1.000000     0.000000     0.000000     0.000000
   21     1.000000    90.000000    -1.000000     0.000000     0.000000     0.000000     0.000000     0.000000
   22    -1.000000    90.000000    -1.000000     0.000000     0.000000     0.000000     0.000000     0.000000
   23     1.000000   180.000000     0.707107     0.000000     0.707107     0.000000     0.000000     0.000000
   24    -1.000000   180.000000     0.707107     0.000000     0.707107     0.000000     0.000000     0.000000
   25     1.000000   120.000000     0.577350    -0.577350     0.577350     0.000000     0.000000     0.000000
   26    -1.000000   120.000000     0.577350    -0.577350     0.577350     0.000000     0.000000     0.000000
   27     1.000000   120.000000    -0.577350    -0.577350     0.577350     0.000000     0.000000     0.000000
   28    -1.000000   120.000000    -0.577350    -0.577350     0.577350     0.000000     0.000000     0.000000
   29     1.000000   180.000000     1.000000     0.000000     0.000000     0.000000     0.000000     0.000000
   30    -1.000000   180.000000     1.000000     0.000000     0.000000     0.000000     0.000000     0.000000
   31     1.000000    90.000000     0.000000    -1.000000     0.000000     0.000000     0.000000     0.000000
   32    -1.000000    90.000000     0.000000    -1.000000     0.000000     0.000000     0.000000     0.000000
   33     1.000000   180.000000     0.707107     0.707107     0.000000     0.000000     0.000000     0.000000
   34    -1.000000   180.000000     0.707107     0.707107     0.000000     0.000000     0.000000     0.000000
   35     1.000000    90.000000     1.000000     0.000000     0.000000     0.000000     0.000000     0.000000
   36    -1.000000    90.000000     1.000000     0.000000     0.000000     0.000000     0.000000     0.000000
   37     1.000000   120.000000     0.577350    -0.577350    -0.577350     0.000000     0.000000     0.000000
   38    -1.000000   120.000000     0.577350    -0.577350    -0.577350     0.000000     0.000000     0.000000
   39     1.000000   180.000000     0.000000     1.000000     0.000000     0.000000     0.000000     0.000000
   40    -1.000000   180.000000     0.000000     1.000000     0.000000     0.000000     0.000000     0.000000
   41     1.000000   120.000000     0.577350     0.577350    -0.577350     0.000000     0.000000     0.000000
   42    -1.000000   120.000000     0.577350     0.577350    -0.577350     0.000000     0.000000     0.000000
   43     1.000000   180.000000     0.000000    -0.707107     0.707107     0.000000     0.000000     0.000000
   44    -1.000000   180.000000     0.000000    -0.707107     0.707107     0.000000     0.000000     0.000000
   45     1.000000   180.000000     0.707107    -0.707107     0.000000     0.000000     0.000000     0.000000
   46    -1.000000   180.000000     0.707107    -0.707107     0.000000     0.000000     0.000000     0.000000
   47     1.000000   180.000000     0.707107     0.000000    -0.707107     0.000000     0.000000     0.000000
   48    -1.000000   180.000000     0.707107     0.000000    -0.707107     0.000000     0.000000     0.000000
 
 Subroutine IBZKPT returns following result:
 ===========================================
 
 Found     56 irreducible k-points:
 
 Following reciprocal coordinates:
            Coordinates               Weight
  0.000000  0.000000  0.000000      1.000000
  0.090909  0.000000  0.000000      6.000000
  0.181818  0.000000  0.000000      6.000000
  0.272727  0.000000  0.000000      6.000000
  0.363636  0.000000  0.000000      6.000000
  0.454545  0.000000  0.000000      6.000000
  0.090909  0.090909  0.000000     12.000000
  0.181818  0.090909  0.000000     24.000000
  0.272727  0.090909  0.000000     24.000000
  0.363636  0.090909  0.000000     24.000000
  0.454545  0.090909  0.000000     24.000000
  0.181818  0.181818  0.000000     12.000000
  0.272727  0.181818  0.000000     24.000000
  0.363636  0.181818  0.000000     24.000000
  0.454545  0.181818  0.000000     24.000000
  0.272727  0.272727  0.000000     12.000000
  0.363636  0.272727  0.000000     24.000000
  0.454545  0.272727  0.000000     24.000000
  0.363636  0.363636  0.000000     12.000000
  0.454545  0.363636  0.000000     24.000000
  0.454545  0.454545  0.000000     12.000000
  0.090909  0.090909  0.090909      8.000000
  0.181818  0.090909  0.090909     24.000000
  0.272727  0.090909  0.090909     24.000000
  0.363636  0.090909  0.090909     24.000000
  0.454545  0.090909  0.090909     24.000000
  0.181818  0.181818  0.090909     24.000000
  0.272727  0.181818  0.090909     48.000000
  0.363636  0.181818  0.090909     48.000000
  0.454545  0.181818  0.090909     48.000000
  0.272727  0.272727  0.090909     24.000000
  0.363636  0.272727  0.090909     48.000000
  0.454545  0.272727  0.090909     48.000000
  0.363636  0.363636  0.090909     24.000000
  0.454545  0.363636  0.090909     48.000000
  0.454545  0.454545  0.090909     24.000000
  0.181818  0.181818  0.181818      8.000000
  0.272727  0.181818  0.181818     24.000000
  0.363636  0.181818  0.181818     24.000000
  0.454545  0.181818  0.181818     24.000000
  0.272727  0.272727  0.181818     24.000000
  0.363636  0.272727  0.181818     48.000000
  0.454545  0.272727  0.181818     48.000000
  0.363636  0.363636  0.181818     24.000000
  0.454545  0.363636  0.181818     48.000000
  0.454545  0.454545  0.181818     24.000000
  0.272727  0.272727  0.272727      8.000000
  0.363636  0.272727  0.272727     24.000000
  0.454545  0.272727  0.272727     24.000000
  0.363636  0.363636  0.272727     24.000000
  0.454545  0.363636  0.272727     48.000000
  0.454545  0.454545  0.272727     24.000000
  0.363636  0.363636  0.363636      8.000000
  0.454545  0.363636  0.363636     24.000000
  0.454545  0.454545  0.363636     24.000000
  0.454545  0.454545  0.454545      8.000000
 
 Following cartesian coordinates:
            Coordinates               Weight
  0.000000  0.000000  0.000000      1.000000
  0.025183  0.000000  0.000000      6.000000
  0.050365  0.000000  0.000000      6.000000
  0.075548  0.000000  0.000000      6.000000
  0.100730  0.000000  0.000000      6.000000
  0.125913  0.000000  0.000000      6.000000
  0.025183  0.025183  0.000000     12.000000
  0.050365  0.025183  0.000000     24.000000
  0.075548  0.025183  0.000000     24.000000
  0.100730  0.025183  0.000000     24.000000
  0.125913  0.025183  0.000000     24.000000
  0.050365  0.050365  0.000000     12.000000
  0.075548  0.050365  0.000000     24.000000
  0.100730  0.050365  0.000000     24.000000
  0.125913  0.050365  0.000000     24.000000
  0.075548  0.075548  0.000000     12.000000
  0.100730  0.075548  0.000000     24.000000
  0.125913  0.075548  0.000000     24.000000
  0.100730  0.100730  0.000000     12.000000
  0.125913  0.100730  0.000000     24.000000
  0.125913  0.125913  0.000000     12.000000
  0.025183  0.025183  0.025183      8.000000
  0.050365  0.025183  0.025183     24.000000
  0.075548  0.025183  0.025183     24.000000
  0.100730  0.025183  0.025183     24.000000
  0.125913  0.025183  0.025183     24.000000
  0.050365  0.050365  0.025183     24.000000
  0.075548  0.050365  0.025183     48.000000
  0.100730  0.050365  0.025183     48.000000
  0.125913  0.050365  0.025183     48.000000
  0.075548  0.075548  0.025183     24.000000
  0.100730  0.075548  0.025183     48.000000
  0.125913  0.075548  0.025183     48.000000
  0.100730  0.100730  0.025183     24.000000
  0.125913  0.100730  0.025183     48.000000
  0.125913  0.125913  0.025183     24.000000
  0.050365  0.050365  0.050365      8.000000
  0.075548  0.050365  0.050365     24.000000
  0.100730  0.050365  0.050365     24.000000
  0.125913  0.050365  0.050365     24.000000
  0.075548  0.075548  0.050365     24.000000
  0.100730  0.075548  0.050365     48.000000
  0.125913  0.075548  0.050365     48.000000
  0.100730  0.100730  0.050365     24.000000
  0.125913  0.100730  0.050365     48.000000
  0.125913  0.125913  0.050365     24.000000
  0.075548  0.075548  0.075548      8.000000
  0.100730  0.075548  0.075548     24.000000
  0.125913  0.075548  0.075548     24.000000
  0.100730  0.100730  0.075548     24.000000
  0.125913  0.100730  0.075548     48.000000
  0.125913  0.125913  0.075548     24.000000
  0.100730  0.100730  0.100730      8.000000
  0.125913  0.100730  0.100730     24.000000
  0.125913  0.125913  0.100730     24.000000
  0.125913  0.125913  0.125913      8.000000
 


--------------------------------------------------------------------------------------------------------




 Dimension of arrays:
   k-points           NKPTS =     56   k-points in BZ     NKDIM =     56   number of bands    NBANDS=     48
   number of dos      NEDOS =    301   number of ions     NIONS =      4
   non local maximal  LDIM  =      6   non local SUM 2l+1 LMDIM =     18
   total plane-waves  NPLWV =   5832
   max r-space proj   IRMAX =      1   max aug-charges    IRDMAX=   3790
   dimension x,y,z NGX =    18 NGY =   18 NGZ =   18
   dimension x,y,z NGXF=    36 NGYF=   36 NGZF=   36
   support grid    NGXF=    36 NGYF=   36 NGZF=   36
   ions per type =               4
 NGX,Y,Z   is equivalent  to a cutoff of   8.29,  8.29,  8.29 a.u.
 NGXF,Y,Z  is equivalent  to a cutoff of  16.58, 16.58, 16.58 a.u.


 I would recommend the setting:
   dimension x,y,z NGX =    18 NGY =   18 NGZ =   18
 SYSTEM =  unknown system                          
 POSCAR =  Cu                                      

 Startparameter for this run:
   NWRITE =      2    write-flag & timer
   PREC   = normal    normal or accurate (medium, high low for compatibility)
   ISTART =      0    job   : 0-new  1-cont  2-samecut
   ICHARG =      2    charge: 1-file 2-atom 10-const
   ISPIN  =      1    spin polarized calculation?
   LNONCOLLINEAR =      F non collinear calculations
   LSORBIT =      F    spin-orbit coupling
   INIWAV =      1    electr: 0-lowe 1-rand  2-diag
   LASPH  =      F    aspherical Exc in radial PAW
   METAGGA=      F    non-selfconsistent MetaGGA calc.

 Electronic Relaxation 1
   ENCUT  =  400.0 eV  29.40 Ry    5.42 a.u.   5.89  5.89  5.89*2*pi/ulx,y,z
   ENINI  =  400.0     initial cutoff
   ENAUG  =  587.0 eV  augmentation charge cutoff
   NELM   =     60;   NELMIN=  2; NELMDL= -5     # of ELM steps 
   EDIFF  = 0.1E-03   stopping-criterion for ELM
   LREAL  =      F    real-space projection
   NLSPLINE    = F    spline interpolate recip. space projectors
   LCOMPAT=      F    compatible to vasp.4.4
   GGA_COMPAT  = T    GGA compatible to vasp.4.4-vasp.4.6
   LMAXPAW     = -100 max onsite density
   LMAXMIX     =    2 max onsite mixed and CHGCAR
   VOSKOWN=      0    Vosko Wilk Nusair interpolation
   ROPT   =    0.00000
 Ionic relaxation
   EDIFFG = 0.1E-02   stopping-criterion for IOM
   NSW    =      0    number of steps for IOM
   NBLOCK =      1;   KBLOCK =      1    inner block; outer block 
   IBRION =     -1    ionic relax: 0-MD 1-quasi-New 2-CG
   NFREE  =      0    steps in history (QN), initial steepest desc. (CG)
   ISIF   =      2    stress and relaxation
   IWAVPR =     10    prediction:  0-non 1-charg 2-wave 3-comb
   ISYM   =      2    0-nonsym 1-usesym 2-fastsym
   LCORR  =      T    Harris-Foulkes like correction to forces

   POTIM  = 0.5000    time-step for ionic-motion
   TEIN   =    0.0    initial temperature
   TEBEG  =    0.0;   TEEND  =   0.0 temperature during run
   SMASS  =  -3.00    Nose mass-parameter (am)
   estimated Nose-frequenzy (Omega)   =  0.10E-29 period in steps =****** mass=  -0.298E-27a.u.
   SCALEE = 1.0000    scale energy and forces
   NPACO  =    256;   APACO  = 16.0  distance and # of slots for P.C.
   PSTRESS=    0.0 pullay stress

  Mass of Ions in am
   POMASS =  63.55
  Ionic Valenz
   ZVAL   =  11.00
  Atomic Wigner-Seitz radii
   RWIGS  =  -1.00
  virtual crystal weights 
   VCA    =   1.00
   NELECT =      44.0000    total number of electrons
   NUPDOWN=      -1.0000    fix difference up-down

 DOS related values:
   EMIN   =  10.00;   EMAX   =-10.00  energy-range for DOS
   EFERMI =   0.00
   ISMEAR =     1;   SIGMA  =   0.10  broadening in eV -4-tet -1-fermi 0-gaus

 Electronic relaxation 2 (details)
   IALGO  =     38    algorithm
   LDIAG  =      T    sub-space diagonalisation (order eigenvalues)
   LSUBROT=      F    optimize rotation matrix (better conditioning)
   TURBO    =      0    0=normal 1=particle mesh
   IRESTART =      0    0=no restart 2=restart with 2 vectors
   NREBOOT  =      0    no. of reboots
   NMIN     =      0    reboot dimension
   EREF     =   0.00    reference energy to select bands
   IMIX   =      4    mixing-type and parameters
     AMIX     =   0.40;   BMIX     =  1.00
     AMIX_MAG =   1.60;   BMIX_MAG =  1.00
     AMIN     =   0.10
     WC   =   100.;   INIMIX=   1;  MIXPRE=   1;  MAXMIX= -45

 Intra band minimization:
   WEIMIN = 0.0000     energy-eigenvalue tresh-hold
   EBREAK =  0.52E-06  absolut break condition
   DEPER  =   0.30     relativ break condition  

   TIME   =   0.40     timestep for ELM

  volume/ion in A,a.u.               =      11.76        79.37
  Fermi-wavevector in a.u.,A,eV,Ry     =   1.600977  3.025409 34.873480  2.563128
  Thomas-Fermi vector in A             =   2.698028
 
 Write flags
   LWAVE  =      F    write WAVECAR
   LCHARG =      F    write CHGCAR
   LVTOT  =      F    write LOCPOT, total local potential
   LVHAR  =      F    write LOCPOT, Hartree potential only
   LELF   =      F    write electronic localiz. function (ELF)
   LORBIT =      0    0 simple, 1 ext, 2 COOP (PROOUT)


 Dipole corrections
   LMONO  =      F    monopole corrections only (constant potential shift)
   LDIPOL =      F    correct potential (dipole corrections)
   IDIPOL =      0    1-x, 2-y, 3-z, 4-all directions 
   EPSILON=  1.0000000 bulk dielectric constant

 Exchange correlation treatment:
   GGA     =    --    GGA type
   LEXCH   =     8    internal setting for exchange type
   VOSKOWN=      0    Vosko Wilk Nusair interpolation
   LHFCALC =     F    Hartree Fock is set to
   LHFONE  =     F    Hartree Fock one center treatment
   AEXX    =    0.0000 exact exchange contribution

 Linear response parameters
   LEPSILON=     F    determine dielectric tensor
   LRPA    =     F    only Hartree local field effects (RPA)
   LNABLA  =     F    use nabla operator in PAW spheres
   LVEL    =     F    velocity operator in full k-point grid
   LINTERFAST=   F  fast interpolation
   KINTER  =     0    interpolate to denser k-point grid
   CSHIFT  =0.1000    complex shift for real part using Kramers Kronig
   OMEGAMAX=  -1.0    maximum frequency
   DEG_THRESHOLD= 0.2000000E-02 threshold for treating states as degnerate
   RTIME   =    0.100 relaxation time in fs

 Orbital magnetization related:
   ORBITALMAG=     F  switch on orbital magnetization
   LCHIMAG   =     F  perturbation theory with respect to B field
   DQ        =  0.001000  dq finite difference perturbation B field



--------------------------------------------------------------------------------------------------------


 Static calculation
 charge density and potential will be updated during run
 non-spin polarized calculation
 Variant of blocked Davidson
 Davidson routine will perform the subspace rotation
 perform sub-space diagonalisation
    after iterative eigenvector-optimisation
 modified Broyden-mixing scheme, WC =      100.0
 initial mixing is a Kerker type mixing with AMIX =  0.4000 and BMIX =      1.0000
 Hartree-type preconditioning will be used
 using additional bands           26
 reciprocal scheme for non local part
 use partial core corrections
 calculate Harris-corrections to forces 
   (improved forces if not selfconsistent)
 use gradient corrections 
 use of overlap-Matrix (Vanderbilt PP)
 Methfessel and Paxton  Order N= 1 SIGMA  =   0.10


--------------------------------------------------------------------------------------------------------


  energy-cutoff  :      400.00
  volume of cell :       47.05
      direct lattice vectors                 reciprocal lattice vectors
     3.610000000  0.000000000  0.000000000     0.277008310  0.000000000  0.000000000
     0.000000000  3.610000000  0.000000000     0.000000000  0.277008310  0.000000000
     0.000000000  0.000000000  3.610000000     0.000000000  0.000000000  0.277008310

  length of vectors
     3.610000000  3.610000000  3.610000000     0.277008310  0.277008310  0.277008310


 
 k-points in units of 2pi/SCALE and weight: KPOINTS created by Atomic Simulation Env
   0.00000000  0.00000000  0.00000000       0.001
   0.02518257  0.00000000  0.00000000       0.005
   0.05036515  0.00000000  0.00000000       0.005
   0.07554772  0.00000000  0.00000000       0.005
   0.10073029  0.00000000  0.00000000       0.005
   0.12591287  0.00000000  0.00000000       0.005
   0.02518257  0.02518257  0.00000000       0.009
   0.05036515  0.02518257  0.00000000       0.018
   0.07554772  0.02518257  0.00000000       0.018
   0.10073029  0.02518257  0.00000000       0.018
   0.12591287  0.02518257  0.00000000       0.018
   0.05036515  0.05036515  0.00000000       0.009
   0.07554772  0.05036515  0.00000000       0.018
   0.10073029  0.05036515  0.00000000       0.018
   0.12591287  0.05036515  0.00000000       0.018
   0.07554772  0.07554772  0.00000000       0.009
   0.10073029  0.07554772  0.00000000       0.018
   0.12591287  0.07554772  0.00000000       0.018
   0.10073029  0.10073029  0.00000000       0.009
   0.12591287  0.10073029  0.00000000       0.018
   0.12591287  0.12591287  0.00000000       0.009
   0.02518257  0.02518257  0.02518257       0.006
   0.05036515  0.02518257  0.02518257       0.018
   0.07554772  0.02518257  0.02518257       0.018
   0.10073029  0.02518257  0.02518257       0.018
   0.12591287  0.02518257  0.02518257       0.018
   0.05036515  0.05036515  0.02518257       0.018
   0.07554772  0.05036515  0.02518257       0.036
   0.10073029  0.05036515  0.02518257       0.036
   0.12591287  0.05036515  0.02518257       0.036
   0.07554772  0.07554772  0.02518257       0.018
   0.10073029  0.07554772  0.02518257       0.036
   0.12591287  0.07554772  0.02518257       0.036
   0.10073029  0.10073029  0.02518257       0.018
   0.12591287  0.10073029  0.02518257       0.036
   0.12591287  0.12591287  0.02518257       0.018
   0.05036515  0.05036515  0.05036515       0.006
   0.07554772  0.05036515  0.05036515       0.018
   0.10073029  0.05036515  0.05036515       0.018
   0.12591287  0.05036515  0.05036515       0.018
   0.07554772  0.07554772  0.05036515       0.018
   0.10073029  0.07554772  0.05036515       0.036
   0.12591287  0.07554772  0.05036515       0.036
   0.10073029  0.10073029  0.05036515       0.018
   0.12591287  0.10073029  0.05036515       0.036
   0.12591287  0.12591287  0.05036515       0.018
   0.07554772  0.07554772  0.07554772       0.006
   0.10073029  0.07554772  0.07554772       0.018
   0.12591287  0.07554772  0.07554772       0.018
   0.10073029  0.10073029  0.07554772       0.018
   0.12591287  0.10073029  0.07554772       0.036
   0.12591287  0.12591287  0.07554772       0.018
   0.10073029  0.10073029  0.10073029       0.006
   0.12591287  0.10073029  0.10073029       0.018
   0.12591287  0.12591287  0.10073029       0.018
   0.12591287  0.12591287  0.12591287       0.006
 
 k-points in reciprocal lattice and weights: KPOINTS created by Atomic Simulation Env
   0.00000000  0.00000000  0.00000000       0.001
   0.09090909  0.00000000  0.00000000       0.005
   0.18181818  0.00000000  0.00000000       0.005
   0.27272727  0.00000000  0.00000000       0.005
   0.36363636  0.00000000  0.00000000       0.005
   0.45454545  0.00000000  0.00000000       0.005
   0.09090909  0.09090909  0.00000000       0.009
   0.18181818  0.09090909  0.00000000       0.018
   0.27272727  0.09090909  0.00000000       0.018
   0.36363636  0.09090909  0.00000000       0.018
   0.45454545  0.09090909  0.00000000       0.018
   0.18181818  0.18181818  0.00000000       0.009
   0.27272727  0.18181818  0.00000000       0.018
   0.36363636  0.18181818  0.00000000       0.018
   0.45454545  0.18181818  0.00000000       0.018
   0.27272727  0.27272727  0.00000000       0.009
   0.36363636  0.27272727  0.00000000       0.018
   0.45454545  0.27272727  0.00000000       0.018
   0.36363636  0.36363636  0.00000000       0.009
   0.45454545  0.36363636  0.00000000       0.018
   0.45454545  0.45454545  0.00000000       0.009
   0.09090909  0.09090909  0.09090909       0.006
   0.18181818  0.09090909  0.09090909       0.018
   0.27272727  0.09090909  0.09090909       0.018
   0.36363636  0.09090909  0.09090909       0.018
   0.45454545  0.09090909  0.09090909       0.018
   0.18181818  0.18181818  0.09090909       0.018
   0.27272727  0.18181818  0.09090909       0.036
   0.36363636  0.18181818  0.09090909       0.036
   0.45454545  0.18181818  0.09090909       0.036
   0.27272727  0.27272727  0.09090909       0.018
   0.36363636  0.27272727  0.09090909       0.036
   0.45454545  0.27272727  0.09090909       0.036
   0.36363636  0.36363636  0.09090909       0.018
   0.45454545  0.36363636  0.09090909       0.036
   0.45454545  0.45454545  0.09090909       0.018
   0.18181818  0.18181818  0.18181818       0.006
   0.27272727  0.18181818  0.18181818       0.018
   0.36363636  0.18181818  0.18181818       0.018
   0.45454545  0.18181818  0.18181818       0.018
   0.27272727  0.27272727  0.18181818       0.018
   0.36363636  0.27272727  0.18181818       0.036
   0.45454545  0.27272727  0.18181818       0.036
   0.36363636  0.36363636  0.18181818       0.018
   0.45454545  0.36363636  0.18181818       0.036
   0.45454545  0.45454545  0.18181818       0.018
   0.27272727  0.27272727  0.27272727       0.006
   0.36363636  0.27272727  0.27272727       0.018
   0.45454545  0.27272727  0.27272727       0.018
   0.36363636  0.36363636  0.27272727       0.018
   0.45454545  0.36363636  0.27272727       0.036
   0.45454545  0.45454545  0.27272727       0.018
   0.36363636  0.36363636  0.36363636       0.006
   0.45454545  0.36363636  0.36363636       0.018
   0.45454545  0.45454545  0.36363636       0.018
   0.45454545  0.45454545  0.45454545       0.006
 
 position of ions in fractional coordinates (direct lattice) 
   0.00000000  0.00000000  0.00000000
   0.00000000  0.50000000  0.50000000
   0.50000000  0.00000000  0.50000000
   0.50000000  0.50000000  0.00000000
 
 position of ions in cartesian coordinates  (Angst):
   0.00000000  0.00000000  0.00000000
   0.00000000  1.80500000  1.80500000
   1.80500000  0.00000000  1.80500000
   1.80500000  1.80500000  0.00000000
 


--------------------------------------------------------------------------------------------------------


 k-point  1 :   0.0000 0.0000 0.0000  plane waves:     847
 k-point  2 :   0.0909 0.0000 0.0000  plane waves:     855
 k-point  3 :   0.1818 0.0000 0.0000  plane waves:     848
 k-point  4 :   0.2727 0.0000 0.0000  plane waves:     852
 k-point  5 :   0.3636 0.0000 0.0000  plane waves:     860
 k-point  6 :   0.4545 0.0000 0.0000  plane waves:     848
 k-point  7 :   0.0909 0.0909 0.0000  plane waves:     861
 k-point  8 :   0.1818 0.0909 0.0000  plane waves:     849
 k-point  9 :   0.2727 0.0909 0.0000  plane waves:     849
 k-point 10 :   0.3636 0.0909 0.0000  plane waves:     847
 k-point 11 :   0.4545 0.0909 0.0000  plane waves:     845
 k-point 12 :   0.1818 0.1818 0.0000  plane waves:     852
 k-point 13 :   0.2727 0.1818 0.0000  plane waves:     856
 k-point 14 :   0.3636 0.1818 0.0000  plane waves:     850
 k-point 15 :   0.4545 0.1818 0.0000  plane waves:     852
 k-point 16 :   0.2727 0.2727 0.0000  plane waves:     856
 k-point 17 :   0.3636 0.2727 0.0000  plane waves:     855
 k-point 18 :   0.4545 0.2727 0.0000  plane waves:     853
 k-point 19 :   0.3636 0.3636 0.0000  plane waves:     858
 k-point 20 :   0.4545 0.3636 0.0000  plane waves:     852
 k-point 21 :   0.4545 0.4545 0.0000  plane waves:     860
 k-point 22 :   0.0909 0.0909 0.0909  plane waves:     847
 k-point 23 :   0.1818 0.0909 0.0909  plane waves:     844
 k-point 24 :   0.2727 0.0909 0.0909  plane waves:     847
 k-point 25 :   0.3636 0.0909 0.0909  plane waves:     850
 k-point 26 :   0.4545 0.0909 0.0909  plane waves:     852
 k-point 27 :   0.1818 0.1818 0.0909  plane waves:     849
 k-point 28 :   0.2727 0.1818 0.0909  plane waves:     849
 k-point 29 :   0.3636 0.1818 0.0909  plane waves:     858
 k-point 30 :   0.4545 0.1818 0.0909  plane waves:     854
 k-point 31 :   0.2727 0.2727 0.0909  plane waves:     859
 k-point 32 :   0.3636 0.2727 0.0909  plane waves:     854
 k-point 33 :   0.4545 0.2727 0.0909  plane waves:     856
 k-point 34 :   0.3636 0.3636 0.0909  plane waves:     852
 k-point 35 :   0.4545 0.3636 0.0909  plane waves:     853
 k-point 36 :   0.4545 0.4545 0.0909  plane waves:     857
 k-point 37 :   0.1818 0.1818 0.1818  plane waves:     844
 k-point 38 :   0.2727 0.1818 0.1818  plane waves:     854
 k-point 39 :   0.3636 0.1818 0.1818  plane waves:     856
 k-point 40 :   0.4545 0.1818 0.1818  plane waves:     854
 k-point 41 :   0.2727 0.2727 0.1818  plane waves:     860
 k-point 42 :   0.3636 0.2727 0.1818  plane waves:     858
 k-point 43 :   0.4545 0.2727 0.1818  plane waves:     857
 k-point 44 :   0.3636 0.3636 0.1818  plane waves:     853
 k-point 45 :   0.4545 0.3636 0.1818  plane waves:     855
 k-point 46 :   0.4545 0.4545 0.1818  plane waves:     859
 k-point 47 :   0.2727 0.2727 0.2727  plane waves:     853
 k-point 48 :   0.3636 0.2727 0.2727  plane waves:     853
 k-point 49 :   0.4545 0.2727 0.2727  plane waves:     856
 k-point 50 :   0.3636 0.3636 0.2727  plane waves:     854
 k-point 51 :   0.4545 0.3636 0.2727  plane waves:     859
 k-point 52 :   0.4545 0.4545 0.2727  plane waves:     862
 k-point 53 :   0.3636 0.3636 0.3636  plane waves:     856
 k-point 54 :   0.4545 0.3636 0.3636  plane waves:     873
 k-point 55 :   0.4545 0.4545 0.3636  plane waves:     874
 k-point 56 :   0.4545 0.4545 0.4545  plane waves:     870

 maximum and minimum number of plane-waves per node :       874      844

 maximum number of plane-waves:       874
 maximum index in each direction: 
   IXMAX=    5   IYMAX=    5   IZMAX=    5
   IXMIN=   -6   IYMIN=   -6   IZMIN=   -6

 WARNING: aliasing errors must be expected set NGX to  24 to avoid them
 WARNING: aliasing errors must be expected set NGY to  24 to avoid them
 WARNING: aliasing errors must be expected set NGZ to  24 to avoid them
 aliasing errors are usually negligible using standard VASP settings
 and one can safely disregard these warnings

 serial   3D FFT for wavefunctions
 parallel 3D FFT for charge:
    minimum data exchange during FFTs selected (reduces bandwidth)


 total amount of memory used by VASP on root node    39479. kBytes
========================================================================

   base      :      30000. kBytes
   nonl-proj :       7217. kBytes
   fftplans  :        113. kBytes
   grid      :        367. kBytes
   one-center:         62. kBytes
   wavefun   :       1720. kBytes
 
     INWAV:  cpu time    0.0000: real time    0.0001
 Broyden mixing: mesh for mixing (old mesh)
   NGX = 11   NGY = 11   NGZ = 11
  (NGX  = 36   NGY  = 36   NGZ  = 36)
  gives a total of   1331 points

 initial charge density was supplied:
 charge density of overlapping atoms calculated
 number of electron      44.0000000 magnetization 
 keeping initial charge density in first step


--------------------------------------------------------------------------------------------------------


 Maximum index for augmentation-charges          277 (set IRDMAX)


--------------------------------------------------------------------------------------------------------


 First call to EWALD:  gamma=   0.491
 Maximum number of real-space cells 3x 3x 3
 Maximum number of reciprocal cells 3x 3x 3

 FEWALD executed in parallel
    FEWALD:  cpu time    0.0017: real time    0.0018


----------------------------------------- Iteration    1(   1)  ---------------------------------------


    POTLOK:  cpu time    0.0151: real time    0.0152
    SETDIJ:  cpu time    0.0027: real time    0.0028
     EDDAV:  cpu time    0.8667: real time    0.8704
       DOS:  cpu time    0.0015: real time    0.0015
    --------------------------------------------
      LOOP:  cpu time    0.8888: real time    0.8948

 eigenvalue-minimisations  :  6120
 total energy-change (2. order) : 0.1612589E+03  (-0.1651651E+04)
 number of electron      44.0000000 magnetization 
 augmentation part       44.0000000 magnetization 

 Free energy of the ion-electron system (eV)
  ---------------------------------------------------
  alpha Z        PSCENC =       248.71993771
  Ewald energy   TEWEN  =     -4425.78708566
  -Hartree energ DENC   =     -1444.32473403
  -exchange      EXHF   =         0.00000000
  -V(xc)+E(xc)   XCENC  =       183.18686199
  PAW double counting   =      4912.82663951    -5336.19386850
  entropy T*S    EENTRO =        -0.00053389
  eigenvalues    EBANDS =       459.00114861
  atomic energy  EATOM  =      5563.83056080
  Solvation  Ediel_sol  =         0.00000000
  ---------------------------------------------------
  free energy    TOTEN  =       161.25892655 eV

  energy without entropy =      161.25946043  energy(sigma->0) =      161.25910451


--------------------------------------------------------------------------------------------------------




----------------------------------------- Iteration    1(   2)  ---------------------------------------


     EDDAV:  cpu time    0.7061: real time    0.7078
       DOS:  cpu time    0.0018: real time    0.0018
    --------------------------------------------
      LOOP:  cpu time    0.7092: real time    0.7122

 eigenvalue-minimisations  :  5472
 total energy-change (2. order) :-0.1743936E+03  (-0.1580103E+03)
 number of electron      44.0000000 magnetization 
 augmentation part       44.0000000 magnetization 

 Free energy of the ion-electron system (eV)
  ---------------------------------------------------
  alpha Z        PSCENC =       248.71993771
  Ewald energy   TEWEN  =     -4425.78708566
  -Hartree energ DENC   =     -1444.32473403
  -exchange      EXHF   =         0.00000000
  -V(xc)+E(xc)   XCENC  =       183.18686199
  PAW double counting   =      4912.82663951    -5336.19386850
  entropy T*S    EENTRO =        -0.00281308
  eigenvalues    EBANDS =       284.60987471
  atomic energy  EATOM  =      5563.83056080
  Solvation  Ediel_sol  =         0.00000000
  ---------------------------------------------------
  free energy    TOTEN  =       -13.13462655 eV

  energy without entropy =      -13.13181347  energy(sigma->0) =      -13.13368886


--------------------------------------------------------------------------------------------------------




----------------------------------------- Iteration    1(   3)  ---------------------------------------


     EDDAV:  cpu time    1.1412: real time    1.1438
       DOS:  cpu time    0.0020: real time    0.0020
    --------------------------------------------
      LOOP:  cpu time    1.1442: real time    1.1481

 eigenvalue-minimisations  :  7512
 total energy-change (2. order) :-0.5342132E+01  (-0.5290329E+01)
 number of electron      44.0000000 magnetization 
 augmentation part       44.0000000 magnetization 

 Free energy of the ion-electron system (eV)
  ---------------------------------------------------
  alpha Z        PSCENC =       248.71993771
  Ewald energy   TEWEN  =     -4425.78708566
  -Hartree energ DENC   =     -1444.32473403
  -exchange      EXHF   =         0.00000000
  -V(xc)+E(xc)   XCENC  =       183.18686199
  PAW double counting   =      4912.82663951    -5336.19386850
  entropy T*S    EENTRO =        -0.00419042
  eigenvalues    EBANDS =       279.26912023
  atomic energy  EATOM  =      5563.83056080
  Solvation  Ediel_sol  =         0.00000000
  ---------------------------------------------------
  free energy    TOTEN  =       -18.47675837 eV

  energy without entropy =      -18.47256795  energy(sigma->0) =      -18.47536156


--------------------------------------------------------------------------------------------------------




----------------------------------------- Iteration    1(   4)  ---------------------------------------


     EDDAV:  cpu time    0.7339: real time    0.7356
       DOS:  cpu time    0.0010: real time    0.0010
    --------------------------------------------
      LOOP:  cpu time    0.7357: real time    0.7384

 eigenvalue-minimisations  :  5664
 total energy-change (2. order) :-0.3964664E-01  (-0.3964541E-01)
 number of electron      44.0000000 magnetization 
 augmentation part       44.0000000 magnetization 

 Free energy of the ion-electron system (eV)
  ---------------------------------------------------
  alpha Z        PSCENC =       248.71993771
  Ewald energy   TEWEN  =     -4425.78708566
  -Hartree energ DENC   =     -1444.32473403
  -exchange      EXHF   =         0.00000000
  -V(xc)+E(xc)   XCENC  =       183.18686199
  PAW double counting   =      4912.82663951    -5336.19386850
  entropy T*S    EENTRO =        -0.00418931
  eigenvalues    EBANDS =       279.22947248
  atomic energy  EATOM  =      5563.83056080
  Solvation  Ediel_sol  =         0.00000000
  ---------------------------------------------------
  free energy    TOTEN  =       -18.51640501 eV

  energy without entropy =      -18.51221571  energy(sigma->0) =      -18.51500858


--------------------------------------------------------------------------------------------------------




----------------------------------------- Iteration    1(   5)  ---------------------------------------


     EDDAV:  cpu time    1.1485: real time    1.1511
       DOS:  cpu time    0.0010: real time    0.0010
    CHARGE:  cpu time    0.0110: real time    0.0110
    MIXING:  cpu time    0.0005: real time    0.0006
    --------------------------------------------
      LOOP:  cpu time    1.1620: real time    1.1664

 eigenvalue-minimisations  :  7632
 total energy-change (2. order) :-0.5385148E-03  (-0.5385132E-03)
 number of electron      44.0000852 magnetization 
 augmentation part       25.9428236 magnetization 

 Broyden mixing:
  rms(total) = 0.15340E+01    rms(broyden)= 0.15337E+01
  rms(prec ) = 0.36035E+01
  weight for this iteration     100.00

 Free energy of the ion-electron system (eV)
  ---------------------------------------------------
  alpha Z        PSCENC =       248.71993771
  Ewald energy   TEWEN  =     -4425.78708566
  -Hartree energ DENC   =     -1444.32473403
  -exchange      EXHF   =         0.00000000
  -V(xc)+E(xc)   XCENC  =       183.18686199
  PAW double counting   =      4912.82663951    -5336.19386850
  entropy T*S    EENTRO =        -0.00418927
  eigenvalues    EBANDS =       279.22893392
  atomic energy  EATOM  =      5563.83056080
  Solvation  Ediel_sol  =         0.00000000
  ---------------------------------------------------
  free energy    TOTEN  =       -18.51694353 eV

  energy without entropy =      -18.51275426  energy(sigma->0) =      -18.51554711


--------------------------------------------------------------------------------------------------------




----------------------------------------- Iteration    1(   6)  ---------------------------------------


    POTLOK:  cpu time    0.0044: real time    0.0044
    SETDIJ:  cpu time    0.0027: real time    0.0027
     EDDAV:  cpu time    0.9231: real time    0.9251
       DOS:  cpu time    0.0014: real time    0.0014
    CHARGE:  cpu time    0.0095: real time    0.0095
    MIXING:  cpu time    0.0004: real time    0.0004
    --------------------------------------------
      LOOP:  cpu time    0.9424: real time    0.9530

 eigenvalue-minimisations  :  6720
 total energy-change (2. order) : 0.2107504E+01  (-0.3341174E+01)
 number of electron      44.0000952 magnetization 
 augmentation part       29.2340572 magnetization 

 Broyden mixing:
  rms(total) = 0.78147E+00    rms(broyden)= 0.78098E+00
  rms(prec ) = 0.16833E+01
  weight for this iteration     100.00

 eigenvalues of (default mixing * dielectric matrix)
  average eigenvalue GAMMA=   0.6635
  0.6635

 Free energy of the ion-electron system (eV)
  ---------------------------------------------------
  alpha Z        PSCENC =       248.71993771
  Ewald energy   TEWEN  =     -4425.78708566
  -Hartree energ DENC   =     -1332.80494160
  -exchange      EXHF   =         0.00000000
  -V(xc)+E(xc)   XCENC  =       177.64529533
  PAW double counting   =      4994.42869609    -5395.80397657
  entropy T*S    EENTRO =        -0.00058292
  eigenvalues    EBANDS =       153.36265727
  atomic energy  EATOM  =      5563.83056080
  Solvation  Ediel_sol  =         0.00000000
  ---------------------------------------------------
  free energy    TOTEN  =       -16.40943954 eV

  energy without entropy =      -16.40885662  energy(sigma->0) =      -16.40924523


--------------------------------------------------------------------------------------------------------




----------------------------------------- Iteration    1(   7)  ---------------------------------------


    POTLOK:  cpu time    0.0040: real time    0.0040
    SETDIJ:  cpu time    0.0021: real time    0.0021
     EDDAV:  cpu time    0.9120: real time    0.9142
       DOS:  cpu time    0.0013: real time    0.0013
    CHARGE:  cpu time    0.0087: real time    0.0087
    MIXING:  cpu time    0.0002: real time    0.0002
    --------------------------------------------
      LOOP:  cpu time    0.9296: real time    0.9382

 eigenvalue-minimisations  :  6744
 total energy-change (2. order) : 0.1451556E+01  (-0.5514044E+00)
 number of electron      44.0000913 magnetization 
 augmentation part       27.9682807 magnetization 

 Broyden mixing:
  rms(total) = 0.11290E+00    rms(broyden)= 0.11269E+00
  rms(prec ) = 0.28353E+00
  weight for this iteration     100.00

 eigenvalues of (default mixing * dielectric matrix)
  average eigenvalue GAMMA=   1.3888
  2.1396  0.6380

 Free energy of the ion-electron system (eV)
  ---------------------------------------------------
  alpha Z        PSCENC =       248.71993771
  Ewald energy   TEWEN  =     -4425.78708566
  -Hartree energ DENC   =     -1366.80651737
  -exchange      EXHF   =         0.00000000
  -V(xc)+E(xc)   XCENC  =       179.42763383
  PAW double counting   =      5093.23858403    -5513.74510112
  entropy T*S    EENTRO =         0.00011806
  eigenvalues    EBANDS =       206.16398575
  atomic energy  EATOM  =      5563.83056080
  Solvation  Ediel_sol  =         0.00000000
  ---------------------------------------------------
  free energy    TOTEN  =       -14.95788396 eV

  energy without entropy =      -14.95800202  energy(sigma->0) =      -14.95792331


--------------------------------------------------------------------------------------------------------




----------------------------------------- Iteration    1(   8)  ---------------------------------------


    POTLOK:  cpu time    0.0029: real time    0.0029
    SETDIJ:  cpu time    0.0021: real time    0.0021
     EDDAV:  cpu time    0.8725: real time    0.8744
       DOS:  cpu time    0.0014: real time    0.0014
    CHARGE:  cpu time    0.0081: real time    0.0081
    MIXING:  cpu time    0.0002: real time    0.0002
    --------------------------------------------
      LOOP:  cpu time    0.8882: real time    0.8918

 eigenvalue-minimisations  :  6504
 total energy-change (2. order) : 0.4093092E-01  (-0.2513993E-02)
 number of electron      44.0000913 magnetization 
 augmentation part       27.9524936 magnetization 

 Broyden mixing:
  rms(total) = 0.61639E-01    rms(broyden)= 0.61619E-01
  rms(prec ) = 0.14872E+00
  weight for this iteration     100.00

 eigenvalues of (default mixing * dielectric matrix)
  average eigenvalue GAMMA=   1.3683
  0.6581  0.9331  2.5139

 Free energy of the ion-electron system (eV)
  ---------------------------------------------------
  alpha Z        PSCENC =       248.71993771
  Ewald energy   TEWEN  =     -4425.78708566
  -Hartree energ DENC   =     -1355.40139258
  -exchange      EXHF   =         0.00000000
  -V(xc)+E(xc)   XCENC  =       178.95365211
  PAW double counting   =      5247.98444790    -5678.65899181
  entropy T*S    EENTRO =         0.00012076
  eigenvalues    EBANDS =       205.44179772
  atomic energy  EATOM  =      5563.83056080
  Solvation  Ediel_sol  =         0.00000000
  ---------------------------------------------------
  free energy    TOTEN  =       -14.91695304 eV

  energy without entropy =      -14.91707381  energy(sigma->0) =      -14.91699330


--------------------------------------------------------------------------------------------------------




----------------------------------------- Iteration    1(   9)  ---------------------------------------


    POTLOK:  cpu time    0.0081: real time    0.0081
    SETDIJ:  cpu time    0.0020: real time    0.0020
     EDDAV:  cpu time    1.0692: real time    1.0693
       DOS:  cpu time    0.0015: real time    0.0015
    CHARGE:  cpu time    0.0078: real time    0.0078
    MIXING:  cpu time    0.0003: real time    0.0003
    --------------------------------------------
      LOOP:  cpu time    1.0899: real time    1.0914

 eigenvalue-minimisations  :  7392
 total energy-change (2. order) : 0.6677777E-02  (-0.2175195E-02)
 number of electron      44.0000915 magnetization 
 augmentation part       28.0361817 magnetization 

 Broyden mixing:
  rms(total) = 0.48302E-02    rms(broyden)= 0.48067E-02
  rms(prec ) = 0.10193E-01
  weight for this iteration     100.00

 eigenvalues of (default mixing * dielectric matrix)
  average eigenvalue GAMMA=   1.5725
  0.6583  0.9354  2.6489  2.0475

 Free energy of the ion-electron system (eV)
  ---------------------------------------------------
  alpha Z        PSCENC =       248.71993771
  Ewald energy   TEWEN  =     -4425.78708566
  -Hartree energ DENC   =     -1350.46673415
  -exchange      EXHF   =         0.00000000
  -V(xc)+E(xc)   XCENC  =       178.72685031
  PAW double counting   =      5277.52610671    -5709.37984279
  entropy T*S    EENTRO =        -0.00002059
  eigenvalues    EBANDS =       201.91995238
  atomic energy  EATOM  =      5563.83056080
  Solvation  Ediel_sol  =         0.00000000
  ---------------------------------------------------
  free energy    TOTEN  =       -14.91027526 eV

  energy without entropy =      -14.91025467  energy(sigma->0) =      -14.91026840


--------------------------------------------------------------------------------------------------------




----------------------------------------- Iteration    1(  10)  ---------------------------------------


    POTLOK:  cpu time    0.0033: real time    0.0033
    SETDIJ:  cpu time    0.0021: real time    0.0021
     EDDAV:  cpu time    0.7316: real time    0.7321
       DOS:  cpu time    0.0011: real time    0.0011
    --------------------------------------------
      LOOP:  cpu time    0.7391: real time    0.7413

 eigenvalue-minimisations  :  5328
 total energy-change (2. order) :-0.2871550E-04  (-0.1740075E-04)
 number of electron      44.0000915 magnetization 
 augmentation part       28.0361817 magnetization 

 Free energy of the ion-electron system (eV)
  ---------------------------------------------------
  alpha Z        PSCENC =       248.71993771
  Ewald energy   TEWEN  =     -4425.78708566
  -Hartree energ DENC   =     -1350.81071310
  -exchange      EXHF   =         0.00000000
  -V(xc)+E(xc)   XCENC  =       178.74369239
  PAW double counting   =      5274.39292374    -5706.05453508
  entropy T*S    EENTRO =        -0.00001583
  eigenvalues    EBANDS =       202.05493104
  atomic energy  EATOM  =      5563.83056080
  Solvation  Ediel_sol  =         0.00000000
  ---------------------------------------------------
  free energy    TOTEN  =       -14.91030398 eV

  energy without entropy =      -14.91028815  energy(sigma->0) =      -14.91029870


--------------------------------------------------------------------------------------------------------




 average (electrostatic) potential at core
  the test charge radii are     0.9430
  (the norm of the test charge is              1.0000)
       1 -63.6528       2 -63.6528       3 -63.6528       4 -63.6528
 
 
 
 E-fermi :   7.6333     XC(G=0): -12.7502     alpha+bet :-13.4799


 k-point     1 :       0.0000    0.0000    0.0000
  band No.  band energies     occupation 
      1      -1.7476      2.00000
      2       2.7384      2.00000
      3       2.7384      2.00000
      4       2.7384      2.00000
      5       3.1972      2.00000
      6       3.1972      2.00000
      7       3.1972      2.00000
      8       4.6011      2.00000
      9       4.6011      2.00000
     10       4.6011      2.00000
     11       5.4336      2.00000
     12       5.4336      2.00000
     13       5.9858      2.00000
     14       5.9858      2.00000
     15       5.9858      2.00000
     16       6.1419      2.00000
     17       6.1419      2.00000
     18       6.1419      2.00000
     19       6.1419      2.00000
     20       6.1419      2.00000
     21       6.1419      2.00000
     22       9.1307     -0.00000
     23       9.1307     -0.00000
     24       9.1307     -0.00000
     25      14.7804      0.00000
     26      14.7804      0.00000
     27      14.7804      0.00000
     28      20.7485      0.00000
     29      20.7485      0.00000
     30      20.7485      0.00000
     31      20.7485      0.00000
     32      20.7485      0.00000
     33      20.7485      0.00000
     34      25.2542      0.00000
     35      25.2542      0.00000
     36      25.2542      0.00000
     37      27.9623      0.00000
     38      27.9623      0.00000
     39      27.9623      0.00000
     40      30.2663      0.00000
     41      32.9386      0.00000
     42      32.9386      0.00000
     43      32.9386      0.00000
     44      35.4341      0.00000
     45      35.4341      0.00000
     46      35.4341      0.00000
     47      39.2052      0.00000
     48      44.0068      0.00000

 k-point     2 :       0.0909    0.0000    0.0000
  band No.  band energies     occupation 
      1      -1.6468      2.00000
      2       2.7369      2.00000
      3       2.7855      2.00000
      4       2.7855      2.00000
      5       3.2242      2.00000
      6       3.2258      2.00000
      7       3.2258      2.00000
      8       4.5709      2.00000
      9       4.6243      2.00000
     10       4.6243      2.00000
     11       5.4059      2.00000
     12       5.4439      2.00000
     13       5.9507      2.00000
     14       5.9507      2.00000
     15       5.9651      2.00000
     16       5.9651      2.00000
     17       5.9744      2.00000
     18       6.1006      2.00000
     19       6.1006      2.00000
     20       6.1420      2.00000
     21       6.1420      2.00000
     22       8.5279     -0.00000
     23       9.3976     -0.00000
     24       9.3976     -0.00000
     25      14.8168      0.00000
     26      14.8168      0.00000
     27      15.5812      0.00000
     28      20.0946      0.00000
     29      20.0946      0.00000
     30      20.3261      0.00000
     31      20.3261      0.00000
     32      20.8970      0.00000
     33      20.8970      0.00000
     34      25.2967      0.00000
     35      26.0316      0.00000
     36      26.0316      0.00000
     37      28.0008      0.00000
     38      28.6054      0.00000
     39      28.6054      0.00000
     40      29.9194      0.00000
     41      31.9053      0.00000
     42      31.9053      0.00000
     43      32.5110      0.00000
     44      35.9954      0.00000
     45      36.5135      0.00000
     46      36.5135      0.00000
     47      39.4566      0.00000
     48      42.1846      0.00000

 k-point     3 :       0.1818    0.0000    0.0000
  band No.  band energies     occupation 
      1      -1.3469      2.00000
      2       2.7085      2.00000
      3       2.9189      2.00000
      4       2.9189      2.00000
      5       3.3029      2.00000
      6       3.3118      2.00000
      7       3.3118      2.00000
      8       4.4834      2.00000
      9       4.6949      2.00000
     10       4.6949      2.00000
     11       5.3277      2.00000
     12       5.4758      2.00000
     13       5.5619      2.00000
     14       5.5619      2.00000
     15       5.8490      2.00000
     16       5.8490      2.00000
     17       5.9409      2.00000
     18       5.9830      2.00000
     19       5.9830      2.00000
     20       6.1424      2.00000
     21       6.1424      2.00000
     22       7.3134      2.00006
     23      10.0706     -0.00000
     24      10.0706     -0.00000
     25      14.9299      0.00000
     26      14.9299      0.00000
     27      17.4083      0.00000
     28      18.7678      0.00000
     29      18.7678      0.00000
     30      19.3782      0.00000
     31      19.3782      0.00000
     32      21.3344      0.00000
     33      21.3344      0.00000
     34      25.4258      0.00000
     35      27.7297      0.00000
     36      27.7297      0.00000
     37      28.1243      0.00000
     38      29.1621      0.00000
     39      30.2092      0.00000
     40      30.2092      0.00000
     41      30.2335      0.00000
     42      30.2335      0.00000
     43      31.5342      0.00000
     44      37.3925      0.00000
     45      37.9626      0.00000
     46      38.3154      0.00000
     47      38.3154      0.00000
     48      42.0340      0.00000

 k-point     4 :       0.2727    0.0000    0.0000
  band No.  band energies     occupation 
      1      -0.8568      2.00000
      2       2.5660      2.00000
      3       3.1130      2.00000
      4       3.1130      2.00000
      5       3.4280      2.00000
      6       3.4567      2.00000
      7       3.4567      2.00000
      8       4.3462      2.00000
      9       4.8109      2.00000
     10       4.8109      2.00000
     11       5.0992      2.00000
     12       5.0992      2.00000
     13       5.2110      2.00000
     14       5.5262      2.00000
     15       5.6958      2.00000
     16       5.6958      2.00000
     17       5.8069      2.00000
     18       5.8069      2.00000
     19       5.8884      2.00000
     20       6.1380      2.00000
     21       6.1427      2.00000
     22       6.1427      2.00000
     23      10.9801      0.00000
     24      10.9801      0.00000
     25      15.1315      0.00000
     26      15.1315      0.00000
     27      17.3111      0.00000
     28      17.3111      0.00000
     29      18.3284      0.00000
     30      18.3284      0.00000
     31      19.6799      0.00000
     32      22.0397      0.00000
     33      22.0397      0.00000
     34      25.6457      0.00000
     35      28.3344      0.00000
     36      28.3563      0.00000
     37      28.5485      0.00000
     38      28.5485      0.00000
     39      29.8081      0.00000
     40      29.8081      0.00000
     41      30.3671      0.00000
     42      32.3242      0.00000
     43      32.3242      0.00000
     44      35.1008      0.00000
     45      39.2762      0.00000
     46      40.1948      0.00000
     47      40.1948      0.00000
     48      43.1201      0.00000

 k-point     5 :       0.3636    0.0000    0.0000
  band No.  band energies     occupation 
      1      -0.1950      2.00000
      2       2.1578      2.00000
      3       3.3192      2.00000
      4       3.3192      2.00000
      5       3.5906      2.00000
      6       3.6622      2.00000
      7       3.6622      2.00000
      8       4.1731      2.00000
      9       4.6561      2.00000
     10       4.6561      2.00000
     11       4.9681      2.00000
     12       4.9681      2.00000
     13       5.0807      2.00000
     14       5.3380      2.00000
     15       5.5268      2.00000
     16       5.5268      2.00000
     17       5.5916      2.00000
     18       5.5958      2.00000
     19       5.5958      2.00000
     20       5.8213      2.00000
     21       6.1428      2.00000
     22       6.1428      2.00000
     23      12.0434      0.00000
     24      12.0434      0.00000
     25      15.4374      0.00000
     26      15.4374      0.00000
     27      15.8757      0.00000
     28      15.8757      0.00000
     29      17.3812      0.00000
     30      17.3812      0.00000
     31      22.1735      0.00000
     32      22.9839      0.00000
     33      22.9839      0.00000
     34      25.9629      0.00000
     35      26.9466      0.00000
     36      26.9466      0.00000
     37      27.5733      0.00000
     38      28.7416      0.00000
     39      29.0268      0.00000
     40      32.1191      0.00000
     41      32.1191      0.00000
     42      32.4113      0.00000
     43      34.6648      0.00000
     44      34.6648      0.00000
     45      40.1423      0.00000
     46      40.1423      0.00000
     47      41.4947      0.00000
     48      42.0421      0.00000

 k-point     6 :       0.4545    0.0000    0.0000
  band No.  band energies     occupation 
      1       0.5998      2.00000
      2       1.4419      2.00000
      3       3.4612      2.00000
      4       3.4612      2.00000
      5       3.7789      2.00000
      6       3.9310      2.00000
      7       3.9310      2.00000
      8       3.9783      2.00000
      9       4.2634      2.00000
     10       4.2634      2.00000
     11       4.9825      2.00000
     12       5.0092      2.00000
     13       5.1590      2.00000
     14       5.1590      2.00000
     15       5.3732      2.00000
     16       5.3732      2.00000
     17       5.4075      2.00000
     18       5.4075      2.00000
     19       5.6666      2.00000
     20       5.7453      2.00000
     21       6.1431      2.00000
     22       6.1431      2.00000
     23      13.2252      0.00000
     24      13.2252      0.00000
     25      14.5073      0.00000
     26      14.5073      0.00000
     27      15.8367      0.00000
     28      15.8367      0.00000
     29      16.6428      0.00000
     30      16.6428      0.00000
     31      24.1360      0.00000
     32      24.1360      0.00000
     33      24.7518      0.00000
     34      25.4662      0.00000
     35      25.4662      0.00000
     36      26.3854      0.00000
     37      26.9209      0.00000
     38      27.1749      0.00000
     39      29.3684      0.00000
     40      30.4602      0.00000
     41      34.6217      0.00000
     42      34.6217      0.00000
     43      36.7669      0.00000
     44      36.7669      0.00000
     45      37.3003      0.00000
     46      37.3003      0.00000
     47      42.2060      0.00000
     48      42.2060      0.00000

 k-point     7 :       0.0909    0.0909    0.0000
  band No.  band energies     occupation 
      1      -1.5465      2.00000
      2       2.7853      2.00000
      3       2.7853      2.00000
      4       2.8312      2.00000
      5       3.2520      2.00000
      6       3.2520      2.00000
      7       3.2531      2.00000
      8       4.5534      2.00000
      9       4.6355      2.00000
     10       4.6451      2.00000
     11       5.3982      2.00000
     12       5.4376      2.00000
     13       5.8384      2.00000
     14       5.8789      2.00000
     15       5.8789      2.00000
     16       5.9172      2.00000
     17       5.9734      2.00000
     18       5.9734      2.00000
     19       6.1004      2.00000
     20       6.1004      2.00000
     21       6.1153      2.00000
     22       8.7908     -0.00000
     23       8.7908     -0.00000
     24       9.6416     -0.00000
     25      14.8532      0.00000
     26      15.6323      0.00000
     27      15.6323      0.00000
     28      18.8128      0.00000
     29      20.2318      0.00000
     30      20.2318      0.00000
     31      20.4657      0.00000
     32      20.4657      0.00000
     33      21.0383      0.00000
     34      26.0861      0.00000
     35      26.0861      0.00000
     36      26.0955      0.00000
     37      28.6500      0.00000
     38      28.6500      0.00000
     39      29.2429      0.00000
     40      29.4560      0.00000
     41      30.6253      0.00000
     42      32.0087      0.00000
     43      33.2246      0.00000
     44      35.5353      0.00000
     45      36.3718      0.00000
     46      37.7981      0.00000
     47      40.1971      0.00000
     48      41.4209      0.00000

 k-point     8 :       0.1818    0.0909    0.0000
  band No.  band energies     occupation 
      1      -1.2482      2.00000
      2       2.7611      2.00000
      3       2.9229      2.00000
      4       2.9608      2.00000
      5       3.3289      2.00000
      6       3.3353      2.00000
      7       3.3362      2.00000
      8       4.4750      2.00000
      9       4.6997      2.00000
     10       4.7068      2.00000
     11       5.3314      2.00000
     12       5.4680      2.00000
     13       5.4820      2.00000
     14       5.4886      2.00000
     15       5.7158      2.00000
     16       5.8205      2.00000
     17       5.8576      2.00000
     18       5.9425      2.00000
     19       5.9826      2.00000
     20       6.1004      2.00000
     21       6.1010      2.00000
     22       7.6040      1.47326
     23       9.4268     -0.00000
     24      10.2758     -0.00000
     25      14.9645      0.00000
     26      15.7907      0.00000
     27      17.3320      0.00000
     28      17.4744      0.00000
     29      18.8950      0.00000
     30      19.5022      0.00000
     31      20.6345      0.00000
     32      20.7674      0.00000
     33      20.8776      0.00000
     34      26.2522      0.00000
     35      27.0687      0.00000
     36      27.7966      0.00000
     37      28.0247      0.00000
     38      28.7914      0.00000
     39      29.0265      0.00000
     40      30.2598      0.00000
     41      31.2670      0.00000
     42      31.3494      0.00000
     43      32.7479      0.00000
     44      36.4032      0.00000
     45      36.8226      0.00000
     46      38.8777      0.00000
     47      39.5472      0.00000
     48      42.0353      0.00000

 k-point     9 :       0.2727    0.0909    0.0000
  band No.  band energies     occupation 
      1      -0.7609      2.00000
      2       2.6257      2.00000
      3       3.1237      2.00000
      4       3.1505      2.00000
      5       3.4510      2.00000
      6       3.4721      2.00000
      7       3.4777      2.00000
      8       4.3442      2.00000
      9       4.8013      2.00000
     10       4.8132      2.00000
     11       5.0243      2.00000
     12       5.0603      2.00000
     13       5.2290      2.00000
     14       5.4372      2.00000
     15       5.5260      2.00000
     16       5.6743      2.00000
     17       5.7046      2.00000
     18       5.8062      2.00000
     19       5.8715      2.00000
     20       6.0980      2.00000
     21       6.1001      2.00000
     22       6.5421      2.00000
     23      10.2538     -0.00000
     24      11.1552      0.00000
     25      15.1332      0.00000
     26      15.9479      0.00000
     27      16.0693      0.00000
     28      17.4357      0.00000
     29      18.4386      0.00000
     30      19.7482      0.00000
     31      19.8526      0.00000
     32      21.2772      0.00000
     33      21.5461      0.00000
     34      26.5378      0.00000
     35      26.7417      0.00000
     36      27.4722      0.00000
     37      28.8964      0.00000
     38      29.0524      0.00000
     39      29.8815      0.00000
     40      30.2456      0.00000
     41      31.4765      0.00000
     42      32.3654      0.00000
     43      33.4655      0.00000
     44      35.1378      0.00000
     45      38.1602      0.00000
     46      39.2146      0.00000
     47      41.3664      0.00000
     48      42.5636      0.00000

 k-point    10 :       0.3636    0.0909    0.0000
  band No.  band energies     occupation 
      1      -0.1033      2.00000
      2       2.2263      2.00000
      3       3.3396      2.00000
      4       3.3563      2.00000
      5       3.6098      2.00000
      6       3.6607      2.00000
      7       3.6782      2.00000
      8       4.1766      2.00000
      9       4.5923      2.00000
     10       4.6397      2.00000
     11       4.8890      2.00000
     12       4.9692      2.00000
     13       5.0766      2.00000
     14       5.1569      2.00000
     15       5.5133      2.00000
     16       5.5352      2.00000
     17       5.5952      2.00000
     18       5.6027      2.00000
     19       5.7171      2.00000
     20       5.9750      2.00000
     21       6.0976      2.00000
     22       6.0995      2.00000
     23      11.1946      0.00000
     24      12.1981      0.00000
     25      14.5141      0.00000
     26      15.5707      0.00000
     27      16.0021      0.00000
     28      16.4771      0.00000
     29      17.4877      0.00000
     30      18.8291      0.00000
     31      22.1159      0.00000
     32      22.1242      0.00000
     33      22.5693      0.00000
     34      25.4788      0.00000
     35      26.0076      0.00000
     36      26.9558      0.00000
     37      29.1743      0.00000
     38      29.4720      0.00000
     39      29.8071      0.00000
     40      31.1302      0.00000
     41      32.1964      0.00000
     42      32.7549      0.00000
     43      34.6270      0.00000
     44      35.8395      0.00000
     45      39.6918      0.00000
     46      40.2244      0.00000
     47      40.2812      0.00000
     48      40.7072      0.00000

 k-point    11 :       0.4545    0.0909    0.0000
  band No.  band energies     occupation 
      1       0.6854      2.00000
      2       1.5195      2.00000
      3       3.4928      2.00000
      4       3.4997      2.00000
      5       3.7935      2.00000
      6       3.9036      2.00000
      7       3.9396      2.00000
      8       3.9876      2.00000
      9       4.2145      2.00000
     10       4.2616      2.00000
     11       4.8746      2.00000
     12       4.8792      2.00000
     13       5.1593      2.00000
     14       5.2494      2.00000
     15       5.3729      2.00000
     16       5.4025      2.00000
     17       5.4110      2.00000
     18       5.4613      2.00000
     19       5.6931      2.00000
     20       5.7983      2.00000
     21       6.0981      2.00000
     22       6.0988      2.00000
     23      12.2221      0.00000
     24      13.3313      0.00000
     25      13.3661      0.00000
     26      14.6391      0.00000
     27      16.0007      0.00000
     28      16.5766      0.00000
     29      17.1784      0.00000
     30      17.9030      0.00000
     31      23.1345      0.00000
     32      23.4198      0.00000
     33      24.2657      0.00000
     34      24.6528      0.00000
     35      24.9638      0.00000
     36      27.5237      0.00000
     37      27.5576      0.00000
     38      28.2598      0.00000
     39      30.1142      0.00000
     40      31.1112      0.00000
     41      33.5564      0.00000
     42      34.7016      0.00000
     43      35.6691      0.00000
     44      37.3820      0.00000
     45      37.9636      0.00000
     46      38.1017      0.00000
     47      42.1973      0.00000
     48      42.3133      0.00000

 k-point    12 :       0.1818    0.1818    0.0000
  band No.  band energies     occupation 
      1      -0.9548      2.00000
      2       2.9111      2.00000
      3       2.9111      2.00000
      4       3.0796      2.00000
      5       3.4060      2.00000
      6       3.4073      2.00000
      7       3.4073      2.00000
      8       4.4291      2.00000
      9       4.7375      2.00000
     10       4.7402      2.00000
     11       5.2654      2.00000
     12       5.2783      2.00000
     13       5.2783      2.00000
     14       5.3078      2.00000
     15       5.4833      2.00000
     16       5.7374      2.00000
     17       5.8471      2.00000
     18       5.8471      2.00000
     19       5.9815      2.00000
     20       5.9815      2.00000
     21       6.0364      2.00000
     22       8.2157     -0.00000
     23       8.2157     -0.00000
     24      10.8353      0.00000
     25      15.0251      0.00000
     26      15.7870      0.00000
     27      17.6750      0.00000
     28      17.6750      0.00000
     29      19.2681      0.00000
     30      19.2681      0.00000
     31      19.8709      0.00000
     32      19.8709      0.00000
     33      21.8801      0.00000
     34      26.5605      0.00000
     35      26.6269      0.00000
     36      27.4283      0.00000
     37      27.9987      0.00000
     38      27.9987      0.00000
     39      30.4183      0.00000
     40      30.4183      0.00000
     41      32.3566      0.00000
     42      33.2359      0.00000
     43      34.0609      0.00000
     44      35.5380      0.00000
     45      35.8449      0.00000
     46      38.1205      0.00000
     47      41.2000      0.00000
     48      41.4586      0.00000

 k-point    13 :       0.2727    0.1818    0.0000
  band No.  band energies     occupation 
      1      -0.4762      2.00000
      2       2.7967      2.00000
      3       3.1329      2.00000
      4       3.2547      2.00000
      5       3.5202      2.00000
      6       3.5202      2.00000
      7       3.5387      2.00000
      8       4.3264      2.00000
      9       4.7849      2.00000
     10       4.8327      2.00000
     11       4.8339      2.00000
     12       4.9397      2.00000
     13       4.9988      2.00000
     14       5.2391      2.00000
     15       5.5583      2.00000
     16       5.6097      2.00000
     17       5.7024      2.00000
     18       5.7848      2.00000
     19       5.8047      2.00000
     20       5.9799      2.00000
     21       5.9995      2.00000
     22       7.1250      2.00000
     23       8.9531     -0.00000
     24      11.6481      0.00000
     25      14.1514      0.00000
     26      15.4138      0.00000
     27      17.8007      0.00000
     28      18.0028      0.00000
     29      18.7841      0.00000
     30      19.8634      0.00000
     31      19.9164      0.00000
     32      20.5226      0.00000
     33      21.7805      0.00000
     34      25.1677      0.00000
     35      25.9123      0.00000
     36      27.6262      0.00000
     37      28.3412      0.00000
     38      30.1025      0.00000
     39      30.7037      0.00000
     40      32.0665      0.00000
     41      32.4930      0.00000
     42      33.0314      0.00000
     43      35.2307      0.00000
     44      35.5034      0.00000
     45      36.9019      0.00000
     46      37.1203      0.00000
     47      41.4327      0.00000
     48      42.1990      0.00000

 k-point    14 :       0.3636    0.1818    0.0000
  band No.  band energies     occupation 
      1       0.1678      2.00000
      2       2.4232      2.00000
      3       3.3788      2.00000
      4       3.4565      2.00000
      5       3.6611      2.00000
      6       3.6664      2.00000
      7       3.7243      2.00000
      8       4.1810      2.00000
      9       4.4329      2.00000
     10       4.5871      2.00000
     11       4.7546      2.00000
     12       4.7963      2.00000
     13       4.9789      2.00000
     14       5.2067      2.00000
     15       5.4694      2.00000
     16       5.5368      2.00000
     17       5.5940      2.00000
     18       5.6548      2.00000
     19       5.6728      2.00000
     20       5.9784      2.00000
     21       5.9840      2.00000
     22       6.4057      2.00000
     23       9.7761     -0.00000
     24      12.6416      0.00000
     25      12.8638      0.00000
     26      15.7347      0.00000
     27      16.3722      0.00000
     28      17.7029      0.00000
     29      18.5825      0.00000
[...]
  band No.  band energies     occupation 
      1       2.1333      2.00000
      2       2.5509      2.00000
      3       2.9539      2.00000
      4       3.0156      2.00000
      5       4.2405      2.00000
      6       4.2687      2.00000
      7       4.4234      2.00000
      8       4.5831      2.00000
      9       4.6348      2.00000
     10       4.6413      2.00000
     11       4.7245      2.00000
     12       4.7387      2.00000
     13       4.7889      2.00000
     14       4.7969      2.00000
     15       4.8563      2.00000
     16       4.8623      2.00000
     17       5.7771      2.00000
     18       5.9226      2.00000
     19       5.9384      2.00000
     20       5.9414      2.00000
     21       6.1562      2.00000
     22       6.7444      2.00000
     23       8.1994     -0.00000
     24       8.7228     -0.00000
     25      11.7628      0.00000
     26      12.3445      0.00000
     27      14.1449      0.00000
     28      15.1492      0.00000
     29      22.9267      0.00000
     30      23.7728      0.00000
     31      24.9487      0.00000
     32      25.5667      0.00000
     33      25.6992      0.00000
     34      26.6051      0.00000
     35      26.8322      0.00000
     36      29.1331      0.00000
     37      29.4635      0.00000
     38      29.5543      0.00000
     39      30.3810      0.00000
     40      30.4273      0.00000
     41      34.1368      0.00000
     42      34.6614      0.00000
     43      35.3610      0.00000
     44      35.6601      0.00000
     45      35.7907      0.00000
     46      37.4695      0.00000
     47      38.7751      0.00000
     48      39.2023      0.00000

 k-point    52 :       0.4545    0.4545    0.2727
  band No.  band energies     occupation 
      1       2.4275      2.00000
      2       2.7002      2.00000
      3       2.7002      2.00000
      4       2.8517      2.00000
      5       4.3663      2.00000
      6       4.4331      2.00000
      7       4.4331      2.00000
      8       4.5436      2.00000
      9       4.7001      2.00000
     10       4.7429      2.00000
     11       4.7429      2.00000
     12       4.7712      2.00000
     13       4.8441      2.00000
     14       4.8645      2.00000
     15       4.8645      2.00000
     16       4.9058      2.00000
     17       5.7685      2.00000
     18       5.8641      2.00000
     19       5.8641      2.00000
     20       5.8833      2.00000
     21       6.5556      2.00000
     22       7.2282      2.00000
     23       7.2282      2.00000
     24       7.9151     -0.00050
     25      12.2472      0.00000
     26      13.0732      0.00000
     27      13.0732      0.00000
     28      14.0144      0.00000
     29      23.6865      0.00000
     30      24.5926      0.00000
     31      24.5926      0.00000
     32      25.5408      0.00000
     33      27.4815      0.00000
     34      27.4815      0.00000
     35      27.8237      0.00000
     36      28.8062      0.00000
     37      29.6347      0.00000
     38      29.9318      0.00000
     39      30.1594      0.00000
     40      30.1594      0.00000
     41      33.9400      0.00000
     42      34.3591      0.00000
     43      34.3591      0.00000
     44      35.4611      0.00000
     45      35.7288      0.00000
     46      36.6902      0.00000
     47      36.9216      0.00000
     48      36.9216      0.00000

 k-point    53 :       0.3636    0.3636    0.3636
  band No.  band energies     occupation 
      1       1.9845      2.00000
      2       2.8420      2.00000
      3       2.8420      2.00000
      4       2.8420      2.00000
      5       4.3298      2.00000
      6       4.3298      2.00000
      7       4.3298      2.00000
      8       4.6503      2.00000
      9       4.6503      2.00000
     10       4.7916      2.00000
     11       4.7916      2.00000
     12       4.7916      2.00000
     13       4.8614      2.00000
     14       4.8614      2.00000
     15       4.8614      2.00000
     16       4.8779      2.00000
     17       5.8096      2.00000
     18       5.8096      2.00000
     19       6.0140      2.00000
     20       6.0140      2.00000
     21       6.0140      2.00000
     22       7.8642     -0.00522
     23       7.8642     -0.00522
     24       7.8642     -0.00522
     25      12.2358      0.00000
     26      12.2358      0.00000
     27      12.2358      0.00000
     28      15.0041      0.00000
     29      24.6619      0.00000
     30      24.6619      0.00000
     31      24.6619      0.00000
     32      26.6400      0.00000
     33      26.6400      0.00000
     34      26.6400      0.00000
     35      28.3223      0.00000
     36      28.3223      0.00000
     37      28.3223      0.00000
     38      29.2533      0.00000
     39      29.9426      0.00000
     40      29.9426      0.00000
     41      33.8894      0.00000
     42      33.8894      0.00000
     43      36.6327      0.00000
     44      36.6327      0.00000
     45      36.6327      0.00000
     46      37.0598      0.00000
     47      37.0598      0.00000
     48      37.0598      0.00000

 k-point    54 :       0.4545    0.3636    0.3636
  band No.  band energies     occupation 
      1       2.2885      2.00000
      2       2.5745      2.00000
      3       2.8074      2.00000
      4       2.8074      2.00000
      5       4.3848      2.00000
      6       4.3848      2.00000
      7       4.4861      2.00000
      8       4.5925      2.00000
      9       4.6486      2.00000
     10       4.6971      2.00000
     11       4.7325      2.00000
     12       4.7325      2.00000
     13       5.0166      2.00000
     14       5.0572      2.00000
     15       5.0572      2.00000
     16       5.0928      2.00000
     17       5.9270      2.00000
     18       5.9854      2.00000
     19       5.9854      2.00000
     20       5.9971      2.00000
     21       6.0564      2.00000
     22       6.8163      2.00000
     23       8.0000     -0.00000
     24       8.0000     -0.00000
     25      11.6200      0.00000
     26      11.6200      0.00000
     27      12.9467      0.00000
     28      13.8762      0.00000
     29      25.3099      0.00000
     30      25.3099      0.00000
     31      26.3647      0.00000
     32      26.3647      0.00000
     33      27.0575      0.00000
     34      27.5718      0.00000
     35      28.5924      0.00000
     36      28.6832      0.00000
     37      28.8316      0.00000
     38      29.5765      0.00000
     39      29.5765      0.00000
     40      30.0398      0.00000
     41      33.6201      0.00000
     42      34.6140      0.00000
     43      34.6747      0.00000
     44      34.6747      0.00000
     45      35.3554      0.00000
     46      35.5380      0.00000
     47      37.1353      0.00000
     48      37.1353      0.00000

 k-point    55 :       0.4545    0.4545    0.3636
  band No.  band energies     occupation 
      1       2.4486      2.00000
      2       2.6191      2.00000
      3       2.6191      2.00000
      4       2.6951      2.00000
      5       4.4687      2.00000
      6       4.5021      2.00000
      7       4.5021      2.00000
      8       4.5762      2.00000
      9       4.6150      2.00000
     10       4.6490      2.00000
     11       4.6490      2.00000
     12       4.6605      2.00000
     13       5.3029      2.00000
     14       5.3126      2.00000
     15       5.3126      2.00000
     16       5.4321      2.00000
     17       5.8968      2.00000
     18       5.9679      2.00000
     19       5.9679      2.00000
     20       5.9692      2.00000
     21       6.3617      2.00000
     22       7.0961      2.00000
     23       7.0961      2.00000
     24       7.5638      1.91647
     25      11.5578      0.00000
     26      12.0534      0.00000
     27      12.0534      0.00000
     28      12.8337      0.00000
     29      26.0650      0.00000
     30      26.8537      0.00000
     31      26.8537      0.00000
     32      27.7570      0.00000
     33      27.9870      0.00000
     34      27.9870      0.00000
     35      28.4180      0.00000
     36      28.9155      0.00000
     37      29.4208      0.00000
     38      29.7034      0.00000
     39      29.7034      0.00000
     40      30.0799      0.00000
     41      33.0254      0.00000
     42      33.8421      0.00000
     43      33.8421      0.00000
     44      34.2780      0.00000
     45      34.4942      0.00000
     46      35.3317      0.00000
     47      35.3317      0.00000
     48      35.3543      0.00000

 k-point    56 :       0.4545    0.4545    0.4545
  band No.  band energies     occupation 
      1       2.4947      2.00000
      2       2.5753      2.00000
      3       2.5753      2.00000
      4       2.5753      2.00000
      5       4.5431      2.00000
      6       4.5431      2.00000
      7       4.5431      2.00000
      8       4.5792      2.00000
      9       4.5792      2.00000
     10       4.5945      2.00000
     11       4.5945      2.00000
     12       4.5945      2.00000
     13       5.6947      2.00000
     14       5.6947      2.00000
     15       5.6947      2.00000
     16       5.9773      2.00000
     17       5.9773      2.00000
     18       6.0021      2.00000
     19       6.0021      2.00000
     20       6.0021      2.00000
     21       6.2561      2.00000
     22       6.9410      2.00000
     23       6.9410      2.00000
     24       6.9410      2.00000
     25      11.4977      0.00000
     26      11.4977      0.00000
     27      11.4977      0.00000
     28      11.9672      0.00000
     29      28.1445      0.00000
     30      28.1445      0.00000
     31      28.1445      0.00000
     32      28.8150      0.00000
     33      29.1195      0.00000
     34      29.1195      0.00000
     35      29.1195      0.00000
     36      29.2699      0.00000
     37      29.2699      0.00000
     38      29.2699      0.00000
     39      29.7835      0.00000
     40      29.7835      0.00000
     41      32.9032      0.00000
     42      32.9032      0.00000
     43      33.5023      0.00000
     44      33.5023      0.00000
     45      33.5023      0.00000
     46      33.6945      0.00000
     47      33.6945      0.00000
     48      33.6945      0.00000


--------------------------------------------------------------------------------------------------------


 soft charge-density along one line, spin component           1
         0         1         2         3         4         5         6         7         8         9
 total charge-density along one line
 
 pseudopotential strength for first ion, spin component:           1
 -2.875  -0.000  -0.000   0.000   0.000  -4.736   0.000   0.000
 -0.000  -2.875   0.000  -0.000  -0.000   0.000  -4.736  -0.000
 -0.000   0.000  -2.858  -0.000   0.000   0.000  -0.000  -4.749
  0.000  -0.000  -0.000  -2.875  -0.000  -0.000   0.000   0.000
  0.000  -0.000   0.000  -0.000  -2.858  -0.000   0.000   0.000
 -4.736   0.000   0.000  -0.000  -0.000  10.297  -0.000  -0.000
  0.000  -4.736  -0.000   0.000   0.000  -0.000  10.297   0.000
  0.000  -0.000  -4.749   0.000   0.000  -0.000   0.000  10.306
 -0.000   0.000   0.000  -4.736   0.000   0.000  -0.000  -0.000
 -0.000   0.000   0.000   0.000  -4.749   0.000  -0.000  -0.000
  0.000  -0.000   0.000   0.000  -0.000   0.000  -0.000  -0.000
  0.000  -0.000   0.000   0.000   0.000   0.000  -0.000   0.000
  0.000  -0.000   0.000   0.000   0.000   0.000  -0.000   0.000
  0.000  -0.000  -0.000   0.000  -0.000   0.000   0.000   0.000
 -0.000   0.000  -0.000  -0.000  -0.000   0.000   0.000  -0.000
  0.000  -0.000   0.000  -0.000   0.000   0.000  -0.000   0.000
 -0.000  -0.000  -0.000  -0.000   0.000   0.000   0.000   0.000
 -0.000  -0.000  -0.000  -0.000   0.000   0.000   0.000   0.000
 total augmentation occupancy for first ion, spin component:           1
  1.908   0.000  -0.000   0.000  -0.000  -0.014   0.000   0.000  -0.000  -0.000  -0.000  -0.000   0.000  -0.000   0.000   0.000
 -0.000   1.908  -0.000  -0.000  -0.000  -0.000  -0.014   0.000  -0.000   0.000  -0.000  -0.000   0.000  -0.000   0.000   0.000
  0.000  -0.000   1.927   0.000   0.000  -0.000   0.000  -0.033   0.000   0.000   0.000  -0.000  -0.000  -0.000  -0.000   0.000
 -0.000   0.000   0.000   1.908   0.000   0.000  -0.000   0.000  -0.014  -0.000   0.000   0.000  -0.000  -0.000  -0.000   0.000
 -0.000  -0.000   0.000   0.000   1.927   0.000   0.000   0.000  -0.000  -0.033   0.000  -0.000   0.000   0.000   0.000   0.000
 -0.014  -0.000   0.000   0.000   0.000   0.018  -0.000  -0.000  -0.000  -0.000   0.000  -0.000   0.000   0.000   0.000   0.000
  0.000  -0.014  -0.000  -0.000  -0.000   0.000   0.018  -0.000  -0.000  -0.000   0.000   0.000  -0.000   0.000  -0.000  -0.000
  0.000   0.000  -0.033   0.000  -0.000  -0.000  -0.000   0.016   0.000  -0.000   0.000  -0.000  -0.000  -0.000  -0.000  -0.000
 -0.000  -0.000   0.000  -0.014   0.000  -0.000  -0.000   0.000   0.018   0.000  -0.000  -0.000   0.000  -0.000   0.000  -0.000
  0.000  -0.000   0.000   0.000  -0.033  -0.000  -0.000  -0.000   0.000   0.016  -0.000   0.000   0.000   0.000   0.000   0.000
  0.000   0.000   0.000   0.000  -0.000  -0.000   0.000   0.000  -0.000  -0.000   1.811  -0.177   0.000   0.000   0.000  -0.000
  0.000   0.000  -0.000   0.000  -0.000   0.000   0.000   0.000  -0.000  -0.000  -0.177   0.023   0.000  -0.000   0.000   0.000
  0.000   0.000  -0.000  -0.000   0.000   0.000   0.000   0.000   0.000   0.000   0.000   0.000   0.241  -0.000   0.000  -0.016
 -0.000  -0.000  -0.000  -0.000   0.000   0.000  -0.000   0.000   0.000   0.000   0.000  -0.000  -0.000   0.241   0.000   0.000
  0.000   0.000   0.000  -0.000   0.000  -0.000  -0.000  -0.000  -0.000   0.000   0.000   0.000  -0.000  -0.000   0.241  -0.000
  0.000  -0.000   0.000  -0.000   0.000   0.000   0.000   0.000   0.000   0.000   0.000   0.000  -0.016   0.000   0.000   0.001
  0.000   0.000  -0.000  -0.000  -0.000   0.000   0.000   0.000   0.000  -0.000   0.000   0.000  -0.000  -0.016  -0.000   0.000
  0.000   0.000  -0.000   0.000   0.000   0.000  -0.000   0.000  -0.000   0.000   0.000   0.000   0.000   0.000  -0.016  -0.000


------------------------ aborting loop because EDIFF is reached ----------------------------------------


    CHARGE:  cpu time    0.0081: real time    0.0082
    FORLOC:  cpu time    0.0001: real time    0.0001
    FORNL :  cpu time    0.0856: real time    0.0856
    STRESS:  cpu time    0.2909: real time    0.2909
    FORCOR:  cpu time    0.0021: real time    0.0022
    FORHAR:  cpu time    0.0006: real time    0.0007
    MIXING:  cpu time    0.0003: real time    0.0003
    OFIELD:  cpu time    0.0000: real time    0.0000

  FORCE on cell =-STRESS in cart. coord.  units (eV):
  Direction    XX          YY          ZZ          XY          YZ          ZX
  --------------------------------------------------------------------------------------
  Alpha Z   248.71994   248.71994   248.71994
  Ewald   -1475.26301 -1475.26301 -1475.26301    -0.00000     0.00000     0.00000
  Hartree   450.31573   450.31573   450.31573    -0.00000    -0.00000    -0.00000
  E(xc)    -257.40718  -257.40718  -257.40718    -0.00000     0.00000     0.00000
  Local     379.39174   379.39174   379.39174    -0.00000    -0.00000    -0.00000
  n-local   -77.99466   -86.77316   -88.22803     0.54623     2.70518     1.06076
  augment   379.38371   379.38371   379.38371     0.00000     0.00000    -0.00000
  Kinetic   367.24943   358.73306   353.01829    -3.28005    -0.10064    -1.36752
  Fock        0.00000     0.00000     0.00000     0.00000     0.00000     0.00000
  -------------------------------------------------------------------------------------
  Total       0.47591     0.47591     0.47591    -0.00000     0.00000     0.00000
  in kB      16.20736    16.20736    16.20736    -0.00000     0.00000     0.00000
  external pressure =       16.21 kB  Pullay stress =        0.00 kB


 VOLUME and BASIS-vectors are now :
 -----------------------------------------------------------------------------
  energy-cutoff  :      400.00
  volume of cell :       47.05
      direct lattice vectors                 reciprocal lattice vectors
     3.610000000  0.000000000  0.000000000     0.277008310  0.000000000  0.000000000
     0.000000000  3.610000000  0.000000000     0.000000000  0.277008310  0.000000000
     0.000000000  0.000000000  3.610000000     0.000000000  0.000000000  0.277008310

  length of vectors
     3.610000000  3.610000000  3.610000000     0.277008310  0.277008310  0.277008310


 FORCES acting on ions
    electron-ion (+dipol)            ewald-force                    non-local-force                 convergence-correction
 -----------------------------------------------------------------------------------------------
   -.220E-13 0.847E-14 -.178E-12   0.108E-13 0.352E-14 0.349E-14   -.132E-22 -.161E-22 -.199E-22   0.898E-13 0.654E-13 -.218E-13
   -.231E-13 0.828E-12 0.647E-12   0.102E-13 0.558E-14 0.654E-14   0.132E-22 -.132E-22 -.132E-22   0.902E-13 0.381E-13 0.356E-13
   0.809E-12 0.254E-13 -.102E-11   -.885E-14 -.498E-14 0.641E-14   -.248E-22 0.910E-23 0.215E-22   -.760E-14 0.729E-13 0.749E-13
   0.798E-12 0.858E-12 0.756E-12   -.941E-14 -.292E-14 -.131E-13   -.199E-22 -.132E-22 0.000E+00   -.290E-14 0.668E-13 -.632E-13
 -----------------------------------------------------------------------------------------------
   0.156E-11 0.172E-11 0.204E-12   0.271E-14 0.120E-14 0.330E-14   -.447E-22 -.335E-22 -.116E-22   0.169E-12 0.243E-12 0.255E-13
 
 
 POSITION                                       TOTAL-FORCE (eV/Angst)
 -----------------------------------------------------------------------------------
      0.00000      0.00000      0.00000         0.000000      0.000000     -0.000000
      0.00000      1.80500      1.80500        -0.000000      0.000000      0.000000
      1.80500      0.00000      1.80500        -0.000000     -0.000000      0.000000
      1.80500      1.80500      0.00000         0.000000      0.000000      0.000000
 -----------------------------------------------------------------------------------
    total drift:                                0.000000      0.000000      0.000000


--------------------------------------------------------------------------------------------------------



  FREE ENERGIE OF THE ION-ELECTRON SYSTEM (eV)
  ---------------------------------------------------
  free  energy   TOTEN  =       -14.91030398 eV

  energy  without entropy=      -14.91028815  energy(sigma->0) =      -14.91029870
 


--------------------------------------------------------------------------------------------------------


    POTLOK:  cpu time    0.0051: real time    0.0051


--------------------------------------------------------------------------------------------------------


     LOOP+:  cpu time    9.6440: real time    9.6945
    4ORBIT:  cpu time    0.0000: real time    0.0000

 total amount of memory used by VASP on root node    39479. kBytes
========================================================================

   base      :      30000. kBytes
   nonl-proj :       7217. kBytes
   fftplans  :        113. kBytes
   grid      :        367. kBytes
   one-center:         62. kBytes
   wavefun   :       1720. kBytes
 
  
  
 General timing and accounting informations for this job:
 ========================================================
  
                  Total CPU time used (sec):       10.538
                            User time (sec):       10.383
                          System time (sec):        0.155
                         Elapsed time (sec):       11.110
  
                   Maximum memory used (kb):       46060.
                   Average memory used (kb):           0.
  
                          Minor page faults:        25475
                          Major page faults:           14
                 Voluntary context switches:         1692
