<?xml version="1.0" encoding="ISO-8859-1"?>
<modeling>
 <generator>
  <i name="program" type="string">vasp </i>
  <i name="version" type="string">5.4.1  </i>
  <i name="subversion" type="string">05Feb16 (build Feb 08 2018 09:21:51) complex                          parallel </i>
  <i name="platform" type="string">LinuxIFC </i>
  <i name="date" type="string">2019 11 21 </i>
  <i name="time" type="string">13:18:36 </i>
 </generator>
 <incar>
  <i type="string" name="PREC">normal</i>
  <i name="ENCUT">    400.00000000</i>
  <i type="int" name="ISMEAR">     1</i>
  <i name="SIGMA">      0.10000000</i>
  <i type="logical" name="LWAVE"> F  </i>
  <i type="logical" name="LCHARG"> F  </i>
  <v type="int" name="KPOINT_BSE">    -1     0     0     0</v>
 </incar>
 <kpoints>
  <generation param="Monkhorst-Pack">
   <v type="int" name="divisions">      11       11       11 </v>
   <v name="usershift">      0.00000000       0.00000000       0.00000000 </v>
   <v name="genvec1">      0.09090909       0.00000000       0.00000000 </v>
   <v name="genvec2">      0.00000000       0.09090909       0.00000000 </v>
   <v name="genvec3">      0.00000000       0.00000000       0.09090909 </v>
   <v name="shift">      0.00000000       0.00000000       0.00000000 </v>
  </generation>
  <varray name="kpointlist" >
   <v>       0.00000000       0.00000000       0.00000000 </v>
   <v>       0.09090909       0.00000000       0.00000000 </v>
   <v>       0.18181818       0.00000000       0.00000000 </v>
   <v>       0.27272727       0.00000000       0.00000000 </v>
   <v>       0.36363636       0.00000000       0.00000000 </v>
   <v>       0.45454545       0.00000000       0.00000000 </v>
   <v>       0.09090909       0.09090909       0.00000000 </v>
   <v>       0.18181818       0.09090909       0.00000000 </v>
   <v>       0.27272727       0.09090909       0.00000000 </v>
   <v>       0.36363636       0.09090909       0.00000000 </v>
   <v>       0.45454545       0.09090909       0.00000000 </v>
   <v>       0.18181818       0.18181818       0.00000000 </v>
   <v>       0.27272727       0.18181818       0.00000000 </v>
   <v>       0.36363636       0.18181818       0.00000000 </v>
   <v>       0.45454545       0.18181818       0.00000000 </v>
   <v>       0.27272727       0.27272727       0.00000000 </v>
   <v>       0.36363636       0.27272727       0.00000000 </v>
   <v>       0.45454545       0.27272727       0.00000000 </v>
   <v>       0.36363636       0.36363636       0.00000000 </v>
   <v>       0.45454545       0.36363636       0.00000000 </v>
   <v>       0.45454545       0.45454545       0.00000000 </v>
   <v>       0.09090909       0.09090909       0.09090909 </v>
   <v>       0.18181818       0.09090909       0.09090909 </v>
   <v>       0.27272727       0.09090909       0.09090909 </v>
   <v>       0.36363636       0.09090909       0.09090909 </v>
   <v>       0.45454545       0.09090909       0.09090909 </v>
   <v>       0.18181818       0.18181818       0.09090909 </v>
   <v>       0.27272727       0.18181818       0.09090909 </v>
   <v>       0.36363636       0.18181818       0.09090909 </v>
   <v>       0.45454545       0.18181818       0.09090909 </v>
   <v>       0.27272727       0.27272727       0.09090909 </v>
   <v>       0.36363636       0.27272727       0.09090909 </v>
   <v>       0.45454545       0.27272727       0.09090909 </v>
   <v>       0.36363636       0.36363636       0.09090909 </v>
   <v>       0.45454545       0.36363636       0.09090909 </v>
   <v>       0.45454545       0.45454545       0.09090909 </v>
   <v>       0.18181818       0.18181818       0.18181818 </v>
   <v>       0.27272727       0.18181818       0.18181818 </v>
   <v>       0.36363636       0.18181818       0.18181818 </v>
   <v>       0.45454545       0.18181818       0.18181818 </v>
   <v>       0.27272727       0.27272727       0.18181818 </v>
   <v>       0.36363636       0.27272727       0.18181818 </v>
   <v>       0.45454545       0.27272727       0.18181818 </v>
   <v>       0.36363636       0.36363636       0.18181818 </v>
   <v>       0.45454545       0.36363636       0.18181818 </v>
   <v>       0.45454545       0.45454545       0.18181818 </v>
   <v>       0.27272727       0.27272727       0.27272727 </v>
   <v>       0.36363636       0.27272727       0.27272727 </v>
   <v>       0.45454545       0.27272727       0.27272727 </v>
   <v>       0.36363636       0.36363636       0.27272727 </v>
   <v>       0.45454545       0.36363636       0.27272727 </v>
   <v>       0.45454545       0.45454545       0.27272727 </v>
   <v>       0.36363636       0.36363636       0.36363636 </v>
   <v>       0.45454545       0.36363636       0.36363636 </v>
   <v>       0.45454545       0.45454545       0.36363636 </v>
   <v>       0.45454545       0.45454545       0.45454545 </v>
  </varray>
  <varray name="weights" >
   <v>       0.00075131 </v>
   <v>       0.00450789 </v>
   <v>       0.00450789 </v>
   <v>       0.00450789 </v>
   <v>       0.00450789 </v>
   <v>       0.00450789 </v>
   <v>       0.00901578 </v>
   <v>       0.01803156 </v>
   <v>       0.01803156 </v>
   <v>       0.01803156 </v>
   <v>       0.01803156 </v>
   <v>       0.00901578 </v>
   <v>       0.01803156 </v>
   <v>       0.01803156 </v>
   <v>       0.01803156 </v>
   <v>       0.00901578 </v>
   <v>       0.01803156 </v>
   <v>       0.01803156 </v>
   <v>       0.00901578 </v>
   <v>       0.01803156 </v>
   <v>       0.00901578 </v>
   <v>       0.00601052 </v>
   <v>       0.01803156 </v>
   <v>       0.01803156 </v>
   <v>       0.01803156 </v>
   <v>       0.01803156 </v>
   <v>       0.01803156 </v>
   <v>       0.03606311 </v>
   <v>       0.03606311 </v>
   <v>       0.03606311 </v>
   <v>       0.01803156 </v>
   <v>       0.03606311 </v>
   <v>       0.03606311 </v>
   <v>       0.01803156 </v>
   <v>       0.03606311 </v>
   <v>       0.01803156 </v>
   <v>       0.00601052 </v>
   <v>       0.01803156 </v>
   <v>       0.01803156 </v>
   <v>       0.01803156 </v>
   <v>       0.01803156 </v>
   <v>       0.03606311 </v>
   <v>       0.03606311 </v>
   <v>       0.01803156 </v>
   <v>       0.03606311 </v>
   <v>       0.01803156 </v>
   <v>       0.00601052 </v>
   <v>       0.01803156 </v>
   <v>       0.01803156 </v>
   <v>       0.01803156 </v>
   <v>       0.03606311 </v>
   <v>       0.01803156 </v>
   <v>       0.00601052 </v>
   <v>       0.01803156 </v>
   <v>       0.01803156 </v>
   <v>       0.00601052 </v>
  </varray>
 </kpoints>
 <parameters>
  <separator name="general" >
   <i type="string" name="SYSTEM">unknown system</i>
   <i type="logical" name="LCOMPAT"> F  </i>
  </separator>
  <separator name="electronic" >
   <i type="string" name="PREC">normal</i>
   <i name="ENMAX">    400.00000000</i>
   <i name="ENAUG">    586.98000000</i>
   <i name="EDIFF">      0.00010000</i>
   <i type="int" name="IALGO">    38</i>
   <i type="int" name="IWAVPR">    10</i>
   <i type="int" name="NBANDS">    48</i>
   <i name="NELECT">     44.00000000</i>
   <i type="int" name="TURBO">     0</i>
   <i type="int" name="IRESTART">     0</i>
   <i type="int" name="NREBOOT">     0</i>
   <i type="int" name="NMIN">     0</i>
   <i name="EREF">      0.00000000</i>
   <separator name="electronic smearing" >
    <i type="int" name="ISMEAR">     1</i>
    <i name="SIGMA">      0.10000000</i>
    <i name="KSPACING">      0.50000000</i>
    <i type="logical" name="KGAMMA"> T  </i>
   </separator>
   <separator name="electronic projectors" >
    <i type="logical" name="LREAL"> F  </i>
    <v name="ROPT">      0.00000000</v>
    <i type="int" name="LMAXPAW">  -100</i>
    <i type="int" name="LMAXMIX">     2</i>
    <i type="logical" name="NLSPLINE"> F  </i>
   </separator>
   <separator name="electronic startup" >
    <i type="int" name="ISTART">     0</i>
    <i type="int" name="ICHARG">     2</i>
    <i type="int" name="INIWAV">     1</i>
   </separator>
   <separator name="electronic spin" >
    <i type="int" name="ISPIN">     1</i>
    <i type="logical" name="LNONCOLLINEAR"> F  </i>
    <v name="MAGMOM">      1.00000000      1.00000000      1.00000000      1.00000000</v>
    <i name="NUPDOWN">     -1.00000000</i>
    <i type="logical" name="LSORBIT"> F  </i>
    <v name="SAXIS">      0.00000000      0.00000000      1.00000000</v>
    <i type="logical" name="LSPIRAL"> F  </i>
    <v name="QSPIRAL">      0.00000000      0.00000000      0.00000000</v>
    <i type="logical" name="LZEROZ"> F  </i>
   </separator>
   <separator name="electronic exchange-correlation" >
    <i type="logical" name="LASPH"> F  </i>
    <i type="logical" name="LMETAGGA"> F  </i>
   </separator>
   <separator name="electronic convergence" >
    <i type="int" name="NELM">    60</i>
    <i type="int" name="NELMDL">    -5</i>
    <i type="int" name="NELMIN">     2</i>
    <i name="ENINI">    400.00000000</i>
    <separator name="electronic convergence detail" >
     <i type="logical" name="LDIAG"> T  </i>
     <i type="logical" name="LSUBROT"> F  </i>
     <i name="WEIMIN">      0.00000000</i>
     <i name="EBREAK">      0.00000052</i>
     <i name="DEPER">      0.30000000</i>
     <i type="int" name="NRMM">     4</i>
     <i name="TIME">      0.40000000</i>
    </separator>
   </separator>
   <separator name="electronic mixer" >
    <i name="AMIX">      0.40000000</i>
    <i name="BMIX">      1.00000000</i>
    <i name="AMIN">      0.10000000</i>
    <i name="AMIX_MAG">      1.60000000</i>
    <i name="BMIX_MAG">      1.00000000</i>
    <separator name="electronic mixer details" >
     <i type="int" name="IMIX">     4</i>
     <i type="logical" name="MIXFIRST"> F  </i>
     <i type="int" name="MAXMIX">   -45</i>
     <i name="WC">    100.00000000</i>
     <i type="int" name="INIMIX">     1</i>
     <i type="int" name="MIXPRE">     1</i>
     <i type="int" name="MREMOVE">     5</i>
    </separator>
   </separator>
   <separator name="electronic dipolcorrection" >
    <i type="logical" name="LDIPOL"> F  </i>
    <i type="logical" name="LMONO"> F  </i>
    <i type="int" name="IDIPOL">     0</i>
    <i name="EPSILON">      1.00000000</i>
    <v name="DIPOL">   -100.00000000   -100.00000000   -100.00000000</v>
    <i name="EFIELD">      0.00000000</i>
   </separator>
  </separator>
  <separator name="grids" >
   <i type="int" name="NGX">    18</i>
   <i type="int" name="NGY">    18</i>
   <i type="int" name="NGZ">    18</i>
   <i type="int" name="NGXF">    36</i>
   <i type="int" name="NGYF">    36</i>
   <i type="int" name="NGZF">    36</i>
   <i type="logical" name="ADDGRID"> F  </i>
  </separator>
  <separator name="ionic" >
   <i type="int" name="NSW">     0</i>
   <i type="int" name="IBRION">    -1</i>
   <i type="int" name="ISIF">     2</i>
   <i name="PSTRESS">      0.00000000</i>
   <i name="EDIFFG">      0.00100000</i>
   <i type="int" name="NFREE">     0</i>
   <i name="POTIM">      0.50000000</i>
   <i name="SMASS">     -3.00000000</i>
   <i name="SCALEE">      1.00000000</i>
  </separator>
  <separator name="ionic md" >
   <i name="TEBEG">      0.00010000</i>
   <i name="TEEND">      0.00010000</i>
   <i type="int" name="NBLOCK">     1</i>
   <i type="int" name="KBLOCK">     1</i>
   <i type="int" name="NPACO">   256</i>
   <i name="APACO">     16.00000000</i>
  </separator>
  <separator name="symmetry" >
   <i type="int" name="ISYM">     2</i>
   <i name="SYMPREC">      0.00001000</i>
  </separator>
  <separator name="dos" >
   <i type="logical" name="LORBIT"> F  </i>
   <v name="RWIGS">     -1.00000000</v>
   <i type="int" name="NEDOS">   301</i>
   <i name="EMIN">     10.00000000</i>
   <i name="EMAX">    -10.00000000</i>
   <i name="EFERMI">      0.00000000</i>
  </separator>
  <separator name="writing" >
   <i type="int" name="NWRITE">     2</i>
   <i type="logical" name="LWAVE"> F  </i>
   <i type="logical" name="LCHARG"> F  </i>
   <i type="logical" name="LPARD"> F  </i>
   <i type="logical" name="LVTOT"> F  </i>
   <i type="logical" name="LVHAR"> F  </i>
   <i type="logical" name="LELF"> F  </i>
   <i type="logical" name="LOPTICS"> F  </i>
   <v name="STM">      0.00000000      0.00000000      0.00000000      0.00000000      0.00000000      0.00000000      0.00000000</v>
  </separator>
  <separator name="performance" >
   <i type="int" name="NPAR">    24</i>
   <i type="int" name="NSIM">     4</i>
   <i type="int" name="NBLK">    -1</i>
   <i type="logical" name="LPLANE"> T  </i>
   <i type="logical" name="LSCALAPACK"> F  </i>
   <i type="logical" name="LSCAAWARE"> F  </i>
   <i type="logical" name="LSCALU"> F  </i>
   <i type="logical" name="LASYNC"> F  </i>
   <i type="logical" name="LORBITALREAL"> F  </i>
  </separator>
  <separator name="miscellaneous" >
   <i type="int" name="IDIOT">     3</i>
   <i type="logical" name="LMUSIC"> F  </i>
   <v name="POMASS">     63.54600000</v>
   <v name="DARWINR">      0.00000000</v>
   <v name="DARWINV">      1.00000000</v>
   <i type="logical" name="LCORR"> T  </i>
  </separator>
  <i type="logical" name="GGA_COMPAT"> T  </i>
  <i type="logical" name="LBERRY"> F  </i>
  <i type="int" name="ICORELEVEL">     0</i>
  <i type="logical" name="LDAU"> F  </i>
  <i type="int" name="I_CONSTRAINED_M">     0</i>
  <separator name="electronic exchange-correlation" >
   <i type="string" name="GGA">--</i>
   <i type="int" name="VOSKOWN">     0</i>
   <i type="logical" name="LHFCALC"> F  </i>
   <i type="string" name="PRECFOCK"></i>
   <i type="logical" name="LSYMGRAD"> F  </i>
   <i type="logical" name="LHFONE"> F  </i>
   <i type="logical" name="LRHFCALC"> F  </i>
   <i type="logical" name="LTHOMAS"> F  </i>
   <i type="logical" name="LMODELHF"> F  </i>
   <i name="ENCUT4O">     -1.00000000</i>
   <i type="int" name="EXXOEP">     0</i>
   <i type="int" name="FOURORBIT">     0</i>
   <i name="AEXX">      0.00000000</i>
   <i name="HFALPHA">      0.00000000</i>
   <i name="MCALPHA">      0.00000000</i>
   <i name="ALDAX">      1.00000000</i>
   <i name="AGGAX">      1.00000000</i>
   <i name="ALDAC">      1.00000000</i>
   <i name="AGGAC">      1.00000000</i>
   <i type="int" name="NKREDX">     1</i>
   <i type="int" name="NKREDY">     1</i>
   <i type="int" name="NKREDZ">     1</i>
   <i type="logical" name="SHIFTRED"> F  </i>
   <i type="logical" name="ODDONLY"> F  </i>
   <i type="logical" name="EVENONLY"> F  </i>
   <i type="int" name="LMAXFOCK">     0</i>
   <i type="int" name="NMAXFOCKAE">     0</i>
   <i type="logical" name="LFOCKAEDFT"> F  </i>
   <i name="HFSCREEN">      0.00000000</i>
   <i name="HFSCREENC">      0.00000000</i>
   <i type="int" name="NBANDSGWLOW">     0</i>
  </separator>
  <separator name="vdW DFT" >
   <i type="logical" name="LUSE_VDW"> F  </i>
   <i name="Zab_VDW">     -0.84910000</i>
   <i name="PARAM1">      0.12340000</i>
   <i name="PARAM2">      1.00000000</i>
   <i name="PARAM3">      0.00000000</i>
  </separator>
  <separator name="model GW" >
   <i type="int" name="MODEL_GW">     0</i>
   <i name="MODEL_EPS0">      7.05688215</i>
   <i name="MODEL_ALPHA">      1.00000000</i>
  </separator>
  <separator name="linear response parameters" >
   <i type="logical" name="LEPSILON"> F  </i>
   <i type="logical" name="LRPA"> F  </i>
   <i type="logical" name="LNABLA"> F  </i>
   <i type="logical" name="LVEL"> F  </i>
   <i type="int" name="KINTER">     0</i>
   <i name="CSHIFT">      0.10000000</i>
   <i name="OMEGAMAX">     -1.00000000</i>
   <i name="DEG_THRESHOLD">      0.00200000</i>
  </separator>
  <separator name="orbital magnetization" >
   <i type="logical" name="NUCIND"> F  </i>
   <v name="MAGPOS">      0.00000000      0.00000000      0.00000000</v>
   <i type="logical" name="LNICSALL"> T  </i>
   <i type="logical" name="ORBITALMAG"> F  </i>
   <i type="logical" name="LMAGBLOCH"> F  </i>
   <i type="logical" name="LCHIMAG"> F  </i>
   <i type="logical" name="LGAUGE"> T  </i>
   <i type="int" name="MAGATOM">     0</i>
   <v name="MAGDIPOL">      0.00000000      0.00000000      0.00000000</v>
   <v name="AVECCONST">      0.00000000      0.00000000      0.00000000</v>
  </separator>
  <separator name="response functions" >
   <i type="logical" name="LADDER"> F  </i>
   <i type="logical" name="LFXC"> F  </i>
   <i type="logical" name="LHARTREE"> T  </i>
   <i type="int" name="IBSE">     0</i>
   <v type="int" name="KPOINT">    -1     0     0     0</v>
   <i type="logical" name="LTCTE"> F  </i>
   <i type="logical" name="LTETE"> F  </i>
   <i type="logical" name="LTRIPLET"> F  </i>
   <i type="logical" name="LFXCEPS"> F  </i>
   <i type="logical" name="LFXHEG"> F  </i>
   <i type="int" name="NATURALO">     0</i>
   <i type="logical" name="L2ORDER"> F  </i>
   <i type="logical" name="LUSEW"> F  </i>
   <i name="ENCUTGW">     -2.00000000</i>
   <i name="ENCUTGWSOFT">     -2.00000000</i>
   <i name="ENCUTLF">     -1.00000000</i>
   <i type="int" name="LMAXMP2">    -1</i>
   <i name="SCISSOR">      0.00000000</i>
   <i type="int" name="NOMEGA">     0</i>
   <i type="int" name="NOMEGAR">     0</i>
   <i type="int" name="NBANDSGW">    -1</i>
   <i type="int" name="NBANDSO">    -1</i>
   <i type="int" name="NBANDSV">    -1</i>
   <i type="int" name="NELM">     1</i>
   <i type="int" name="NELMHF">     1</i>
   <i type="int" name="DIM">     3</i>
   <i type="int" name="ANTIRES">     0</i>
   <i name="OMEGAMAX">    -30.00000000</i>
   <i name="OMEGAMIN">    -30.00000000</i>
   <i name="OMEGATL">   -200.00000000</i>
   <i type="int" name="OMEGAGRID">     0</i>
   <i name="CSHIFT">     -0.10000000</i>
   <i type="logical" name="SELFENERGY"> F  </i>
   <i type="logical" name="LSPECTRAL"> F  </i>
   <i type="logical" name="LSPECTRALGW"> F  </i>
   <i type="logical" name="LSINGLES"> F  </i>
   <i type="logical" name="LFERMIGW"> F  </i>
   <i type="logical" name="ODDONLYGW"> F  </i>
   <i type="logical" name="EVENONLYGW"> F  </i>
   <i type="int" name="NKREDLFX">     1</i>
   <i type="int" name="NKREDLFY">     1</i>
   <i type="int" name="NKREDLFZ">     1</i>
   <i type="int" name="MAXMEM">  1800</i>
   <i type="int" name="TELESCOPE">     0</i>
   <i type="int" name="TAUPAR">     1</i>
   <i type="int" name="OMEGAPAR">    -1</i>
   <i name="LAMBDA">      1.00000000</i>
  </separator>
  <separator name="External order field" >
   <i name="OFIELD_KAPPA">      0.00000000</i>
   <v name="OFIELD_K">      0.00000000      0.00000000      0.00000000</v>
   <i name="OFIELD_Q6_NEAR">      0.00000000</i>
   <i name="OFIELD_Q6_FAR">      0.00000000</i>
   <i name="OFIELD_A">      0.00000000</i>
  </separator>
 </parameters>
 <atominfo>
  <atoms>       4 </atoms>
  <types>       1 </types>
  <array name="atoms" >
   <dimension dim="1">ion</dimension>
   <field type="string">element</field>
   <field type="int">atomtype</field>
   <set>
    <rc><c>Cu</c><c>   1</c></rc>
    <rc><c>Cu</c><c>   1</c></rc>
    <rc><c>Cu</c><c>   1</c></rc>
    <rc><c>Cu</c><c>   1</c></rc>
   </set>
  </array>
  <array name="atomtypes" >
   <dimension dim="1">type</dimension>
   <field type="int">atomspertype</field>
   <field type="string">element</field>
   <field>mass</field>
   <field>valence</field>
   <field type="string">pseudopotential</field>
   <set>
    <rc><c>   4</c><c>Cu</c><c>     63.54600000</c><c>     11.00000000</c><c>  PAW_PBE Cu 22Jun2005                  </c></rc>
   </set>
  </array>
 </atominfo>
 <structure name="initialpos" >
  <crystal>
   <varray name="basis" >
    <v>       3.61000000       0.00000000       0.00000000 </v>
    <v>       0.00000000       3.61000000       0.00000000 </v>
    <v>       0.00000000       0.00000000       3.61000000 </v>
   </varray>
   <i name="volume">     47.04588100 </i>
   <varray name="rec_basis" >
    <v>       0.27700831       0.00000000       0.00000000 </v>
    <v>       0.00000000       0.27700831       0.00000000 </v>
    <v>       0.00000000       0.00000000       0.27700831 </v>
   </varray>
  </crystal>
  <varray name="positions" >
   <v>       0.00000000       0.00000000       0.00000000 </v>
   <v>       0.00000000       0.50000000       0.50000000 </v>
   <v>       0.50000000       0.00000000       0.50000000 </v>
   <v>       0.50000000       0.50000000       0.00000000 </v>
  </varray>
 </structure>
 <calculation>
  <scstep>
   <time name="dav">    0.87    0.87</time>
   <time name="total">    0.89    0.89</time>
   <energy>
    <i name="alphaZ">    248.71993771 </i>
    <i name="ewald">  -4425.78708566 </i>
    <i name="hartreedc">  -1444.32473403 </i>
    <i name="XCdc">    183.18686199 </i>
    <i name="pawpsdc">   4912.82663951 </i>
    <i name="pawaedc">  -5336.19386850 </i>
    <i name="eentropy">     -0.00053389 </i>
    <i name="bandstr">    459.00114861 </i>
    <i name="atom">   5563.83056080 </i>
    <i name="e_fr_energy">    161.25892655 </i>
    <i name="e_wo_entrp">    161.25946043 </i>
    <i name="e_0_energy">    161.25910451 </i>
   </energy>
  </scstep>
  <scstep>
   <time name="dav">    0.71    0.71</time>
   <time name="total">    0.71    0.71</time>
   <energy>
    <i name="e_fr_energy">    -13.13462655 </i>
    <i name="e_wo_entrp">    -13.13181347 </i>
    <i name="e_0_energy">    -13.13368886 </i>
   </energy>
  </scstep>
  <scstep>
   <time name="dav">    1.14    1.14</time>
   <time name="total">    1.14    1.15</time>
   <energy>
    <i name="e_fr_energy">    -18.47675837 </i>
    <i name="e_wo_entrp">    -18.47256795 </i>
    <i name="e_0_energy">    -18.47536156 </i>
   </energy>
  </scstep>
  <scstep>
   <time name="dav">    0.73    0.74</time>
   <time name="total">    0.74    0.74</time>
   <energy>
    <i name="e_fr_energy">    -18.51640501 </i>
    <i name="e_wo_entrp">    -18.51221571 </i>
    <i name="e_0_energy">    -18.51500858 </i>
   </energy>
  </scstep>
  <scstep>
   <time name="dav">    1.15    1.15</time>
   <time name="total">    1.16    1.17</time>
   <energy>
    <i name="e_fr_energy">    -18.51694353 </i>
    <i name="e_wo_entrp">    -18.51275426 </i>
    <i name="e_0_energy">    -18.51554711 </i>
   </energy>
  </scstep>
  <scstep>
   <time name="dav">    0.92    0.93</time>
   <time name="total">    0.94    0.95</time>
   <energy>
    <i name="e_fr_energy">    -16.40943954 </i>
    <i name="e_wo_entrp">    -16.40885662 </i>
    <i name="e_0_energy">    -16.40924523 </i>
   </energy>
  </scstep>
  <scstep>
   <time name="dav">    0.91    0.91</time>
   <time name="total">    0.93    0.94</time>
   <energy>
    <i name="e_fr_energy">    -14.95788396 </i>
    <i name="e_wo_entrp">    -14.95800202 </i>
    <i name="e_0_energy">    -14.95792331 </i>
   </energy>
  </scstep>
  <scstep>
   <time name="dav">    0.87    0.87</time>
   <time name="total">    0.89    0.89</time>
   <energy>
    <i name="e_fr_energy">    -14.91695304 </i>
    <i name="e_wo_entrp">    -14.91707381 </i>
    <i name="e_0_energy">    -14.91699330 </i>
   </energy>
  </scstep>
  <scstep>
   <time name="dav">    1.07    1.07</time>
   <time name="total">    1.09    1.09</time>
   <energy>
    <i name="e_fr_energy">    -14.91027526 </i>
    <i name="e_wo_entrp">    -14.91025467 </i>
    <i name="e_0_energy">    -14.91026840 </i>
   </energy>
  </scstep>
  <scstep>
   <time name="dav">    0.73    0.73</time>
   <time name="total">    0.74    0.74</time>
   <energy>
    <i name="alphaZ">    248.71993771 </i>
    <i name="ewald">  -4425.78708566 </i>
    <i name="hartreedc">  -1350.81071310 </i>
    <i name="XCdc">    178.74369239 </i>
    <i name="pawpsdc">   5274.39292374 </i>
    <i name="pawaedc">  -5706.05453508 </i>
    <i name="eentropy">     -0.00001583 </i>
    <i name="bandstr">    202.05493104 </i>
    <i name="atom">   5563.83056080 </i>
    <i name="e_fr_energy">    -14.91030398 </i>
    <i name="e_wo_entrp">    -14.91028815 </i>
    <i name="e_0_energy">    -14.91029870 </i>
   </energy>
  </scstep>
  <structure>
   <crystal>
    <varray name="basis" >
     <v>       3.61000000       0.00000000       0.00000000 </v>
     <v>       0.00000000       3.61000000       0.00000000 </v>
     <v>       0.00000000       0.00000000       3.61000000 </v>
    </varray>
    <i name="volume">     47.04588100 </i>
    <varray name="rec_basis" >
     <v>       0.27700831       0.00000000       0.00000000 </v>
     <v>       0.00000000       0.27700831       0.00000000 </v>
     <v>       0.00000000       0.00000000       0.27700831 </v>
    </varray>
   </crystal>
   <varray name="positions" >
    <v>       0.00000000       0.00000000       0.00000000 </v>
    <v>       0.00000000       0.50000000       0.50000000 </v>
    <v>       0.50000000       0.00000000       0.50000000 </v>
    <v>       0.50000000       0.50000000       0.00000000 </v>
   </varray>
  </structure>
  <varray name="forces" >
   <v>       0.00000000       0.00000000      -0.00000000 </v>
   <v>      -0.00000000       0.00000000       0.00000000 </v>
   <v>      -0.00000000      -0.00000000       0.00000000 </v>
   <v>       0.00000000       0.00000000       0.00000000 </v>
  </varray>
  <varray name="stress" >
   <v>      16.20736456       0.00000000       0.00000000 </v>
   <v>      -0.00000000      16.20736456      -0.00000000 </v>
   <v>       0.00000000       0.00000000      16.20736456 </v>
  </varray>
  <energy>
   <i name="e_fr_energy">    -14.91030398 </i>
   <i name="e_wo_entrp">    -14.91029870 </i>
   <i name="e_0_energy">     -0.00001583 </i>
  </energy>
  <time name="totalsc">    9.64    9.69</time>
  <eigenvalues>
   <array>
    <dimension dim="1">band</dimension>
    <dimension dim="2">kpoint</dimension>
    <dimension dim="3">spin</dimension>
    <field>eigene</field>
    <field>occ</field>
    <set>
     <set comment="spin 1">
      <set comment="kpoint 1">
       <r>   -1.7476    1.0000 </r>
       <r>    2.7384    1.0000 </r>
       <r>    2.7384    1.0000 </r>
       <r>    2.7384    1.0000 </r>
       <r>    3.1972    1.0000 </r>
       <r>    3.1972    1.0000 </r>
       <r>    3.1972    1.0000 </r>
       <r>    4.6011    1.0000 </r>
       <r>    4.6011    1.0000 </r>
       <r>    4.6011    1.0000 </r>
       <r>    5.4336    1.0000 </r>
       <r>    5.4336    1.0000 </r>
       <r>    5.9858    1.0000 </r>
       <r>    5.9858    1.0000 </r>
       <r>    5.9858    1.0000 </r>
       <r>    6.1419    1.0000 </r>
       <r>    6.1419    1.0000 </r>
       <r>    6.1419    1.0000 </r>
       <r>    6.1419    1.0000 </r>
       <r>    6.1419    1.0000 </r>
       <r>    6.1419    1.0000 </r>
       <r>    9.1307   -0.0000 </r>
       <r>    9.1307   -0.0000 </r>
       <r>    9.1307   -0.0000 </r>
       <r>   14.7804    0.0000 </r>
       <r>   14.7804    0.0000 </r>
       <r>   14.7804    0.0000 </r>
       <r>   20.7485    0.0000 </r>
       <r>   20.7485    0.0000 </r>
       <r>   20.7485    0.0000 </r>
       <r>   20.7485    0.0000 </r>
       <r>   20.7485    0.0000 </r>
       <r>   20.7485    0.0000 </r>
       <r>   25.2542    0.0000 </r>
       <r>   25.2542    0.0000 </r>
       <r>   25.2542    0.0000 </r>
       <r>   27.9623    0.0000 </r>
       <r>   27.9623    0.0000 </r>
       <r>   27.9623    0.0000 </r>
       <r>   30.2663    0.0000 </r>
       <r>   32.9386    0.0000 </r>
       <r>   32.9386    0.0000 </r>
       <r>   32.9386    0.0000 </r>
       <r>   35.4341    0.0000 </r>
       <r>   35.4341    0.0000 </r>
       <r>   35.4341    0.0000 </r>
       <r>   39.2052    0.0000 </r>
       <r>   44.0068    0.0000 </r>
      </set>
      <set comment="kpoint 2">
       <r>   -1.6468    1.0000 </r>
       <r>    2.7369    1.0000 </r>
       <r>    2.7855    1.0000 </r>
       <r>    2.7855    1.0000 </r>
       <r>    3.2242    1.0000 </r>
       <r>    3.2258    1.0000 </r>
       <r>    3.2258    1.0000 </r>
       <r>    4.5709    1.0000 </r>
       <r>    4.6243    1.0000 </r>
       <r>    4.6243    1.0000 </r>
       <r>    5.4059    1.0000 </r>
       <r>    5.4439    1.0000 </r>
       <r>    5.9507    1.0000 </r>
       <r>    5.9507    1.0000 </r>
       <r>    5.9651    1.0000 </r>
       <r>    5.9651    1.0000 </r>
       <r>    5.9744    1.0000 </r>
       <r>    6.1006    1.0000 </r>
       <r>    6.1006    1.0000 </r>
       <r>    6.1420    1.0000 </r>
       <r>    6.1420    1.0000 </r>
       <r>    8.5279   -0.0000 </r>
       <r>    9.3976   -0.0000 </r>
       <r>    9.3976   -0.0000 </r>
       <r>   14.8168    0.0000 </r>
       <r>   14.8168    0.0000 </r>
       <r>   15.5812    0.0000 </r>
       <r>   20.0946    0.0000 </r>
       <r>   20.0946    0.0000 </r>
       <r>   20.3261    0.0000 </r>
       <r>   20.3261    0.0000 </r>
       <r>   20.8970    0.0000 </r>
       <r>   20.8970    0.0000 </r>
       <r>   25.2967    0.0000 </r>
       <r>   26.0316    0.0000 </r>
       <r>   26.0316    0.0000 </r>
       <r>   28.0008    0.0000 </r>
       <r>   28.6054    0.0000 </r>
       <r>   28.6054    0.0000 </r>
       <r>   29.9194    0.0000 </r>
       <r>   31.9053    0.0000 </r>
       <r>   31.9053    0.0000 </r>
       <r>   32.5110    0.0000 </r>
       <r>   35.9954    0.0000 </r>
       <r>   36.5135    0.0000 </r>
       <r>   36.5135    0.0000 </r>
       <r>   39.4566    0.0000 </r>
       <r>   42.1846    0.0000 </r>
      </set>
      <set comment="kpoint 3">
       <r>   -1.3469    1.0000 </r>
       <r>    2.7085    1.0000 </r>
       <r>    2.9189    1.0000 </r>
       <r>    2.9189    1.0000 </r>
       <r>    3.3029    1.0000 </r>
       <r>    3.3118    1.0000 </r>
       <r>    3.3118    1.0000 </r>
       <r>    4.4834    1.0000 </r>
       <r>    4.6949    1.0000 </r>
       <r>    4.6949    1.0000 </r>
       <r>    5.3277    1.0000 </r>
       <r>    5.4758    1.0000 </r>
       <r>    5.5619    1.0000 </r>
       <r>    5.5619    1.0000 </r>
       <r>    5.8490    1.0000 </r>
       <r>    5.8490    1.0000 </r>
       <r>    5.9409    1.0000 </r>
       <r>    5.9830    1.0000 </r>
       <r>    5.9830    1.0000 </r>
       <r>    6.1424    1.0000 </r>
       <r>    6.1424    1.0000 </r>
       <r>    7.3134    1.0000 </r>
       <r>   10.0706   -0.0000 </r>
       <r>   10.0706   -0.0000 </r>
       <r>   14.9299    0.0000 </r>
       <r>   14.9299    0.0000 </r>
       <r>   17.4083    0.0000 </r>
       <r>   18.7678    0.0000 </r>
       <r>   18.7678    0.0000 </r>
       <r>   19.3782    0.0000 </r>
       <r>   19.3782    0.0000 </r>
       <r>   21.3344    0.0000 </r>
       <r>   21.3344    0.0000 </r>
       <r>   25.4258    0.0000 </r>
       <r>   27.7297    0.0000 </r>
       <r>   27.7297    0.0000 </r>
       <r>   28.1243    0.0000 </r>
       <r>   29.1621    0.0000 </r>
       <r>   30.2092    0.0000 </r>
       <r>   30.2092    0.0000 </r>
       <r>   30.2335    0.0000 </r>
       <r>   30.2335    0.0000 </r>
       <r>   31.5342    0.0000 </r>
       <r>   37.3925    0.0000 </r>
       <r>   37.9626    0.0000 </r>
       <r>   38.3154    0.0000 </r>
       <r>   38.3154    0.0000 </r>
       <r>   42.0340    0.0000 </r>
      </set>
      <set comment="kpoint 4">
       <r>   -0.8568    1.0000 </r>
       <r>    2.5660    1.0000 </r>
       <r>    3.1130    1.0000 </r>
       <r>    3.1130    1.0000 </r>
       <r>    3.4280    1.0000 </r>
       <r>    3.4567    1.0000 </r>
       <r>    3.4567    1.0000 </r>
       <r>    4.3462    1.0000 </r>
       <r>    4.8109    1.0000 </r>
       <r>    4.8109    1.0000 </r>
       <r>    5.0992    1.0000 </r>
       <r>    5.0992    1.0000 </r>
       <r>    5.2110    1.0000 </r>
       <r>    5.5262    1.0000 </r>
       <r>    5.6958    1.0000 </r>
       <r>    5.6958    1.0000 </r>
       <r>    5.8069    1.0000 </r>
       <r>    5.8069    1.0000 </r>
       <r>    5.8884    1.0000 </r>
       <r>    6.1380    1.0000 </r>
       <r>    6.1427    1.0000 </r>
       <r>    6.1427    1.0000 </r>
       <r>   10.9801    0.0000 </r>
       <r>   10.9801    0.0000 </r>
       <r>   15.1315    0.0000 </r>
       <r>   15.1315    0.0000 </r>
       <r>   17.3111    0.0000 </r>
       <r>   17.3111    0.0000 </r>
       <r>   18.3284    0.0000 </r>
       <r>   18.3284    0.0000 </r>
       <r>   19.6799    0.0000 </r>
       <r>   22.0397    0.0000 </r>
       <r>   22.0397    0.0000 </r>
       <r>   25.6457    0.0000 </r>
       <r>   28.3344    0.0000 </r>
       <r>   28.3563    0.0000 </r>
       <r>   28.5485    0.0000 </r>
       <r>   28.5485    0.0000 </r>
       <r>   29.8081    0.0000 </r>
       <r>   29.8081    0.0000 </r>
       <r>   30.3671    0.0000 </r>
       <r>   32.3242    0.0000 </r>
       <r>   32.3242    0.0000 </r>
       <r>   35.1008    0.0000 </r>
       <r>   39.2762    0.0000 </r>
       <r>   40.1948    0.0000 </r>
       <r>   40.1948    0.0000 </r>
       <r>   43.1201    0.0000 </r>
      </set>
      <set comment="kpoint 5">
       <r>   -0.1950    1.0000 </r>
       <r>    2.1578    1.0000 </r>
       <r>    3.3192    1.0000 </r>
       <r>    3.3192    1.0000 </r>
       <r>    3.5906    1.0000 </r>
       <r>    3.6622    1.0000 </r>
       <r>    3.6622    1.0000 </r>
       <r>    4.1731    1.0000 </r>
       <r>    4.6561    1.0000 </r>
       <r>    4.6561    1.0000 </r>
       <r>    4.9681    1.0000 </r>
       <r>    4.9681    1.0000 </r>
       <r>    5.0807    1.0000 </r>
       <r>    5.3380    1.0000 </r>
       <r>    5.5268    1.0000 </r>
       <r>    5.5268    1.0000 </r>
       <r>    5.5916    1.0000 </r>
       <r>    5.5958    1.0000 </r>
       <r>    5.5958    1.0000 </r>
       <r>    5.8213    1.0000 </r>
       <r>    6.1428    1.0000 </r>
       <r>    6.1428    1.0000 </r>
       <r>   12.0434    0.0000 </r>
       <r>   12.0434    0.0000 </r>
       <r>   15.4374    0.0000 </r>
       <r>   15.4374    0.0000 </r>
       <r>   15.8757    0.0000 </r>
       <r>   15.8757    0.0000 </r>
       <r>   17.3812    0.0000 </r>
       <r>   17.3812    0.0000 </r>
       <r>   22.1735    0.0000 </r>
       <r>   22.9839    0.0000 </r>
       <r>   22.9839    0.0000 </r>
       <r>   25.9629    0.0000 </r>
       <r>   26.9466    0.0000 </r>
       <r>   26.9466    0.0000 </r>
       <r>   27.5733    0.0000 </r>
       <r>   28.7416    0.0000 </r>
       <r>   29.0268    0.0000 </r>
       <r>   32.1191    0.0000 </r>
       <r>   32.1191    0.0000 </r>
       <r>   32.4113    0.0000 </r>
       <r>   34.6648    0.0000 </r>
       <r>   34.6648    0.0000 </r>
       <r>   40.1423    0.0000 </r>
       <r>   40.1423    0.0000 </r>
       <r>   41.4947    0.0000 </r>
       <r>   42.0421    0.0000 </r>
      </set>
      <set comment="kpoint 6">
       <r>    0.5998    1.0000 </r>
       <r>    1.4419    1.0000 </r>
       <r>    3.4612    1.0000 </r>
       <r>    3.4612    1.0000 </r>
       <r>    3.7789    1.0000 </r>
       <r>    3.9310    1.0000 </r>
       <r>    3.9310    1.0000 </r>
       <r>    3.9783    1.0000 </r>
       <r>    4.2634    1.0000 </r>
       <r>    4.2634    1.0000 </r>
       <r>    4.9825    1.0000 </r>
       <r>    5.0092    1.0000 </r>
       <r>    5.1590    1.0000 </r>
       <r>    5.1590    1.0000 </r>
       <r>    5.3732    1.0000 </r>
       <r>    5.3732    1.0000 </r>
       <r>    5.4075    1.0000 </r>
       <r>    5.4075    1.0000 </r>
       <r>    5.6666    1.0000 </r>
       <r>    5.7453    1.0000 </r>
       <r>    6.1431    1.0000 </r>
       <r>    6.1431    1.0000 </r>
       <r>   13.2252    0.0000 </r>
       <r>   13.2252    0.0000 </r>
       <r>   14.5073    0.0000 </r>
       <r>   14.5073    0.0000 </r>
       <r>   15.8367    0.0000 </r>
       <r>   15.8367    0.0000 </r>
       <r>   16.6428    0.0000 </r>
       <r>   16.6428    0.0000 </r>
       <r>   24.1360    0.0000 </r>
       <r>   24.1360    0.0000 </r>
       <r>   24.7518    0.0000 </r>
       <r>   25.4662    0.0000 </r>
       <r>   25.4662    0.0000 </r>
       <r>   26.3854    0.0000 </r>
       <r>   26.9209    0.0000 </r>
       <r>   27.1749    0.0000 </r>
       <r>   29.3684    0.0000 </r>
       <r>   30.4602    0.0000 </r>
       <r>   34.6217    0.0000 </r>
       <r>   34.6217    0.0000 </r>
       <r>   36.7669    0.0000 </r>
       <r>   36.7669    0.0000 </r>
       <r>   37.3003    0.0000 </r>
       <r>   37.3003    0.0000 </r>
       <r>   42.2060    0.0000 </r>
       <r>   42.2060    0.0000 </r>
      </set>
      <set comment="kpoint 7">
       <r>   -1.5465    1.0000 </r>
       <r>    2.7853    1.0000 </r>
       <r>    2.7853    1.0000 </r>
       <r>    2.8312    1.0000 </r>
       <r>    3.2520    1.0000 </r>
       <r>    3.2520    1.0000 </r>
       <r>    3.2531    1.0000 </r>
       <r>    4.5534    1.0000 </r>
       <r>    4.6355    1.0000 </r>
       <r>    4.6451    1.0000 </r>
       <r>    5.3982    1.0000 </r>
       <r>    5.4376    1.0000 </r>
       <r>    5.8384    1.0000 </r>
       <r>    5.8789    1.0000 </r>
       <r>    5.8789    1.0000 </r>
       <r>    5.9172    1.0000 </r>
       <r>    5.9734    1.0000 </r>
       <r>    5.9734    1.0000 </r>
       <r>    6.1004    1.0000 </r>
       <r>    6.1004    1.0000 </r>
       <r>    6.1153    1.0000 </r>
       <r>    8.7908   -0.0000 </r>
       <r>    8.7908   -0.0000 </r>
       <r>    9.6416   -0.0000 </r>
       <r>   14.8532    0.0000 </r>
       <r>   15.6323    0.0000 </r>
       <r>   15.6323    0.0000 </r>
       <r>   18.8128    0.0000 </r>
       <r>   20.2318    0.0000 </r>
       <r>   20.2318    0.0000 </r>
       <r>   20.4657    0.0000 </r>
       <r>   20.4657    0.0000 </r>
       <r>   21.0383    0.0000 </r>
       <r>   26.0861    0.0000 </r>
       <r>   26.0861    0.0000 </r>
       <r>   26.0955    0.0000 </r>
       <r>   28.6500    0.0000 </r>
       <r>   28.6500    0.0000 </r>
       <r>   29.2429    0.0000 </r>
       <r>   29.4560    0.0000 </r>
       <r>   30.6253    0.0000 </r>
       <r>   32.0087    0.0000 </r>
       <r>   33.2246    0.0000 </r>
       <r>   35.5353    0.0000 </r>
       <r>   36.3718    0.0000 </r>
       <r>   37.7981    0.0000 </r>
       <r>   40.1971    0.0000 </r>
       <r>   41.4209    0.0000 </r>
      </set>
      <set comment="kpoint 8">
       <r>   -1.2482    1.0000 </r>
       <r>    2.7611    1.0000 </r>
       <r>    2.9229    1.0000 </r>
       <r>    2.9608    1.0000 </r>
       <r>    3.3289    1.0000 </r>
       <r>    3.3353    1.0000 </r>
       <r>    3.3362    1.0000 </r>
       <r>    4.4750    1.0000 </r>
       <r>    4.6997    1.0000 </r>
       <r>    4.7068    1.0000 </r>
       <r>    5.3314    1.0000 </r>
       <r>    5.4680    1.0000 </r>
       <r>    5.4820    1.0000 </r>
       <r>    5.4886    1.0000 </r>
       <r>    5.7158    1.0000 </r>
       <r>    5.8205    1.0000 </r>
       <r>    5.8576    1.0000 </r>
       <r>    5.9425    1.0000 </r>
       <r>    5.9826    1.0000 </r>
       <r>    6.1004    1.0000 </r>
       <r>    6.1010    1.0000 </r>
       <r>    7.6040    0.7366 </r>
       <r>    9.4268   -0.0000 </r>
       <r>   10.2758   -0.0000 </r>
       <r>   14.9645    0.0000 </r>
       <r>   15.7907    0.0000 </r>
       <r>   17.3320    0.0000 </r>
       <r>   17.4744    0.0000 </r>
       <r>   18.8950    0.0000 </r>
       <r>   19.5022    0.0000 </r>
       <r>   20.6345    0.0000 </r>
       <r>   20.7674    0.0000 </r>
       <r>   20.8776    0.0000 </r>
       <r>   26.2522    0.0000 </r>
       <r>   27.0687    0.0000 </r>
       <r>   27.7966    0.0000 </r>
       <r>   28.0247    0.0000 </r>
       <r>   28.7914    0.0000 </r>
       <r>   29.0265    0.0000 </r>
       <r>   30.2598    0.0000 </r>
       <r>   31.2670    0.0000 </r>
       <r>   31.3494    0.0000 </r>
       <r>   32.7479    0.0000 </r>
       <r>   36.4032    0.0000 </r>
       <r>   36.8226    0.0000 </r>
       <r>   38.8777    0.0000 </r>
       <r>   39.5472    0.0000 </r>
       <r>   42.0353    0.0000 </r>
      </set>
      <set comment="kpoint 9">
       <r>   -0.7609    1.0000 </r>
       <r>    2.6257    1.0000 </r>
       <r>    3.1237    1.0000 </r>
       <r>    3.1505    1.0000 </r>
       <r>    3.4510    1.0000 </r>
       <r>    3.4721    1.0000 </r>
       <r>    3.4777    1.0000 </r>
       <r>    4.3442    1.0000 </r>
       <r>    4.8013    1.0000 </r>
       <r>    4.8132    1.0000 </r>
       <r>    5.0243    1.0000 </r>
       <r>    5.0603    1.0000 </r>
       <r>    5.2290    1.0000 </r>
       <r>    5.4372    1.0000 </r>
       <r>    5.5260    1.0000 </r>
       <r>    5.6743    1.0000 </r>
       <r>    5.7046    1.0000 </r>
       <r>    5.8062    1.0000 </r>
       <r>    5.8715    1.0000 </r>
       <r>    6.0980    1.0000 </r>
       <r>    6.1001    1.0000 </r>
       <r>    6.5421    1.0000 </r>
       <r>   10.2538   -0.0000 </r>
       <r>   11.1552    0.0000 </r>
       <r>   15.1332    0.0000 </r>
       <r>   15.9479    0.0000 </r>
       <r>   16.0693    0.0000 </r>
       <r>   17.4357    0.0000 </r>
       <r>   18.4386    0.0000 </r>
       <r>   19.7482    0.0000 </r>
       <r>   19.8526    0.0000 </r>
       <r>   21.2772    0.0000 </r>
       <r>   21.5461    0.0000 </r>
       <r>   26.5378    0.0000 </r>
       <r>   26.7417    0.0000 </r>
       <r>   27.4722    0.0000 </r>
       <r>   28.8964    0.0000 </r>
       <r>   29.0524    0.0000 </r>
       <r>   29.8815    0.0000 </r>
       <r>   30.2456    0.0000 </r>
       <r>   31.4765    0.0000 </r>
       <r>   32.3654    0.0000 </r>
       <r>   33.4655    0.0000 </r>
       <r>   35.1378    0.0000 </r>
       <r>   38.1602    0.0000 </r>
       <r>   39.2146    0.0000 </r>
       <r>   41.3664    0.0000 </r>
       <r>   42.5636    0.0000 </r>
      </set>
      <set comment="kpoint 10">
       <r>   -0.1033    1.0000 </r>
       <r>    2.2263    1.0000 </r>
       <r>    3.3396    1.0000 </r>
       <r>    3.3563    1.0000 </r>
       <r>    3.6098    1.0000 </r>
       <r>    3.6607    1.0000 </r>
       <r>    3.6782    1.0000 </r>
       <r>    4.1766    1.0000 </r>
       <r>    4.5923    1.0000 </r>
       <r>    4.6397    1.0000 </r>
       <r>    4.8890    1.0000 </r>
       <r>    4.9692    1.0000 </r>
       <r>    5.0766    1.0000 </r>
       <r>    5.1569    1.0000 </r>
       <r>    5.5133    1.0000 </r>
       <r>    5.5352    1.0000 </r>
       <r>    5.5952    1.0000 </r>
       <r>    5.6027    1.0000 </r>
       <r>    5.7171    1.0000 </r>
       <r>    5.9750    1.0000 </r>
       <r>    6.0976    1.0000 </r>
       <r>    6.0995    1.0000 </r>
       <r>   11.1946    0.0000 </r>
       <r>   12.1981    0.0000 </r>
       <r>   14.5141    0.0000 </r>
       <r>   15.5707    0.0000 </r>
       <r>   16.0021    0.0000 </r>
       <r>   16.4771    0.0000 </r>
       <r>   17.4877    0.0000 </r>
       <r>   18.8291    0.0000 </r>
       <r>   22.1159    0.0000 </r>
       <r>   22.1242    0.0000 </r>
       <r>   22.5693    0.0000 </r>
       <r>   25.4788    0.0000 </r>
       <r>   26.0076    0.0000 </r>
       <r>   26.9558    0.0000 </r>
       <r>   29.1743    0.0000 </r>
       <r>   29.4720    0.0000 </r>
       <r>   29.8071    0.0000 </r>
       <r>   31.1302    0.0000 </r>
       <r>   32.1964    0.0000 </r>
       <r>   32.7549    0.0000 </r>
       <r>   34.6270    0.0000 </r>
       <r>   35.8395    0.0000 </r>
       <r>   39.6918    0.0000 </r>
       <r>   40.2244    0.0000 </r>
       <r>   40.2812    0.0000 </r>
       <r>   40.7072    0.0000 </r>
      </set>
      <set comment="kpoint 11">
       <r>    0.6854    1.0000 </r>
       <r>    1.5195    1.0000 </r>
       <r>    3.4928    1.0000 </r>
       <r>    3.4997    1.0000 </r>
       <r>    3.7935    1.0000 </r>
       <r>    3.9036    1.0000 </r>
       <r>    3.9396    1.0000 </r>
       <r>    3.9876    1.0000 </r>
       <r>    4.2145    1.0000 </r>
       <r>    4.2616    1.0000 </r>
       <r>    4.8746    1.0000 </r>
       <r>    4.8792    1.0000 </r>
       <r>    5.1593    1.0000 </r>
       <r>    5.2494    1.0000 </r>
       <r>    5.3729    1.0000 </r>
       <r>    5.4025    1.0000 </r>
       <r>    5.4110    1.0000 </r>
       <r>    5.4613    1.0000 </r>
       <r>    5.6931    1.0000 </r>
       <r>    5.7983    1.0000 </r>
       <r>    6.0981    1.0000 </r>
       <r>    6.0988    1.0000 </r>
       <r>   12.2221    0.0000 </r>
       <r>   13.3313    0.0000 </r>
       <r>   13.3661    0.0000 </r>
       <r>   14.6391    0.0000 </r>
       <r>   16.0007    0.0000 </r>
       <r>   16.5766    0.0000 </r>
       <r>   17.1784    0.0000 </r>
       <r>   17.9030    0.0000 </r>
       <r>   23.1345    0.0000 </r>
       <r>   23.4198    0.0000 </r>
       <r>   24.2657    0.0000 </r>
       <r>   24.6528    0.0000 </r>
       <r>   24.9638    0.0000 </r>
       <r>   27.5237    0.0000 </r>
       <r>   27.5576    0.0000 </r>
       <r>   28.2598    0.0000 </r>
       <r>   30.1142    0.0000 </r>
       <r>   31.1112    0.0000 </r>
       <r>   33.5564    0.0000 </r>
       <r>   34.7016    0.0000 </r>
       <r>   35.6691    0.0000 </r>
       <r>   37.3820    0.0000 </r>
       <r>   37.9636    0.0000 </r>
       <r>   38.1017    0.0000 </r>
       <r>   42.1973    0.0000 </r>
       <r>   42.3133    0.0000 </r>
      </set>
      <set comment="kpoint 12">
       <r>   -0.9548    1.0000 </r>
       <r>    2.9111    1.0000 </r>
       <r>    2.9111    1.0000 </r>
       <r>    3.0796    1.0000 </r>
       <r>    3.4060    1.0000 </r>
       <r>    3.4073    1.0000 </r>
       <r>    3.4073    1.0000 </r>
       <r>    4.4291    1.0000 </r>
       <r>    4.7375    1.0000 </r>
       <r>    4.7402    1.0000 </r>
       <r>    5.2654    1.0000 </r>
       <r>    5.2783    1.0000 </r>
       <r>    5.2783    1.0000 </r>
       <r>    5.3078    1.0000 </r>
       <r>    5.4833    1.0000 </r>
       <r>    5.7374    1.0000 </r>
       <r>    5.8471    1.0000 </r>
       <r>    5.8471    1.0000 </r>
       <r>    5.9815    1.0000 </r>
       <r>    5.9815    1.0000 </r>
       <r>    6.0364    1.0000 </r>
       <r>    8.2157   -0.0000 </r>
       <r>    8.2157   -0.0000 </r>
       <r>   10.8353    0.0000 </r>
       <r>   15.0251    0.0000 </r>
       <r>   15.7870    0.0000 </r>
       <r>   17.6750    0.0000 </r>
       <r>   17.6750    0.0000 </r>
       <r>   19.2681    0.0000 </r>
       <r>   19.2681    0.0000 </r>
       <r>   19.8709    0.0000 </r>
       <r>   19.8709    0.0000 </r>
       <r>   21.8801    0.0000 </r>
       <r>   26.5605    0.0000 </r>
       <r>   26.6269    0.0000 </r>
       <r>   27.4283    0.0000 </r>
       <r>   27.9987    0.0000 </r>
       <r>   27.9987    0.0000 </r>
       <r>   30.4183    0.0000 </r>
       <r>   30.4183    0.0000 </r>
       <r>   32.3566    0.0000 </r>
       <r>   33.2359    0.0000 </r>
       <r>   34.0609    0.0000 </r>
       <r>   35.5380    0.0000 </r>
       <r>   35.8449    0.0000 </r>
       <r>   38.1205    0.0000 </r>
       <r>   41.2000    0.0000 </r>
       <r>   41.4586    0.0000 </r>
      </set>
      <set comment="kpoint 13">
       <r>   -0.4762    1.0000 </r>
       <r>    2.7967    1.0000 </r>
       <r>    3.1329    1.0000 </r>
       <r>    3.2547    1.0000 </r>
       <r>    3.5202    1.0000 </r>
       <r>    3.5202    1.0000 </r>
       <r>    3.5387    1.0000 </r>
       <r>    4.3264    1.0000 </r>
       <r>    4.7849    1.0000 </r>
       <r>    4.8327    1.0000 </r>
       <r>    4.8339    1.0000 </r>
       <r>    4.9397    1.0000 </r>
       <r>    4.9988    1.0000 </r>
       <r>    5.2391    1.0000 </r>
       <r>    5.5583    1.0000 </r>
       <r>    5.6097    1.0000 </r>
       <r>    5.7024    1.0000 </r>
       <r>    5.7848    1.0000 </r>
       <r>    5.8047    1.0000 </r>
       <r>    5.9799    1.0000 </r>
       <r>    5.9995    1.0000 </r>
       <r>    7.1250    1.0000 </r>
       <r>    8.9531   -0.0000 </r>
       <r>   11.6481    0.0000 </r>
       <r>   14.1514    0.0000 </r>
       <r>   15.4138    0.0000 </r>
       <r>   17.8007    0.0000 </r>
       <r>   18.0028    0.0000 </r>
       <r>   18.7841    0.0000 </r>
       <r>   19.8634    0.0000 </r>
       <r>   19.9164    0.0000 </r>
       <r>   20.5226    0.0000 </r>
       <r>   21.7805    0.0000 </r>
       <r>   25.1677    0.0000 </r>
       <r>   25.9123    0.0000 </r>
       <r>   27.6262    0.0000 </r>
       <r>   28.3412    0.0000 </r>
       <r>   30.1025    0.0000 </r>
       <r>   30.7037    0.0000 </r>
       <r>   32.0665    0.0000 </r>
       <r>   32.4930    0.0000 </r>
       <r>   33.0314    0.0000 </r>
       <r>   35.2307    0.0000 </r>
       <r>   35.5034    0.0000 </r>
       <r>   36.9019    0.0000 </r>
       <r>   37.1203    0.0000 </r>
       <r>   41.4327    0.0000 </r>
       <r>   42.1990    0.0000 </r>
      </set>
      <set comment="kpoint 14">
       <r>    0.1678    1.0000 </r>
       <r>    2.4232    1.0000 </r>
       <r>    3.3788    1.0000 </r>
       <r>    3.4565    1.0000 </r>
       <r>    3.6611    1.0000 </r>
       <r>    3.6664    1.0000 </r>
       <r>    3.7243    1.0000 </r>
       <r>    4.1810    1.0000 </r>
       <r>    4.4329    1.0000 </r>
       <r>    4.5871    1.0000 </r>
       <r>    4.7546    1.0000 </r>
       <r>    4.7963    1.0000 </r>
       <r>    4.9789    1.0000 </r>
       <r>    5.2067    1.0000 </r>
       <r>    5.4694    1.0000 </r>
       <r>    5.5368    1.0000 </r>
       <r>    5.5940    1.0000 </r>
       <r>    5.6548    1.0000 </r>
       <r>    5.6728    1.0000 </r>
       <r>    5.9784    1.0000 </r>
       <r>    5.9840    1.0000 </r>
       <r>    6.4057    1.0000 </r>
       <r>    9.7761   -0.0000 </r>
       <r>   12.6416    0.0000 </r>
       <r>   12.8638    0.0000 </r>
       <r>   15.7347    0.0000 </r>
       <r>   16.3722    0.0000 </r>
       <r>   17.7029    0.0000 </r>
       <r>   18.5825    0.0000 </r>
       <r>   20.6500    0.0000 </r>
       <r>   20.9670    0.0000 </r>
       <r>   21.1728    0.0000 </r>
       <r>   22.5865    0.0000 </r>
       <r>   23.8705    0.0000 </r>
       <r>   24.5194    0.0000 </r>
       <r>   28.8307    0.0000 </r>
       <r>   29.6288    0.0000 </r>
       <r>   30.7194    0.0000 </r>
       <r>   31.1446    0.0000 </r>
       <r>   31.1725    0.0000 </r>
       <r>   32.4286    0.0000 </r>
       <r>   33.8179    0.0000 </r>
       <r>   34.4879    0.0000 </r>
       <r>   37.9100    0.0000 </r>
       <r>   38.1778    0.0000 </r>
       <r>   38.8667    0.0000 </r>
       <r>   38.8920    0.0000 </r>
       <r>   40.4702    0.0000 </r>
      </set>
      <set comment="kpoint 15">
       <r>    0.9368    1.0000 </r>
       <r>    1.7448    1.0000 </r>
       <r>    3.5714    1.0000 </r>
       <r>    3.6098    1.0000 </r>
       <r>    3.8269    1.0000 </r>
       <r>    3.8346    1.0000 </r>
       <r>    3.9638    1.0000 </r>
       <r>    4.0113    1.0000 </r>
       <r>    4.0907    1.0000 </r>
       <r>    4.2545    1.0000 </r>
       <r>    4.6798    1.0000 </r>
       <r>    4.7343    1.0000 </r>
       <r>    5.1632    1.0000 </r>
       <r>    5.2925    1.0000 </r>
       <r>    5.3734    1.0000 </r>
       <r>    5.3798    1.0000 </r>
       <r>    5.4061    1.0000 </r>
       <r>    5.4672    1.0000 </r>
       <r>    5.8205    1.0000 </r>
       <r>    5.9775    1.0000 </r>
       <r>    5.9784    1.0000 </r>
       <r>    6.0289    1.0000 </r>
       <r>   10.6881    0.0000 </r>
       <r>   11.7097    0.0000 </r>
       <r>   13.7747    0.0000 </r>
       <r>   15.0237    0.0000 </r>
       <r>   16.2226    0.0000 </r>
       <r>   16.8800    0.0000 </r>
       <r>   19.2346    0.0000 </r>
       <r>   20.0528    0.0000 </r>
       <r>   21.5965    0.0000 </r>
       <r>   22.1456    0.0000 </r>
       <r>   22.6764    0.0000 </r>
       <r>   23.2616    0.0000 </r>
       <r>   25.2580    0.0000 </r>
       <r>   28.0189    0.0000 </r>
       <r>   29.4725    0.0000 </r>
       <r>   30.2632    0.0000 </r>
       <r>   31.7766    0.0000 </r>
       <r>   31.9961    0.0000 </r>
       <r>   32.6446    0.0000 </r>
       <r>   34.2728    0.0000 </r>
       <r>   34.9413    0.0000 </r>
       <r>   37.6270    0.0000 </r>
       <r>   38.7670    0.0000 </r>
       <r>   39.4295    0.0000 </r>
       <r>   39.8511    0.0000 </r>
       <r>   40.6615    0.0000 </r>
      </set>
      <set comment="kpoint 16">
       <r>   -0.0135    1.0000 </r>
       <r>    3.0524    1.0000 </r>
       <r>    3.0524    1.0000 </r>
       <r>    3.4018    1.0000 </r>
       <r>    3.6035    1.0000 </r>
       <r>    3.6353    1.0000 </r>
       <r>    3.6353    1.0000 </r>
       <r>    4.2713    1.0000 </r>
       <r>    4.6081    1.0000 </r>
       <r>    4.6081    1.0000 </r>
       <r>    4.7411    1.0000 </r>
       <r>    4.7696    1.0000 </r>
       <r>    4.8959    1.0000 </r>
       <r>    5.1974    1.0000 </r>
       <r>    5.5074    1.0000 </r>
       <r>    5.6501    1.0000 </r>
       <r>    5.6501    1.0000 </r>
       <r>    5.6673    1.0000 </r>
       <r>    5.8030    1.0000 </r>
       <r>    5.8030    1.0000 </r>
       <r>    5.9084    1.0000 </r>
       <r>    7.7682   -0.0335 </r>
       <r>    7.7682   -0.0335 </r>
       <r>   12.3920    0.0000 </r>
       <r>   12.6740    0.0000 </r>
       <r>   15.6486    0.0000 </r>
       <r>   18.3841    0.0000 </r>
       <r>   18.3841    0.0000 </r>
       <r>   19.2324    0.0000 </r>
       <r>   19.2324    0.0000 </r>
       <r>   20.4132    0.0000 </r>
       <r>   20.4132    0.0000 </r>
       <r>   23.2070    0.0000 </r>
       <r>   23.7151    0.0000 </r>
       <r>   24.4254    0.0000 </r>
       <r>   27.1020    0.0000 </r>
       <r>   30.4731    0.0000 </r>
       <r>   30.4731    0.0000 </r>
       <r>   32.7170    0.0000 </r>
       <r>   32.7170    0.0000 </r>
       <r>   33.4159    0.0000 </r>
       <r>   33.6979    0.0000 </r>
       <r>   34.8472    0.0000 </r>
       <r>   35.5571    0.0000 </r>
       <r>   36.3804    0.0000 </r>
       <r>   37.8116    0.0000 </r>
       <r>   40.2256    0.0000 </r>
       <r>   40.2256    0.0000 </r>
      </set>
      <set comment="kpoint 17">
       <r>    0.6052    1.0000 </r>
       <r>    2.7200    1.0000 </r>
       <r>    3.3435    1.0000 </r>
       <r>    3.5666    1.0000 </r>
       <r>    3.7002    1.0000 </r>
       <r>    3.7591    1.0000 </r>
       <r>    3.7957    1.0000 </r>
       <r>    4.1723    1.0000 </r>
       <r>    4.2735    1.0000 </r>
       <r>    4.4779    1.0000 </r>
       <r>    4.4937    1.0000 </r>
       <r>    4.7281    1.0000 </r>
       <r>    5.0143    1.0000 </r>
       <r>    5.1674    1.0000 </r>
       <r>    5.3918    1.0000 </r>
       <r>    5.4931    1.0000 </r>
       <r>    5.5323    1.0000 </r>
       <r>    5.5945    1.0000 </r>
       <r>    5.8026    1.0000 </r>
       <r>    5.8365    1.0000 </r>
       <r>    5.8504    1.0000 </r>
       <r>    6.9078    1.0000 </r>
       <r>    8.4821   -0.0000 </r>
       <r>   11.3661    0.0000 </r>
       <r>   13.3281    0.0000 </r>
       <r>   16.0346    0.0000 </r>
       <r>   16.9627    0.0000 </r>
       <r>   18.1846    0.0000 </r>
       <r>   19.1578    0.0000 </r>
       <r>   19.9517    0.0000 </r>
       <r>   20.9312    0.0000 </r>
       <r>   22.3837    0.0000 </r>
       <r>   22.9548    0.0000 </r>
       <r>   23.0741    0.0000 </r>
       <r>   23.1890    0.0000 </r>
       <r>   28.3156    0.0000 </r>
       <r>   30.9942    0.0000 </r>
       <r>   31.3343    0.0000 </r>
       <r>   32.8153    0.0000 </r>
       <r>   33.0471    0.0000 </r>
       <r>   33.2476    0.0000 </r>
       <r>   34.1860    0.0000 </r>
       <r>   34.4377    0.0000 </r>
       <r>   36.2735    0.0000 </r>
       <r>   37.6810    0.0000 </r>
       <r>   38.2148    0.0000 </r>
       <r>   39.0910    0.0000 </r>
       <r>   40.2434    0.0000 </r>
      </set>
      <set comment="kpoint 18">
       <r>    1.3364    1.0000 </r>
       <r>    2.0935    1.0000 </r>
       <r>    3.5926    1.0000 </r>
       <r>    3.7001    1.0000 </r>
       <r>    3.7826    1.0000 </r>
       <r>    3.8992    1.0000 </r>
       <r>    3.9962    1.0000 </r>
       <r>    3.9988    1.0000 </r>
       <r>    4.0424    1.0000 </r>
       <r>    4.2367    1.0000 </r>
       <r>    4.5104    1.0000 </r>
       <r>    4.6260    1.0000 </r>
       <r>    5.1806    1.0000 </r>
       <r>    5.2284    1.0000 </r>
       <r>    5.3229    1.0000 </r>
       <r>    5.3621    1.0000 </r>
       <r>    5.3708    1.0000 </r>
       <r>    5.3799    1.0000 </r>
       <r>    5.8067    1.0000 </r>
       <r>    5.8201    1.0000 </r>
       <r>    6.0595    1.0000 </r>
       <r>    6.3796    1.0000 </r>
       <r>    9.2955   -0.0000 </r>
       <r>   10.2456   -0.0000 </r>
       <r>   14.4172    0.0000 </r>
       <r>   15.6345    0.0000 </r>
       <r>   16.5763    0.0000 </r>
       <r>   17.2905    0.0000 </r>
       <r>   20.0950    0.0000 </r>
       <r>   20.8320    0.0000 </r>
       <r>   21.1748    0.0000 </r>
       <r>   21.6190    0.0000 </r>
       <r>   21.8743    0.0000 </r>
       <r>   22.4263    0.0000 </r>
       <r>   25.6631    0.0000 </r>
       <r>   28.4815    0.0000 </r>
       <r>   30.5455    0.0000 </r>
       <r>   31.6614    0.0000 </r>
       <r>   32.4502    0.0000 </r>
       <r>   32.9360    0.0000 </r>
       <r>   33.4810    0.0000 </r>
       <r>   33.9819    0.0000 </r>
       <r>   35.3393    0.0000 </r>
       <r>   37.1406    0.0000 </r>
       <r>   38.0342    0.0000 </r>
       <r>   38.0655    0.0000 </r>
       <r>   39.2568    0.0000 </r>
       <r>   39.9274    0.0000 </r>
      </set>
      <set comment="kpoint 19">
       <r>    1.1821    1.0000 </r>
       <r>    3.0616    1.0000 </r>
       <r>    3.0616    1.0000 </r>
       <r>    3.5886    1.0000 </r>
       <r>    3.8335    1.0000 </r>
       <r>    3.8847    1.0000 </r>
       <r>    3.8847    1.0000 </r>
       <r>    4.1362    1.0000 </r>
       <r>    4.2588    1.0000 </r>
       <r>    4.2588    1.0000 </r>
       <r>    4.3605    1.0000 </r>
       <r>    4.6604    1.0000 </r>
       <r>    5.0949    1.0000 </r>
       <r>    5.1104    1.0000 </r>
       <r>    5.2943    1.0000 </r>
       <r>    5.3867    1.0000 </r>
       <r>    5.3867    1.0000 </r>
       <r>    5.6010    1.0000 </r>
       <r>    5.6010    1.0000 </r>
       <r>    5.7377    1.0000 </r>
       <r>    6.0692    1.0000 </r>
       <r>    7.4831    1.0275 </r>
       <r>    7.4831    1.0275 </r>
       <r>   10.0806   -0.0000 </r>
       <r>   14.2114    0.0000 </r>
       <r>   16.4784    0.0000 </r>
       <r>   17.7455    0.0000 </r>
       <r>   17.7455    0.0000 </r>
       <r>   18.8246    0.0000 </r>
       <r>   18.8246    0.0000 </r>
       <r>   21.0233    0.0000 </r>
       <r>   21.7645    0.0000 </r>
       <r>   23.4952    0.0000 </r>
       <r>   23.4952    0.0000 </r>
       <r>   24.9436    0.0000 </r>
       <r>   27.7743    0.0000 </r>
       <r>   31.7605    0.0000 </r>
       <r>   32.0542    0.0000 </r>
       <r>   33.3536    0.0000 </r>
       <r>   33.3536    0.0000 </r>
       <r>   33.6965    0.0000 </r>
       <r>   33.6965    0.0000 </r>
       <r>   34.9177    0.0000 </r>
       <r>   37.1678    0.0000 </r>
       <r>   37.2485    0.0000 </r>
       <r>   37.9104    0.0000 </r>
       <r>   37.9104    0.0000 </r>
       <r>   41.3521    0.0000 </r>
      </set>
      <set comment="kpoint 20">
       <r>    1.8486    1.0000 </r>
       <r>    2.5179    1.0000 </r>
       <r>    3.3614    1.0000 </r>
       <r>    3.5351    1.0000 </r>
       <r>    3.9725    1.0000 </r>
       <r>    3.9802    1.0000 </r>
       <r>    4.0362    1.0000 </r>
       <r>    4.0689    1.0000 </r>
       <r>    4.0983    1.0000 </r>
       <r>    4.2011    1.0000 </r>
       <r>    4.3844    1.0000 </r>
       <r>    4.5431    1.0000 </r>
       <r>    5.1304    1.0000 </r>
       <r>    5.2264    1.0000 </r>
       <r>    5.2305    1.0000 </r>
       <r>    5.2432    1.0000 </r>
       <r>    5.2653    1.0000 </r>
       <r>    5.4011    1.0000 </r>
       <r>    5.6205    1.0000 </r>
       <r>    5.6626    1.0000 </r>
       <r>    6.3734    1.0000 </r>
       <r>    6.8082    1.0000 </r>
       <r>    8.1699   -0.0000 </r>
       <r>    9.0209   -0.0000 </r>
       <r>   15.2566    0.0000 </r>
       <r>   16.4401    0.0000 </r>
       <r>   17.0828    0.0000 </r>
       <r>   17.8629    0.0000 </r>
       <r>   18.6949    0.0000 </r>
       <r>   19.6351    0.0000 </r>
       <r>   19.7916    0.0000 </r>
       <r>   20.6157    0.0000 </r>
       <r>   24.1809    0.0000 </r>
       <r>   24.9073    0.0000 </r>
       <r>   26.2104    0.0000 </r>
       <r>   29.0378    0.0000 </r>
       <r>   29.3119    0.0000 </r>
       <r>   31.7322    0.0000 </r>
       <r>   32.4741    0.0000 </r>
       <r>   33.0918    0.0000 </r>
       <r>   34.0284    0.0000 </r>
       <r>   34.7637    0.0000 </r>
       <r>   35.8896    0.0000 </r>
       <r>   37.8335    0.0000 </r>
       <r>   37.8775    0.0000 </r>
       <r>   38.5970    0.0000 </r>
       <r>   38.7900    0.0000 </r>
       <r>   39.6803    0.0000 </r>
      </set>
      <set comment="kpoint 21">
       <r>    2.4124    1.0000 </r>
       <r>    2.9431    1.0000 </r>
       <r>    2.9431    1.0000 </r>
       <r>    3.2910    1.0000 </r>
       <r>    4.0661    1.0000 </r>
       <r>    4.0661    1.0000 </r>
       <r>    4.0784    1.0000 </r>
       <r>    4.1434    1.0000 </r>
       <r>    4.1511    1.0000 </r>
       <r>    4.2813    1.0000 </r>
       <r>    4.2813    1.0000 </r>
       <r>    4.4414    1.0000 </r>
       <r>    5.0855    1.0000 </r>
       <r>    5.1459    1.0000 </r>
       <r>    5.1467    1.0000 </r>
       <r>    5.1467    1.0000 </r>
       <r>    5.3142    1.0000 </r>
       <r>    5.4490    1.0000 </r>
       <r>    5.4490    1.0000 </r>
       <r>    5.5347    1.0000 </r>
       <r>    6.7789    1.0000 </r>
       <r>    7.3465    1.0002 </r>
       <r>    7.3465    1.0002 </r>
       <r>    8.0620   -0.0000 </r>
       <r>   16.2626    0.0000 </r>
       <r>   17.4136    0.0000 </r>
       <r>   17.4136    0.0000 </r>
       <r>   17.7557    0.0000 </r>
       <r>   18.5351    0.0000 </r>
       <r>   18.6054    0.0000 </r>
       <r>   18.6054    0.0000 </r>
       <r>   19.5228    0.0000 </r>
       <r>   26.8703    0.0000 </r>
       <r>   26.8703    0.0000 </r>
       <r>   27.0260    0.0000 </r>
       <r>   28.7454    0.0000 </r>
       <r>   29.4076    0.0000 </r>
       <r>   30.0738    0.0000 </r>
       <r>   30.6970    0.0000 </r>
       <r>   30.6970    0.0000 </r>
       <r>   36.5572    0.0000 </r>
       <r>   36.5572    0.0000 </r>
       <r>   36.7970    0.0000 </r>
       <r>   38.2389    0.0000 </r>
       <r>   39.0242    0.0000 </r>
       <r>   39.4198    0.0000 </r>
       <r>   39.6252    0.0000 </r>
       <r>   39.9326    0.0000 </r>
      </set>
      <set comment="kpoint 22">
       <r>   -1.4467    1.0000 </r>
       <r>    2.8322    1.0000 </r>
       <r>    2.8322    1.0000 </r>
       <r>    2.8322    1.0000 </r>
       <r>    3.2788    1.0000 </r>
       <r>    3.2788    1.0000 </r>
       <r>    3.2788    1.0000 </r>
       <r>    4.5381    1.0000 </r>
       <r>    4.6550    1.0000 </r>
       <r>    4.6550    1.0000 </r>
       <r>    5.4129    1.0000 </r>
       <r>    5.4129    1.0000 </r>
       <r>    5.7782    1.0000 </r>
       <r>    5.7782    1.0000 </r>
       <r>    5.7782    1.0000 </r>
       <r>    5.8842    1.0000 </r>
       <r>    5.8842    1.0000 </r>
       <r>    5.8842    1.0000 </r>
       <r>    6.0990    1.0000 </r>
       <r>    6.0990    1.0000 </r>
       <r>    6.0990    1.0000 </r>
       <r>    9.0243   -0.0000 </r>
       <r>    9.0243   -0.0000 </r>
       <r>    9.0243   -0.0000 </r>
       <r>   15.6838    0.0000 </r>
       <r>   15.6838    0.0000 </r>
       <r>   15.6838    0.0000 </r>
       <r>   18.9416    0.0000 </r>
       <r>   18.9416    0.0000 </r>
       <r>   18.9416    0.0000 </r>
       <r>   21.1834    0.0000 </r>
       <r>   21.1834    0.0000 </r>
       <r>   21.1834    0.0000 </r>
       <r>   26.1433    0.0000 </r>
       <r>   26.1433    0.0000 </r>
       <r>   26.1433    0.0000 </r>
       <r>   28.2026    0.0000 </r>
       <r>   29.5087    0.0000 </r>
       <r>   29.5087    0.0000 </r>
       <r>   29.5087    0.0000 </r>
       <r>   31.0882    0.0000 </r>
       <r>   32.1507    0.0000 </r>
       <r>   32.1507    0.0000 </r>
       <r>   36.6320    0.0000 </r>
       <r>   36.6320    0.0000 </r>
       <r>   37.2478    0.0000 </r>
       <r>   41.2300    0.0000 </r>
       <r>   41.6010    0.0000 </r>
      </set>
      <set comment="kpoint 23">
       <r>   -1.1502    1.0000 </r>
       <r>    2.8114    1.0000 </r>
       <r>    2.9651    1.0000 </r>
       <r>    2.9651    1.0000 </r>
       <r>    3.3541    1.0000 </r>
       <r>    3.3593    1.0000 </r>
       <r>    3.3593    1.0000 </r>
       <r>    4.4677    1.0000 </r>
       <r>    4.7080    1.0000 </r>
       <r>    4.7123    1.0000 </r>
       <r>    5.3434    1.0000 </r>
       <r>    5.4170    1.0000 </r>
       <r>    5.4170    1.0000 </r>
       <r>    5.4552    1.0000 </r>
       <r>    5.5953    1.0000 </r>
       <r>    5.7884    1.0000 </r>
       <r>    5.7969    1.0000 </r>
       <r>    5.7969    1.0000 </r>
       <r>    6.0531    1.0000 </r>
       <r>    6.0853    1.0000 </r>
       <r>    6.0853    1.0000 </r>
       <r>    7.8349   -0.0076 </r>
       <r>    9.6139   -0.0000 </r>
       <r>    9.6139   -0.0000 </r>
       <r>   15.8402    0.0000 </r>
       <r>   15.8402    0.0000 </r>
       <r>   17.4564    0.0000 </r>
       <r>   17.4564    0.0000 </r>
       <r>   17.5397    0.0000 </r>
       <r>   19.3211    0.0000 </r>
       <r>   20.8990    0.0000 </r>
       <r>   20.8990    0.0000 </r>
       <r>   21.6114    0.0000 </r>
       <r>   26.2889    0.0000 </r>
       <r>   26.7321    0.0000 </r>
       <r>   27.1231    0.0000 </r>
       <r>   27.1231    0.0000 </r>
       <r>   29.6733    0.0000 </r>
       <r>   30.3418    0.0000 </r>
       <r>   30.4585    0.0000 </r>
       <r>   31.3253    0.0000 </r>
       <r>   31.3253    0.0000 </r>
       <r>   33.1218    0.0000 </r>
       <r>   35.7551    0.0000 </r>
       <r>   38.0533    0.0000 </r>
       <r>   38.3501    0.0000 </r>
       <r>   39.2947    0.0000 </r>
       <r>   42.1797    0.0000 </r>
      </set>
      <set comment="kpoint 24">
       <r>   -0.6659    1.0000 </r>
       <r>    2.6819    1.0000 </r>
       <r>    3.1600    1.0000 </r>
       <r>    3.1600    1.0000 </r>
       <r>    3.4740    1.0000 </r>
       <r>    3.4928    1.0000 </r>
       <r>    3.4928    1.0000 </r>
       <r>    4.3433    1.0000 </r>
       <r>    4.7976    1.0000 </r>
       <r>    4.8067    1.0000 </r>
       <r>    4.9917    1.0000 </r>
       <r>    4.9917    1.0000 </r>
       <r>    5.2540    1.0000 </r>
       <r>    5.2905    1.0000 </r>
       <r>    5.5215    1.0000 </r>
       <r>    5.6417    1.0000 </r>
       <r>    5.6643    1.0000 </r>
       <r>    5.6643    1.0000 </r>
       <r>    5.9844    1.0000 </r>
       <r>    6.0736    1.0000 </r>
       <r>    6.0736    1.0000 </r>
       <r>    6.7601    1.0000 </r>
       <r>   10.4054    0.0000 </r>
       <r>   10.4054    0.0000 </r>
       <r>   15.9091    0.0000 </r>
       <r>   15.9091    0.0000 </r>
       <r>   16.2496    0.0000 </r>
       <r>   16.2496    0.0000 </r>
       <r>   19.7404    0.0000 </r>
       <r>   19.9678    0.0000 </r>
       <r>   19.9678    0.0000 </r>
       <r>   20.0109    0.0000 </r>
       <r>   22.3035    0.0000 </r>
       <r>   25.3097    0.0000 </r>
       <r>   26.5405    0.0000 </r>
       <r>   28.7671    0.0000 </r>
       <r>   28.9584    0.0000 </r>
       <r>   28.9584    0.0000 </r>
       <r>   29.3628    0.0000 </r>
       <r>   29.9687    0.0000 </r>
       <r>   32.5844    0.0000 </r>
       <r>   33.5161    0.0000 </r>
       <r>   33.5161    0.0000 </r>
       <r>   34.9659    0.0000 </r>
       <r>   37.6045    0.0000 </r>
       <r>   39.9527    0.0000 </r>
       <r>   40.2800    0.0000 </r>
       <r>   42.6369    0.0000 </r>
      </set>
      <set comment="kpoint 25">
       <r>   -0.0131    1.0000 </r>
       <r>    2.2907    1.0000 </r>
       <r>    3.3743    1.0000 </r>
       <r>    3.3743    1.0000 </r>
       <r>    3.6295    1.0000 </r>
       <r>    3.6735    1.0000 </r>
       <r>    3.6735    1.0000 </r>
       <r>    4.1816    1.0000 </r>
       <r>    4.5850    1.0000 </r>
       <r>    4.5850    1.0000 </r>
       <r>    4.8594    1.0000 </r>
       <r>    4.9362    1.0000 </r>
       <r>    4.9606    1.0000 </r>
       <r>    5.2242    1.0000 </r>
       <r>    5.4639    1.0000 </r>
       <r>    5.5097    1.0000 </r>
       <r>    5.5097    1.0000 </r>
       <r>    5.6063    1.0000 </r>
       <r>    5.8988    1.0000 </r>
       <r>    6.0557    1.0000 </r>
       <r>    6.0673    1.0000 </r>
       <r>    6.0673    1.0000 </r>
       <r>   11.3174    0.0000 </r>
       <r>   11.3174    0.0000 </r>
       <r>   14.6882    0.0000 </r>
       <r>   14.6882    0.0000 </r>
       <r>   16.5923    0.0000 </r>
       <r>   16.5923    0.0000 </r>
       <r>   18.9327    0.0000 </r>
       <r>   18.9327    0.0000 </r>
       <r>   20.6952    0.0000 </r>
       <r>   22.3626    0.0000 </r>
       <r>   23.2333    0.0000 </r>
       <r>   23.9809    0.0000 </r>
       <r>   26.9163    0.0000 </r>
       <r>   27.1661    0.0000 </r>
       <r>   28.4098    0.0000 </r>
       <r>   30.4229    0.0000 </r>
       <r>   30.7104    0.0000 </r>
       <r>   31.1871    0.0000 </r>
       <r>   31.1871    0.0000 </r>
       <r>   33.2434    0.0000 </r>
       <r>   35.8125    0.0000 </r>
       <r>   35.8125    0.0000 </r>
       <r>   39.1648    0.0000 </r>
       <r>   39.7795    0.0000 </r>
       <r>   39.7795    0.0000 </r>
       <r>   41.2931    0.0000 </r>
      </set>
      <set comment="kpoint 26">
       <r>    0.7687    1.0000 </r>
       <r>    1.5937    1.0000 </r>
       <r>    3.5316    1.0000 </r>
       <r>    3.5316    1.0000 </r>
       <r>    3.8089    1.0000 </r>
       <r>    3.8881    1.0000 </r>
       <r>    3.8881    1.0000 </r>
       <r>    3.9982    1.0000 </r>
       <r>    4.2408    1.0000 </r>
       <r>    4.2408    1.0000 </r>
       <r>    4.8076    1.0000 </r>
       <r>    4.8234    1.0000 </r>
       <r>    5.0956    1.0000 </r>
       <r>    5.2758    1.0000 </r>
       <r>    5.3637    1.0000 </r>
       <r>    5.3968    1.0000 </r>
       <r>    5.3968    1.0000 </r>
       <r>    5.6368    1.0000 </r>
       <r>    5.7026    1.0000 </r>
       <r>    5.8025    1.0000 </r>
       <r>    6.0646    1.0000 </r>
       <r>    6.0646    1.0000 </r>
       <r>   12.2920    0.0000 </r>
       <r>   12.2920    0.0000 </r>
       <r>   13.5268    0.0000 </r>
       <r>   13.5268    0.0000 </r>
       <r>   17.1754    0.0000 </r>
       <r>   17.1754    0.0000 </r>
       <r>   18.0052    0.0000 </r>
       <r>   18.0052    0.0000 </r>
       <r>   21.6595    0.0000 </r>
       <r>   22.7599    0.0000 </r>
       <r>   24.3722    0.0000 </r>
       <r>   24.9606    0.0000 </r>
       <r>   25.6920    0.0000 </r>
       <r>   27.2268    0.0000 </r>
       <r>   27.4705    0.0000 </r>
       <r>   28.5521    0.0000 </r>
       <r>   31.0722    0.0000 </r>
       <r>   31.9711    0.0000 </r>
       <r>   33.5336    0.0000 </r>
       <r>   33.5336    0.0000 </r>
       <r>   36.3916    0.0000 </r>
       <r>   36.3916    0.0000 </r>
       <r>   38.7773    0.0000 </r>
       <r>   38.7773    0.0000 </r>
       <r>   41.2072    0.0000 </r>
       <r>   42.4777    0.0000 </r>
      </set>
      <set comment="kpoint 27">
       <r>   -0.8589    1.0000 </r>
       <r>    2.9539    1.0000 </r>
       <r>    2.9539    1.0000 </r>
       <r>    3.0842    1.0000 </r>
       <r>    3.4291    1.0000 </r>
       <r>    3.4300    1.0000 </r>
       <r>    3.4300    1.0000 </r>
       <r>    4.4256    1.0000 </r>
       <r>    4.7396    1.0000 </r>
       <r>    4.7405    1.0000 </r>
       <r>    5.2038    1.0000 </r>
       <r>    5.2215    1.0000 </r>
       <r>    5.2215    1.0000 </r>
       <r>    5.3363    1.0000 </r>
       <r>    5.4638    1.0000 </r>
       <r>    5.6831    1.0000 </r>
       <r>    5.7115    1.0000 </r>
       <r>    5.7115    1.0000 </r>
       <r>    6.0437    1.0000 </r>
       <r>    6.0437    1.0000 </r>
       <r>    6.0504    1.0000 </r>
       <r>    8.3790   -0.0000 </r>
       <r>    8.3790   -0.0000 </r>
       <r>   10.1153   -0.0000 </r>
       <r>   15.7243    0.0000 </r>
       <r>   16.1371    0.0000 </r>
       <r>   17.6617    0.0000 </r>
       <r>   17.6617    0.0000 </r>
       <r>   17.8966    0.0000 </r>
       <r>   17.8966    0.0000 </r>
       <r>   21.2875    0.0000 </r>
       <r>   21.2875    0.0000 </r>
       <r>   22.0159    0.0000 </r>
       <r>   25.1600    0.0000 </r>
       <r>   26.6693    0.0000 </r>
       <r>   27.2899    0.0000 </r>
       <r>   27.2899    0.0000 </r>
       <r>   28.9538    0.0000 </r>
       <r>   31.5051    0.0000 </r>
       <r>   31.5051    0.0000 </r>
       <r>   31.8132    0.0000 </r>
       <r>   32.8578    0.0000 </r>
       <r>   33.2981    0.0000 </r>
       <r>   36.1701    0.0000 </r>
       <r>   36.8409    0.0000 </r>
       <r>   38.5334    0.0000 </r>
       <r>   39.9271    0.0000 </r>
       <r>   41.1750    0.0000 </r>
      </set>
      <set comment="kpoint 28">
       <r>   -0.3843    1.0000 </r>
       <r>    2.8410    1.0000 </r>
       <r>    3.1638    1.0000 </r>
       <r>    3.2589    1.0000 </r>
       <r>    3.5414    1.0000 </r>
       <r>    3.5432    1.0000 </r>
       <r>    3.5554    1.0000 </r>
       <r>    4.3302    1.0000 </r>
       <r>    4.7820    1.0000 </r>
       <r>    4.8145    1.0000 </r>
       <r>    4.8152    1.0000 </r>
       <r>    4.8879    1.0000 </r>
       <r>    4.9493    1.0000 </r>
       <r>    5.2833    1.0000 </r>
       <r>    5.5440    1.0000 </r>
       <r>    5.5630    1.0000 </r>
       <r>    5.5665    1.0000 </r>
       <r>    5.6111    1.0000 </r>
       <r>    5.9760    1.0000 </r>
       <r>    6.0110    1.0000 </r>
       <r>    6.0129    1.0000 </r>
       <r>    7.2496    1.0000 </r>
       <r>    9.0754   -0.0000 </r>
       <r>   10.8215    0.0000 </r>
       <r>   14.3471    0.0000 </r>
       <r>   16.3605    0.0000 </r>
       <r>   16.3624    0.0000 </r>
       <r>   18.1143    0.0000 </r>
       <r>   18.3706    0.0000 </r>
       <r>   20.0664    0.0000 </r>
       <r>   20.3108    0.0000 </r>
       <r>   21.8999    0.0000 </r>
       <r>   21.9186    0.0000 </r>
       <r>   23.6931    0.0000 </r>
       <r>   27.5174    0.0000 </r>
       <r>   27.5799    0.0000 </r>
       <r>   27.6755    0.0000 </r>
       <r>   29.1468    0.0000 </r>
       <r>   31.0055    0.0000 </r>
       <r>   31.8198    0.0000 </r>
       <r>   33.6700    0.0000 </r>
       <r>   33.9005    0.0000 </r>
       <r>   34.3508    0.0000 </r>
       <r>   35.5582    0.0000 </r>
       <r>   37.2104    0.0000 </r>
       <r>   38.0224    0.0000 </r>
       <r>   41.2199    0.0000 </r>
       <r>   41.5012    0.0000 </r>
      </set>
      <set comment="kpoint 29">
       <r>    0.2534    1.0000 </r>
       <r>    2.4736    1.0000 </r>
       <r>    3.3997    1.0000 </r>
       <r>    3.4621    1.0000 </r>
       <r>    3.6715    1.0000 </r>
       <r>    3.6895    1.0000 </r>
       <r>    3.7172    1.0000 </r>
       <r>    4.1919    1.0000 </r>
       <r>    4.4513    1.0000 </r>
       <r>    4.5584    1.0000 </r>
       <r>    4.7202    1.0000 </r>
       <r>    4.7877    1.0000 </r>
       <r>    4.9207    1.0000 </r>
       <r>    5.2926    1.0000 </r>
       <r>    5.3909    1.0000 </r>
       <r>    5.4365    1.0000 </r>
       <r>    5.4786    1.0000 </r>
       <r>    5.6599    1.0000 </r>
       <r>    5.8668    1.0000 </r>
       <r>    5.9864    1.0000 </r>
       <r>    5.9868    1.0000 </r>
       <r>    6.4539    1.0000 </r>
       <r>    9.8695   -0.0000 </r>
       <r>   11.6159    0.0000 </r>
       <r>   13.1116    0.0000 </r>
       <r>   15.0527    0.0000 </r>
       <r>   16.8132    0.0000 </r>
       <r>   18.6052    0.0000 </r>
       <r>   19.1363    0.0000 </r>
       <r>   19.2579    0.0000 </r>
       <r>   21.0703    0.0000 </r>
       <r>   22.3512    0.0000 </r>
       <r>   22.4721    0.0000 </r>
       <r>   22.8752    0.0000 </r>
       <r>   26.1506    0.0000 </r>
       <r>   28.0137    0.0000 </r>
       <r>   29.6764    0.0000 </r>
       <r>   29.7745    0.0000 </r>
       <r>   31.3543    0.0000 </r>
       <r>   31.4899    0.0000 </r>
       <r>   32.2864    0.0000 </r>
       <r>   34.4809    0.0000 </r>
       <r>   35.6921    0.0000 </r>
       <r>   37.6087    0.0000 </r>
       <r>   37.8436    0.0000 </r>
       <r>   38.9921    0.0000 </r>
       <r>   39.3399    0.0000 </r>
       <r>   40.0593    0.0000 </r>
      </set>
      <set comment="kpoint 30">
       <r>    1.0130    1.0000 </r>
       <r>    1.8081    1.0000 </r>
       <r>    3.6013    1.0000 </r>
       <r>    3.6425    1.0000 </r>
       <r>    3.7710    1.0000 </r>
       <r>    3.8435    1.0000 </r>
       <r>    3.8561    1.0000 </r>
       <r>    4.0285    1.0000 </r>
       <r>    4.2052    1.0000 </r>
       <r>    4.2844    1.0000 </r>
       <r>    4.6586    1.0000 </r>
       <r>    4.7195    1.0000 </r>
       <r>    5.0539    1.0000 </r>
       <r>    5.2137    1.0000 </r>
       <r>    5.3497    1.0000 </r>
       <r>    5.3670    1.0000 </r>
       <r>    5.4427    1.0000 </r>
       <r>    5.6791    1.0000 </r>
       <r>    5.8022    1.0000 </r>
       <r>    5.9748    1.0000 </r>
       <r>    5.9748    1.0000 </r>
       <r>    6.0122    1.0000 </r>
       <r>   10.7495    0.0000 </r>
       <r>   11.6620    0.0000 </r>
       <r>   12.8916    0.0000 </r>
       <r>   13.8746    0.0000 </r>
       <r>   17.4402    0.0000 </r>
       <r>   18.2399    0.0000 </r>
       <r>   19.3274    0.0000 </r>
       <r>   20.0647    0.0000 </r>
       <r>   20.1469    0.0000 </r>
       <r>   21.1398    0.0000 </r>
       <r>   23.7111    0.0000 </r>
       <r>   24.8761    0.0000 </r>
       <r>   25.3073    0.0000 </r>
       <r>   27.9148    0.0000 </r>
       <r>   28.6316    0.0000 </r>
       <r>   29.5752    0.0000 </r>
       <r>   31.9871    0.0000 </r>
       <r>   32.9174    0.0000 </r>
       <r>   33.3116    0.0000 </r>
       <r>   33.7014    0.0000 </r>
       <r>   35.4353    0.0000 </r>
       <r>   36.9296    0.0000 </r>
       <r>   39.1765    0.0000 </r>
       <r>   39.4765    0.0000 </r>
       <r>   40.4395    0.0000 </r>
       <r>   40.6248    0.0000 </r>
      </set>
      <set comment="kpoint 31">
       <r>    0.0728    1.0000 </r>
       <r>    3.0735    1.0000 </r>
       <r>    3.0735    1.0000 </r>
       <r>    3.3918    1.0000 </r>
       <r>    3.6282    1.0000 </r>
       <r>    3.6588    1.0000 </r>
       <r>    3.6588    1.0000 </r>
       <r>    4.2837    1.0000 </r>
       <r>    4.6053    1.0000 </r>
       <r>    4.6053    1.0000 </r>
       <r>    4.7132    1.0000 </r>
       <r>    4.7671    1.0000 </r>
       <r>    4.8530    1.0000 </r>
       <r>    5.2658    1.0000 </r>
       <r>    5.4425    1.0000 </r>
       <r>    5.4928    1.0000 </r>
       <r>    5.4928    1.0000 </r>
       <r>    5.6493    1.0000 </r>
       <r>    5.9219    1.0000 </r>
       <r>    5.9219    1.0000 </r>
       <r>    5.9451    1.0000 </r>
       <r>    7.8530   -0.0040 </r>
       <r>    7.8530   -0.0040 </r>
       <r>   11.3780    0.0000 </r>
       <r>   12.9433    0.0000 </r>
       <r>   16.6920    0.0000 </r>
       <r>   16.9266    0.0000 </r>
       <r>   16.9266    0.0000 </r>
       <r>   20.3950    0.0000 </r>
       <r>   20.3950    0.0000 </r>
       <r>   20.9152    0.0000 </r>
[...]
       <r>   34.6140    0.0000 </r>
       <r>   34.6747    0.0000 </r>
       <r>   34.6747    0.0000 </r>
       <r>   35.3554    0.0000 </r>
       <r>   35.5380    0.0000 </r>
       <r>   37.1353    0.0000 </r>
       <r>   37.1353    0.0000 </r>
      </set>
      <set comment="kpoint 55">
       <r>    2.4486    1.0000 </r>
       <r>    2.6191    1.0000 </r>
       <r>    2.6191    1.0000 </r>
       <r>    2.6951    1.0000 </r>
       <r>    4.4687    1.0000 </r>
       <r>    4.5021    1.0000 </r>
       <r>    4.5021    1.0000 </r>
       <r>    4.5762    1.0000 </r>
       <r>    4.6150    1.0000 </r>
       <r>    4.6490    1.0000 </r>
       <r>    4.6490    1.0000 </r>
       <r>    4.6605    1.0000 </r>
       <r>    5.3029    1.0000 </r>
       <r>    5.3126    1.0000 </r>
       <r>    5.3126    1.0000 </r>
       <r>    5.4321    1.0000 </r>
       <r>    5.8968    1.0000 </r>
       <r>    5.9679    1.0000 </r>
       <r>    5.9679    1.0000 </r>
       <r>    5.9692    1.0000 </r>
       <r>    6.3617    1.0000 </r>
       <r>    7.0961    1.0000 </r>
       <r>    7.0961    1.0000 </r>
       <r>    7.5638    0.9582 </r>
       <r>   11.5578    0.0000 </r>
       <r>   12.0534    0.0000 </r>
       <r>   12.0534    0.0000 </r>
       <r>   12.8337    0.0000 </r>
       <r>   26.0650    0.0000 </r>
       <r>   26.8537    0.0000 </r>
       <r>   26.8537    0.0000 </r>
       <r>   27.7570    0.0000 </r>
       <r>   27.9870    0.0000 </r>
       <r>   27.9870    0.0000 </r>
       <r>   28.4180    0.0000 </r>
       <r>   28.9155    0.0000 </r>
       <r>   29.4208    0.0000 </r>
       <r>   29.7034    0.0000 </r>
       <r>   29.7034    0.0000 </r>
       <r>   30.0799    0.0000 </r>
       <r>   33.0254    0.0000 </r>
       <r>   33.8421    0.0000 </r>
       <r>   33.8421    0.0000 </r>
       <r>   34.2780    0.0000 </r>
       <r>   34.4942    0.0000 </r>
       <r>   35.3317    0.0000 </r>
       <r>   35.3317    0.0000 </r>
       <r>   35.3543    0.0000 </r>
      </set>
      <set comment="kpoint 56">
       <r>    2.4947    1.0000 </r>
       <r>    2.5753    1.0000 </r>
       <r>    2.5753    1.0000 </r>
       <r>    2.5753    1.0000 </r>
       <r>    4.5431    1.0000 </r>
       <r>    4.5431    1.0000 </r>
       <r>    4.5431    1.0000 </r>
       <r>    4.5792    1.0000 </r>
       <r>    4.5792    1.0000 </r>
       <r>    4.5945    1.0000 </r>
       <r>    4.5945    1.0000 </r>
       <r>    4.5945    1.0000 </r>
       <r>    5.6947    1.0000 </r>
       <r>    5.6947    1.0000 </r>
       <r>    5.6947    1.0000 </r>
       <r>    5.9773    1.0000 </r>
       <r>    5.9773    1.0000 </r>
       <r>    6.0021    1.0000 </r>
       <r>    6.0021    1.0000 </r>
       <r>    6.0021    1.0000 </r>
       <r>    6.2561    1.0000 </r>
       <r>    6.9410    1.0000 </r>
       <r>    6.9410    1.0000 </r>
       <r>    6.9410    1.0000 </r>
       <r>   11.4977    0.0000 </r>
       <r>   11.4977    0.0000 </r>
       <r>   11.4977    0.0000 </r>
       <r>   11.9672    0.0000 </r>
       <r>   28.1445    0.0000 </r>
       <r>   28.1445    0.0000 </r>
       <r>   28.1445    0.0000 </r>
       <r>   28.8150    0.0000 </r>
       <r>   29.1195    0.0000 </r>
       <r>   29.1195    0.0000 </r>
       <r>   29.1195    0.0000 </r>
       <r>   29.2699    0.0000 </r>
       <r>   29.2699    0.0000 </r>
       <r>   29.2699    0.0000 </r>
       <r>   29.7835    0.0000 </r>
       <r>   29.7835    0.0000 </r>
       <r>   32.9032    0.0000 </r>
       <r>   32.9032    0.0000 </r>
       <r>   33.5023    0.0000 </r>
       <r>   33.5023    0.0000 </r>
       <r>   33.5023    0.0000 </r>
       <r>   33.6945    0.0000 </r>
       <r>   33.6945    0.0000 </r>
       <r>   33.6945    0.0000 </r>
      </set>
     </set>
    </set>
   </array>
  </eigenvalues>
  <separator name="orbital magnetization" >
   <v name="MAGDIPOLOUT">      0.00000000      0.00000000      0.00000000</v>
  </separator>
  <dos>
   <i name="efermi">      7.63332926 </i>
   <total>
    <array>
     <dimension dim="1">gridpoints</dimension>
     <dimension dim="2">spin</dimension>
     <field>energy</field>
     <field>total</field>
     <field>integrated</field>
     <set>
      <set comment="spin 1">
       <r>    -4.0353     0.0000     0.0000 </r>
       <r>    -3.8675     0.0000     0.0000 </r>
       <r>    -3.6997     0.0000     0.0000 </r>
       <r>    -3.5320     0.0000     0.0000 </r>
       <r>    -3.3642     0.0000     0.0000 </r>
       <r>    -3.1965     0.0000     0.0000 </r>
       <r>    -3.0287     0.0000     0.0000 </r>
       <r>    -2.8609     0.0000     0.0000 </r>
       <r>    -2.6932    -0.0000    -0.0000 </r>
       <r>    -2.5254    -0.0000    -0.0000 </r>
       <r>    -2.3576    -0.0000    -0.0000 </r>
       <r>    -2.1899    -0.0000    -0.0000 </r>
       <r>    -2.0221    -0.0000    -0.0000 </r>
       <r>    -1.8543    -0.0006    -0.0001 </r>
       <r>    -1.6866     0.0156     0.0025 </r>
       <r>    -1.5188     0.1288     0.0241 </r>
       <r>    -1.3510     0.1178     0.0439 </r>
       <r>    -1.1833     0.2879     0.0922 </r>
       <r>    -1.0155     0.1852     0.1233 </r>
       <r>    -0.8477     0.2562     0.1662 </r>
       <r>    -0.6800     0.4066     0.2345 </r>
       <r>    -0.5122     0.2380     0.2744 </r>
       <r>    -0.3444     0.5358     0.3643 </r>
       <r>    -0.1767     0.1268     0.3856 </r>
       <r>    -0.0089     0.6149     0.4887 </r>
       <r>     0.1589     0.4421     0.5629 </r>
       <r>     0.3266     0.6559     0.6729 </r>
       <r>     0.4944     0.1947     0.7056 </r>
       <r>     0.6622     0.5944     0.8053 </r>
       <r>     0.8299     0.7462     0.9305 </r>
       <r>     0.9977     0.7911     1.0632 </r>
       <r>     1.1655     0.3386     1.1200 </r>
       <r>     1.3332     0.8232     1.2581 </r>
       <r>     1.5010     0.8749     1.4049 </r>
       <r>     1.6688     0.8450     1.5467 </r>
       <r>     1.8365     0.9094     1.6992 </r>
       <r>     2.0043     1.1779     1.8968 </r>
       <r>     2.1721     1.2295     2.1031 </r>
       <r>     2.3398     1.2046     2.3052 </r>
       <r>     2.5076     2.2315     2.6796 </r>
       <r>     2.6754     2.8077     3.1506 </r>
       <r>     2.8431     4.0376     3.8280 </r>
       <r>     3.0109     4.9388     4.6565 </r>
       <r>     3.1787     5.0937     5.5111 </r>
       <r>     3.3464     6.5356     6.6075 </r>
       <r>     3.5142     9.1273     8.1388 </r>
       <r>     3.6820     9.2028     9.6827 </r>
       <r>     3.8497     8.2478    11.0664 </r>
       <r>     4.0175     8.3571    12.4684 </r>
       <r>     4.1852     9.2465    14.0197 </r>
       <r>     4.3530    12.6411    16.1404 </r>
       <r>     4.5208    12.8895    18.3029 </r>
       <r>     4.6885    16.1368    21.0101 </r>
       <r>     4.8563    16.8931    23.8441 </r>
       <r>     5.0241    11.7631    25.8176 </r>
       <r>     5.1918    10.2475    27.5368 </r>
       <r>     5.3596    14.0416    29.8925 </r>
       <r>     5.5274    14.6196    32.3451 </r>
       <r>     5.6951    12.6150    34.4615 </r>
       <r>     5.8629    13.9196    36.7967 </r>
       <r>     6.0307    21.7360    40.4433 </r>
       <r>     6.1984     9.1691    41.9816 </r>
       <r>     6.3662     1.4635    42.2271 </r>
       <r>     6.5340     1.8929    42.5447 </r>
       <r>     6.7017     0.6812    42.6589 </r>
       <r>     6.8695     2.3079    43.0461 </r>
       <r>     7.0373     0.9879    43.2119 </r>
       <r>     7.2050     1.0792    43.3929 </r>
       <r>     7.3728     1.8230    43.6988 </r>
       <r>     7.5406     0.9168    43.8526 </r>
       <r>     7.7083     1.2695    44.0655 </r>
       <r>     7.8761     1.0022    44.2337 </r>
       <r>     8.0439     1.0536    44.4104 </r>
       <r>     8.2116     1.8420    44.7194 </r>
       <r>     8.3794     0.8856    44.8680 </r>
       <r>     8.5472     0.8712    45.0142 </r>
       <r>     8.7149     0.6621    45.1253 </r>
       <r>     8.8827     0.9135    45.2785 </r>
       <r>     9.0505     1.8897    45.5955 </r>
       <r>     9.2182     0.6791    45.7095 </r>
       <r>     9.3860     1.3251    45.9318 </r>
       <r>     9.5538     1.0079    46.1009 </r>
       <r>     9.7215     0.4754    46.1806 </r>
       <r>     9.8893     0.7722    46.3102 </r>
       <r>    10.0571     0.5637    46.4048 </r>
       <r>    10.2248     1.5463    46.6642 </r>
       <r>    10.3926     1.4044    46.8998 </r>
       <r>    10.5604     0.2137    46.9356 </r>
       <r>    10.7281     0.3518    46.9947 </r>
       <r>    10.8959     1.2724    47.2081 </r>
       <r>    11.0637     0.0833    47.2221 </r>
       <r>    11.2314     0.5316    47.3113 </r>
       <r>    11.3992     1.0796    47.4924 </r>
       <r>    11.5669     0.5480    47.5843 </r>
       <r>    11.7347     1.7901    47.8846 </r>
       <r>    11.9025     0.7293    48.0070 </r>
       <r>    12.0702     0.7671    48.1357 </r>
       <r>    12.2380     1.3602    48.3639 </r>
       <r>    12.4058     1.6132    48.6345 </r>
       <r>    12.5735     0.6574    48.7448 </r>
       <r>    12.7413     1.3658    48.9739 </r>
       <r>    12.9091     0.9661    49.1360 </r>
       <r>    13.0768     1.1712    49.3325 </r>
       <r>    13.2446     0.7622    49.4604 </r>
       <r>    13.4124     1.7104    49.7473 </r>
       <r>    13.5801     1.2970    49.9649 </r>
       <r>    13.7479     0.3368    50.0214 </r>
       <r>    13.9157     0.8987    50.1722 </r>
       <r>    14.0834     0.9124    50.3253 </r>
       <r>    14.2512     1.0316    50.4983 </r>
       <r>    14.4190     0.8540    50.6416 </r>
       <r>    14.5867     1.1525    50.8350 </r>
       <r>    14.7545     1.3536    51.0620 </r>
       <r>    14.9223     0.5044    51.1467 </r>
       <r>    15.0900     1.3058    51.3657 </r>
       <r>    15.2578     1.4342    51.6063 </r>
       <r>    15.4256     0.7021    51.7241 </r>
       <r>    15.5933     1.0827    51.9058 </r>
       <r>    15.7611     1.6697    52.1859 </r>
       <r>    15.9289     1.3052    52.4048 </r>
       <r>    16.0966     1.9083    52.7250 </r>
       <r>    16.2644     1.0466    52.9006 </r>
       <r>    16.4322     2.0964    53.2523 </r>
       <r>    16.5999     1.3036    53.4710 </r>
       <r>    16.7677     1.1290    53.6604 </r>
       <r>    16.9355     1.2230    53.8656 </r>
       <r>    17.1032     0.7985    53.9995 </r>
       <r>    17.2710     1.6306    54.2731 </r>
       <r>    17.4388     1.4237    54.5119 </r>
       <r>    17.6065     1.5502    54.7720 </r>
       <r>    17.7743     1.8996    55.0907 </r>
       <r>    17.9421     1.8499    55.4010 </r>
       <r>    18.1098     1.4240    55.6399 </r>
       <r>    18.2776     0.9298    55.7959 </r>
       <r>    18.4453     1.9962    56.1308 </r>
       <r>    18.6131     1.3396    56.3556 </r>
       <r>    18.7809     1.5379    56.6136 </r>
       <r>    18.9486     1.6665    56.8931 </r>
       <r>    19.1164     0.4924    56.9758 </r>
       <r>    19.2842     2.3943    57.3774 </r>
       <r>    19.4519     1.5692    57.6407 </r>
       <r>    19.6197     1.2334    57.8476 </r>
       <r>    19.7875     1.4163    58.0852 </r>
       <r>    19.9552     1.5756    58.3496 </r>
       <r>    20.1230     2.4422    58.7593 </r>
       <r>    20.2908     1.2091    58.9621 </r>
       <r>    20.4585     1.8816    59.2778 </r>
       <r>    20.6263     1.4990    59.5293 </r>
       <r>    20.7941     1.5545    59.7901 </r>
       <r>    20.9618     2.3994    60.1926 </r>
       <r>    21.1296     1.8748    60.5071 </r>
       <r>    21.2974     2.1999    60.8762 </r>
       <r>    21.4651     1.0836    61.0580 </r>
       <r>    21.6329     1.7466    61.3510 </r>
       <r>    21.8007     1.1641    61.5463 </r>
       <r>    21.9684     1.7837    61.8456 </r>
       <r>    22.1362     1.2805    62.0604 </r>
       <r>    22.3040     2.0491    62.4042 </r>
       <r>    22.4717     2.4689    62.8184 </r>
       <r>    22.6395     1.6419    63.0938 </r>
       <r>    22.8073     0.8506    63.2365 </r>
       <r>    22.9750     1.6349    63.5108 </r>
       <r>    23.1428     1.4233    63.7496 </r>
       <r>    23.3106     1.8049    64.0524 </r>
       <r>    23.4783     1.3838    64.2845 </r>
       <r>    23.6461     1.8702    64.5983 </r>
       <r>    23.8139     2.2826    64.9812 </r>
       <r>    23.9816     0.7566    65.1081 </r>
       <r>    24.1494     1.0125    65.2780 </r>
       <r>    24.3172     1.0882    65.4606 </r>
       <r>    24.4849     1.2473    65.6698 </r>
       <r>    24.6527     1.3077    65.8892 </r>
       <r>    24.8205     0.7497    66.0150 </r>
       <r>    24.9882     2.0208    66.3540 </r>
       <r>    25.1560     1.1951    66.5545 </r>
       <r>    25.3238     1.6934    66.8386 </r>
       <r>    25.4915     1.1638    67.0338 </r>
       <r>    25.6593     1.6186    67.3054 </r>
       <r>    25.8270     1.1039    67.4906 </r>
       <r>    25.9948     0.9402    67.6483 </r>
       <r>    26.1626     1.7430    67.9407 </r>
       <r>    26.3303     1.5191    68.1956 </r>
       <r>    26.4981     0.9683    68.3580 </r>
       <r>    26.6659     1.3516    68.5848 </r>
       <r>    26.8336     1.4578    68.8293 </r>
       <r>    27.0014     1.9609    69.1583 </r>
       <r>    27.1692     2.0144    69.4963 </r>
       <r>    27.3369     1.2238    69.7016 </r>
       <r>    27.5047     1.8865    70.0181 </r>
       <r>    27.6725     2.1426    70.3775 </r>
       <r>    27.8402     1.9679    70.7077 </r>
       <r>    28.0080     2.1205    71.0634 </r>
       <r>    28.1758     1.9943    71.3980 </r>
       <r>    28.3435     1.0103    71.5675 </r>
       <r>    28.5113     2.5879    72.0016 </r>
       <r>    28.6791     1.9832    72.3344 </r>
       <r>    28.8468     2.4351    72.7429 </r>
       <r>    29.0146     1.5483    73.0026 </r>
       <r>    29.1824     3.3604    73.5664 </r>
       <r>    29.3501     1.6565    73.8443 </r>
       <r>    29.5179     2.8824    74.3279 </r>
       <r>    29.6857     2.6044    74.7648 </r>
       <r>    29.8534     2.3186    75.1538 </r>
       <r>    30.0212     1.7858    75.4534 </r>
       <r>    30.1890     2.5897    75.8878 </r>
       <r>    30.3567     1.6098    76.1579 </r>
       <r>    30.5245     2.9961    76.6606 </r>
       <r>    30.6923     2.4346    77.0690 </r>
       <r>    30.8600     0.9900    77.2351 </r>
       <r>    31.0278     0.7098    77.3542 </r>
       <r>    31.1956     2.6002    77.7904 </r>
       <r>    31.3633     2.2087    78.1609 </r>
       <r>    31.5311     1.9381    78.4861 </r>
       <r>    31.6989     1.8119    78.7901 </r>
       <r>    31.8666     1.4078    79.0263 </r>
       <r>    32.0344     2.3945    79.4280 </r>
       <r>    32.2022     2.1127    79.7824 </r>
       <r>    32.3699     1.0842    79.9643 </r>
       <r>    32.5377     1.2686    80.1771 </r>
       <r>    32.7055     1.3059    80.3962 </r>
       <r>    32.8732     0.9502    80.5556 </r>
       <r>    33.0410     1.4089    80.7920 </r>
       <r>    33.2087     0.8207    80.9297 </r>
       <r>    33.3765     1.2396    81.1376 </r>
       <r>    33.5443     1.8335    81.4452 </r>
       <r>    33.7120     1.6722    81.7258 </r>
       <r>    33.8798     1.6442    82.0016 </r>
       <r>    34.0476     1.8322    82.3090 </r>
       <r>    34.2153     0.8641    82.4540 </r>
       <r>    34.3831     1.7343    82.7449 </r>
       <r>    34.5509     1.7263    83.0345 </r>
       <r>    34.7186     2.8462    83.5120 </r>
       <r>    34.8864     1.6051    83.7813 </r>
       <r>    35.0542     1.7632    84.0771 </r>
       <r>    35.2219     2.9505    84.5721 </r>
       <r>    35.3897     3.2906    85.1241 </r>
       <r>    35.5575     2.9540    85.6197 </r>
       <r>    35.7252     2.1378    85.9784 </r>
       <r>    35.8930     2.6545    86.4237 </r>
       <r>    36.0608     1.1309    86.6134 </r>
       <r>    36.2285     0.7596    86.7409 </r>
       <r>    36.3963     2.4259    87.1479 </r>
       <r>    36.5641     1.5787    87.4127 </r>
       <r>    36.7318     1.4079    87.6489 </r>
       <r>    36.8996     2.2554    88.0273 </r>
       <r>    37.0674     1.5846    88.2931 </r>
       <r>    37.2351     1.9527    88.6207 </r>
       <r>    37.4029     1.0616    88.7988 </r>
       <r>    37.5707     1.8800    89.1142 </r>
       <r>    37.7384     1.3784    89.3455 </r>
       <r>    37.9062     1.7182    89.6337 </r>
       <r>    38.0740     3.1292    90.1587 </r>
       <r>    38.2417     2.7006    90.6118 </r>
       <r>    38.4095     1.8493    90.9220 </r>
       <r>    38.5773     1.4861    91.1713 </r>
       <r>    38.7450     1.7830    91.4705 </r>
       <r>    38.9128     1.9471    91.7971 </r>
       <r>    39.0806     1.0808    91.9784 </r>
       <r>    39.2483     3.1899    92.5136 </r>
       <r>    39.4161     2.8663    92.9945 </r>
       <r>    39.5839     1.7049    93.2805 </r>
       <r>    39.7516     1.7730    93.5780 </r>
       <r>    39.9194     1.9016    93.8970 </r>
       <r>    40.0871     1.2680    94.1097 </r>
       <r>    40.2549     2.0568    94.4548 </r>
       <r>    40.4227     2.0504    94.7987 </r>
       <r>    40.5904     1.2691    95.0117 </r>
       <r>    40.7582     0.9472    95.1706 </r>
       <r>    40.9260     0.1215    95.1909 </r>
       <r>    41.0937    -0.0337    95.1853 </r>
       <r>    41.2615     0.9802    95.3497 </r>
       <r>    41.4293     0.8268    95.4884 </r>
       <r>    41.5970     0.7628    95.6164 </r>
       <r>    41.7648     0.2329    95.6555 </r>
       <r>    41.9326    -0.0069    95.6543 </r>
       <r>    42.1003     0.3000    95.7047 </r>
       <r>    42.2681     0.8482    95.8469 </r>
       <r>    42.4359     0.2428    95.8877 </r>
       <r>    42.6036     0.4093    95.9563 </r>
       <r>    42.7714     0.2061    95.9909 </r>
       <r>    42.9392    -0.0093    95.9894 </r>
       <r>    43.1069     0.0217    95.9930 </r>
       <r>    43.2747     0.0342    95.9987 </r>
       <r>    43.4425    -0.0014    95.9985 </r>
       <r>    43.6102    -0.0000    95.9985 </r>
       <r>    43.7780    -0.0000    95.9985 </r>
       <r>    43.9458     0.0007    95.9986 </r>
       <r>    44.1135     0.0086    96.0000 </r>
       <r>    44.2813    -0.0003    96.0000 </r>
       <r>    44.4491    -0.0000    96.0000 </r>
       <r>    44.6168    -0.0000    96.0000 </r>
       <r>    44.7846    -0.0000    96.0000 </r>
       <r>    44.9524     0.0000    96.0000 </r>
       <r>    45.1201     0.0000    96.0000 </r>
       <r>    45.2879     0.0000    96.0000 </r>
       <r>    45.4557     0.0000    96.0000 </r>
       <r>    45.6234     0.0000    96.0000 </r>
       <r>    45.7912     0.0000    96.0000 </r>
       <r>    45.9590     0.0000    96.0000 </r>
       <r>    46.1267     0.0000    96.0000 </r>
       <r>    46.2945     0.0000    96.0000 </r>
      </set>
     </set>
    </array>
   </total>
  </dos>
 </calculation>
 <structure name="finalpos" >
  <crystal>
   <varray name="basis" >
    <v>       3.61000000       0.00000000       0.00000000 </v>
    <v>       0.00000000       3.61000000       0.00000000 </v>
    <v>       0.00000000       0.00000000       3.61000000 </v>
   </varray>
   <i name="volume">     47.04588100 </i>
   <varray name="rec_basis" >
    <v>       0.27700831       0.00000000       0.00000000 </v>
    <v>       0.00000000       0.27700831       0.00000000 </v>
    <v>       0.00000000       0.00000000       0.27700831 </v>
   </varray>
  </crystal>
  <varray name="positions" >
   <v>       0.00000000       0.00000000       0.00000000 </v>
   <v>       0.00000000       0.50000000       0.50000000 </v>
   <v>       0.50000000       0.00000000       0.50000000 </v>
   <v>       0.50000000       0.50000000       0.00000000 </v>
  </varray>
 </structure>
</modeling>
