----- GAMESS execution script 'rungms' -----
This job is running on host crcfe01.crc.nd.edu
under operating system Linux at Thu Oct 17 23:43:27 EDT 2019
Available scratch disk space (Kbyte units) at beginning of the job is
Filesystem      1K-blocks  Used  Available Use% Mounted on
AFS            2147483647     0 2147483647   0% /afs
GAMESS temporary binary files will be written to /afs/crc.nd.edu/user/c/cdrisko
GAMESS supplementary output files will be written to /afs/crc.nd.edu/user/c/cdrisko/scr
Copying input file acetaldehyde.inp to your run's scratch directory...

 Distributed Data Interface kickoff program.
 Initiating 1 compute processes on 1 nodes to run the following command:
 /afs/crc.nd.edu/x86_64_linux/g/gamess/nov-2017/gamess/gamess.00.x acetaldehyde 

          ******************************************************
          *         GAMESS VERSION = 11 NOV 2017 (R3)         *
          *             FROM IOWA STATE UNIVERSITY             *
          * M.W.SCHMIDT, K.K.BALDRIDGE, J.A.BOATZ, S.T.ELBERT, *
          *   M.S.GORDON, J.H.JENSEN, S.KOSEKI, N.MATSUNAGA,   *
          *          K.A.NGUYEN, S.J.SU, T.L.WINDUS,           *
          *       TOGETHER WITH M.DUPUIS, J.A.MONTGOMERY       *
          *         J.COMPUT.CHEM.  14, 1347-1363(1993)        *
          **************** 64 BIT INTEL VERSION ****************

  SINCE 1993, STUDENTS AND POSTDOCS WORKING AT IOWA STATE UNIVERSITY
  AND ALSO IN THEIR VARIOUS JOBS AFTER LEAVING ISU HAVE MADE IMPORTANT
  CONTRIBUTIONS TO THE CODE:
     IVANA ADAMOVIC, CHRISTINE AIKENS, YURI ALEXEEV, POOJA ARORA,
     ANDREY ASADCHEV, ROB BELL, PRADIPTA BANDYOPADHYAY, JONATHAN BENTZ,
     BRETT BODE, KURT BRORSEN, CALEB CARLIN, GALINA CHABAN, WEI CHEN,
     CHEOL HO CHOI, PAUL DAY, ALBERT DEFUSCO, NUWAN DESILVA, TIM DUDLEY,
     DMITRI FEDOROV, ALEX FINDLATER, GRAHAM FLETCHER, MARK FREITAG,
     KURT GLAESEMANN, ANASTASIA GUININA,
     DAN KEMP, GRANT MERRILL, NORIYUKI MINEZAWA, JONATHAN MULLIN,
     TAKESHI NAGATA, SEAN NEDD, HEATHER NETZLOFF, BOSILJKA NJEGIC, RYAN OLSON,
     MIKE PAK, BUU PHAM,
     SPENCER PRUITT, LUKE ROSKOP, JIM SHOEMAKER, LYUDMILA SLIPCHENKO,
     TONY SMITH, SAROM SOK LEANG, JIE SONG, TETSUYA TAKETSUGU, SIMON WEBB,
     PENG XU, SOOHAENG YOO, FEDERICO ZAHARIEV

  ADDITIONAL CODE HAS BEEN PROVIDED BY COLLABORATORS IN OTHER GROUPS:
     IOWA STATE UNIVERSITY:
          JOE IVANIC, AARON WEST, LAIMUTIS BYTAUTAS, KLAUS RUEDENBERG
     UNIVERSITY OF TOKYO: KIMIHIKO HIRAO, TAKAHITO NAKAJIMA,
          TAKAO TSUNEDA, MUNEAKI KAMIYA, SUSUMU YANAGISAWA,
          KIYOSHI YAGI, MAHITO CHIBA, SEIKEN TOKURA, NAOAKI KAWAKAMI
     UNIVERSITY OF AARHUS: FRANK JENSEN
     UNIVERSITY OF IOWA: VISVALDAS KAIRYS, HUI LI
     NATIONAL INST. OF STANDARDS AND TECHNOLOGY: WALT STEVENS, DAVID GARMER
     UNIVERSITY OF PISA: BENEDETTA MENNUCCI, JACOPO TOMASI
     UNIVERSITY OF MEMPHIS: HENRY KURTZ, PRAKASHAN KORAMBATH
     UNIVERSITY OF ALBERTA: TOBY ZENG, MARIUSZ KLOBUKOWSKI
     UNIVERSITY OF NEW ENGLAND: MARK SPACKMAN
     MIE UNIVERSITY: HIROAKI UMEDA
     NAT. INST. OF ADVANCED INDUSTRIAL SCIENCE AND TECHNOLOGY: KAZUO KITAURA
     MICHIGAN STATE UNIVERSITY:
          KAROL KOWALSKI, MARTA WLOCH, JEFFREY GOUR, JESSE LUTZ,
          WEI LI, PIOTR PIECUCH
     UNIVERSITY OF SILESIA: MONIKA MUSIAL, STANISLAW KUCHARSKI
     FACULTES UNIVERSITAIRES NOTRE-DAME DE LA PAIX:
          OLIVIER QUINET, BENOIT CHAMPAGNE
     UNIVERSITY OF CALIFORNIA - SANTA BARBARA: BERNARD KIRTMAN
     INSTITUTE FOR MOLECULAR SCIENCE:
          KAZUYA ISHIMURA, MICHIO KATOUDA, AND SHIGERU NAGASE
     UNIVERSITY OF NOTRE DAME: ANNA POMOGAEVA, DAN CHIPMAN
     KYUSHU UNIVERSITY:
          HARUYUKI NAKANO,
          FENG LONG GU, JACEK KORCHOWIEC, MARCIN MAKOWSKI, AND YURIKO AOKI,
          HIROTOSHI MORI AND EISAKU MIYOSHI
     PENNSYLVANIA STATE UNIVERSITY:
          TZVETELIN IORDANOV, CHET SWALINA, JONATHAN SKONE,
          SHARON HAMMES-SCHIFFER
     WASEDA UNIVERSITY:
          MASATO KOBAYASHI, TOMOKO AKAMA, TSUGUKI TOUMA,
          TAKESHI YOSHIKAWA, YASUHIRO IKABATA, JUNJI SEINO,
          YUYA NAKAJIMA, HIROMI NAKAI
     NANJING UNIVERSITY: SHUHUA LI
     UNIVERSITY OF NEBRASKA:
          PEIFENG SU, DEJUN SI, NANDUN THELLAMUREGE, YALI WANG, HUI LI
     UNIVERSITY OF ZURICH: ROBERTO PEVERATI, KIM BALDRIDGE
     N. COPERNICUS UNIVERSITY AND JACKSON STATE UNIVERSITY:
          MARIA BARYSZ
     UNIVERSITY OF COPENHAGEN: Jimmy Kromann, CASPER STEINMANN
     TOKYO INSTITUTE OF TECHNOLOGY: HIROYA NAKATA
     NAGOYA UNIVERSITY: YOSHIO NISHIMOTO, STEPHAN IRLE
     MOSCOW STATE UNIVERSITY: VLADIMIR MIRONOV

 EXECUTION OF GAMESS BEGUN Thu Oct 17 23:43:27 2019

            ECHO OF THE FIRST FEW INPUT CARDS -
 INPUT CARD> $CONTRL SCFTYP=RHF DFTTYP=B3LYP RUNTYP=ENERGY                                  
 INPUT CARD>       ISPHER=1 MULT=1 COORD=ZMT NZVAR=15 $END                                  
 INPUT CARD> $BASIS GBASIS=N31 NGAUSS=6 NDFUNC=1 $END                                       
 INPUT CARD> $STATPT IFREEZ(1)=9 $END                                                       
 INPUT CARD> $DATA                                                                          
 INPUT CARD>Title Single Point Energy Calculation of Acetaldehyde                           
 INPUT CARD>C1                                                                              
 INPUT CARD>C                                                                               
 INPUT CARD>C      1   1.5086892                                                            
 INPUT CARD>O      2   1.2107245  1  124.7161                                               
 INPUT CARD>H      2   1.1145804  1  114.7739  3  180.0000  0                               
 INPUT CARD>H      1   1.0926781  2  110.5176  3  180.      0                               
 INPUT CARD>H      1   1.0983769  2  109.8265  3  121.4889  0                               
 INPUT CARD>H      1   1.0983769  2  109.8265  3 -121.4889  0                               
 INPUT CARD> $END                                                                           
    1000000 WORDS OF MEMORY AVAILABLE

     BASIS OPTIONS
     -------------
     GBASIS=N31          IGAUSS=       6      POLAR=POPN31  
     NDFUNC=       1     NFFUNC=       0     DIFFSP=       F
     NPFUNC=       0      DIFFS=       F     BASNAM=        


     RUN TITLE
     ---------
 Title Single Point Energy Calculation of Acetaldehyde                           

 THE POINT GROUP OF THE MOLECULE IS C1      
 THE ORDER OF THE PRINCIPAL AXIS IS     0

 YOUR FULLY SUBSTITUTED Z-MATRIX IS
 C   
 C      1   1.5086892
 O      2   1.2107245  1  124.7161
 H      2   1.1145804  1  114.7739  3  180.0000  0
 H      1   1.0926781  2  110.5176  3  180.0000  0
 H      1   1.0983769  2  109.8265  3  121.4889  0
 H      1   1.0983769  2  109.8265  3 -121.4889  0

 THE MOMENTS OF INERTIA ARE (AMU-ANGSTROM**2)
 IXX=     7.443   IYY=    52.934   IZZ=    57.247

 ATOM      ATOMIC                      COORDINATES (BOHR)
           CHARGE         X                   Y                   Z
 C           6.0    -2.3255195461        0.5374020160        0.0000000000
 C           6.0     0.2304210444       -0.7256977789        0.0000000000
 O           8.0     2.2317644415        0.3830325070        0.0000000000
 H           1.0     0.1744092549       -2.8312044305        0.0000000000
 H           1.0    -3.8311180153       -0.8756900411        0.0000000000
 H           1.0    -3.4085118237       -0.0650511746       -1.6650596005
 H           1.0    -3.4085118237       -0.0650511746        1.6650596005

          INTERNUCLEAR DISTANCES (ANGS.)
          ------------------------------

                1 C          2 C          3 O          4 H          5 H     

   1 C       0.0000000    1.5086892 *  2.4129941 *  2.2198436 *  1.0926781 *
   2 C       1.5086892 *  0.0000000    1.2107245 *  1.1145804 *  2.1507392 *
   3 O       2.4129941 *  1.2107245 *  0.0000000    2.0194911 *  3.2767536  
   4 H       2.2198436 *  1.1145804 *  2.0194911 *  0.0000000    2.3587470 *
   5 H       1.0926781 *  2.1507392 *  3.2767536    2.3587470 *  0.0000000  
   6 H       1.0983769 *  2.1463151 *  3.1210656    2.5522231 *  1.0051798 *
   7 H       1.0983769 *  2.1463151 *  3.1210656    2.5522231 *  1.0051798 *

                6 H          7 H     

   1 C       1.0983769 *  1.0983769 *
   2 C       2.1463151 *  2.1463151 *
   3 O       3.1210656    3.1210656  
   4 H       2.5522231 *  2.5522231 *
   5 H       1.0051798 *  1.0051798 *
   6 H       0.0000000    1.7622233 *
   7 H       1.7622233 *  0.0000000  

  * ... LESS THAN  3.000


     ATOMIC BASIS SET
     ----------------
 THE CONTRACTED PRIMITIVE FUNCTIONS HAVE BEEN UNNORMALIZED
 THE CONTRACTED BASIS FUNCTIONS ARE NOW NORMALIZED TO UNITY

  SHELL TYPE  PRIMITIVE        EXPONENT          CONTRACTION COEFFICIENT(S)

 C         

      1   S       1          3047.5248800    0.001834737132
      1   S       2           457.3695180    0.014037322813
      1   S       3           103.9486850    0.068842622264
      1   S       4            29.2101553    0.232184443216
      1   S       5             9.2866630    0.467941348435
      1   S       6             3.1639270    0.362311985337

      2   L       7             7.8682723   -0.119332419775    0.068999066591
      2   L       8             1.8812885   -0.160854151696    0.316423960957
      2   L       9             0.5442493    1.143456437840    0.744308290898

      3   L      10             0.1687145    1.000000000000    1.000000000000

      4   D      11             0.8000000    1.000000000000

 C         

      5   S      12          3047.5248800    0.001834737132
      5   S      13           457.3695180    0.014037322813
      5   S      14           103.9486850    0.068842622264
      5   S      15            29.2101553    0.232184443216
      5   S      16             9.2866630    0.467941348435
      5   S      17             3.1639270    0.362311985337

      6   L      18             7.8682723   -0.119332419775    0.068999066591
      6   L      19             1.8812885   -0.160854151696    0.316423960957
      6   L      20             0.5442493    1.143456437840    0.744308290898

      7   L      21             0.1687145    1.000000000000    1.000000000000

      8   D      22             0.8000000    1.000000000000

 O         

      9   S      23          5484.6716600    0.001831074430
      9   S      24           825.2349460    0.013950172200
      9   S      25           188.0469580    0.068445078098
      9   S      26            52.9645000    0.232714335992
      9   S      27            16.8975704    0.470192897984
      9   S      28             5.7996353    0.358520852987

     10   L      29            15.5396162   -0.110777549525    0.070874268231
     10   L      30             3.5999336   -0.148026262701    0.339752839147
     10   L      31             1.0137618    1.130767015354    0.727158577316

     11   L      32             0.2700058    1.000000000000    1.000000000000

     12   D      33             0.8000000    1.000000000000

 H         

     13   S      34            18.7311370    0.033494604338
     13   S      35             2.8253944    0.234726953484
     13   S      36             0.6401217    0.813757326146

     14   S      37             0.1612778    1.000000000000

 H         

     15   S      38            18.7311370    0.033494604338
     15   S      39             2.8253944    0.234726953484
     15   S      40             0.6401217    0.813757326146

     16   S      41             0.1612778    1.000000000000

 H         

     17   S      42            18.7311370    0.033494604338
     17   S      43             2.8253944    0.234726953484
     17   S      44             0.6401217    0.813757326146

     18   S      45             0.1612778    1.000000000000

 H         

     19   S      46            18.7311370    0.033494604338
     19   S      47             2.8253944    0.234726953484
     19   S      48             0.6401217    0.813757326146

     20   S      49             0.1612778    1.000000000000

 TOTAL NUMBER OF BASIS SET SHELLS             =   20
 NUMBER OF CARTESIAN GAUSSIAN BASIS FUNCTIONS =   53
 NOTE: THIS RUN WILL RESTRICT THE MO VARIATION SPACE TO SPHERICAL HARMONICS.
 THE NUMBER OF ORBITALS KEPT IN THE VARIATIONAL SPACE WILL BE PRINTED LATER.
 NUMBER OF ELECTRONS                          =   24
 CHARGE OF MOLECULE                           =    0
 SPIN MULTIPLICITY                            =    1
 NUMBER OF OCCUPIED ORBITALS (ALPHA)          =   12
 NUMBER OF OCCUPIED ORBITALS (BETA )          =   12
 TOTAL NUMBER OF ATOMS                        =    7
 THE NUCLEAR REPULSION ENERGY IS       69.6274999158

     LEBEDEV GRID-BASED DFT OPTIONS
     ------------------------------
     DFTTYP=B3LYP   
     NRAD  =      96     NLEB  =     302
     NRAD0 =      24     NLEB0 =     110
     SWOFF =    5.00E-03 (PURE SCF -> DFT)
     SWITCH=    3.00E-04 (COARSE -> TIGHT GRID)
     THRESH=    0.00E+00 GTHRE=    1.00E+00

 GRIMME'S EMPIRICAL DISPERSION CORRECTION= F

     $CONTRL OPTIONS
     ---------------
 SCFTYP=RHF          RUNTYP=ENERGY       EXETYP=RUN     
 MPLEVL=       0     CITYP =NONE         CCTYP =NONE         VBTYP =NONE    
 DFTTYP=B3LYP        TDDFT =NONE    
 MULT  =       1     ICHARG=       0     NZVAR =      15     COORD =ZMT     
 PP    =NONE         RELWFN=NONE         LOCAL =NONE         NUMGRD=       F
 ISPHER=       1     NOSYM =       0     MAXIT =      30     UNITS =ANGS    
 PLTORB=       F     MOLPLT=       F     AIMPAC=       F     FRIEND=        
 NPRINT=       7     IREST =       0     GEOM  =INPUT   
 NORMF =       0     NORMP =       0     ITOL  =      20     ICUT  =       9
 INTTYP=BEST         GRDTYP=BEST         QMTTOL= 1.0E-06

     $SYSTEM OPTIONS
     ---------------
  REPLICATED MEMORY=     1000000 WORDS (ON EVERY NODE).
 DISTRIBUTED MEMDDI=           0 MILLION WORDS IN AGGREGATE,
 MEMDDI DISTRIBUTED OVER   1 PROCESSORS IS           0 WORDS/PROCESSOR.
 TOTAL MEMORY REQUESTED ON EACH PROCESSOR=     1000000 WORDS.
 TIMLIM=      525600.00 MINUTES, OR     365.0 DAYS.
 PARALL= F  BALTYP=  DLB     KDIAG=    0  COREFL= F
 MXSEQ2=     300 MXSEQ3=     150  mem10=         0

          ----------------
          PROPERTIES INPUT
          ----------------

     MOMENTS            FIELD           POTENTIAL          DENSITY
 IEMOM =       1   IEFLD =       0   IEPOT =       0   IEDEN =       0
 WHERE =COMASS     WHERE =NUCLEI     WHERE =NUCLEI     WHERE =NUCLEI  
 OUTPUT=BOTH       OUTPUT=BOTH       OUTPUT=BOTH       OUTPUT=BOTH    
 IEMINT=       0   IEFINT=       0                     IEDINT=       0
                                                       MORB  =       0
          EXTRAPOLATION IN EFFECT
          DIIS IN EFFECT
 ORBITAL PRINTING OPTION: NPREO=     1    53     2     1

     -------------------------------
     INTEGRAL TRANSFORMATION OPTIONS
     -------------------------------
     NWORD  =            0
     CUTOFF = 1.0E-09     MPTRAN =       0
     DIRTRF =       F     AOINTS =DUP     

          ----------------------
          INTEGRAL INPUT OPTIONS
          ----------------------
 NOPK  =       1 NORDER=       0 SCHWRZ=       T

   --- ENCODED Z MATRIX ---
 COORD  TYPE   I   J   K   L   M   N
    1      1    2   1
    2      1    3   2
    3      2    3   2   1
    4      1    4   2
    5      2    4   2   1
    6      3    4   2   1   3
    7      1    5   1
    8      2    5   1   2
    9      3    5   1   2   3
   10      1    6   1
   11      2    6   1   2
   12      3    6   1   2   3
   13      1    7   1
   14      2    7   1   2
   15      3    7   1   2   3

 THE DETERMINANT OF THE G MATRIX IS 10**(    -8)


                     --------------------
                     INTERNAL COORDINATES
                     --------------------

                 - - ATOMS - -         COORDINATE      COORDINATE
 NO.   TYPE    I  J  K  L  M  N        (BOHR,RAD)       (ANG,DEG)
 ----------------------------------------------------------------
   1 STRETCH   2  1                     2.8510092       1.5086892
   2 STRETCH   3  2                     2.2879376       1.2107245
   3 BEND      3  2  1                  2.1767066     124.7161000
   4 STRETCH   4  2                     2.1062515       1.1145804
   5 BEND      4  2  1                  2.0031825     114.7739000
   6 TORSION   4  2  1  3               3.1415927     180.0000000
   7 STRETCH   5  1                     2.0648622       1.0926781
   8 BEND      5  1  2                  1.9288960     110.5176000
   9 TORSION   5  1  2  3               3.1415927     180.0000000
  10 STRETCH   6  1                     2.0756314       1.0983769
  11 BEND      6  1  2                  1.9168340     109.8265000
  12 TORSION   6  1  2  3               2.1203813     121.4889000
  13 STRETCH   7  1                     2.0756314       1.0983769
  14 BEND      7  1  2                  1.9168340     109.8265000
  15 TORSION   7  1  2  3              -2.1203813    -121.4889000

     ------------------------------------------
     THE POINT GROUP IS C1 , NAXIS= 0, ORDER= 1
     ------------------------------------------

 -- VARIATIONAL SPACE WILL BE RESTRICTED TO PURE SPHERICAL HARMONICS ONLY --
 AFTER EXCLUDING CONTAMINANT COMBINATIONS FROM THE CARTESIAN GAUSSIAN BASIS
 SET, THE NUMBER OF SPHERICAL HARMONICS KEPT IN THE VARIATION SPACE IS   50

     DIMENSIONS OF THE SYMMETRY SUBSPACES ARE
 A   =   50

 ..... DONE SETTING UP THE RUN .....
 STEP CPU TIME =     0.02 TOTAL CPU TIME =          0.0 (      0.0 MIN)
 TOTAL WALL CLOCK TIME=          0.0 SECONDS, CPU UTILIZATION IS    66.67%

          ********************
          1 ELECTRON INTEGRALS
          ********************
 ...... END OF ONE-ELECTRON INTEGRALS ......
 STEP CPU TIME =     0.00 TOTAL CPU TIME =          0.0 (      0.0 MIN)
 TOTAL WALL CLOCK TIME=          0.0 SECONDS, CPU UTILIZATION IS    66.67%

          -------------
          GUESS OPTIONS
          -------------
          GUESS =HUCKEL            NORB  =       0          NORDER=       0
          MIX   =       F          PRTMO =       F          PUNMO =       F
          TOLZ  = 1.0E-08          TOLE  = 1.0E-05
          SYMDEN=       F          PURIFY=       F

 INITIAL GUESS ORBITALS GENERATED BY HUCKEL   ROUTINE.
 HUCKEL GUESS REQUIRES     27154 WORDS.

 STATISTICS FOR GENERATION OF SYMMETRY ORBITAL -Q- MATRIX
 NUMBER OF CARTESIAN ATOMIC ORBITALS=         53
 NUMBER OF SPHERICAL CONTAMINANTS DROPPED=     3
 NUMBER OF LINEARLY DEPENDENT MOS DROPPED=     0
 TOTAL NUMBER OF MOS IN VARIATION SPACE=      50

 SYMMETRIES FOR INITIAL GUESS ORBITALS FOLLOW.   BOTH SET(S).
    12 ORBITALS ARE OCCUPIED (    3 CORE ORBITALS).
     4=A        5=A        6=A        7=A        8=A        9=A       10=A   
    11=A       12=A       13=A       14=A       15=A       16=A       17=A   
    18=A       19=A       20=A       21=A       22=A   
 ...... END OF INITIAL ORBITAL SELECTION ......
 STEP CPU TIME =     0.00 TOTAL CPU TIME =          0.0 (      0.0 MIN)
 TOTAL WALL CLOCK TIME=          0.0 SECONDS, CPU UTILIZATION IS    66.67%

                    ----------------------
                    AO INTEGRAL TECHNOLOGY
                    ----------------------
     S,P,L SHELL ROTATED AXIS INTEGRALS, REPROGRAMMED BY
        KAZUYA ISHIMURA (IMS) AND JOSE SIERRA (SYNSTAR).
     S,P,D,L SHELL ROTATED AXIS INTEGRALS PROGRAMMED BY
        KAZUYA ISHIMURA (INSTITUTE FOR MOLECULAR SCIENCE).
     S,P,D,F,G SHELL TO TOTAL QUARTET ANGULAR MOMENTUM SUM 5,
        ERIC PROGRAM BY GRAHAM FLETCHER (ELORET AND NASA ADVANCED
        SUPERCOMPUTING DIVISION, AMES RESEARCH CENTER).
     S,P,D,F,G,L SHELL GENERAL RYS QUADRATURE PROGRAMMED BY
        MICHEL DUPUIS (PACIFIC NORTHWEST NATIONAL LABORATORY).

          --------------------
          2 ELECTRON INTEGRALS
          --------------------

 THE -PK- OPTION IS OFF, THE INTEGRALS ARE NOT IN SUPERMATRIX FORM.
 STORING   15000 INTEGRALS/RECORD ON DISK, USING 12 BYTES/INTEGRAL.
 TWO ELECTRON INTEGRAL EVALUATION REQUIRES   90606 WORDS OF MEMORY.
 SCHWARZ INEQUALITY OVERHEAD:      1430 INTEGRALS, T=        0.00
 II,JST,KST,LST =  1  1  1  1 NREC =         1 INTLOC =    1
 II,JST,KST,LST =  2  1  1  1 NREC =         1 INTLOC =    2
 II,JST,KST,LST =  3  1  1  1 NREC =         1 INTLOC =   34
 II,JST,KST,LST =  4  1  1  1 NREC =         1 INTLOC =  214
 II,JST,KST,LST =  5  1  1  1 NREC =         1 INTLOC = 1189
 II,JST,KST,LST =  6  1  1  1 NREC =         1 INTLOC = 2363
 II,JST,KST,LST =  7  1  1  1 NREC =         1 INTLOC = 9258
 II,JST,KST,LST =  8  1  1  1 NREC =         2 INTLOC = 6297
 II,JST,KST,LST =  9  1  1  1 NREC =         4 INTLOC = 7023
 II,JST,KST,LST = 10  1  1  1 NREC =         4 INTLOC =14239
 II,JST,KST,LST = 11  1  1  1 NREC =         7 INTLOC = 8258
 II,JST,KST,LST = 12  1  1  1 NREC =        11 INTLOC = 3759
 II,JST,KST,LST = 13  1  1  1 NREC =        18 INTLOC =14973
 II,JST,KST,LST = 14  1  1  1 NREC =        20 INTLOC =11795
 II,JST,KST,LST = 15  1  1  1 NREC =        22 INTLOC =10790
 II,JST,KST,LST = 16  1  1  1 NREC =        24 INTLOC =10032
 II,JST,KST,LST = 17  1  1  1 NREC =        26 INTLOC =13193
 II,JST,KST,LST = 18  1  1  1 NREC =        30 INTLOC =12188
 II,JST,KST,LST = 19  1  1  1 NREC =        35 INTLOC = 2729
 II,JST,KST,LST = 20  1  1  1 NREC =        39 INTLOC = 8681
 SCHWARZ INEQUALITY TEST SKIPPED         976 INTEGRAL BLOCKS.
 TOTAL NUMBER OF NONZERO TWO-ELECTRON INTEGRALS =              651786
         44 INTEGRAL RECORDS WERE STORED ON DISK FILE  8.
  ...... END OF TWO-ELECTRON INTEGRALS .....
 STEP CPU TIME =     0.11 TOTAL CPU TIME =          0.1 (      0.0 MIN)
 TOTAL WALL CLOCK TIME=          0.1 SECONDS, CPU UTILIZATION IS    86.67%

          --------------------------
             R-B3LYP SCF CALCULATION
          --------------------------

     NUCLEAR ENERGY =        69.6274999158
     MAXIT =   30     NPUNCH=    2
     EXTRAP=T  DAMP=F  SHIFT=F  RSTRCT=F  DIIS=T  DEM=F  SOSCF=F
         DENSITY MATRIX CONVERGENCE THRESHOLD=  1.00E-05
     COARSE -> FINE DFT GRID SWITCH THRESHOLD=  3.00E-04 (SWITCH IN $DFT)
                   HF -> DFT SWITCH THRESHOLD=  5.00E-03 (SWOFF IN $DFT)
     MEMORY REQUIRED FOR RHF ITERS=    307426 WORDS.

 DFT CODE IS SWITCHING FROM THE FINE GRID NRAD= 96,  NLEB=  302
                      TO THE COARSE GRID NRAD0= 24, NLEB0=  110

     EXCHANGE FUNCTIONAL   =B88&HFX   
     CORRELATION FUNCTIONAL=LYP88&VWN5
     DFT THRESHOLD         =.197E-07
     GRID CHANGE THRESHOLD =.300E-03
 FOR AN EULER-MACLAURIN QUADRATURE USING  96 RADIAL POINTS:
 SMALLEST GAUSSIAN PRIMITIVE EXPONENT=        0.1612777588 OF TYPE -S-
 ON ATOM NUMBER   4 HAS RADIAL NORMALIZATION=  1.000000
  LARGEST GAUSSIAN PRIMITIVE EXPONENT=     5484.6716600000 OF TYPE -S-
 ON ATOM NUMBER   3 HAS RADIAL NORMALIZATION=  1.000000
 DFT IS SWITCHED OFF, PERFORMING PURE SCF UNTIL SWOFF THRESHOLD IS REACHED.

 ITER EX DEM     TOTAL ENERGY        E CHANGE  DENSITY CHANGE    DIIS ERROR
   1  0  0     -152.1534952004  -152.1534952004   0.283641188   0.545836210
          * * *   INITIATING DIIS PROCEDURE   * * *
   2  1  0     -152.6577406237    -0.5042454233   0.146695894   0.116252278
   3  2  0     -152.6913812075    -0.0336405837   0.076103864   0.102938593
   4  3  0     -152.7160029723    -0.0246217649   0.031656064   0.009664583
   5  4  0     -152.7169636644    -0.0009606921   0.008314623   0.003421069
   6  5  0     -152.7170698998    -0.0001062354   0.006618509   0.001289479
   7  6  0     -152.7170885819    -0.0000186820   0.002466686   0.000452307
 CONVERGED TO SWOFF, SO DFT CALCULATION IS NOW SWITCHED ON.
          * * *   INITIATING DIIS PROCEDURE   * * *
   8  7  0     -153.5457023948    -0.8286138129   0.102931115   0.053159254
   9  8  0     -153.5566234208    -0.0109210260   0.062841355   0.036124217
  10  9  0     -153.5535339798     0.0030894411   0.045300132   0.049262429
  11 10  0     -153.5598894897    -0.0063555099   0.008223332   0.007395143
  12 11  0     -153.5600266770    -0.0001371873   0.003746453   0.001231466
  13 12  0     -153.5600327914    -0.0000061144   0.000567004   0.000226465
  14 13  0     -153.5600329342    -0.0000001428   0.000088171   0.000098017
 DFT CODE IS SWITCHING BACK TO THE FINE GRID
          * * *   INITIATING DIIS PROCEDURE   * * *
  15 14  0     -153.5599998285     0.0000331056   0.002474765   0.001765467
  16 15  0     -153.5600087919    -0.0000089633   0.000712989   0.000378953
  17 16  0     -153.5600084631     0.0000003288   0.000515513   0.000469724
  18 17  0     -153.5600092786    -0.0000008156   0.000146948   0.000127839
  19 18  0     -153.5600093205    -0.0000000418   0.000090215   0.000037132
  20 19  0     -153.5600093259    -0.0000000054   0.000020207   0.000007703
  21 20  0     -153.5600093260    -0.0000000001   0.000002981   0.000001425
  22 21  0     -153.5600093261    -0.0000000000   0.000000345   0.000000332

          -----------------
          DENSITY CONVERGED
          -----------------
     TIME TO FORM FOCK OPERATORS=       5.3 SECONDS (       0.2 SEC/ITER)
     TIME TO SOLVE SCF EQUATIONS=       0.0 SECONDS (       0.0 SEC/ITER)

 FINAL R-B3LYP ENERGY IS     -153.5600093261 AFTER  22 ITERATIONS
 DFT EXCHANGE + CORRELATION ENERGY =       -16.8154178302
 TOTAL ELECTRON NUMBER             =        24.0001684224

          ------------
          EIGENVECTORS
          ------------

                      1          2          3          4          5
                  -19.1518   -10.2811   -10.1893    -1.0479    -0.8461
                     A          A          A          A          A   
    1  C  1  S   -0.000042   0.000740   0.995242  -0.018731  -0.163037
    2  C  1  S   -0.000720  -0.001443   0.037034   0.036893   0.311699
    3  C  1  X   -0.000286  -0.000929  -0.000856   0.021302  -0.093761
    4  C  1  Y    0.000054   0.000359  -0.003116  -0.012632  -0.146778
    5  C  1  Z    0.000000   0.000000   0.000000   0.000000   0.000000
    6  C  1  S    0.001662   0.007242  -0.031771   0.015102   0.255780
    7  C  1  X   -0.001261   0.002211   0.001372   0.004129  -0.022623
    8  C  1  Y   -0.001750  -0.002738   0.007886   0.003934  -0.048672
    9  C  1  Z   -0.000000  -0.000000  -0.000000  -0.000000  -0.000001
   10  C  1 XX   -0.000365  -0.000855   0.000215   0.004825   0.005551
   11  C  1 YY    0.000396   0.000236  -0.000148  -0.002386  -0.001097
   12  C  1 ZZ   -0.000031   0.000619  -0.000067  -0.002439  -0.004454
   13  C  1 XY   -0.000032   0.000942   0.000052  -0.002069   0.020909
   14  C  1 XZ    0.000000   0.000000   0.000000   0.000000   0.000000
   15  C  1 YZ    0.000000   0.000000   0.000000   0.000000   0.000000
   16  C  2  S    0.000240   0.995159  -0.000762  -0.117619  -0.043272
   17  C  2  S    0.000123   0.035814  -0.001518   0.225031   0.084511
   18  C  2  X   -0.000068   0.001743   0.000518   0.159832  -0.122779
   19  C  2  Y   -0.000240   0.001222  -0.000325   0.092235  -0.006385
   20  C  2  Z    0.000000   0.000000   0.000000   0.000000   0.000000
   21  C  2  S    0.008515  -0.016490   0.007544   0.084225   0.049385
   22  C  2  X    0.005860   0.006505  -0.005701  -0.016911  -0.018799
   23  C  2  Y    0.004902   0.002542  -0.000374  -0.019612  -0.008783
   24  C  2  Z    0.000000   0.000000   0.000000   0.000000   0.000000
   25  C  2 XX   -0.000612   0.001437  -0.000852   0.018551   0.005077
   26  C  2 YY    0.000320  -0.000253   0.000343  -0.003170  -0.001054
   27  C  2 ZZ    0.000292  -0.001184   0.000509  -0.015382  -0.004022
   28  C  2 XY   -0.000744   0.001196   0.000872   0.021510  -0.009487
   29  C  2 XZ    0.000000  -0.000000   0.000000  -0.000000  -0.000000
   30  C  2 YZ    0.000000  -0.000000   0.000000   0.000000   0.000000
   31  O  3  S    0.995118  -0.000045  -0.000030  -0.194492   0.034750
   32  O  3  S    0.029462   0.000499  -0.000658   0.429764  -0.080187
   33  O  3  X   -0.002025   0.000998   0.000103  -0.143653   0.004692
   34  O  3  Y   -0.001116   0.000475  -0.000011  -0.079654   0.012793
   35  O  3  Z    0.000000   0.000000   0.000000   0.000000   0.000000
   36  O  3  S   -0.019584  -0.006195   0.002434   0.377111  -0.069084
   37  O  3  X    0.005222   0.003833  -0.000383  -0.043174  -0.004342
   38  O  3  Y    0.002584   0.002616  -0.000660  -0.023208   0.002276
   39  O  3  Z    0.000000   0.000000  -0.000000   0.000000  -0.000000
   40  O  3 XX   -0.000186  -0.001228  -0.000050   0.006931   0.001470
   41  O  3 YY    0.000104   0.000112   0.000229  -0.003958  -0.000979
   42  O  3 ZZ    0.000082   0.001117  -0.000180  -0.002973  -0.000491
   43  O  3 XY   -0.000104  -0.001443   0.000115   0.009685  -0.000785
   44  O  3 XZ    0.000000   0.000000   0.000000  -0.000000   0.000000
   45  O  3 YZ    0.000000   0.000000   0.000000   0.000000   0.000000
   46  H  4  S   -0.000191  -0.000908  -0.000665   0.027981   0.027715
   47  H  4  S    0.001213   0.005161  -0.000443  -0.012608   0.001065
   48  H  5  S   -0.000466  -0.000579  -0.000055   0.010508   0.221755
   49  H  5  S    0.000147  -0.000644   0.004260   0.000620   0.070582
   50  H  6  S   -0.000122  -0.000627  -0.000355   0.008317   0.156069
   51  H  6  S   -0.000753   0.000634   0.005467  -0.000007   0.014261
   52  H  7  S   -0.000122  -0.000627  -0.000355   0.008317   0.156070
   53  H  7  S   -0.000753   0.000634   0.005467  -0.000007   0.014262

                      6          7          8          9         10
                   -0.6141    -0.5010    -0.4760    -0.4366    -0.3750
                     A          A          A          A          A   
    1  C  1  S   -0.001226  -0.061756  -0.000000  -0.013180   0.000000
    2  C  1  S   -0.003935   0.124885  -0.000001   0.014021   0.000001
    3  C  1  X    0.244362   0.231011   0.000000   0.111101  -0.000000
    4  C  1  Y   -0.013561   0.032574   0.000000  -0.050583  -0.000000
    5  C  1  Z   -0.000000  -0.000000   0.401144   0.000000  -0.141069
    6  C  1  S    0.008581   0.161892   0.000005   0.078906  -0.000003
    7  C  1  X    0.064482   0.065371  -0.000001   0.053336   0.000001
    8  C  1  Y   -0.006091   0.010448  -0.000001  -0.043726   0.000001
    9  C  1  Z    0.000001   0.000000   0.110517   0.000000  -0.036044
   10  C  1 XX   -0.001197   0.004839  -0.000000  -0.006852   0.000000
   11  C  1 YY    0.004490  -0.007584  -0.000000   0.008507   0.000000
   12  C  1 ZZ   -0.003293   0.002745   0.000000  -0.001655  -0.000000
   13  C  1 XY   -0.028206  -0.015168   0.000000  -0.011681  -0.000000
   14  C  1 XZ   -0.000000   0.000000  -0.023789  -0.000000   0.020296
   15  C  1 YZ   -0.000000   0.000000  -0.034089  -0.000000   0.010091
   16  C  2  S   -0.152489   0.005774  -0.000000   0.028843   0.000000
   17  C  2  S    0.317670  -0.009012   0.000000  -0.078474  -0.000000
   18  C  2  X   -0.155989  -0.189836  -0.000000  -0.318857   0.000000
   19  C  2  Y   -0.114563   0.379468   0.000000  -0.171009   0.000000
   20  C  2  Z    0.000000  -0.000000   0.169906   0.000000   0.321344
   21  C  2  S    0.280778  -0.018866  -0.000001  -0.022516   0.000000
   22  C  2  X   -0.079058  -0.059557   0.000001  -0.050674  -0.000001
   23  C  2  Y   -0.071418   0.118950   0.000001  -0.037501  -0.000000
   24  C  2  Z   -0.000000  -0.000000   0.094406  -0.000000   0.187363
   25  C  2 XX   -0.009828   0.002463  -0.000000  -0.008746   0.000000
   26  C  2 YY    0.014472  -0.005372   0.000000   0.006622  -0.000000
   27  C  2 ZZ   -0.004644   0.002909   0.000000   0.002124  -0.000000
   28  C  2 XY   -0.010015  -0.003864   0.000000  -0.011855  -0.000000
   29  C  2 XZ    0.000000   0.000000  -0.005338   0.000000   0.028044
   30  C  2 YZ   -0.000000  -0.000000   0.006862  -0.000000   0.011608
   31  O  3  S    0.082539   0.001368   0.000000  -0.083132   0.000000
   32  O  3  S   -0.197675  -0.004303   0.000000   0.181521  -0.000000
   33  O  3  X   -0.090143  -0.125663  -0.000000   0.450825  -0.000000
   34  O  3  Y   -0.057631   0.214781   0.000000   0.250697  -0.000000
   35  O  3  Z   -0.000000  -0.000000   0.127105   0.000000   0.497091
   36  O  3  S   -0.206565  -0.000801  -0.000001   0.354126   0.000000
   37  O  3  X   -0.059913  -0.068952   0.000000   0.231145  -0.000000
   38  O  3  Y   -0.032523   0.112123   0.000000   0.129483  -0.000000
   39  O  3  Z    0.000000  -0.000000   0.064131   0.000000   0.312501
   40  O  3 XX    0.005517   0.015605   0.000000  -0.014513  -0.000000
   41  O  3 YY    0.000443  -0.015007  -0.000000   0.002273   0.000000
   42  O  3 ZZ   -0.005960  -0.000598  -0.000000   0.012240   0.000000
   43  O  3 XY    0.007124  -0.010347  -0.000000  -0.015815   0.000000
   44  O  3 XZ   -0.000000   0.000000  -0.008915  -0.000000  -0.027370
   45  O  3 YZ   -0.000000   0.000000  -0.004474  -0.000000  -0.015796
   46  H  4  S    0.172264  -0.195779  -0.000000   0.071435  -0.000000
   47  H  4  S    0.065717  -0.143860   0.000000   0.075979  -0.000000
   48  H  5  S   -0.137347  -0.097000  -0.000001  -0.048023   0.000000
   49  H  5  S   -0.089847  -0.113648   0.000001  -0.038883  -0.000000
   50  H  6  S   -0.084253  -0.034418  -0.247166  -0.031353   0.115162
   51  H  6  S   -0.028003  -0.006574  -0.226385  -0.023180   0.132837
   52  H  7  S   -0.084253  -0.034419   0.247165  -0.031353  -0.115162
   53  H  7  S   -0.028005  -0.006575   0.226379  -0.023181  -0.132834

                     11         12         13         14         15
                   -0.2768    -0.2382    -0.0295     0.0540     0.0911
                     A          A          A          A          A   
    1  C  1  S   -0.098381  -0.040134   0.000000  -0.105842  -0.070128
    2  C  1  S    0.196524   0.097046   0.000000   0.087416   0.099320
    3  C  1  X    0.098029  -0.158154   0.000000  -0.288552   0.027167
    4  C  1  Y    0.233346   0.396468  -0.000000  -0.228971   0.130566
    5  C  1  Z    0.000000   0.000000   0.016187  -0.000001  -0.000000
    6  C  1  S    0.454586  -0.000600  -0.000005   1.984299   0.927427
    7  C  1  X   -0.018774  -0.179635   0.000001  -0.617755  -0.109119
    8  C  1  Y    0.100560   0.344081   0.000001  -0.700410   0.129394
    9  C  1  Z    0.000000  -0.000000   0.100637  -0.000001   0.000003
   10  C  1 XX    0.001675   0.006797  -0.000000   0.000642   0.024460
   11  C  1 YY   -0.021202  -0.028449   0.000000   0.002467   0.010112
   12  C  1 ZZ    0.019527   0.021652  -0.000000  -0.003109  -0.034571
   13  C  1 XY   -0.012601   0.000027  -0.000000   0.022810   0.021038
   14  C  1 XZ    0.000000   0.000000   0.032180  -0.000000  -0.000000
   15  C  1 YZ    0.000000   0.000000  -0.007928  -0.000000  -0.000000
   16  C  2  S    0.012434   0.009384  -0.000000  -0.003508   0.034078
   17  C  2  S   -0.027296  -0.042678  -0.000000   0.038210  -0.010704
   18  C  2  X    0.013927   0.101183   0.000000   0.036933   0.002675
   19  C  2  Y    0.013689  -0.146922   0.000000  -0.132680   0.102286
   20  C  2  Z   -0.000000   0.000000   0.503122   0.000001   0.000001
   21  C  2  S    0.035143   0.132909   0.000001  -0.108152  -0.559451
   22  C  2  X    0.107712  -0.003932  -0.000001   0.198692   0.097941
   23  C  2  Y    0.020298   0.085032  -0.000000  -0.180520   0.298917
   24  C  2  Z   -0.000000   0.000000   0.543476   0.000001  -0.000000
   25  C  2 XX    0.022915  -0.031017   0.000000   0.005711   0.000169
   26  C  2 YY   -0.022141   0.034639  -0.000000  -0.001638   0.013083
   27  C  2 ZZ   -0.000774  -0.003622   0.000000  -0.004074  -0.013253
   28  C  2 XY   -0.027315   0.005408  -0.000000   0.009294  -0.009889
   29  C  2 XZ   -0.000000  -0.000000  -0.027278  -0.000000   0.000000
   30  C  2 YZ    0.000000   0.000000  -0.015668  -0.000000  -0.000000
   31  O  3  S    0.003949   0.005541  -0.000000  -0.009454   0.001319
   32  O  3  S   -0.001039  -0.007185  -0.000000   0.031527  -0.006516
   33  O  3  X    0.266129  -0.118041   0.000000  -0.081512   0.019257
   34  O  3  Y   -0.422504   0.313397  -0.000000   0.073544  -0.051476
   35  O  3  Z   -0.000000  -0.000000  -0.434405  -0.000000  -0.000000
   36  O  3  S   -0.088298  -0.082025   0.000000   0.023699  -0.019597
   37  O  3  X    0.206382  -0.058643   0.000000  -0.104793   0.016619
   38  O  3  Y   -0.280120   0.231698  -0.000000   0.097560  -0.071445
   39  O  3  Z   -0.000000  -0.000000  -0.448282  -0.000000  -0.000000
   40  O  3 XX   -0.015966   0.002852  -0.000000   0.002773   0.002055
   41  O  3 YY    0.015893  -0.003549   0.000000  -0.002091   0.002825
   42  O  3 ZZ    0.000073   0.000697   0.000000  -0.000682  -0.004881
   43  O  3 XY    0.007473  -0.007142   0.000000   0.003091  -0.002629
   44  O  3 XZ    0.000000   0.000000  -0.000327  -0.000000  -0.000000
   45  O  3 YZ   -0.000000   0.000000   0.000264  -0.000000  -0.000000
   46  H  4  S   -0.080892   0.173620  -0.000000   0.017363   0.065019
   47  H  4  S   -0.113691   0.301263  -0.000000  -0.292722   0.642058
   48  H  5  S   -0.153901  -0.113677   0.000000  -0.037521   0.223856
   49  H  5  S   -0.369200  -0.246297  -0.000000  -1.309627   1.404844
   50  H  6  S    0.009434   0.044655   0.104501   0.008189  -0.170073
   51  H  6  S    0.073235   0.159801   0.260006  -0.689126  -1.303823
   52  H  7  S    0.009434   0.044655  -0.104500   0.008189  -0.170073
   53  H  7  S    0.073235   0.159802  -0.260000  -0.689126  -1.303831

                     16         17         18         19         20
                    0.1396     0.1432     0.2616     0.2774     0.5217
                     A          A          A          A          A   
    1  C  1  S    0.041579  -0.000001  -0.028604   0.076070  -0.000000
    2  C  1  S   -0.016091   0.000002  -0.048170  -0.092389  -0.000001
    3  C  1  X   -0.095630   0.000001   0.099815  -0.233098   0.000002
    4  C  1  Y    0.148174  -0.000003  -0.070571  -0.051882   0.000001
    5  C  1  Z    0.000006   0.475140   0.000000   0.000000   0.215900
    6  C  1  S   -0.761676   0.000006   1.338974  -0.814326   0.000004
    7  C  1  X   -0.395563   0.000007   0.942431  -1.572201  -0.000002
    8  C  1  Y    0.614196  -0.000007  -0.660090  -0.056668  -0.000002
    9  C  1  Z    0.000019   1.337501   0.000000   0.000000  -0.469279
   10  C  1 XX    0.020298  -0.000000   0.000438   0.054543   0.000000
   11  C  1 YY   -0.003236   0.000000  -0.007213  -0.031550  -0.000000
   12  C  1 ZZ   -0.017061   0.000000   0.006775  -0.022992   0.000000
   13  C  1 XY   -0.006481   0.000000   0.027571   0.000507  -0.000000
   14  C  1 XZ   -0.000000  -0.004266   0.000000  -0.000000  -0.041721
   15  C  1 YZ   -0.000000  -0.012567   0.000000  -0.000000  -0.044281
   16  C  2  S   -0.124688   0.000002  -0.002615  -0.081948   0.000000
   17  C  2  S    0.189689  -0.000003  -0.032030   0.124002   0.000001
   18  C  2  X   -0.099710   0.000002   0.270866  -0.268377  -0.000000
   19  C  2  Y   -0.263383   0.000003  -0.084449   0.439639   0.000000
   20  C  2  Z   -0.000001  -0.095301  -0.000000   0.000000   0.931368
   21  C  2  S    2.026498  -0.000027   0.369275   1.871004  -0.000001
   22  C  2  X   -0.318214   0.000002   2.303436   0.194729   0.000002
   23  C  2  Y   -0.536966   0.000006   0.105205   1.667837   0.000000
   24  C  2  Z   -0.000005  -0.395828   0.000000  -0.000000  -0.924002
   25  C  2 XX   -0.006096   0.000000  -0.010364   0.000634   0.000000
   26  C  2 YY    0.003074  -0.000000   0.003114  -0.013967   0.000000
   27  C  2 ZZ    0.003022  -0.000000   0.007250   0.013332  -0.000000
   28  C  2 XY   -0.000252   0.000000  -0.016868   0.010642  -0.000000
   29  C  2 XZ   -0.000000  -0.011659  -0.000000  -0.000000   0.014369
   30  C  2 YZ    0.000000   0.021731   0.000000   0.000000   0.002326
   31  O  3  S    0.015605  -0.000000   0.084391   0.059434  -0.000000
   32  O  3  S   -0.036949   0.000001  -0.125049  -0.067532   0.000000
   33  O  3  X    0.074853  -0.000001   0.073450   0.152761  -0.000000
   34  O  3  Y    0.077186  -0.000001   0.157085  -0.028505   0.000000
   35  O  3  Z    0.000001   0.054850   0.000000  -0.000000   0.052582
   36  O  3  S   -0.142060   0.000004  -1.692192  -1.280765  -0.000001
   37  O  3  X    0.096745  -0.000002   0.496634   0.669375   0.000000
   38  O  3  Y    0.152709  -0.000002   0.556568   0.003576   0.000000
   39  O  3  Z    0.000002   0.130257   0.000000   0.000000   0.068053
   40  O  3 XX   -0.006163   0.000000  -0.024255  -0.011794  -0.000000
   41  O  3 YY   -0.000203   0.000000   0.008276  -0.010240   0.000000
   42  O  3 ZZ    0.006365  -0.000000   0.015979   0.022034   0.000000
   43  O  3 XY    0.000955   0.000000  -0.029927  -0.024668   0.000000
   44  O  3 XZ   -0.000000  -0.004652   0.000000  -0.000000  -0.053299
   45  O  3 YZ    0.000000   0.004982   0.000000   0.000000  -0.036648
   46  H  4  S   -0.068950   0.000001  -0.022446  -0.050742   0.000000
   47  H  4  S   -1.703100   0.000021  -0.284050   1.061807   0.000000
   48  H  5  S    0.093134  -0.000001   0.141137   0.021782  -0.000001
   49  H  5  S    0.888921  -0.000015  -0.007839  -0.692648   0.000001
   50  H  6  S   -0.071785   0.043327   0.042685  -0.017357  -0.264065
   51  H  6  S   -0.334544   1.479959   0.026601  -0.049641  -0.075117
   52  H  7  S   -0.071787  -0.043325   0.042685  -0.017357   0.264067
   53  H  7  S   -0.334585  -1.479943   0.026601  -0.049642   0.075113

                     21         22         23         24         25
                    0.5418     0.5868     0.6110     0.6602     0.6852
                     A          A          A          A          A   
    1  C  1  S    0.007290   0.041440  -0.000000  -0.034627  -0.038278
    2  C  1  S   -0.228108  -0.303903   0.000004  -0.129985   0.158424
    3  C  1  X   -0.733119  -0.424559   0.000002  -0.275038   0.192852
    4  C  1  Y    0.667495  -0.707081   0.000006  -0.050799  -0.124240
    5  C  1  Z    0.000000  -0.000005  -0.650736   0.000001  -0.000000
    6  C  1  S    0.154541  -0.911355   0.000005   0.667999  -0.689183
    7  C  1  X    1.015799   0.511608  -0.000002   0.317379  -0.993110
    8  C  1  Y   -0.610704   1.194601  -0.000009  -0.027624   0.229817
    9  C  1  Z   -0.000001   0.000012   1.770496  -0.000003  -0.000000
   10  C  1 XX   -0.003257  -0.040132   0.000000  -0.071117  -0.067230
   11  C  1 YY   -0.022648   0.065540  -0.000000   0.084718   0.037513
   12  C  1 ZZ    0.025905  -0.025408  -0.000000  -0.013601   0.029717
   13  C  1 XY    0.030230   0.069525  -0.000001  -0.082593   0.002618
   14  C  1 XZ   -0.000000   0.000001   0.093520  -0.000000  -0.000000
   15  C  1 YZ   -0.000000   0.000000   0.084152  -0.000000  -0.000000
   16  C  2  S   -0.051761  -0.004296   0.000000   0.024352  -0.048251
   17  C  2  S   -0.083661  -0.313070   0.000001  -0.774276  -0.132808
   18  C  2  X    0.123064   0.201524  -0.000002  -0.373830   0.946455
   19  C  2  Y    0.100249  -0.192552   0.000002  -0.064730   0.248316
   20  C  2  Z    0.000001   0.000005   0.436629  -0.000001  -0.000000
   21  C  2  S   -0.372767   0.393709  -0.000002   0.818004   1.583229
   22  C  2  X   -0.388974  -0.997408   0.000009   0.718202  -1.160394
   23  C  2  Y   -0.118478   0.254279  -0.000005  -0.681463   0.027501
   24  C  2  Z   -0.000000  -0.000010  -1.112460   0.000002   0.000001
   25  C  2 XX   -0.111509  -0.009033   0.000000   0.097208  -0.007001
   26  C  2 YY    0.006895  -0.012449  -0.000000  -0.134343  -0.076393
   27  C  2 ZZ    0.104614   0.021482  -0.000000   0.037136   0.083393
   28  C  2 XY    0.041466   0.020828  -0.000000   0.116078  -0.078654
   29  C  2 XZ    0.000000  -0.000000  -0.017368   0.000000   0.000000
   30  C  2 YZ   -0.000000   0.000000   0.057796  -0.000000  -0.000000
   31  O  3  S    0.011966   0.002296  -0.000000  -0.006430   0.047198
   32  O  3  S   -0.108201  -0.081581   0.000001   0.012918  -0.187899
   33  O  3  X    0.169639   0.134010  -0.000001  -0.324932   0.162610
   34  O  3  Y   -0.068082  -0.204147   0.000002   0.037518   0.211825
   35  O  3  Z    0.000000   0.000001   0.054192  -0.000000  -0.000000
   36  O  3  S    0.321242   0.386972  -0.000003  -0.278128  -0.031331
   37  O  3  X   -0.017902  -0.053401   0.000001  -0.008591   0.451543
   38  O  3  Y   -0.081605  -0.080413   0.000001   0.098230   0.150614
   39  O  3  Z   -0.000000   0.000001   0.176158  -0.000000  -0.000000
   40  O  3 XX    0.033242  -0.000311  -0.000000  -0.080878   0.034144
   41  O  3 YY   -0.023785   0.003348  -0.000000   0.013736   0.000920
   42  O  3 ZZ   -0.009457  -0.003038   0.000000   0.067142  -0.035064
   43  O  3 XY    0.017903  -0.008844   0.000000  -0.072727   0.104522
   44  O  3 XZ   -0.000000  -0.000000  -0.042335   0.000000   0.000000
   45  O  3 YZ   -0.000000  -0.000000   0.011862  -0.000000  -0.000000
   46  H  4  S   -0.118037   0.051402  -0.000002  -0.643720  -0.404530
   47  H  4  S   -0.055192   0.122513  -0.000002  -0.180153   0.091530
   48  H  5  S    0.044888   0.299466  -0.000001  -0.265227  -0.196542
   49  H  5  S    0.049995   0.063849  -0.000003   0.326684  -0.028022
   50  H  6  S    0.094897  -0.117355   0.372633  -0.288376  -0.196072
   51  H  6  S   -0.030304   0.347734   0.289201   0.021381  -0.150760
   52  H  7  S    0.094898  -0.117360  -0.372634  -0.288374  -0.196070
   53  H  7  S   -0.030303   0.347733  -0.289201   0.021381  -0.150762

                     26         27         28         29         30
                    0.7572     0.8081     0.8154     0.8559     0.8878
                     A          A          A          A          A   
    1  C  1  S   -0.009584  -0.007393  -0.000000  -0.016881   0.033632
    2  C  1  S    0.054300   0.522852   0.000007   0.283982  -1.349194
    3  C  1  X    0.308746  -0.440727  -0.000002  -0.035540   0.379653
    4  C  1  Y    0.218285  -0.444169  -0.000001   0.022394   0.000579
    5  C  1  Z   -0.000002  -0.000003   0.881601   0.000001   0.000002
    6  C  1  S   -0.873498  -0.850314  -0.000014  -0.896564   2.470416
    7  C  1  X   -1.880197   0.874527   0.000000  -0.393939  -0.600272
    8  C  1  Y   -0.637107   0.678476   0.000002   0.097873  -0.000231
    9  C  1  Z    0.000004   0.000005  -1.350111  -0.000001  -0.000001
   10  C  1 XX   -0.053954  -0.033547   0.000000  -0.036589  -0.084006
   11  C  1 YY   -0.009694  -0.071678   0.000000  -0.000096  -0.041768
   12  C  1 ZZ    0.063648   0.105226  -0.000000   0.036685   0.125774
   13  C  1 XY    0.015812  -0.109639  -0.000000   0.011142   0.016565
   14  C  1 XZ   -0.000000  -0.000000   0.169789   0.000000   0.000001
   15  C  1 YZ    0.000000   0.000000   0.046043  -0.000000   0.000000
   16  C  2  S    0.008782  -0.008562  -0.000000   0.052068  -0.011987
   17  C  2  S   -0.255635   0.520283   0.000003  -0.840692  -0.655462
   18  C  2  X    0.195769  -0.017565   0.000000   0.195677   0.028505
   19  C  2  Y   -0.880310  -0.017274  -0.000002   0.451839   0.181996
   20  C  2  Z   -0.000000  -0.000000   0.057327   0.000000   0.000000
   21  C  2  S    1.280991  -0.729080  -0.000001   2.877828   0.843914
   22  C  2  X   -0.633299   0.232949  -0.000002  -0.097595  -0.150814
   23  C  2  Y    3.069192  -0.019313   0.000007  -0.246470  -0.709455
   24  C  2  Z   -0.000001  -0.000001   0.059041   0.000000  -0.000001
   25  C  2 XX    0.083283   0.037685   0.000001   0.038058  -0.063220
   26  C  2 YY   -0.060793  -0.018078  -0.000000   0.078431   0.003076
   27  C  2 ZZ   -0.022490  -0.019607  -0.000000  -0.116489   0.060144
   28  C  2 XY    0.056868  -0.008896  -0.000000   0.116182   0.024600
   29  C  2 XZ    0.000000   0.000000  -0.068296  -0.000000  -0.000000
   30  C  2 YZ    0.000000   0.000000   0.033954   0.000000   0.000000
   31  O  3  S    0.017663   0.020201   0.000000   0.035751  -0.006159
   32  O  3  S   -0.020952  -0.120690  -0.000000  -0.125748  -0.029632
   33  O  3  X   -0.147455   0.032028  -0.000000  -0.378739   0.066599
   34  O  3  Y   -0.284429  -0.054614  -0.000000  -0.340720   0.037672
   35  O  3  Z   -0.000000  -0.000001   0.212870   0.000000   0.000001
   36  O  3  S   -0.850484   0.036903  -0.000001  -0.670511   0.198881
   37  O  3  X    0.525115   0.090588   0.000002   0.879804  -0.217889
   38  O  3  Y   -0.040627   0.121366   0.000000   0.532912  -0.037233
   39  O  3  Z    0.000000   0.000001  -0.192571  -0.000000  -0.000001
   40  O  3 XX   -0.117511   0.012462  -0.000000  -0.014247   0.010914
   41  O  3 YY    0.046311   0.009124   0.000000  -0.041563  -0.019972
   42  O  3 ZZ    0.071200  -0.021586   0.000000   0.055810   0.009058
   43  O  3 XY   -0.013123   0.000270   0.000000  -0.073150  -0.018839
   44  O  3 XZ   -0.000000  -0.000000   0.016143   0.000000   0.000000
   45  O  3 YZ    0.000000   0.000000  -0.005398  -0.000000   0.000000
   46  H  4  S   -0.144807  -0.014063  -0.000002   0.715193  -0.043348
   47  H  4  S    1.755800   0.170626   0.000006  -1.460002  -0.658437
   48  H  5  S   -0.165851  -0.959947  -0.000002  -0.170739  -0.185277
   49  H  5  S   -0.407195   2.271726   0.000004   0.280746   0.560006
   50  H  6  S    0.063048   0.309615   0.662612  -0.078512   0.569202
   51  H  6  S   -0.449021  -0.539179  -1.404500  -0.036282  -1.508025
   52  H  7  S    0.063050   0.309617  -0.662614  -0.078513   0.569196
   53  H  7  S   -0.449027  -0.539187   1.404505  -0.036280  -1.508019

                     31         32         33         34         35
                    0.9335     0.9893     1.0848     1.3806     1.4108
                     A          A          A          A          A   
    1  C  1  S   -0.015917   0.000000  -0.001781  -0.115178  -0.000000
    2  C  1  S    0.686657  -0.000000   0.043984  -1.581365  -0.000002
    3  C  1  X   -0.019042   0.000000  -0.099980  -0.045792   0.000000
    4  C  1  Y   -0.059877   0.000000  -0.095633   0.154770   0.000000
    5  C  1  Z    0.000000   0.176539   0.000000   0.000000   0.131463
    6  C  1  S   -1.748528   0.000000  -1.131337   5.175562   0.000007
    7  C  1  X   -0.693280  -0.000000  -0.495567  -0.017752  -0.000000
    8  C  1  Y    0.175180   0.000000   0.169543  -2.069085  -0.000003
    9  C  1  Z   -0.000000  -0.167685  -0.000000  -0.000000   0.096519
   10  C  1 XX    0.027426  -0.000000  -0.035078  -0.079755  -0.000000
   11  C  1 YY   -0.060989  -0.000000  -0.019530   0.151462   0.000000
   12  C  1 ZZ    0.033562   0.000000   0.054608  -0.071707  -0.000000
   13  C  1 XY    0.027628   0.000000   0.042517  -0.257061  -0.000000
   14  C  1 XZ   -0.000000   0.029447   0.000000   0.000001  -0.313816
   15  C  1 YZ   -0.000000   0.053773  -0.000000  -0.000001   0.474110
   16  C  2  S   -0.021393  -0.000000  -0.005953   0.030890   0.000000
   17  C  2  S   -1.175718  -0.000000  -0.114438   0.507343   0.000001
   18  C  2  X   -0.004268   0.000000   0.129519   0.047143   0.000000
   19  C  2  Y   -0.009936   0.000000  -0.286098  -0.100601  -0.000000
   20  C  2  Z    0.000000   0.118433   0.000000   0.000000  -0.046146
   21  C  2  S    1.838915   0.000001   0.355912  -3.303255  -0.000005
   22  C  2  X   -0.652088  -0.000000  -1.024847   1.510894   0.000002
   23  C  2  Y    0.293882  -0.000000   1.763594   0.345169   0.000000
   24  C  2  Z    0.000000  -0.585817  -0.000000  -0.000000   0.071668
   25  C  2 XX   -0.094465  -0.000000  -0.129465   0.008803   0.000000
   26  C  2 YY    0.034238  -0.000000   0.127066   0.157001   0.000000
   27  C  2 ZZ    0.060227   0.000000   0.002398  -0.165804  -0.000000
   28  C  2 XY   -0.127835   0.000000   0.074138  -0.069302  -0.000000
   29  C  2 XZ    0.000000  -0.051535  -0.000000  -0.000001   0.574670
   30  C  2 YZ   -0.000000   0.014980  -0.000000   0.000000  -0.167844
   31  O  3  S   -0.042473   0.000000   0.001403   0.026772   0.000000
   32  O  3  S    0.239563  -0.000000  -0.033095  -0.521700  -0.000001
   33  O  3  X    0.532665   0.000000  -0.371996   0.234023   0.000000
   34  O  3  Y    0.151147  -0.000000   0.727320   0.053516   0.000000
   35  O  3  Z    0.000000  -0.922094  -0.000000   0.000000  -0.064463
   36  O  3  S   -0.068793   0.000000  -0.002579   0.554121   0.000001
   37  O  3  X   -0.897582  -0.000000   0.710489  -0.523422  -0.000001
   38  O  3  Y   -0.457977   0.000000  -1.399740  -0.110877  -0.000000
   39  O  3  Z   -0.000000   1.264145   0.000000   0.000000  -0.121530
   40  O  3 XX   -0.029082  -0.000000   0.076798   0.013310   0.000000
   41  O  3 YY   -0.019018  -0.000000  -0.093987   0.085960   0.000000
   42  O  3 ZZ    0.048100   0.000000   0.017188  -0.099269  -0.000000
   43  O  3 XY   -0.009369  -0.000000  -0.070644  -0.074900  -0.000000
   44  O  3 XZ   -0.000000   0.031275   0.000000   0.000000  -0.155126
   45  O  3 YZ   -0.000000   0.020830  -0.000000   0.000000  -0.275393
   46  H  4  S    0.292404  -0.000000   0.214855   0.435346   0.000001
   47  H  4  S   -0.513414  -0.000000   0.764119   0.354456   0.000000
   48  H  5  S   -0.260575  -0.000000  -0.068955  -0.517770  -0.000001
   49  H  5  S    0.280596   0.000000   0.143695  -0.854592  -0.000001
   50  H  6  S   -0.096465   0.138790  -0.010643  -0.546678   0.144638
   51  H  6  S    0.072358  -0.330997  -0.064107  -0.409941  -0.040877
   52  H  7  S   -0.096465  -0.138790  -0.010643  -0.546679  -0.144639
   53  H  7  S    0.072359   0.330996  -0.064107  -0.409940   0.040875

                     36         37         38         39         40
                    1.5299     1.6360     1.6679     1.7851     1.8128
                     A          A          A          A          A   
    1  C  1  S    0.000000   0.052514   0.004550  -0.009318  -0.000000
    2  C  1  S    0.000000   0.632068  -0.335552   0.352818   0.000000
    3  C  1  X   -0.000000   0.017406  -0.207452   0.220631  -0.000000
    4  C  1  Y   -0.000000  -0.035288   0.043113  -0.049468  -0.000000
    5  C  1  Z    0.037428  -0.000000   0.000000  -0.000000   0.083541
    6  C  1  S   -0.000001  -2.263149   0.089117  -0.190531   0.000000
    7  C  1  X    0.000000   0.113807  -0.183402  -0.346855   0.000000
    8  C  1  Y    0.000000   1.107269  -0.059548  -0.064585  -0.000000
    9  C  1  Z   -0.344993   0.000000  -0.000000   0.000000  -0.309259
   10  C  1 XX    0.000000   0.197902   0.454459  -0.217546   0.000000
   11  C  1 YY   -0.000000   0.002038  -0.411368   0.315701   0.000000
   12  C  1 ZZ   -0.000000  -0.199940  -0.043091  -0.098155  -0.000000
   13  C  1 XY    0.000000   0.212499   0.024719   0.140671   0.000000
   14  C  1 XZ    0.128523  -0.000000   0.000000   0.000000  -0.325491
   15  C  1 YZ   -0.072395  -0.000000   0.000000   0.000000   0.422176
   16  C  2  S    0.000000  -0.029666  -0.001513  -0.023395   0.000000
   17  C  2  S   -0.000000  -0.319255  -0.445848   0.026286   0.000000
   18  C  2  X    0.000000  -0.140176   0.149309   0.036995  -0.000000
   19  C  2  Y    0.000000   0.018471  -0.062861  -0.104279   0.000000
   20  C  2  Z   -0.185559  -0.000000   0.000000   0.000000   0.090147
   21  C  2  S    0.000001  -0.655713   1.490591   0.830440  -0.000000
   22  C  2  X    0.000000  -2.277084  -0.078350   0.554873  -0.000000
   23  C  2  Y    0.000000  -1.396695   0.258844  -0.146266  -0.000000
   24  C  2  Z    0.213380  -0.000000  -0.000000  -0.000000   0.200005
   25  C  2 XX    0.000000  -0.122807   0.149786  -0.196360  -0.000000
   26  C  2 YY   -0.000000   0.176289   0.204344   0.394429  -0.000000
   27  C  2 ZZ    0.000000  -0.053482  -0.354130  -0.198069   0.000000
   28  C  2 XY    0.000000  -0.296025  -0.238130   0.286575  -0.000000
   29  C  2 XZ    0.149575  -0.000000  -0.000000  -0.000000  -0.129309
   30  C  2 YZ    0.716581   0.000000  -0.000000  -0.000000  -0.073391
   31  O  3  S   -0.000000   0.020576  -0.019386   0.004809   0.000000
   32  O  3  S    0.000000  -1.468357   0.598725   0.187729  -0.000000
   33  O  3  X   -0.000000  -0.030162  -0.179215   0.189901  -0.000000
   34  O  3  Y   -0.000000   0.022348   0.008518  -0.163895   0.000000
   35  O  3  Z   -0.087644  -0.000000   0.000000   0.000000   0.070072
   36  O  3  S   -0.000001   3.891906  -1.162997  -0.793221   0.000000
   37  O  3  X    0.000000  -1.024485   0.514020   0.025012  -0.000000
   38  O  3  Y    0.000000  -0.587177   0.123875   0.397846  -0.000000
   39  O  3  Z   -0.116855   0.000000   0.000000   0.000000  -0.107705
   40  O  3 XX    0.000000  -0.129594   0.051543   0.490698  -0.000000
   41  O  3 YY   -0.000000   0.176269   0.450486  -0.092070  -0.000000
   42  O  3 ZZ    0.000000  -0.046675  -0.502030  -0.398628   0.000000
   43  O  3 XY    0.000000  -0.182114  -0.088421  -0.426579   0.000000
   44  O  3 XZ   -0.502994  -0.000000   0.000000  -0.000000  -0.184458
   45  O  3 YZ    0.082071   0.000000   0.000000   0.000000   0.821663
   46  H  4  S   -0.000000  -0.295849  -0.219255  -0.488523   0.000000
   47  H  4  S   -0.000000  -0.449175  -0.131205  -0.030434  -0.000000
   48  H  5  S    0.000000   0.152973  -0.093687  -0.136524   0.000000
   49  H  5  S   -0.000000   0.135489   0.056613  -0.091969  -0.000000
   50  H  6  S   -0.076099   0.260438  -0.030570   0.022853   0.005892
   51  H  6  S   -0.148348   0.310992  -0.183304   0.038669  -0.134188
   52  H  7  S    0.076098   0.260439  -0.030570   0.022853  -0.005892
   53  H  7  S    0.148348   0.310992  -0.183304   0.038669   0.134188

                     41         42         43         44         45
                    1.9503     1.9900     2.0556     2.2449     2.2760
                     A          A          A          A          A   
    1  C  1  S    0.014876  -0.066124  -0.000000  -0.085869   0.000000
    2  C  1  S   -0.087404  -0.559477   0.000000  -0.607699   0.000001
    3  C  1  X   -0.096080   0.025789  -0.000000   0.023699  -0.000000
    4  C  1  Y    0.059758  -0.097214  -0.000000  -0.070537   0.000000
    5  C  1  Z   -0.000000   0.000000  -0.045011  -0.000000  -0.073468
    6  C  1  S   -0.300729   2.534938  -0.000001   2.674421  -0.000005
    7  C  1  X   -0.103611   0.499924   0.000000  -0.440008   0.000001
    8  C  1  Y   -0.108119  -0.574881   0.000000  -1.082958   0.000002
    9  C  1  Z   -0.000000  -0.000000  -0.673964   0.000000  -0.199339
   10  C  1 XX    0.272849   0.447776  -0.000000   0.021465   0.000000
   11  C  1 YY    0.618574  -0.479686  -0.000000   0.091020  -0.000000
   12  C  1 ZZ   -0.891423   0.031910   0.000000  -0.112485   0.000000
   13  C  1 XY    0.131160   0.143815   0.000000   0.798137  -0.000001
   14  C  1 XZ    0.000000   0.000000   0.191114   0.000002   0.983196
   15  C  1 YZ    0.000000   0.000000   0.774357   0.000000   0.266975
   16  C  2  S   -0.013106   0.025051   0.000000   0.030237  -0.000000
   17  C  2  S   -0.284071   0.187405   0.000000   0.483029  -0.000001
   18  C  2  X    0.161038   0.010880  -0.000000  -0.320866   0.000001
   19  C  2  Y   -0.030129  -0.156631   0.000000   0.067949  -0.000000
   20  C  2  Z    0.000000   0.000000   0.044482  -0.000000  -0.079798
   21  C  2  S    1.045253  -1.494623  -0.000001  -1.384849   0.000002
   22  C  2  X    0.167589   0.777570  -0.000000   0.953930  -0.000002
   23  C  2  Y    0.622014  -1.176468  -0.000000   0.317261  -0.000001
   24  C  2  Z    0.000000   0.000000   0.401298  -0.000000  -0.056648
   25  C  2 XX    0.277361  -0.300454  -0.000000  -0.466703   0.000001
   26  C  2 YY    0.046114   0.507779  -0.000000   0.045041  -0.000000
   27  C  2 ZZ   -0.323475  -0.207325   0.000000   0.421662  -0.000000
   28  C  2 XY    0.056682  -0.061003  -0.000000   0.015553  -0.000000
   29  C  2 XZ   -0.000000  -0.000000  -0.303392   0.000001   0.225532
   30  C  2 YZ    0.000000   0.000000   0.494594  -0.000001  -0.445108
   31  O  3  S    0.006667  -0.009606  -0.000000  -0.014673   0.000000
   32  O  3  S    0.239041  -0.004251  -0.000000   0.270597  -0.000000
   33  O  3  X    0.061133  -0.022915  -0.000000  -0.170067   0.000000
   34  O  3  Y    0.121963  -0.198329  -0.000000  -0.116592   0.000000
   35  O  3  Z    0.000000   0.000000   0.074453  -0.000000  -0.019759
   36  O  3  S   -1.025111   0.416894   0.000001  -0.348523   0.000001
   37  O  3  X    0.354120  -0.320016  -0.000000   0.084373  -0.000000
   38  O  3  Y   -0.014363   0.343369  -0.000000   0.009804   0.000000
   39  O  3  Z   -0.000000  -0.000000  -0.210890   0.000000   0.075738
   40  O  3 XX   -0.041075   0.095133  -0.000000  -0.262628   0.000001
   41  O  3 YY   -0.151029  -0.607245   0.000000   0.400893  -0.000001
   42  O  3 ZZ    0.192104   0.512112  -0.000000  -0.138265   0.000000
   43  O  3 XY    0.212150   0.122474  -0.000000   0.202560  -0.000001
   44  O  3 XZ    0.000000   0.000000   0.422029  -0.000001  -0.258259
   45  O  3 YZ   -0.000000  -0.000000  -0.224431   0.000000   0.166813
   46  H  4  S    0.018999  -0.491271   0.000000   0.198839  -0.000000
   47  H  4  S    0.084941  -0.247831   0.000000   0.261035  -0.000001
   48  H  5  S   -0.416186  -0.291964   0.000000  -0.863109   0.000002
   49  H  5  S    0.141314  -0.119817  -0.000000  -0.216395   0.000000
   50  H  6  S    0.348805  -0.289905  -0.431268  -0.371823  -0.521823
   51  H  6  S   -0.121705  -0.153520  -0.084635  -0.329378   0.125579
   52  H  7  S    0.348806  -0.289905   0.431267  -0.371822   0.521824
   53  H  7  S   -0.121705  -0.153520   0.084636  -0.329379  -0.125577

                     46         47         48         49         50
                    2.3373     2.5107     2.5780     2.8845     2.9532
                     A          A          A          A          A   
    1  C  1  S    0.036333  -0.067311  -0.000000   0.001955  -0.001917
    2  C  1  S    0.300541  -0.199984  -0.000000  -0.282180   0.207420
    3  C  1  X   -0.089435   0.280191   0.000000  -0.178348   0.136514
    4  C  1  Y    0.046133  -0.093837  -0.000000   0.146241  -0.082394
    5  C  1  Z   -0.000000   0.000000   0.027501   0.000000  -0.000000
    6  C  1  S   -1.508085   2.011740   0.000000   0.626046  -0.369457
    7  C  1  X   -0.699932   0.840249   0.000000  -0.240994   0.244146
    8  C  1  Y    0.365667  -0.449347  -0.000000  -0.186649   0.214987
    9  C  1  Z   -0.000000   0.000000   0.030835   0.000000  -0.000000
   10  C  1 XX   -0.331656   0.787461   0.000000  -0.119634   0.064607
   11  C  1 YY   -0.110082  -0.467545  -0.000000  -0.088086   0.042982
   12  C  1 ZZ    0.441738  -0.319916  -0.000000   0.207720  -0.107589
   13  C  1 XY    0.359139  -0.091986  -0.000000   0.592627  -0.381410
   14  C  1 XZ    0.000000  -0.000000   0.140843  -0.000000   0.000000
   15  C  1 YZ    0.000000  -0.000000  -0.176919  -0.000000   0.000000
   16  C  2  S   -0.081163   0.036969   0.000000  -0.040832  -0.024709
   17  C  2  S   -0.235332   0.119377   0.000000  -0.509838  -1.287324
   18  C  2  X   -0.170727   0.209947   0.000000  -0.630446  -0.984635
   19  C  2  Y    0.179867  -0.062761  -0.000000  -0.291219  -0.575127
   20  C  2  Z   -0.000000  -0.000000   0.243151   0.000000  -0.000000
   21  C  2  S    1.571600  -1.973309  -0.000000  -0.606796  -1.488326
   22  C  2  X   -0.465241   0.903313   0.000000  -0.164546  -0.835969
   23  C  2  Y    0.658338  -0.854930  -0.000000  -0.535236  -0.421584
   24  C  2  Z    0.000000  -0.000000   0.236649  -0.000000   0.000000
   25  C  2 XX    0.478439   0.092345  -0.000000   0.639716  -0.845206
   26  C  2 YY    0.289916  -0.445026  -0.000000  -0.687601   0.412324
   27  C  2 ZZ   -0.768355   0.352681   0.000000   0.047886   0.432882
   28  C  2 XY    0.482991   0.866110   0.000000  -0.660433  -0.252269
   29  C  2 XZ    0.000000  -0.000000   0.918752   0.000000  -0.000000
   30  C  2 YZ   -0.000000  -0.000000   0.388469  -0.000000   0.000000
   31  O  3  S    0.029977   0.018843   0.000000  -0.022957  -0.057779
   32  O  3  S   -0.385075  -0.540966  -0.000000  -0.434590  -0.624675
   33  O  3  X    0.362261   0.332950   0.000000  -0.060450  -0.244082
   34  O  3  Y    0.246183   0.122163   0.000000  -0.003633  -0.155907
   35  O  3  Z   -0.000000   0.000000  -0.010835   0.000000   0.000000
   36  O  3  S   -0.207316   0.673207   0.000000   1.490975   2.903424
   37  O  3  X    0.053869  -0.498932  -0.000000  -0.969262  -1.373619
   38  O  3  Y   -0.321426   0.042451   0.000000  -0.061061  -0.946200
   39  O  3  Z    0.000000   0.000000  -0.453398  -0.000000  -0.000000
   40  O  3 XX   -0.281489   0.132711  -0.000000   0.970003   0.611888
   41  O  3 YY    0.249914   0.033869   0.000000  -0.638386   0.046169
   42  O  3 ZZ    0.031575  -0.166580  -0.000000  -0.331617  -0.658057
   43  O  3 XY    0.382341  -0.109217   0.000000   0.091522   1.132062
   44  O  3 XZ   -0.000000  -0.000000   0.857743   0.000000  -0.000000
   45  O  3 YZ    0.000000  -0.000000   0.516035   0.000000  -0.000000
   46  H  4  S   -0.160480   0.276654   0.000000   0.291131  -0.106573
   47  H  4  S    0.156853  -0.302620  -0.000000  -0.345240   0.075184
   48  H  5  S    0.083091  -0.156125  -0.000000  -0.266388   0.202490
   49  H  5  S   -0.023052  -0.006620   0.000000  -0.101163  -0.048990
   50  H  6  S   -0.079497  -0.081026   0.009068  -0.178540   0.095130
   51  H  6  S    0.097306  -0.025922   0.030547  -0.062586   0.115354
   52  H  7  S   -0.079496  -0.081026  -0.009068  -0.178541   0.095130
   53  H  7  S    0.097306  -0.025922  -0.030547  -0.062587   0.115354
 ...... END OF RHF CALCULATION ......
 STEP CPU TIME =     5.38 TOTAL CPU TIME =          5.5 (      0.1 MIN)
 TOTAL WALL CLOCK TIME=          5.5 SECONDS, CPU UTILIZATION IS    99.28%

     ---------------------------------------------------------------------
     PROPERTIES FOR THE B3LYP    DFT FUNCTIONAL (RHF  TYPE) DENSITY MATRIX
     ---------------------------------------------------------------------

          -----------------
          ENERGY COMPONENTS
          -----------------

         WAVEFUNCTION NORMALIZATION =       1.0000000000

                ONE ELECTRON ENERGY =    -345.4436872450
                TWO ELECTRON ENERGY =     122.2561780031
           NUCLEAR REPULSION ENERGY =      69.6274999158
                                      ------------------
                       TOTAL ENERGY =    -153.5600093261

 ELECTRON-ELECTRON POTENTIAL ENERGY =     122.2561780031
  NUCLEUS-ELECTRON POTENTIAL ENERGY =    -498.3825955404
   NUCLEUS-NUCLEUS POTENTIAL ENERGY =      69.6274999158
                                      ------------------
             TOTAL POTENTIAL ENERGY =    -306.4989176214
               TOTAL KINETIC ENERGY =     152.9389082954
                 VIRIAL RATIO (V/T) =       2.0040611054

          ---------------------------------------
          MULLIKEN AND LOWDIN POPULATION ANALYSES
          ---------------------------------------

     ATOMIC MULLIKEN POPULATION IN EACH MOLECULAR ORBITAL

                      1          2          3          4          5

                  2.000000   2.000000   2.000000   2.000000   2.000000

    1            -0.000023   0.001400   1.995167   0.019639   1.055780
    2             0.002286   2.000479   0.001871   0.523647   0.165592
    3             1.997708  -0.002837   0.000012   1.456263   0.034854
    4             0.000031   0.000939  -0.000011  -0.001331   0.005907
    5             0.000000  -0.000020   0.000846   0.000793   0.395522
    6            -0.000001   0.000019   0.001058   0.000494   0.171171
    7            -0.000001   0.000019   0.001058   0.000494   0.171174

                      6          7          8          9         10

                  2.000000   2.000000   2.000000   2.000000   2.000000

    1             0.341992   0.398557   0.794075   0.088820   0.079715
    2             0.931965   0.864893   0.206984   0.387056   0.554599
    3             0.287650   0.336725   0.082783   1.452667   1.191526
    4             0.238102   0.320419  -0.000000   0.050664   0.000000
    5             0.117524   0.068559  -0.000000   0.010608  -0.000000
    6             0.041384   0.005423   0.458082   0.005092   0.087080
    7             0.041384   0.005424   0.458075   0.005092   0.087079

                     11         12

                  2.000000   2.000000

    1             0.678055   1.028005
    2             0.042629   0.128212
    3             1.038223   0.449553
    4             0.053982   0.239272
    5             0.167259   0.053530
    6             0.009926   0.050714
    7             0.009926   0.050714

               ----- POPULATIONS IN EACH AO -----
                             MULLIKEN      LOWDIN
              1  C  1  S      1.99690     1.98082
              2  C  1  S      0.70711     0.39692
              3  C  1  X      0.63468     0.55935
              4  C  1  Y      0.79595     0.75445
              5  C  1  Z      0.65456     0.57305
              6  C  1  S      0.71670     0.38708
              7  C  1  X      0.19709     0.34383
              8  C  1  Y      0.52860     0.67069
              9  C  1  Z      0.19707     0.42756
             10  C  1 XX      0.00738     0.17551
             11  C  1 YY      0.00294     0.12817
             12  C  1 ZZ      0.02004     0.18506
             13  C  1 XY      0.01275     0.03295
             14  C  1 XZ      0.00941     0.02429
             15  C  1 YZ      0.00000     0.01216
             16  C  2  S      1.99654     1.97453
             17  C  2  S      0.70463     0.36458
             18  C  2  X      0.74410     0.64828
             19  C  2  Y      0.74710     0.64725
             20  C  2  Z      0.45917     0.41294
             21  C  2  S      0.45436     0.31458
             22  C  2  X      0.10620     0.28067
             23  C  2  Y      0.22485     0.38238
             24  C  2  Z      0.28707     0.32953
             25  C  2 XX      0.00487     0.22240
             26  C  2 YY      0.04018     0.19108
             27  C  2 ZZ      0.02581     0.10361
             28  C  2 XY      0.01250     0.05260
             29  C  2 XZ      0.00284     0.02308
             30  C  2 YZ      0.00000     0.00482
             31  O  3  S      1.99731     1.97776
             32  O  3  S      0.93161     0.72339
             33  O  3  X      0.98497     0.92019
             34  O  3  Y      1.10412     1.05585
             35  O  3  Z      0.76098     0.70935
             36  O  3  S      0.93403     0.46916
             37  O  3  X      0.48169     0.56186
             38  O  3  Y      0.60016     0.66307
             39  O  3  Z      0.50199     0.54027
             40  O  3 XX      0.00225     0.18508
             41  O  3 YY      0.00753     0.17291
             42  O  3 ZZ      0.00714     0.17375
             43  O  3 XY      0.00860     0.01579
             44  O  3 XZ      0.00273     0.01128
             45  O  3 YZ      0.00000     0.00354
             46  H  4  S      0.53600     0.50704
             47  H  4  S      0.37197     0.39727
             48  H  5  S      0.53683     0.47283
             49  H  5  S      0.27779     0.28475
             50  H  6  S      0.52118     0.45534
             51  H  6  S      0.30926     0.31997
             52  H  7  S      0.52118     0.45534
             53  H  7  S      0.30926     0.31997

          ----- MULLIKEN ATOMIC OVERLAP POPULATIONS -----
          (OFF-DIAGONAL ELEMENTS NEED TO BE MULTIPLIED BY 2)

             1           2           3           4           5

    1    5.7017692
    2    0.3492316   4.5712964
    3   -0.0536543   0.5759641   7.8727281
    4   -0.1612362   0.3555041  -0.0716284   0.7713617
    5   -0.0173332  -0.0191354   0.0074953  -0.0121359   1.0129028
    6    0.3311996  -0.0113233  -0.0028884   0.0130531  -0.0785866
    7    0.3312056  -0.0113244  -0.0028884   0.0130532  -0.0785850

             6           7

    6    0.6458548
    7   -0.0668661   0.6458449

          TOTAL MULLIKEN AND LOWDIN ATOMIC POPULATIONS
       ATOM         MULL.POP.    CHARGE          LOW.POP.     CHARGE
    1 C             6.481182   -0.481182         6.651893   -0.651893
    2 C             5.810213    0.189787         5.952348    0.047652
    3 O             8.325128   -0.325128         8.183238   -0.183238
    4 H             0.907971    0.092029         0.904309    0.095691
    5 H             0.814622    0.185378         0.757579    0.242421
    6 H             0.830443    0.169557         0.775317    0.224683
    7 H             0.830440    0.169560         0.775316    0.224684

          MULLIKEN SPHERICAL HARMONIC POPULATIONS
       ATOM           S       P       D      F      G      H      I    TOTAL
    1 C             3.42    3.01    0.05   0.00   0.00   0.00   0.00    6.48
    2 C             3.16    2.57    0.09   0.00   0.00   0.00   0.00    5.81
    3 O             3.86    4.43    0.03   0.00   0.00   0.00   0.00    8.33
    4 H             0.91    0.00    0.00   0.00   0.00   0.00   0.00    0.91
    5 H             0.81    0.00    0.00   0.00   0.00   0.00   0.00    0.81
    6 H             0.83    0.00    0.00   0.00   0.00   0.00   0.00    0.83
    7 H             0.83    0.00    0.00   0.00   0.00   0.00   0.00    0.83

          -------------------------------
          BOND ORDER AND VALENCE ANALYSIS     BOND ORDER THRESHOLD=0.050
          -------------------------------

                   BOND                       BOND                       BOND
  ATOM PAIR DIST  ORDER      ATOM PAIR DIST  ORDER      ATOM PAIR DIST  ORDER
    1   2  1.509  1.061        1   5  1.093  0.636        1   6  1.098  0.817
    1   7  1.098  0.817        2   3  1.211  2.036        2   4  1.115  0.882
    5   6  1.005  0.069        5   7  1.005  0.069

                       TOTAL       BONDED        FREE
      ATOM            VALENCE     VALENCE     VALENCE
    1 C                 3.335       3.335      -0.000
    2 C                 3.997       3.997      -0.000
    3 O                 2.130       2.130       0.000
    4 H                 0.920       0.920      -0.000
    5 H                 0.807       0.807      -0.000
    6 H                 0.937       0.937      -0.000
    7 H                 0.937       0.937       0.000

          ---------------------
          ELECTROSTATIC MOMENTS
          ---------------------

 POINT   1           X           Y           Z (BOHR)    CHARGE
                -0.000000    0.000000    0.000000        0.00 (A.U.)
         DX          DY          DZ         /D/  (DEBYE)
    -3.117020   -2.846274    0.000011    4.221030
 ...... END OF PROPERTY EVALUATION ......
 STEP CPU TIME =     0.00 TOTAL CPU TIME =          5.5 (      0.1 MIN)
 TOTAL WALL CLOCK TIME=          5.6 SECONDS, CPU UTILIZATION IS    99.10%
                580000  WORDS OF DYNAMIC MEMORY USED
 EXECUTION OF GAMESS TERMINATED NORMALLY Thu Oct 17 23:43:33 2019
 DDI: 263640 bytes (0.3 MB / 0 MWords) used by master data server.

 ----------------------------------------
 CPU timing information for all processes
 ========================================
 0: 5.419 + 0.105 = 5.524
 ----------------------------------------
 ddikick.x: exited gracefully.
----- accounting info -----
Files used on the master node crcfe01.crc.nd.edu were:
-rw-r--r-- 1 cdrisko campus     490 Oct 17 23:43 /afs/crc.nd.edu/user/c/cdrisko/acetaldehyde.F05
-rw-r--r-- 1 cdrisko campus   45118 Oct 17 23:43 /afs/crc.nd.edu/user/c/cdrisko/acetaldehyde.F07
-rw-r--r-- 1 cdrisko campus 7920704 Oct 17 23:43 /afs/crc.nd.edu/user/c/cdrisko/acetaldehyde.F08
-rw-r--r-- 1 cdrisko campus 1799600 Oct 17 23:43 /afs/crc.nd.edu/user/c/cdrisko/acetaldehyde.F10
Thu Oct 17 23:43:36 EDT 2019
0.404u 0.233s 0:09.18 6.8%	0+0k 0+24io 0pf+0w
