  13  13   1   0
  0.5679843E+02  0.5864744E-09  0.5864744E-09  0.2478854E-08  0.5000000E-15
  1.000000000000000E-004
  CAR 
 unknown system                          
      8.65794898    -19.72065808  301     -1.18499911      1.00000000
    -19.721  0.0000E+00  0.0000E+00
    -19.626  0.0000E+00  0.0000E+00
    -19.531  0.0000E+00  0.0000E+00
    -19.437  0.0000E+00  0.0000E+00
    -19.342  0.0000E+00  0.0000E+00
    -19.248 -0.1954E-27 -0.1849E-28
    -19.153 -0.4026E-21 -0.3808E-22
    -19.058 -0.1366E-15 -0.1292E-16
    -18.964 -0.7331E-11 -0.6935E-12
    -18.869 -0.6506E-07 -0.6155E-08
    -18.775 -0.9091E-04 -0.8606E-05
    -18.680 -0.1885E-01 -0.1792E-02
    -18.586 -0.4571E+00 -0.4503E-01
    -18.491  0.1594E+01  0.1057E+00
    -18.396  0.1425E+02  0.1453E+01
    -18.302  0.6527E+01  0.2071E+01
    -18.207 -0.6539E+00  0.2009E+01
    -18.113 -0.9266E-01  0.2000E+01
    -18.018 -0.1016E-02  0.2000E+01
    -17.923 -0.1565E-05  0.2000E+01
    -17.829 -0.3727E-09  0.2000E+01
    -17.734 -0.1513E-13  0.2000E+01
    -17.640  0.0000E+00  0.2000E+01
    -17.545  0.0000E+00  0.2000E+01
    -17.450  0.0000E+00  0.2000E+01
    -17.356  0.0000E+00  0.2000E+01
    -17.261  0.0000E+00  0.2000E+01
    -17.167  0.0000E+00  0.2000E+01
    -17.072  0.0000E+00  0.2000E+01
    -16.977  0.0000E+00  0.2000E+01
    -16.883  0.0000E+00  0.2000E+01
    -16.788  0.0000E+00  0.2000E+01
    -16.694  0.0000E+00  0.2000E+01
    -16.599  0.0000E+00  0.2000E+01
    -16.504  0.0000E+00  0.2000E+01
    -16.410  0.0000E+00  0.2000E+01
    -16.315  0.0000E+00  0.2000E+01
    -16.221  0.0000E+00  0.2000E+01
    -16.126  0.0000E+00  0.2000E+01
    -16.031  0.0000E+00  0.2000E+01
    -15.937  0.0000E+00  0.2000E+01
    -15.842  0.0000E+00  0.2000E+01
    -15.748  0.0000E+00  0.2000E+01
    -15.653  0.0000E+00  0.2000E+01
    -15.558  0.0000E+00  0.2000E+01
    -15.464  0.0000E+00  0.2000E+01
    -15.369  0.0000E+00  0.2000E+01
    -15.275  0.0000E+00  0.2000E+01
    -15.180  0.0000E+00  0.2000E+01
    -15.085  0.0000E+00  0.2000E+01
    -14.991  0.0000E+00  0.2000E+01
    -14.896  0.0000E+00  0.2000E+01
    -14.802  0.0000E+00  0.2000E+01
    -14.707  0.0000E+00  0.2000E+01
    -14.613  0.0000E+00  0.2000E+01
    -14.518  0.0000E+00  0.2000E+01
    -14.423  0.0000E+00  0.2000E+01
    -14.329  0.0000E+00  0.2000E+01
    -14.234  0.0000E+00  0.2000E+01
    -14.140  0.0000E+00  0.2000E+01
    -14.045  0.0000E+00  0.2000E+01
    -13.950  0.0000E+00  0.2000E+01
    -13.856  0.0000E+00  0.2000E+01
    -13.761  0.0000E+00  0.2000E+01
    -13.667  0.0000E+00  0.2000E+01
    -13.572  0.0000E+00  0.2000E+01
    -13.477  0.0000E+00  0.2000E+01
    -13.383  0.0000E+00  0.2000E+01
    -13.288  0.0000E+00  0.2000E+01
    -13.194  0.0000E+00  0.2000E+01
    -13.099  0.0000E+00  0.2000E+01
    -13.004  0.0000E+00  0.2000E+01
    -12.910  0.0000E+00  0.2000E+01
    -12.815  0.0000E+00  0.2000E+01
    -12.721  0.0000E+00  0.2000E+01
    -12.626  0.0000E+00  0.2000E+01
    -12.531  0.0000E+00  0.2000E+01
    -12.437  0.0000E+00  0.2000E+01
    -12.342  0.0000E+00  0.2000E+01
    -12.248  0.0000E+00  0.2000E+01
    -12.153  0.0000E+00  0.2000E+01
    -12.058  0.0000E+00  0.2000E+01
    -11.964  0.0000E+00  0.2000E+01
    -11.869  0.0000E+00  0.2000E+01
    -11.775  0.0000E+00  0.2000E+01
    -11.680  0.0000E+00  0.2000E+01
    -11.585  0.0000E+00  0.2000E+01
    -11.491  0.0000E+00  0.2000E+01
    -11.396  0.0000E+00  0.2000E+01
    -11.302  0.0000E+00  0.2000E+01
    -11.207  0.0000E+00  0.2000E+01
    -11.112  0.0000E+00  0.2000E+01
    -11.018  0.0000E+00  0.2000E+01
    -10.923  0.0000E+00  0.2000E+01
    -10.829  0.0000E+00  0.2000E+01
    -10.734  0.0000E+00  0.2000E+01
    -10.640  0.0000E+00  0.2000E+01
    -10.545  0.0000E+00  0.2000E+01
    -10.450  0.0000E+00  0.2000E+01
    -10.356  0.0000E+00  0.2000E+01
    -10.261  0.0000E+00  0.2000E+01
    -10.167  0.0000E+00  0.2000E+01
    -10.072  0.0000E+00  0.2000E+01
     -9.977  0.0000E+00  0.2000E+01
     -9.883  0.0000E+00  0.2000E+01
     -9.788  0.0000E+00  0.2000E+01
     -9.694  0.0000E+00  0.2000E+01
     -9.599  0.0000E+00  0.2000E+01
     -9.504  0.0000E+00  0.2000E+01
     -9.410  0.0000E+00  0.2000E+01
     -9.315  0.0000E+00  0.2000E+01
     -9.221  0.0000E+00  0.2000E+01
     -9.126  0.0000E+00  0.2000E+01
     -9.031  0.0000E+00  0.2000E+01
     -8.937 -0.1688E-31  0.2000E+01
     -8.842 -0.6209E-25  0.2000E+01
     -8.748 -0.3756E-19  0.2000E+01
     -8.653 -0.3603E-14  0.2000E+01
     -8.558 -0.5727E-10  0.2000E+01
     -8.464 -0.1451E-06  0.2000E+01
     -8.369 -0.5760E-04  0.2000E+01
     -8.275 -0.3518E-02  0.2000E+01
     -8.180 -0.2828E-01  0.1997E+01
     -8.085  0.1742E+00  0.2013E+01
     -7.991  0.1046E+01  0.2112E+01
     -7.896  0.9323E+00  0.2201E+01
     -7.802  0.1657E+01  0.2357E+01
     -7.707  0.1086E+01  0.2460E+01
     -7.612  0.8450E+00  0.2540E+01
     -7.518  0.2348E+01  0.2762E+01
     -7.423  0.1263E+01  0.2882E+01
     -7.329  0.6778E+00  0.2946E+01
     -7.234  0.3813E+01  0.3306E+01
     -7.139  0.9092E+01  0.4166E+01
     -7.045  0.1901E+02  0.5964E+01
     -6.950  0.2672E+02  0.8492E+01
     -6.856  0.3073E+02  0.1140E+02
     -6.761  0.3793E+02  0.1499E+02
     -6.666  0.4375E+02  0.1913E+02
     -6.572  0.4158E+02  0.2306E+02
     -6.477  0.3244E+02  0.2613E+02
     -6.383  0.2593E+02  0.2858E+02
     -6.288  0.2807E+02  0.3124E+02
     -6.194  0.2754E+02  0.3384E+02
     -6.099  0.2879E+02  0.3656E+02
     -6.004  0.3430E+02  0.3981E+02
     -5.910  0.4471E+02  0.4404E+02
     -5.815  0.4997E+02  0.4876E+02
     -5.721  0.4496E+02  0.5302E+02
     -5.626  0.3555E+02  0.5638E+02
     -5.531  0.4941E+02  0.6105E+02
     -5.437  0.4498E+02  0.6531E+02
     -5.342  0.3700E+02  0.6881E+02
     -5.248  0.3300E+02  0.7193E+02
     -5.153  0.3078E+02  0.7484E+02
     -5.058  0.3896E+02  0.7853E+02
     -4.964  0.4178E+02  0.8248E+02
     -4.869  0.5179E+02  0.8738E+02
     -4.775  0.5456E+02  0.9254E+02
     -4.680  0.4566E+02  0.9686E+02
     -4.585  0.3934E+02  0.1006E+03
     -4.491  0.3921E+02  0.1043E+03
     -4.396  0.4251E+02  0.1083E+03
     -4.302  0.4548E+02  0.1126E+03
     -4.207  0.6012E+02  0.1183E+03
     -4.112  0.4422E+02  0.1225E+03
     -4.018  0.2515E+02  0.1249E+03
     -3.923  0.9931E+01  0.1258E+03
     -3.829  0.2837E+01  0.1261E+03
     -3.734  0.3529E+01  0.1264E+03
     -3.639  0.3906E+01  0.1268E+03
     -3.545  0.2875E+01  0.1270E+03
     -3.450  0.3716E+01  0.1274E+03
     -3.356  0.6174E+01  0.1280E+03
     -3.261  0.3559E+01  0.1283E+03
     -3.166  0.3472E+01  0.1286E+03
     -3.072  0.5099E+01  0.1291E+03
     -2.977  0.1762E+01  0.1293E+03
     -2.883  0.2476E+01  0.1295E+03
     -2.788  0.7420E+01  0.1302E+03
     -2.693  0.1032E+02  0.1312E+03
     -2.599  0.6467E+01  0.1318E+03
     -2.504  0.9537E+01  0.1327E+03
     -2.410  0.1047E+02  0.1337E+03
     -2.315  0.4242E+01  0.1341E+03
     -2.221  0.9263E+00  0.1342E+03
     -2.126  0.3385E+01  0.1345E+03
     -2.031  0.5432E+01  0.1350E+03
     -1.937  0.2561E+01  0.1353E+03
     -1.842  0.1486E+01  0.1354E+03
     -1.748  0.2483E+01  0.1357E+03
     -1.653  0.6657E+01  0.1363E+03
     -1.558  0.5432E+01  0.1368E+03
     -1.464  0.4032E+01  0.1372E+03
     -1.369  0.1805E+01  0.1373E+03
     -1.275  0.1557E+01  0.1375E+03
     -1.180  0.5731E+01  0.1380E+03
     -1.085  0.7611E+01  0.1388E+03
     -0.991  0.3670E+01  0.1391E+03
     -0.896  0.4323E+01  0.1395E+03
     -0.802  0.3642E+01  0.1399E+03
     -0.707  0.2755E+01  0.1401E+03
     -0.612  0.3501E+01  0.1404E+03
     -0.518  0.1427E+01  0.1406E+03
     -0.423  0.1673E+01  0.1407E+03
     -0.329  0.6395E+01  0.1413E+03
     -0.234  0.6191E+01  0.1419E+03
     -0.139  0.3376E+01  0.1423E+03
     -0.045  0.5708E+01  0.1428E+03
      0.050  0.4022E+01  0.1432E+03
      0.144  0.1732E+01  0.1433E+03
      0.239  0.7542E+01  0.1440E+03
      0.334  0.5810E+01  0.1446E+03
      0.428  0.2418E+01  0.1448E+03
      0.523  0.3202E+01  0.1451E+03
      0.617  0.2396E+01  0.1454E+03
      0.712  0.5000E+01  0.1458E+03
      0.807  0.2938E+01  0.1461E+03
      0.901  0.3758E+01  0.1465E+03
      0.996  0.4672E+01  0.1469E+03
      1.090  0.3532E+01  0.1472E+03
      1.185  0.2431E+01  0.1475E+03
      1.280  0.9290E+01  0.1483E+03
      1.374  0.7083E+01  0.1490E+03
      1.469  0.1085E+01  0.1491E+03
      1.563  0.2178E+01  0.1493E+03
      1.658  0.2799E+01  0.1496E+03
      1.752  0.5658E+01  0.1501E+03
      1.847  0.5724E+01  0.1507E+03
      1.942  0.7327E+00  0.1507E+03
      2.036  0.3714E+01  0.1511E+03
      2.131  0.2618E+01  0.1513E+03
      2.225  0.2106E+01  0.1515E+03
      2.320  0.3530E+01  0.1519E+03
      2.415  0.3966E+01  0.1522E+03
      2.509  0.3418E+01  0.1526E+03
      2.604  0.4979E+01  0.1530E+03
      2.698  0.5855E+01  0.1536E+03
      2.793  0.4322E+01  0.1540E+03
      2.888  0.1093E+01  0.1541E+03
      2.982  0.1799E+01  0.1543E+03
      3.077  0.2255E+01  0.1545E+03
      3.171  0.2473E+01  0.1547E+03
      3.266  0.7746E+01  0.1555E+03
      3.361  0.8076E+01  0.1562E+03
      3.455  0.5299E+01  0.1567E+03
      3.550  0.5231E+01  0.1572E+03
      3.644  0.5366E+01  0.1577E+03
      3.739  0.6415E+01  0.1583E+03
      3.834  0.3855E+01  0.1587E+03
      3.928  0.7491E+01  0.1594E+03
      4.023  0.1202E+02  0.1605E+03
      4.117  0.6553E+01  0.1612E+03
      4.212  0.7395E+01  0.1619E+03
      4.307  0.5933E+01  0.1624E+03
      4.401  0.6909E+01  0.1631E+03
      4.496  0.1354E+02  0.1644E+03
      4.590  0.1003E+02  0.1653E+03
      4.685  0.4228E+01  0.1657E+03
      4.780  0.5379E+01  0.1662E+03
      4.874  0.1178E+02  0.1673E+03
      4.969  0.8424E+01  0.1681E+03
      5.063  0.9185E+01  0.1690E+03
      5.158  0.6613E+01  0.1696E+03
      5.253  0.9942E+01  0.1706E+03
      5.347  0.8158E+01  0.1713E+03
      5.442  0.8353E+01  0.1721E+03
      5.536  0.1230E+02  0.1733E+03
      5.631  0.1428E+02  0.1746E+03
      5.725  0.1194E+02  0.1758E+03
      5.820  0.9562E+01  0.1767E+03
      5.915  0.1200E+02  0.1778E+03
      6.009  0.1279E+02  0.1790E+03
      6.104  0.1475E+02  0.1804E+03
      6.198  0.7972E+01  0.1812E+03
      6.293  0.6818E+01  0.1818E+03
      6.388  0.5707E+01  0.1823E+03
      6.482  0.8410E+01  0.1831E+03
      6.577  0.1261E+02  0.1843E+03
      6.671  0.1311E+02  0.1856E+03
      6.766  0.9891E+01  0.1865E+03
      6.861  0.1629E+02  0.1881E+03
      6.955  0.1345E+02  0.1893E+03
      7.050  0.6824E+01  0.1900E+03
      7.144  0.4699E+01  0.1904E+03
      7.239  0.7823E+01  0.1912E+03
      7.334  0.6278E+01  0.1918E+03
      7.428  0.2589E+01  0.1920E+03
      7.523  0.1236E+00  0.1920E+03
      7.617 -0.8160E-01  0.1920E+03
      7.712 -0.3200E-02  0.1920E+03
      7.807 -0.1585E-04  0.1920E+03
      7.901 -0.1189E-07  0.1920E+03
      7.996 -0.1416E-11  0.1920E+03
      8.090  0.0000E+00  0.1920E+03
      8.185  0.0000E+00  0.1920E+03
      8.280  0.0000E+00  0.1920E+03
      8.374  0.0000E+00  0.1920E+03
      8.469  0.0000E+00  0.1920E+03
      8.563  0.0000E+00  0.1920E+03
      8.658  0.0000E+00  0.1920E+03
      8.65794898    -19.72065808  301     -1.18499911      1.00000000
    -19.721  0.0000E+00  0.0000E+00  0.0000E+00
    -19.626  0.0000E+00  0.0000E+00  0.0000E+00
    -19.531  0.0000E+00  0.0000E+00  0.0000E+00
    -19.437  0.0000E+00  0.0000E+00  0.0000E+00
    -19.342  0.0000E+00  0.0000E+00  0.0000E+00
    -19.248 -0.8317E-36 -0.5745E-36 -0.1661E-36
    -19.153 -0.1681E-29 -0.1160E-29 -0.3399E-30
    -19.058 -0.5594E-24 -0.3857E-24 -0.1145E-24
    -18.964 -0.2944E-19 -0.2029E-19 -0.6107E-20
    -18.869 -0.2562E-15 -0.1764E-15 -0.5383E-16
    -18.775 -0.3509E-12 -0.2414E-12 -0.7471E-13
    -18.680 -0.7127E-10 -0.4899E-10 -0.1538E-10
    -18.586 -0.1683E-08 -0.1156E-08 -0.3696E-09
    -18.491  0.6083E-08  0.4182E-08  0.1305E-08
    -18.396  0.5175E-07  0.3552E-07  0.1147E-07
    -18.302  0.2306E-07  0.1581E-07  0.5204E-08
    -18.207 -0.2373E-08 -0.1629E-08 -0.5262E-09
    -18.113 -0.3237E-09 -0.2219E-09 -0.7359E-10
    -18.018 -0.3479E-11 -0.2384E-11 -0.8014E-12
    -17.923 -0.5266E-14 -0.3606E-14 -0.1227E-14
    -17.829 -0.1234E-17 -0.8447E-18 -0.2907E-18
    -17.734 -0.4974E-22 -0.3405E-22 -0.1178E-22
    -17.640  0.0000E+00  0.0000E+00  0.0000E+00
    -17.545  0.0000E+00  0.0000E+00  0.0000E+00
    -17.450  0.0000E+00  0.0000E+00  0.0000E+00
    -17.356  0.0000E+00  0.0000E+00  0.0000E+00
    -17.261  0.0000E+00  0.0000E+00  0.0000E+00
    -17.167  0.0000E+00  0.0000E+00  0.0000E+00
    -17.072  0.0000E+00  0.0000E+00  0.0000E+00
    -16.977  0.0000E+00  0.0000E+00  0.0000E+00
    -16.883  0.0000E+00  0.0000E+00  0.0000E+00
    -16.788  0.0000E+00  0.0000E+00  0.0000E+00
    -16.694  0.0000E+00  0.0000E+00  0.0000E+00
    -16.599  0.0000E+00  0.0000E+00  0.0000E+00
    -16.504  0.0000E+00  0.0000E+00  0.0000E+00
    -16.410  0.0000E+00  0.0000E+00  0.0000E+00
    -16.315  0.0000E+00  0.0000E+00  0.0000E+00
    -16.221  0.0000E+00  0.0000E+00  0.0000E+00
    -16.126  0.0000E+00  0.0000E+00  0.0000E+00
    -16.031  0.0000E+00  0.0000E+00  0.0000E+00
    -15.937  0.0000E+00  0.0000E+00  0.0000E+00
    -15.842  0.0000E+00  0.0000E+00  0.0000E+00
    -15.748  0.0000E+00  0.0000E+00  0.0000E+00
    -15.653  0.0000E+00  0.0000E+00  0.0000E+00
    -15.558  0.0000E+00  0.0000E+00  0.0000E+00
    -15.464  0.0000E+00  0.0000E+00  0.0000E+00
    -15.369  0.0000E+00  0.0000E+00  0.0000E+00
    -15.275  0.0000E+00  0.0000E+00  0.0000E+00
    -15.180  0.0000E+00  0.0000E+00  0.0000E+00
    -15.085  0.0000E+00  0.0000E+00  0.0000E+00
    -14.991  0.0000E+00  0.0000E+00  0.0000E+00
    -14.896  0.0000E+00  0.0000E+00  0.0000E+00
    -14.802  0.0000E+00  0.0000E+00  0.0000E+00
    -14.707  0.0000E+00  0.0000E+00  0.0000E+00
    -14.613  0.0000E+00  0.0000E+00  0.0000E+00
    -14.518  0.0000E+00  0.0000E+00  0.0000E+00
    -14.423  0.0000E+00  0.0000E+00  0.0000E+00
    -14.329  0.0000E+00  0.0000E+00  0.0000E+00
    -14.234  0.0000E+00  0.0000E+00  0.0000E+00
    -14.140  0.0000E+00  0.0000E+00  0.0000E+00
    -14.045  0.0000E+00  0.0000E+00  0.0000E+00
    -13.950  0.0000E+00  0.0000E+00  0.0000E+00
    -13.856  0.0000E+00  0.0000E+00  0.0000E+00
    -13.761  0.0000E+00  0.0000E+00  0.0000E+00
    -13.667  0.0000E+00  0.0000E+00  0.0000E+00
    -13.572  0.0000E+00  0.0000E+00  0.0000E+00
    -13.477  0.0000E+00  0.0000E+00  0.0000E+00
    -13.383  0.0000E+00  0.0000E+00  0.0000E+00
    -13.288  0.0000E+00  0.0000E+00  0.0000E+00
    -13.194  0.0000E+00  0.0000E+00  0.0000E+00
    -13.099  0.0000E+00  0.0000E+00  0.0000E+00
    -13.004  0.0000E+00  0.0000E+00  0.0000E+00
    -12.910  0.0000E+00  0.0000E+00  0.0000E+00
    -12.815  0.0000E+00  0.0000E+00  0.0000E+00
    -12.721  0.0000E+00  0.0000E+00  0.0000E+00
    -12.626  0.0000E+00  0.0000E+00  0.0000E+00
    -12.531  0.0000E+00  0.0000E+00  0.0000E+00
    -12.437  0.0000E+00  0.0000E+00  0.0000E+00
    -12.342  0.0000E+00  0.0000E+00  0.0000E+00
    -12.248  0.0000E+00  0.0000E+00  0.0000E+00
    -12.153  0.0000E+00  0.0000E+00  0.0000E+00
    -12.058  0.0000E+00  0.0000E+00  0.0000E+00
    -11.964  0.0000E+00  0.0000E+00  0.0000E+00
    -11.869  0.0000E+00  0.0000E+00  0.0000E+00
    -11.775  0.0000E+00  0.0000E+00  0.0000E+00
    -11.680  0.0000E+00  0.0000E+00  0.0000E+00
    -11.585  0.0000E+00  0.0000E+00  0.0000E+00
    -11.491  0.0000E+00  0.0000E+00  0.0000E+00
    -11.396  0.0000E+00  0.0000E+00  0.0000E+00
    -11.302  0.0000E+00  0.0000E+00  0.0000E+00
    -11.207  0.0000E+00  0.0000E+00  0.0000E+00
    -11.112  0.0000E+00  0.0000E+00  0.0000E+00
    -11.018  0.0000E+00  0.0000E+00  0.0000E+00
    -10.923  0.0000E+00  0.0000E+00  0.0000E+00
    -10.829  0.0000E+00  0.0000E+00  0.0000E+00
    -10.734  0.0000E+00  0.0000E+00  0.0000E+00
    -10.640  0.0000E+00  0.0000E+00  0.0000E+00
    -10.545  0.0000E+00  0.0000E+00  0.0000E+00
    -10.450  0.0000E+00  0.0000E+00  0.0000E+00
    -10.356  0.0000E+00  0.0000E+00  0.0000E+00
    -10.261  0.0000E+00  0.0000E+00  0.0000E+00
    -10.167  0.0000E+00  0.0000E+00  0.0000E+00
    -10.072  0.0000E+00  0.0000E+00  0.0000E+00
     -9.977  0.0000E+00  0.0000E+00  0.0000E+00
     -9.883  0.0000E+00  0.0000E+00  0.0000E+00
     -9.788  0.0000E+00  0.0000E+00  0.0000E+00
     -9.694  0.0000E+00  0.0000E+00  0.0000E+00
     -9.599  0.0000E+00  0.0000E+00  0.0000E+00
     -9.504  0.0000E+00  0.0000E+00  0.0000E+00
     -9.410  0.0000E+00  0.0000E+00  0.0000E+00
     -9.315  0.0000E+00  0.0000E+00  0.0000E+00
     -9.221  0.0000E+00  0.0000E+00  0.0000E+00
     -9.126  0.0000E+00  0.0000E+00  0.0000E+00
     -9.031  0.0000E+00  0.0000E+00  0.0000E+00
     -8.937 -0.5201E-33 -0.4323E-34 -0.6367E-36
     -8.842 -0.1913E-26 -0.1590E-27 -0.2343E-29
     -8.748 -0.1157E-20 -0.9621E-22 -0.1418E-23
     -8.653 -0.1110E-15 -0.9229E-17 -0.1363E-18
     -8.558 -0.1765E-11 -0.1467E-12 -0.2190E-14
     -8.464 -0.4471E-08 -0.3721E-09 -0.5820E-11
     -8.369 -0.1773E-05 -0.1482E-06 -0.2798E-08
     -8.275 -0.1080E-03 -0.9199E-05 -0.3022E-06
     -8.180 -0.8594E-03 -0.7881E-04 -0.6799E-05
     -8.085  0.5353E-02  0.4543E-03  0.1281E-04
     -7.991  0.3186E-01  0.2874E-02  0.1986E-03
     -7.896  0.2802E-01  0.2747E-02  0.4154E-03
     -7.802  0.4822E-01  0.5541E-02  0.1776E-02
     -7.707  0.3153E-01  0.3675E-02  0.1210E-02
     -7.612  0.2264E-01  0.3351E-02  0.2567E-02
     -7.518  0.6215E-01  0.9369E-02  0.7796E-02
     -7.423  0.3250E-01  0.5200E-02  0.4914E-02
     -7.329  0.1866E-01  0.3508E-02 -0.2092E-02
     -7.234  0.6396E-01  0.1337E-01  0.5327E-01
     -7.139  0.3810E-01  0.1142E-01  0.2690E+00
     -7.045  0.6551E-01  0.1786E-01  0.4511E+00
     -6.950  0.1698E+00  0.3330E-01  0.6950E+00
     -6.856  0.1995E+00  0.4416E-01  0.1352E+01
     -6.761  0.2089E+00  0.5115E-01  0.2148E+01
     -6.666  0.2178E+00  0.6765E-01  0.2765E+01
     -6.572  0.1671E+00  0.7732E-01  0.2851E+01
     -6.477  0.1033E+00  0.4800E-01  0.2136E+01
     -6.383  0.1170E+00  0.3263E-01  0.1640E+01
     -6.288  0.7119E-01  0.2875E-01  0.1847E+01
     -6.194  0.2494E-01  0.2079E-01  0.1617E+01
     -6.099  0.4575E-01  0.1867E-01  0.1920E+01
     -6.004  0.4147E-01  0.2483E-01  0.2685E+01
     -5.910  0.3459E-01  0.2942E-01  0.3622E+01
     -5.815  0.3662E-01  0.3266E-01  0.3501E+01
     -5.721  0.4262E-01  0.3473E-01  0.2976E+01
     -5.626  0.3625E-01  0.2073E-01  0.2229E+01
     -5.531  0.4116E-01  0.2905E-01  0.3752E+01
     -5.437  0.5667E-01  0.4347E-01  0.4775E+01
     -5.342  0.6284E-01  0.4143E-01  0.4180E+01
     -5.248  0.5798E-01  0.3586E-01  0.2953E+01
     -5.153  0.7559E-01  0.5119E-01  0.2936E+01
     -5.058  0.4972E-01  0.5539E-01  0.3790E+01
     -4.964  0.4165E-01  0.4398E-01  0.4209E+01
     -4.869  0.9515E-01  0.4052E-01  0.4641E+01
     -4.775  0.1021E+00  0.4767E-01  0.3892E+01
     -4.680  0.5642E-01  0.4797E-01  0.2915E+01
     -4.585  0.2790E-01  0.3719E-01  0.3187E+01
     -4.491  0.3057E-01  0.2881E-01  0.2896E+01
     -4.396  0.3356E-01  0.2626E-01  0.2596E+01
     -4.302  0.1526E-01  0.1699E-01  0.3279E+01
     -4.207  0.2588E-01  0.2104E-01  0.4951E+01
     -4.112  0.4374E-01  0.2201E-01  0.3264E+01
     -4.018  0.6192E-01  0.2102E-01  0.1546E+01
     -3.923  0.4583E-01  0.9270E-02  0.6356E+00
     -3.829  0.2466E-01  0.5903E-02  0.4535E-01
     -3.734  0.3709E-01  0.1607E-01  0.4934E-01
     -3.639  0.2525E-01  0.2425E-01  0.7396E-01
     -3.545  0.1563E-01  0.1922E-01  0.6229E-01
     -3.450  0.1302E-01  0.2049E-01  0.1274E+00
     -3.356  0.6733E-01  0.3191E-01  0.2223E+00
     -3.261  0.1035E+00  0.1331E-01  0.1113E+00
     -3.166  0.8051E-01  0.1553E-01  0.6490E-01
     -3.072  0.1368E+00  0.2442E-01  0.9376E-01
     -2.977  0.5866E-01  0.8011E-02  0.2836E-01
     -2.883  0.3847E-01  0.6363E-02  0.2939E-01
     -2.788  0.8574E-01  0.2050E-01  0.7336E-01
     -2.693  0.1009E+00  0.3310E-01  0.9900E-01
     -2.599  0.4086E-01  0.2344E-01  0.3847E-01
     -2.504  0.2477E-01  0.2816E-01  0.3087E-01
     -2.410  0.3678E-01  0.5140E-01  0.5940E-01
     -2.315  0.3051E-01  0.4440E-01  0.4092E-01
     -2.221  0.1358E-01  0.1363E-01  0.1428E-01
     -2.126  0.5945E-01  0.4448E-01  0.8195E-01
     -2.031  0.7755E-01  0.8388E-01  0.1043E+00
     -1.937  0.2886E-01  0.4957E-01  0.3845E-01
     -1.842  0.2343E-01  0.3574E-01  0.1356E-01
     -1.748  0.2602E-01  0.2520E-01  0.1736E-01
     -1.653  0.5368E-01  0.7423E-01  0.6068E-01
     -1.558  0.3695E-01  0.6496E-01  0.5967E-01
     -1.464  0.2941E-01  0.6121E-01  0.5109E-01
     -1.369  0.2025E-01  0.2747E-01  0.2273E-01
     -1.275  0.2198E-02  0.3465E-01  0.3633E-01
     -1.180  0.6168E-01  0.1210E+00  0.1193E+00
     -1.085  0.2047E+00  0.1473E+00  0.1027E+00
     -0.991  0.1251E+00  0.6931E-01  0.4137E-01
     -0.896  0.1056E+00  0.8990E-01  0.7745E-01
     -0.802  0.9411E-01  0.6925E-01  0.7663E-01
     -0.707  0.5865E-01  0.4752E-01  0.5266E-01
     -0.612  0.6527E-01  0.5040E-01  0.5508E-01
     -0.518  0.3422E-01  0.1648E-01  0.2437E-01
     -0.423  0.5509E-01  0.1865E-01  0.2512E-01
     -0.329  0.1506E+00  0.8378E-01  0.9156E-01
     -0.234  0.4893E-01  0.6324E-01  0.1040E+00
     -0.139  0.2868E-01  0.2896E-01  0.6845E-01
     -0.045  0.3738E-01  0.9484E-01  0.9686E-01
      0.050  0.8678E-02  0.7921E-01  0.6089E-01
      0.144  0.4403E-02  0.6848E-01  0.1783E-01
      0.239  0.6509E-01  0.1991E+00  0.6910E-01
      0.334  0.3662E-01  0.1798E+00  0.3915E-01
      0.428  0.1931E-02  0.1138E+00  0.2359E-02
      0.523  0.2475E-01  0.1102E+00  0.2114E-01
      0.617  0.1692E-01  0.9672E-01  0.2622E-01
      0.712  0.2296E-01  0.1438E+00  0.4507E-01
      0.807  0.1444E-01  0.6618E-01  0.2124E-01
      0.901  0.2527E-01  0.7640E-01  0.3547E-01
      0.996  0.1732E-01  0.1247E+00  0.3614E-01
      1.090  0.7305E-02  0.9727E-01  0.2887E-01
      1.185  0.2095E-01  0.5661E-01  0.1789E-01
      1.280  0.7178E-01  0.2325E+00  0.1007E+00
      1.374  0.3816E-01  0.1829E+00  0.7856E-01
      1.469  0.1965E-02  0.1549E-01  0.6512E-02
      1.563  0.2308E-01  0.3180E-01  0.2158E-01
      1.658  0.3744E-01  0.7177E-01  0.4186E-01
      1.752  0.5968E-01  0.1221E+00  0.6201E-01
      1.847  0.6324E-01  0.8608E-01  0.5502E-01
      1.942  0.4102E-02  0.4576E-02  0.7117E-02
      2.036  0.3416E-02  0.5375E-01  0.4334E-01
      2.131  0.1802E-02  0.3462E-01  0.3089E-01
      2.225  0.1070E-01  0.1131E-01  0.1753E-01
      2.320  0.2857E-01  0.5335E-01  0.2470E-01
      2.415  0.3353E-01  0.7661E-01  0.3242E-01
      2.509  0.2182E-01  0.8017E-01  0.4779E-01
      2.604  0.2526E-01  0.1245E+00  0.6836E-01
      2.698  0.4986E-01  0.8203E-01  0.5367E-01
      2.793  0.3466E-01  0.6501E-01  0.5180E-01
      2.888 -0.3030E-02  0.1829E-01  0.2618E-01
      2.982  0.1013E+00  0.1677E-01  0.4182E-01
      3.077  0.2197E+00  0.1752E-01  0.3328E-01
      3.171  0.1029E+00  0.1683E-01  0.3640E-01
      3.266  0.5811E-01  0.9099E-01  0.1138E+00
      3.361  0.1113E+00  0.9741E-01  0.8559E-01
      3.455  0.1706E+00  0.7894E-01  0.7836E-01
      3.550  0.1340E+00  0.6643E-01  0.9161E-01
      3.644  0.6671E-01  0.4205E-01  0.5290E-01
      3.739  0.8954E-01  0.9233E-01  0.5658E-01
      3.834  0.6458E-01  0.4686E-01  0.4665E-01
      3.928  0.1511E+00  0.8762E-01  0.6694E-01
      4.023  0.2461E+00  0.1730E+00  0.8596E-01
      4.117  0.7646E-01  0.9731E-01  0.3126E-01
      4.212  0.8797E-01  0.1144E+00  0.3647E-01
      4.307  0.7738E-01  0.7513E-01  0.3400E-01
      4.401  0.3499E-01  0.6334E-01  0.6353E-01
      4.496  0.1219E+00  0.1552E+00  0.1077E+00
      4.590  0.1383E+00  0.1692E+00  0.6979E-01
      4.685  0.3840E-01  0.4228E-01  0.1791E-01
      4.780  0.3518E-01  0.5630E-01  0.3793E-01
      4.874  0.9928E-01  0.1610E+00  0.9683E-01
      4.969  0.5793E-01  0.9121E-01  0.4373E-01
      5.063  0.3412E-01  0.7041E-01  0.4026E-01
      5.158  0.5291E-01  0.8154E-01  0.4455E-01
      5.253  0.8769E-01  0.1099E+00  0.5649E-01
      5.347  0.4954E-01  0.8522E-01  0.4328E-01
      5.442  0.3628E-01  0.8294E-01  0.3399E-01
      5.536  0.6119E-01  0.1576E+00  0.5607E-01
      5.631  0.7747E-01  0.2010E+00  0.7621E-01
      5.725  0.4507E-01  0.1132E+00  0.7081E-01
      5.820  0.6856E-01  0.1180E+00  0.5379E-01
      5.915  0.8394E-01  0.1568E+00  0.5414E-01
      6.009  0.7479E-01  0.1442E+00  0.5815E-01
      6.104  0.1124E+00  0.1380E+00  0.8617E-01
      6.198  0.3211E-01  0.6078E-01  0.4910E-01
      6.293  0.4798E-02  0.6346E-01  0.3345E-01
      6.388  0.5736E-02  0.5655E-01  0.2218E-01
      6.482  0.3656E-01  0.5397E-01  0.2059E-01
      6.577  0.1088E+00  0.1211E+00  0.6496E-01
      6.671  0.1326E+00  0.1256E+00  0.9832E-01
      6.766  0.4887E-01  0.8851E-01  0.5141E-01
      6.861  0.9793E-01  0.1387E+00  0.1148E+00
      6.955  0.8312E-01  0.1200E+00  0.9883E-01
      7.050  0.5532E-01  0.6030E-01  0.3684E-01
      7.144  0.4646E-01  0.5136E-01  0.1784E-01
      7.239  0.5488E-01  0.7147E-01  0.2612E-01
      7.334  0.3262E-01  0.7570E-01  0.2392E-01
      7.428  0.6117E-02  0.2846E-01  0.1200E-01
      7.523  0.3085E-03 -0.1746E-02  0.4818E-03
      7.617 -0.2558E-03 -0.5949E-03 -0.3497E-03
      7.712 -0.1084E-04 -0.1332E-04 -0.1359E-04
      7.807 -0.5660E-07 -0.4873E-07 -0.6859E-07
      7.901 -0.4426E-10 -0.3067E-10 -0.5279E-10
      7.996 -0.5462E-14 -0.3260E-14 -0.6456E-14
      8.090  0.0000E+00  0.0000E+00  0.0000E+00
      8.185  0.0000E+00  0.0000E+00  0.0000E+00
      8.280  0.0000E+00  0.0000E+00  0.0000E+00
      8.374  0.0000E+00  0.0000E+00  0.0000E+00
      8.469  0.0000E+00  0.0000E+00  0.0000E+00
      8.563  0.0000E+00  0.0000E+00  0.0000E+00
      8.658  0.0000E+00  0.0000E+00  0.0000E+00
      8.65794898    -19.72065808  301     -1.18499911      1.00000000
    -19.721  0.0000E+00  0.0000E+00  0.0000E+00
    -19.626  0.0000E+00  0.0000E+00  0.0000E+00
    -19.531  0.0000E+00  0.0000E+00  0.0000E+00
    -19.437  0.0000E+00  0.0000E+00  0.0000E+00
    -19.342  0.0000E+00  0.0000E+00  0.0000E+00
    -19.248 -0.1010E-35 -0.1080E-35 -0.5468E-36
    -19.153 -0.2000E-29 -0.2150E-29 -0.1120E-29
    -19.058 -0.6515E-24 -0.7045E-24 -0.3776E-24
    -18.964 -0.3352E-19 -0.3649E-19 -0.2014E-19
    -18.869 -0.2848E-15 -0.3124E-15 -0.1777E-15
    -18.775 -0.3804E-12 -0.4207E-12 -0.2467E-12
    -18.680 -0.7513E-10 -0.8392E-10 -0.5084E-10
    -18.586 -0.1710E-08 -0.1936E-08 -0.1223E-08
    -18.491  0.6496E-08  0.7218E-08  0.4311E-08
    -18.396  0.5154E-07  0.5883E-07  0.3795E-07
    -18.302  0.2198E-07  0.2555E-07  0.1724E-07
    -18.207 -0.2360E-08 -0.2695E-08 -0.1742E-08
    -18.113 -0.3029E-09 -0.3549E-09 -0.2439E-09
    -18.018 -0.3148E-11 -0.3744E-11 -0.2657E-11
    -17.923 -0.4617E-14 -0.5573E-14 -0.4071E-14
    -17.829 -0.1049E-17 -0.1285E-17 -0.9649E-18
    -17.734 -0.4165E-22 -0.5123E-22 -0.3912E-22
    -17.640  0.0000E+00  0.0000E+00  0.0000E+00
    -17.545  0.0000E+00  0.0000E+00  0.0000E+00
    -17.450  0.0000E+00  0.0000E+00  0.0000E+00
    -17.356  0.0000E+00  0.0000E+00  0.0000E+00
    -17.261  0.0000E+00  0.0000E+00  0.0000E+00
    -17.167  0.0000E+00  0.0000E+00  0.0000E+00
    -17.072  0.0000E+00  0.0000E+00  0.0000E+00
    -16.977  0.0000E+00  0.0000E+00  0.0000E+00
    -16.883  0.0000E+00  0.0000E+00  0.0000E+00
    -16.788  0.0000E+00  0.0000E+00  0.0000E+00
    -16.694  0.0000E+00  0.0000E+00  0.0000E+00
    -16.599  0.0000E+00  0.0000E+00  0.0000E+00
    -16.504  0.0000E+00  0.0000E+00  0.0000E+00
    -16.410  0.0000E+00  0.0000E+00  0.0000E+00
    -16.315  0.0000E+00  0.0000E+00  0.0000E+00
    -16.221  0.0000E+00  0.0000E+00  0.0000E+00
    -16.126  0.0000E+00  0.0000E+00  0.0000E+00
    -16.031  0.0000E+00  0.0000E+00  0.0000E+00
    -15.937  0.0000E+00  0.0000E+00  0.0000E+00
    -15.842  0.0000E+00  0.0000E+00  0.0000E+00
    -15.748  0.0000E+00  0.0000E+00  0.0000E+00
    -15.653  0.0000E+00  0.0000E+00  0.0000E+00
    -15.558  0.0000E+00  0.0000E+00  0.0000E+00
    -15.464  0.0000E+00  0.0000E+00  0.0000E+00
    -15.369  0.0000E+00  0.0000E+00  0.0000E+00
    -15.275  0.0000E+00  0.0000E+00  0.0000E+00
    -15.180  0.0000E+00  0.0000E+00  0.0000E+00
    -15.085  0.0000E+00  0.0000E+00  0.0000E+00
    -14.991  0.0000E+00  0.0000E+00  0.0000E+00
    -14.896  0.0000E+00  0.0000E+00  0.0000E+00
    -14.802  0.0000E+00  0.0000E+00  0.0000E+00
    -14.707  0.0000E+00  0.0000E+00  0.0000E+00
    -14.613  0.0000E+00  0.0000E+00  0.0000E+00
    -14.518  0.0000E+00  0.0000E+00  0.0000E+00
    -14.423  0.0000E+00  0.0000E+00  0.0000E+00
    -14.329  0.0000E+00  0.0000E+00  0.0000E+00
    -14.234  0.0000E+00  0.0000E+00  0.0000E+00
    -14.140  0.0000E+00  0.0000E+00  0.0000E+00
    -14.045  0.0000E+00  0.0000E+00  0.0000E+00
    -13.950  0.0000E+00  0.0000E+00  0.0000E+00
    -13.856  0.0000E+00  0.0000E+00  0.0000E+00
    -13.761  0.0000E+00  0.0000E+00  0.0000E+00
    -13.667  0.0000E+00  0.0000E+00  0.0000E+00
    -13.572  0.0000E+00  0.0000E+00  0.0000E+00
    -13.477  0.0000E+00  0.0000E+00  0.0000E+00
    -13.383  0.0000E+00  0.0000E+00  0.0000E+00
    -13.288  0.0000E+00  0.0000E+00  0.0000E+00
    -13.194  0.0000E+00  0.0000E+00  0.0000E+00
    -13.099  0.0000E+00  0.0000E+00  0.0000E+00
    -13.004  0.0000E+00  0.0000E+00  0.0000E+00
    -12.910  0.0000E+00  0.0000E+00  0.0000E+00
    -12.815  0.0000E+00  0.0000E+00  0.0000E+00
    -12.721  0.0000E+00  0.0000E+00  0.0000E+00
    -12.626  0.0000E+00  0.0000E+00  0.0000E+00
    -12.531  0.0000E+00  0.0000E+00  0.0000E+00
    -12.437  0.0000E+00  0.0000E+00  0.0000E+00
    -12.342  0.0000E+00  0.0000E+00  0.0000E+00
    -12.248  0.0000E+00  0.0000E+00  0.0000E+00
    -12.153  0.0000E+00  0.0000E+00  0.0000E+00
    -12.058  0.0000E+00  0.0000E+00  0.0000E+00
    -11.964  0.0000E+00  0.0000E+00  0.0000E+00
    -11.869  0.0000E+00  0.0000E+00  0.0000E+00
    -11.775  0.0000E+00  0.0000E+00  0.0000E+00
    -11.680  0.0000E+00  0.0000E+00  0.0000E+00
    -11.585  0.0000E+00  0.0000E+00  0.0000E+00
    -11.491  0.0000E+00  0.0000E+00  0.0000E+00
    -11.396  0.0000E+00  0.0000E+00  0.0000E+00
    -11.302  0.0000E+00  0.0000E+00  0.0000E+00