       N       E                     dE             d eps       ncg     rms          rms(c)
DAV:   1     0.740529523359E+03    0.74053E+03   -0.52756E+04  2304   0.973E+02
DAV:   2    -0.792156784213E+01   -0.74845E+03   -0.70625E+03  2640   0.233E+02
DAV:   3    -0.403654455661E+02   -0.32444E+02   -0.31812E+02  2784   0.485E+01
DAV:   4    -0.408322146271E+02   -0.46677E+00   -0.46668E+00  2496   0.625E+00
DAV:   5    -0.408396799329E+02   -0.74653E-02   -0.74651E-02  3072   0.785E-01    0.191E+01
DAV:   6    -0.379999596850E+02    0.28397E+01   -0.28234E+01  3408   0.257E+01    0.190E+01
DAV:   7    -0.363543117599E+02    0.16456E+01   -0.48342E+01  2856   0.209E+01    0.110E+01
DAV:   8    -0.352704993933E+02    0.10838E+01   -0.53314E+00  2592   0.129E+01    0.468E+00
DAV:   9    -0.353875890725E+02   -0.11709E+00   -0.22861E+00  2592   0.781E+00    0.361E+00
DAV:  10    -0.352566261071E+02    0.13096E+00   -0.40961E-01  2760   0.358E+00    0.163E+00
DAV:  11    -0.352342946206E+02    0.22331E-01   -0.15823E-01  2616   0.108E+00    0.366E-01
DAV:  12    -0.352355664865E+02   -0.12719E-02   -0.22524E-02  2520   0.626E-01    0.219E-01
DAV:  13    -0.352365101233E+02   -0.94364E-03   -0.14028E-03  2664   0.150E-01    0.149E-01
DAV:  14    -0.352367864912E+02   -0.27637E-03   -0.11437E-03  2328   0.156E-01    0.455E-02
DAV:  15    -0.352371469064E+02   -0.36042E-03   -0.27316E-04  2400   0.900E-02    0.158E-02
DAV:  16    -0.352372811363E+02   -0.13423E-03   -0.75753E-05  1896   0.297E-02    0.161E-02
DAV:  17    -0.352374434438E+02   -0.16231E-03   -0.37263E-05  1848   0.180E-02    0.493E-03
DAV:  18    -0.352375638125E+02   -0.12037E-03   -0.16369E-05  1800   0.901E-03    0.378E-03
DAV:  19    -0.352376164980E+02   -0.52685E-04   -0.41969E-06  1656   0.576E-03
   1 F= -.35237616E+02 E0= -.35236326E+02  d E =-.387103E-02
