 vasp.5.4.1 05Feb16 (build Feb 08 2018 09:21:51) complex                        
  
 executed on             LinuxIFC date 2019.11.21  23:49:26
 running on   24 total cores
 distrk:  each k-point on   24 cores,    1 groups
 distr:  one band on NCORES_PER_BAND=   1 cores,   24 groups


--------------------------------------------------------------------------------------------------------


 INCAR:
 POTCAR:    PAW_PBE Ag 02Apr2005                  
 POTCAR:    PAW_PBE O 08Apr2002                   

 ----------------------------------------------------------------------------- 
|                                                                             |
|           W    W    AA    RRRRR   N    N  II  N    N   GGGG   !!!           |
|           W    W   A  A   R    R  NN   N  II  NN   N  G    G  !!!           |
|           W    W  A    A  R    R  N N  N  II  N N  N  G       !!!           |
|           W WW W  AAAAAA  RRRRR   N  N N  II  N  N N  G  GGG   !            |
|           WW  WW  A    A  R   R   N   NN  II  N   NN  G    G                |
|           W    W  A    A  R    R  N    N  II  N    N   GGGG   !!!           |
|                                                                             |
|      For optimal performance we recommend to set                            |
|        NCORE= 4 - approx SQRT( number of cores)                             |
|      NCORE specifies how many cores store one orbital (NPAR=cpu/NCORE).     |
|      This setting can  greatly improve the performance of VASP for DFT.     |
|      The default, NPAR=number of cores might be grossly inefficient         |
|      on modern multi-core architectures or massively parallel machines.     |
|      Do your own testing !!!!                                               |
|      Unfortunately you need to use the default for GW and RPA calculations. |
|      (for HF NCORE is supported but not extensively tested yet)             |
|                                                                             |
 ----------------------------------------------------------------------------- 

 POTCAR:    PAW_PBE Ag 02Apr2005                  
   VRHFIN =Ag : s1 d10                                                          
   LEXCH  = PE                                                                  
   EATOM  =  1037.2675 eV,   76.2370 Ry                                         
                                                                                
   TITEL  = PAW_PBE Ag 02Apr2005                                                
   LULTRA =        F    use ultrasoft PP ?                                      
   IUNSCR =        1    unscreen: 0-lin 1-nonlin 2-no                           
   RPACOR =    2.000    partial core radius                                     
   POMASS =  107.868; ZVAL   =   11.000    mass and valenz                      
   RCORE  =    2.500    outmost cutoff radius                                   
   RWIGS  =    2.840; RWIGS  =    1.503    wigner-seitz radius (au A)           
   ENMAX  =  249.844; ENMIN  =  187.383 eV                                      
   ICORE  =        3    local potential                                         
   LCOR   =        T    correct aug charges                                     
   LPAW   =        T    paw PP                                                  
   EAUG   =  412.496                                                            
   DEXC   =    0.000                                                            
   RMAX   =    2.560    core radius for proj-oper                               
   RAUG   =    1.300    factor for augmentation sphere                          
   RDEP   =    2.576    radius for radial grids                                 
   RDEPT  =    2.072    core radius for aug-charge                              
                                                                                
   Atomic configuration                                                         
   12 entries                                                                   
     n  l   j            E        occ.                                          
     1  0  0.50    -25324.9161   2.0000                                         
     2  0  0.50     -3728.5341   2.0000                                         
     2  1  1.50     -3344.0404   6.0000                                         
     3  0  0.50      -683.5581   2.0000                                         
     3  1  1.50      -557.3225   6.0000                                         
     3  2  2.50      -358.3853  10.0000                                         
     4  0  0.50       -95.0341   2.0000                                         
     4  1  1.50       -58.5511   6.0000                                         
     4  2  2.50        -7.4440  10.0000                                         
     5  0  0.50        -4.4045   1.0000                                         
     5  1  0.50        -1.3606   0.0000                                         
     4  3  2.50        -1.3606   0.0000                                         
   Description                                                                  
     l       E           TYP  RCUT    TYP  RCUT                                 
     2     -7.4439781     23  2.400                                             
     2     -8.8045607     23  2.400                                             
     0     -4.4044681     23  2.400                                             
     0      1.9520038     23  2.400                                             
     1     -1.3605826     23  2.500                                             
     1     27.2116520     23  2.500                                             
     3     -4.0817478     23  2.400                                             
  local pseudopotential read in
  partial core-charges read in
  partial kinetic energy density read in
  atomic valenz-charges read in
  non local Contribution for L=           2  read in
    real space projection operators read in
  non local Contribution for L=           2  read in
    real space projection operators read in
  non local Contribution for L=           0  read in
    real space projection operators read in
  non local Contribution for L=           0  read in
    real space projection operators read in
  non local Contribution for L=           1  read in
    real space projection operators read in
  non local Contribution for L=           1  read in
    real space projection operators read in
    PAW grid and wavefunctions read in
 
   number of l-projection  operators is LMAX  =           6
   number of lm-projection operators is LMMAX =          18
 
 POTCAR:    PAW_PBE O 08Apr2002                   
   VRHFIN =O: s2p4                                                              
   LEXCH  = PE                                                                  
   EATOM  =   432.3788 eV,   31.7789 Ry                                         
                                                                                
   TITEL  = PAW_PBE O 08Apr2002                                                 
   LULTRA =        F    use ultrasoft PP ?                                      
   IUNSCR =        1    unscreen: 0-lin 1-nonlin 2-no                           
   RPACOR =    1.200    partial core radius                                     
   POMASS =   16.000; ZVAL   =    6.000    mass and valenz                      
   RCORE  =    1.520    outmost cutoff radius                                   
   RWIGS  =    1.550; RWIGS  =    0.820    wigner-seitz radius (au A)           
   ENMAX  =  400.000; ENMIN  =  300.000 eV                                      
   ICORE  =        2    local potential                                         
   LCOR   =        T    correct aug charges                                     
   LPAW   =        T    paw PP                                                  
   EAUG   =  605.392                                                            
   DEXC   =    0.000                                                            
   RMAX   =    1.553    core radius for proj-oper                               
   RAUG   =    1.300    factor for augmentation sphere                          
   RDEP   =    1.550    radius for radial grids                                 
   RDEPT  =    1.329    core radius for aug-charge                              
                                                                                
   Atomic configuration                                                         
    4 entries                                                                   
     n  l   j            E        occ.                                          
     1  0  0.50      -514.6923   2.0000                                         
     2  0  0.50       -23.9615   2.0000                                         
     2  1  0.50        -9.0305   4.0000                                         
     3  2  1.50        -9.5241   0.0000                                         
   Description                                                                  
     l       E           TYP  RCUT    TYP  RCUT                                 
     0    -23.9615318     23  1.200                                             
     0     -9.5240782     23  1.200                                             
     1     -9.0304911     23  1.520                                             
     1      8.1634956     23  1.520                                             
     2     -9.5240782      7  1.500                                             
  local pseudopotential read in
  partial core-charges read in
  partial kinetic energy density read in
  kinetic energy density of atom read in
  atomic valenz-charges read in
  non local Contribution for L=           0  read in
    real space projection operators read in
  non local Contribution for L=           0  read in
    real space projection operators read in
  non local Contribution for L=           1  read in
    real space projection operators read in
  non local Contribution for L=           1  read in
    real space projection operators read in
    PAW grid and wavefunctions read in
 
   number of l-projection  operators is LMAX  =           4
   number of lm-projection operators is LMMAX =           8
 
  PAW_PBE Ag 02Apr2005                  :
 energy of atom  1       EATOM=-1037.2675
 kinetic energy error for atom=    0.0091 (will be added to EATOM!!)
  PAW_PBE O 08Apr2002                   :
 energy of atom  2       EATOM= -432.3788
 kinetic energy error for atom=    0.1156 (will be added to EATOM!!)
 
 
 POSCAR: Ag  O                                   
  positions in cartesian coordinates
  No initial velocities read in
 exchange correlation table for  LEXCH =        8
   RHO(1)=    0.500       N(1)  =     2000
   RHO(2)=  100.500       N(2)  =     4000
 


--------------------------------------------------------------------------------------------------------


 ion  position               nearest neighbor table
   1  0.167  0.167  0.405-   6 2.89   5 2.89   8 2.89   2 2.93   3 2.93   4 2.93   4 2.93   2 2.93
                             3 2.93
   2  0.667  0.166  0.404-   6 2.92   5 2.92   3 2.93   4 2.93   1 2.93   1 2.93   3 2.94   4 2.94
                             7 2.96
   3  0.166  0.667  0.404-   6 2.92   8 2.92   4 2.93   2 2.93   1 2.93   1 2.93   4 2.94   2 2.94
                             7 2.96
   4  0.667  0.667  0.404-   8 2.92   5 2.92   3 2.93   2 2.93   1 2.93   1 2.93   3 2.94   2 2.94
                             7 2.96
   5  0.834  0.333  0.500-  12 2.86   1 2.89   4 2.92   2 2.92   6 2.93   8 2.93   7 2.93   7 2.93
                             6 2.94   8 2.94   9 2.97  11 2.97
   6  0.333  0.333  0.500-  12 2.86   1 2.89   2 2.92   3 2.92   5 2.93   8 2.93   7 2.93   7 2.93
                             5 2.94   8 2.94  11 2.97  10 2.97
   7  0.833  0.833  0.501-  10 2.87  11 2.87   9 2.87   8 2.93   5 2.93   6 2.93   6 2.93   8 2.93
                             5 2.93   3 2.96   4 2.96   2 2.96
   8  0.333  0.834  0.500-  12 2.86   1 2.89   4 2.92   3 2.92   6 2.93   5 2.93   7 2.93   7 2.93
                             5 2.94   6 2.94   9 2.97  10 2.97
   9  0.992  0.992  0.597-  13 2.13  10 2.80  11 2.80   7 2.87  12 2.94  12 2.94   8 2.97   5 2.97
                            10 3.07  11 3.07
  10  0.515  0.992  0.597-  13 2.13   9 2.80  11 2.80   7 2.87  12 2.94  12 2.94   6 2.97   8 2.97
                             9 3.07  11 3.07
  11  0.992  0.515  0.597-  13 2.13  10 2.80   9 2.80   7 2.87  12 2.94  12 2.94   6 2.97   5 2.97
                            10 3.07   9 3.07
  12  0.500  0.500  0.593-   5 2.86   6 2.86   8 2.86  11 2.94  10 2.94   9 2.94   9 2.94  11 2.94
                            10 2.94
  13  0.167  0.167  0.645-   9 2.13  10 2.13  11 2.13
 
  LATTYP: Found a hexagonal cell.
 ALAT       =     5.8647436409
 C/A-ratio  =     4.2267053170
  
  Lattice vectors:
  
 A1 = (   2.9323718200,  -5.0790169800,   0.0000000000)
 A2 = (  -5.8647436400,   0.0000000000,   0.0000000000)
 A3 = (   0.0000000000,   0.0000000000, -24.7885431300)


Analysis of symmetry for initial positions (statically):
=====================================================================
 Subroutine PRICEL returns:
 Original cell was already a primitive cell.
 

 Routine SETGRP: Setting up the symmetry group for a 
 hexagonal supercell.


 Subroutine GETGRP returns: Found  6 space group operations
 (whereof  2 operations were pure point group operations)
 out of a pool of 24 trial point group operations.


The static configuration has the point symmetry C_1h.
 The point group associated with its full space group is C_3v.


Analysis of symmetry for dynamics (positions and initial velocities):
=====================================================================
 Subroutine PRICEL returns:
 Original cell was already a primitive cell.
 

 Routine SETGRP: Setting up the symmetry group for a 
 hexagonal supercell.


 Subroutine GETGRP returns: Found  6 space group operations
 (whereof  2 operations were pure point group operations)
 out of a pool of 24 trial point group operations.


The dynamic configuration has the point symmetry C_1h.
 The point group associated with its full space group is C_3v.


 Subroutine INISYM returns: Found  6 space group operations
 (whereof  2 operations are pure point group operations),
 and found     1 'primitive' translations

 
 
 KPOINTS: KPOINTS created by Atomic Simulation Env

Automatic generation of k-mesh.
Space group operators:
 irot       det(A)        alpha          n_x          n_y          n_z        tau_x        tau_y        tau_z
    1     1.000000     0.000000     1.000000     0.000000     0.000000     0.000000     0.000000     0.000000
    2    -1.000000   180.000000     0.500000    -0.866025     0.000000     0.000000     0.000000     0.000000
    3     1.000000   120.000000     0.000000     0.000000     1.000000    -0.000000    -0.500000     0.000000
    4     1.000000   120.000000     0.000000     0.000000    -1.000000    -0.500000     0.000000     0.000000
    5    -1.000000   180.000000     1.000000     0.000000     0.000000    -0.500000     0.000000     0.000000
    6    -1.000000   180.000000    -0.500000    -0.866025     0.000000    -0.000000    -0.500000     0.000000
 
 Subroutine IBZKPT returns following result:
 ===========================================
 
 Found     12 irreducible k-points:
 
 Following reciprocal coordinates:
            Coordinates               Weight
  0.000000  0.000000  0.000000      1.000000
  0.111111  0.000000  0.000000      6.000000
  0.222222 -0.000000  0.000000      6.000000
  0.333333 -0.000000  0.000000      6.000000
  0.444444 -0.000000  0.000000      6.000000
  0.222222  0.111111  0.000000      6.000000
  0.333333  0.111111  0.000000     12.000000
  0.444444  0.111111  0.000000     12.000000
 -0.444444  0.111111  0.000000      6.000000
  0.444444  0.222222  0.000000      6.000000
 -0.444444  0.222222  0.000000     12.000000
 -0.333333  0.333333  0.000000      2.000000
 
 Following cartesian coordinates:
            Coordinates               Weight
  0.000000  0.000000  0.000000      1.000000
  0.018946 -0.010938  0.000000      6.000000
  0.037891 -0.021876  0.000000      6.000000
  0.056837 -0.032815  0.000000      6.000000
  0.075782 -0.043753  0.000000      6.000000
  0.037891 -0.000000  0.000000      6.000000
  0.056837 -0.010938  0.000000     12.000000
  0.075782 -0.021876  0.000000     12.000000
 -0.075782  0.065629  0.000000      6.000000
  0.075782  0.000000  0.000000      6.000000
 -0.075782  0.087506  0.000000     12.000000
 -0.056837  0.098444  0.000000      2.000000
 


--------------------------------------------------------------------------------------------------------




 Dimension of arrays:
   k-points           NKPTS =     12   k-points in BZ     NKDIM =     12   number of bands    NBANDS=     96
   number of dos      NEDOS =    301   number of ions     NIONS =     13
   non local maximal  LDIM  =      6   non local SUM 2l+1 LMDIM =     18
   total plane-waves  NPLWV = 113400
   max r-space proj   IRMAX =      1   max aug-charges    IRDMAX=   7750
   dimension x,y,z NGX =    30 NGY =   30 NGZ =  126
   dimension x,y,z NGXF=    60 NGYF=   60 NGZF=  252
   support grid    NGXF=    60 NGYF=   60 NGZF=  252
   ions per type =              12   1
 NGX,Y,Z   is equivalent  to a cutoff of   8.50,  8.50,  8.45 a.u.
 NGXF,Y,Z  is equivalent  to a cutoff of  17.01, 17.01, 16.90 a.u.


 I would recommend the setting:
   dimension x,y,z NGX =    29 NGY =   29 NGZ =  121
 SYSTEM =  unknown system                          
 POSCAR =  Ag  O                                   

 Startparameter for this run:
   NWRITE =      2    write-flag & timer
   PREC   = normal    normal or accurate (medium, high low for compatibility)
   ISTART =      0    job   : 0-new  1-cont  2-samecut
   ICHARG =      2    charge: 1-file 2-atom 10-const
   ISPIN  =      1    spin polarized calculation?
   LNONCOLLINEAR =      F non collinear calculations
   LSORBIT =      F    spin-orbit coupling
   INIWAV =      1    electr: 0-lowe 1-rand  2-diag
   LASPH  =      F    aspherical Exc in radial PAW
   METAGGA=      F    non-selfconsistent MetaGGA calc.

 Electronic Relaxation 1
   ENCUT  =  400.0 eV  29.40 Ry    5.42 a.u.   9.56  9.56 40.42*2*pi/ulx,y,z
   ENINI  =  400.0     initial cutoff
   ENAUG  =  605.4 eV  augmentation charge cutoff
   NELM   =     60;   NELMIN=  2; NELMDL= -5     # of ELM steps 
   EDIFF  = 0.1E-03   stopping-criterion for ELM
   LREAL  =      F    real-space projection
   NLSPLINE    = F    spline interpolate recip. space projectors
   LCOMPAT=      F    compatible to vasp.4.4
   GGA_COMPAT  = T    GGA compatible to vasp.4.4-vasp.4.6
   LMAXPAW     = -100 max onsite density
   LMAXMIX     =    2 max onsite mixed and CHGCAR
   VOSKOWN=      0    Vosko Wilk Nusair interpolation
   ROPT   =    0.00000   0.00000
 Ionic relaxation
   EDIFFG = 0.1E-02   stopping-criterion for IOM
   NSW    =      0    number of steps for IOM
   NBLOCK =      1;   KBLOCK =      1    inner block; outer block 
   IBRION =     -1    ionic relax: 0-MD 1-quasi-New 2-CG
   NFREE  =      0    steps in history (QN), initial steepest desc. (CG)
   ISIF   =      2    stress and relaxation
   IWAVPR =     10    prediction:  0-non 1-charg 2-wave 3-comb
   ISYM   =      2    0-nonsym 1-usesym 2-fastsym
   LCORR  =      T    Harris-Foulkes like correction to forces

   POTIM  = 0.5000    time-step for ionic-motion
   TEIN   =    0.0    initial temperature
   TEBEG  =    0.0;   TEEND  =   0.0 temperature during run
   SMASS  =  -3.00    Nose mass-parameter (am)
   estimated Nose-frequenzy (Omega)   =  0.10E-29 period in steps =****** mass=  -0.786E-27a.u.
   SCALEE = 1.0000    scale energy and forces
   NPACO  =    256;   APACO  = 16.0  distance and # of slots for P.C.
   PSTRESS=    0.0 pullay stress

  Mass of Ions in am
   POMASS = 107.87 16.00
  Ionic Valenz
   ZVAL   =  11.00  6.00
  Atomic Wigner-Seitz radii
   RWIGS  =  -1.00 -1.00
  virtual crystal weights 
   VCA    =   1.00  1.00
   NELECT =     138.0000    total number of electrons
   NUPDOWN=      -1.0000    fix difference up-down

 DOS related values:
   EMIN   =  10.00;   EMAX   =-10.00  energy-range for DOS
   EFERMI =   0.00
   ISMEAR =     1;   SIGMA  =   0.10  broadening in eV -4-tet -1-fermi 0-gaus

 Electronic relaxation 2 (details)
   IALGO  =     38    algorithm
   LDIAG  =      T    sub-space diagonalisation (order eigenvalues)
   LSUBROT=      F    optimize rotation matrix (better conditioning)
   TURBO    =      0    0=normal 1=particle mesh
   IRESTART =      0    0=no restart 2=restart with 2 vectors
   NREBOOT  =      0    no. of reboots
   NMIN     =      0    reboot dimension
   EREF     =   0.00    reference energy to select bands
   IMIX   =      4    mixing-type and parameters
     AMIX     =   0.40;   BMIX     =  1.00
     AMIX_MAG =   1.60;   BMIX_MAG =  1.00
     AMIN     =   0.10
     WC   =   100.;   INIMIX=   1;  MIXPRE=   1;  MAXMIX= -45

 Intra band minimization:
   WEIMIN = 0.0000     energy-eigenvalue tresh-hold
   EBREAK =  0.26E-06  absolut break condition
   DEPER  =   0.30     relativ break condition  

   TIME   =   0.40     timestep for ELM

  volume/ion in A,a.u.               =      56.80       383.29
  Fermi-wavevector in a.u.,A,eV,Ry     =   0.935997  1.768779 11.919943  0.876091
  Thomas-Fermi vector in A             =   2.062962
 
 Write flags
   LWAVE  =      F    write WAVECAR
   LCHARG =      F    write CHGCAR
   LVTOT  =      F    write LOCPOT, total local potential
   LVHAR  =      F    write LOCPOT, Hartree potential only
   LELF   =      F    write electronic localiz. function (ELF)
   LORBIT =     10    0 simple, 1 ext, 2 COOP (PROOUT)


 Dipole corrections
   LMONO  =      F    monopole corrections only (constant potential shift)
   LDIPOL =      F    correct potential (dipole corrections)
   IDIPOL =      0    1-x, 2-y, 3-z, 4-all directions 
   EPSILON=  1.0000000 bulk dielectric constant

 Exchange correlation treatment:
   GGA     =    --    GGA type
   LEXCH   =     8    internal setting for exchange type
   VOSKOWN=      0    Vosko Wilk Nusair interpolation
   LHFCALC =     F    Hartree Fock is set to
   LHFONE  =     F    Hartree Fock one center treatment
   AEXX    =    0.0000 exact exchange contribution

 Linear response parameters
   LEPSILON=     F    determine dielectric tensor
   LRPA    =     F    only Hartree local field effects (RPA)
   LNABLA  =     F    use nabla operator in PAW spheres
   LVEL    =     F    velocity operator in full k-point grid
   LINTERFAST=   F  fast interpolation
   KINTER  =     0    interpolate to denser k-point grid
   CSHIFT  =0.1000    complex shift for real part using Kramers Kronig
   OMEGAMAX=  -1.0    maximum frequency
   DEG_THRESHOLD= 0.2000000E-02 threshold for treating states as degnerate
   RTIME   =    0.100 relaxation time in fs

 Orbital magnetization related:
   ORBITALMAG=     F  switch on orbital magnetization
   LCHIMAG   =     F  perturbation theory with respect to B field
   DQ        =  0.001000  dq finite difference perturbation B field



--------------------------------------------------------------------------------------------------------


 Static calculation
 charge density and potential will be updated during run
 non-spin polarized calculation
 Variant of blocked Davidson
 Davidson routine will perform the subspace rotation
 perform sub-space diagonalisation
    after iterative eigenvector-optimisation
 modified Broyden-mixing scheme, WC =      100.0
 initial mixing is a Kerker type mixing with AMIX =  0.4000 and BMIX =      1.0000
 Hartree-type preconditioning will be used
 using additional bands           27
 reciprocal scheme for non local part
 use partial core corrections
 calculate Harris-corrections to forces 
   (improved forces if not selfconsistent)
 use gradient corrections 
 use of overlap-Matrix (Vanderbilt PP)
 Methfessel and Paxton  Order N= 1 SIGMA  =   0.10


--------------------------------------------------------------------------------------------------------


  energy-cutoff  :      400.00
  volume of cell :      738.38
      direct lattice vectors                 reciprocal lattice vectors
     5.864743640  0.000000000  0.000000000     0.170510437 -0.098444247  0.000000000
     2.932371820  5.079016980  0.000000000     0.000000000  0.196888493  0.000000000
     0.000000000  0.000000000 24.788543130     0.000000000  0.000000000  0.040341217

  length of vectors
     5.864743640  5.864743641 24.788543130     0.196888493  0.196888493  0.040341217


 
 k-points in units of 2pi/SCALE and weight: KPOINTS created by Atomic Simulation Env
   0.00000000  0.00000000  0.00000000       0.012
   0.01894560 -0.01093825  0.00000000       0.074
   0.03789121 -0.02187650  0.00000000       0.074
   0.05683681 -0.03281475  0.00000000       0.074
   0.07578242 -0.04375300  0.00000000       0.074
   0.03789121 -0.00000000  0.00000000       0.074
   0.05683681 -0.01093825  0.00000000       0.148
   0.07578242 -0.02187650  0.00000000       0.148
  -0.07578242  0.06562950  0.00000000       0.074
   0.07578242  0.00000000  0.00000000       0.074
  -0.07578242  0.08750600  0.00000000       0.148
  -0.05683681  0.09844425  0.00000000       0.025
 
 k-points in reciprocal lattice and weights: KPOINTS created by Atomic Simulation Env
   0.00000000  0.00000000  0.00000000       0.012
   0.11111111  0.00000000  0.00000000       0.074
   0.22222222 -0.00000000  0.00000000       0.074
   0.33333333 -0.00000000  0.00000000       0.074
   0.44444444 -0.00000000  0.00000000       0.074
   0.22222222  0.11111111  0.00000000       0.074
   0.33333333  0.11111111  0.00000000       0.148
   0.44444444  0.11111111  0.00000000       0.148
  -0.44444444  0.11111111  0.00000000       0.074
   0.44444444  0.22222222  0.00000000       0.074
  -0.44444444  0.22222222  0.00000000       0.148
  -0.33333333  0.33333333  0.00000000       0.025
 
 position of ions in fractional coordinates (direct lattice) 
   0.16666667  0.16666667  0.40527889
   0.66685597  0.16628805  0.40368021
   0.16628805  0.66685597  0.40368021
   0.66685597  0.66685597  0.40368021
   0.83367022  0.33316489  0.49959255
   0.33316489  0.33316489  0.49959255
   0.83333333  0.83333333  0.50144943
   0.33316489  0.83367022  0.49959255
   0.99245853  0.99245853  0.59703445
   0.51508295  0.99245853  0.59703445
   0.99245853  0.51508295  0.59703445
   0.50000000  0.50000000  0.59275101
   0.16666667  0.16666667  0.64459630
 
 position of ions in cartesian coordinates  (Angst):
   1.46618594  0.84650285 10.04627324
   4.39855770  0.84457983 10.00664430
   2.93070644  3.38697279 10.00664430
   5.86640896  3.38697279 10.00664430
   5.86622546  1.69215013 12.38417147
   2.93089000  1.69215013 12.38417147
   7.33092952  4.23251413 12.43020082
   4.39855773  4.23422520 12.38417147
   8.73077228  5.04071373 14.79961421
   5.93108688  5.04071373 14.79961421
   7.33092958  2.61611505 14.79961421
   4.39855773  2.53950849 14.69343398
   1.46618594  0.84650285 15.97860318
 


--------------------------------------------------------------------------------------------------------


 k-point  1 :   0.0000 0.0000 0.0000  plane waves:   13497
 k-point  2 :   0.1111 0.0000 0.0000  plane waves:   13483
 k-point  3 :   0.2222-0.0000 0.0000  plane waves:   13439
 k-point  4 :   0.3333-0.0000 0.0000  plane waves:   13402
 k-point  5 :   0.4444-0.0000 0.0000  plane waves:   13372
 k-point  6 :   0.2222 0.1111 0.0000  plane waves:   13449
 k-point  7 :   0.3333 0.1111 0.0000  plane waves:   13414
 k-point  8 :   0.4444 0.1111 0.0000  plane waves:   13388
 k-point  9 :  -0.4444 0.1111 0.0000  plane waves:   13372
 k-point 10 :   0.4444 0.2222 0.0000  plane waves:   13410
 k-point 11 :  -0.4444 0.2222 0.0000  plane waves:   13394
 k-point 12 :  -0.3333 0.3333 0.0000  plane waves:   13428

 maximum and minimum number of plane-waves per node :     13497    13372

 maximum number of plane-waves:     13497
 maximum index in each direction: 
   IXMAX=   10   IYMAX=    9   IZMAX=   40
   IXMIN=  -10   IYMIN=   -9   IZMIN=  -40

 WARNING: aliasing errors must be expected set NGX to  42 to avoid them
 WARNING: aliasing errors must be expected set NGY to  38 to avoid them
 WARNING: aliasing errors must be expected set NGZ to 162 to avoid them
 aliasing errors are usually negligible using standard VASP settings
 and one can safely disregard these warnings

 serial   3D FFT for wavefunctions
 parallel 3D FFT for charge:
    minimum data exchange during FFTs selected (reduces bandwidth)


 total amount of memory used by VASP on root node    99324. kBytes
========================================================================

   base      :      30000. kBytes
   nonl-proj :      49507. kBytes
   fftplans  :       1950. kBytes
   grid      :       7104. kBytes
   one-center:        202. kBytes
   wavefun   :      10561. kBytes
 
     INWAV:  cpu time    0.0001: real time    0.0001
 Broyden mixing: mesh for mixing (old mesh)
   NGX = 19   NGY = 19   NGZ = 81
  (NGX  = 60   NGY  = 60   NGZ  =252)
  gives a total of  29241 points

 initial charge density was supplied:
 charge density of overlapping atoms calculated
 number of electron     138.0000000 magnetization 
 keeping initial charge density in first step


--------------------------------------------------------------------------------------------------------


 Maximum index for augmentation-charges          590 (set IRDMAX)


--------------------------------------------------------------------------------------------------------


 First call to EWALD:  gamma=   0.196
 Maximum number of real-space cells 5x 5x 1
 Maximum number of reciprocal cells 2x 2x 7

 FEWALD executed in parallel
    FEWALD:  cpu time    0.0018: real time    0.0024


----------------------------------------- Iteration    1(   1)  ---------------------------------------


    POTLOK:  cpu time    0.0602: real time    0.0603
    SETDIJ:  cpu time    0.0043: real time    0.0043
     EDDAV:  cpu time    3.9161: real time    3.9896
       DOS:  cpu time    0.0015: real time    0.0015
    --------------------------------------------
      LOOP:  cpu time    3.9849: real time    4.0597

 eigenvalue-minimisations  :  2304
 total energy-change (2. order) : 0.7405295E+03  (-0.5275649E+04)
 number of electron     138.0000000 magnetization 
 augmentation part      138.0000000 magnetization 

 Free energy of the ion-electron system (eV)
  ---------------------------------------------------
  alpha Z        PSCENC =       177.74950859
  Ewald energy   TEWEN  =     49279.48186214
  -Hartree energ DENC   =    -62155.72167842
  -exchange      EXHF   =         0.00000000
  -V(xc)+E(xc)   XCENC  =      -101.63545899
  PAW double counting   =     12388.09526881   -11836.53943832
  entropy T*S    EENTRO =        -0.00073197
  eigenvalues    EBANDS =       109.73585497
  atomic energy  EATOM  =     12879.36433655
  Solvation  Ediel_sol  =         0.00000000
  ---------------------------------------------------
  free energy    TOTEN  =       740.52952336 eV

  energy without entropy =      740.53025533  energy(sigma->0) =      740.52976735


--------------------------------------------------------------------------------------------------------




----------------------------------------- Iteration    1(   2)  ---------------------------------------


     EDDAV:  cpu time    4.5887: real time    4.5922
       DOS:  cpu time    0.0006: real time    0.0006
    --------------------------------------------
      LOOP:  cpu time    4.5908: real time    4.5955

 eigenvalue-minimisations  :  2640
 total energy-change (2. order) :-0.7484511E+03  (-0.7062518E+03)
 number of electron     138.0000000 magnetization 
 augmentation part      138.0000000 magnetization 

 Free energy of the ion-electron system (eV)
  ---------------------------------------------------
  alpha Z        PSCENC =       177.74950859
  Ewald energy   TEWEN  =     49279.48186214
  -Hartree energ DENC   =    -62155.72167842
  -exchange      EXHF   =         0.00000000
  -V(xc)+E(xc)   XCENC  =      -101.63545899
  PAW double counting   =     12388.09526881   -11836.53943832
  entropy T*S    EENTRO =        -0.01013582
  eigenvalues    EBANDS =      -638.70583238
  atomic energy  EATOM  =     12879.36433655
  Solvation  Ediel_sol  =         0.00000000
  ---------------------------------------------------
  free energy    TOTEN  =        -7.92156784 eV

  energy without entropy =       -7.91143202  energy(sigma->0) =       -7.91818923


--------------------------------------------------------------------------------------------------------




----------------------------------------- Iteration    1(   3)  ---------------------------------------


     EDDAV:  cpu time    4.1908: real time    4.1929
       DOS:  cpu time    0.0006: real time    0.0006
    --------------------------------------------
      LOOP:  cpu time    4.1924: real time    4.1961

 eigenvalue-minimisations  :  2784
 total energy-change (2. order) :-0.3244388E+02  (-0.3181159E+02)
 number of electron     138.0000000 magnetization 
 augmentation part      138.0000000 magnetization 

 Free energy of the ion-electron system (eV)
  ---------------------------------------------------
  alpha Z        PSCENC =       177.74950859
  Ewald energy   TEWEN  =     49279.48186214
  -Hartree energ DENC   =    -62155.72167842
  -exchange      EXHF   =         0.00000000
  -V(xc)+E(xc)   XCENC  =      -101.63545899
  PAW double counting   =     12388.09526881   -11836.53943832
  entropy T*S    EENTRO =        -0.00317583
  eigenvalues    EBANDS =      -671.15667010
  atomic energy  EATOM  =     12879.36433655
  Solvation  Ediel_sol  =         0.00000000
  ---------------------------------------------------
  free energy    TOTEN  =       -40.36544557 eV

  energy without entropy =      -40.36226974  energy(sigma->0) =      -40.36438696


--------------------------------------------------------------------------------------------------------




----------------------------------------- Iteration    1(   4)  ---------------------------------------


     EDDAV:  cpu time    3.6502: real time    3.6525
       DOS:  cpu time    0.0006: real time    0.0006
    --------------------------------------------
      LOOP:  cpu time    3.6518: real time    3.6556

 eigenvalue-minimisations  :  2496
 total energy-change (2. order) :-0.4667691E+00  (-0.4666786E+00)
 number of electron     138.0000000 magnetization 
 augmentation part      138.0000000 magnetization 

 Free energy of the ion-electron system (eV)
  ---------------------------------------------------
  alpha Z        PSCENC =       177.74950859
  Ewald energy   TEWEN  =     49279.48186214
  -Hartree energ DENC   =    -62155.72167842
  -exchange      EXHF   =         0.00000000
  -V(xc)+E(xc)   XCENC  =      -101.63545899
  PAW double counting   =     12388.09526881   -11836.53943832
  entropy T*S    EENTRO =        -0.00302845
  eigenvalues    EBANDS =      -671.62358654
  atomic energy  EATOM  =     12879.36433655
  Solvation  Ediel_sol  =         0.00000000
  ---------------------------------------------------
  free energy    TOTEN  =       -40.83221463 eV

  energy without entropy =      -40.82918617  energy(sigma->0) =      -40.83120514


--------------------------------------------------------------------------------------------------------




----------------------------------------- Iteration    1(   5)  ---------------------------------------


     EDDAV:  cpu time    4.2834: real time    4.2975
       DOS:  cpu time    0.0006: real time    0.0006
    CHARGE:  cpu time    0.1307: real time    0.1309
    MIXING:  cpu time    0.0016: real time    0.0017
    --------------------------------------------
      LOOP:  cpu time    4.4174: real time    4.4333

 eigenvalue-minimisations  :  3072
 total energy-change (2. order) :-0.7465306E-02  (-0.7465117E-02)
 number of electron     138.0000142 magnetization 
 augmentation part       62.1031834 magnetization 

 Broyden mixing:
  rms(total) = 0.19053E+01    rms(broyden)= 0.19050E+01
  rms(prec ) = 0.19989E+01
  weight for this iteration     100.00

 Free energy of the ion-electron system (eV)
  ---------------------------------------------------
  alpha Z        PSCENC =       177.74950859
  Ewald energy   TEWEN  =     49279.48186214
  -Hartree energ DENC   =    -62155.72167842
  -exchange      EXHF   =         0.00000000
  -V(xc)+E(xc)   XCENC  =      -101.63545899
  PAW double counting   =     12388.09526881   -11836.53943832
  entropy T*S    EENTRO =        -0.00302919
  eigenvalues    EBANDS =      -671.63105111
  atomic energy  EATOM  =     12879.36433655
  Solvation  Ediel_sol  =         0.00000000
  ---------------------------------------------------
  free energy    TOTEN  =       -40.83967993 eV

  energy without entropy =      -40.83665074  energy(sigma->0) =      -40.83867020


--------------------------------------------------------------------------------------------------------




----------------------------------------- Iteration    1(   6)  ---------------------------------------


    POTLOK:  cpu time    0.0317: real time    0.0317
    SETDIJ:  cpu time    0.0036: real time    0.0037
     EDDAV:  cpu time    4.6487: real time    4.6635
       DOS:  cpu time    0.0006: real time    0.0006
    CHARGE:  cpu time    0.1452: real time    0.1457
    MIXING:  cpu time    0.0015: real time    0.0016
    --------------------------------------------
      LOOP:  cpu time    4.8326: real time    4.8496

 eigenvalue-minimisations  :  3408
 total energy-change (2. order) : 0.2839720E+01  (-0.2823406E+01)
 number of electron     138.0000200 magnetization 
 augmentation part       63.1797816 magnetization 

 Broyden mixing:
  rms(total) = 0.18965E+01    rms(broyden)= 0.18956E+01
  rms(prec ) = 0.21018E+01
  weight for this iteration     100.00

 eigenvalues of (default mixing * dielectric matrix)
  average eigenvalue GAMMA=   0.5083
  0.5083

 Free energy of the ion-electron system (eV)
  ---------------------------------------------------
  alpha Z        PSCENC =       177.74950859
  Ewald energy   TEWEN  =     49279.48186214
  -Hartree energ DENC   =    -62057.89043409
  -exchange      EXHF   =         0.00000000
  -V(xc)+E(xc)   XCENC  =      -103.78461792
  PAW double counting   =     12856.65337657   -12314.52964773
  entropy T*S    EENTRO =        -0.01001060
  eigenvalues    EBANDS =      -755.03433319
  atomic energy  EATOM  =     12879.36433655
  Solvation  Ediel_sol  =         0.00000000
  ---------------------------------------------------
  free energy    TOTEN  =       -37.99995968 eV

  energy without entropy =      -37.98994908  energy(sigma->0) =      -37.99662282


--------------------------------------------------------------------------------------------------------




----------------------------------------- Iteration    1(   7)  ---------------------------------------


    POTLOK:  cpu time    0.0294: real time    0.0295
    SETDIJ:  cpu time    0.0039: real time    0.0039
     EDDAV:  cpu time    4.0186: real time    4.0515
       DOS:  cpu time    0.0006: real time    0.0006
    CHARGE:  cpu time    0.1415: real time    0.1415
    MIXING:  cpu time    0.0014: real time    0.0014
    --------------------------------------------
      LOOP:  cpu time    4.1968: real time    4.2311

 eigenvalue-minimisations  :  2856
 total energy-change (2. order) : 0.1645648E+01  (-0.4834186E+01)
 number of electron     138.0000156 magnetization 
 augmentation part       63.8721473 magnetization 

 Broyden mixing:
  rms(total) = 0.10990E+01    rms(broyden)= 0.10982E+01
  rms(prec ) = 0.11717E+01
  weight for this iteration     100.00

 eigenvalues of (default mixing * dielectric matrix)
  average eigenvalue GAMMA=   0.9250
  1.4853  0.3647

 Free energy of the ion-electron system (eV)
  ---------------------------------------------------
  alpha Z        PSCENC =       177.74950859
  Ewald energy   TEWEN  =     49279.48186214
  -Hartree energ DENC   =    -62053.04999384
  -exchange      EXHF   =         0.00000000
  -V(xc)+E(xc)   XCENC  =      -105.23936127
  PAW double counting   =     13004.32393028   -12466.35046688
  entropy T*S    EENTRO =        -0.00338080
  eigenvalues    EBANDS =      -752.63074653
  atomic energy  EATOM  =     12879.36433655
  Solvation  Ediel_sol  =         0.00000000
  ---------------------------------------------------
  free energy    TOTEN  =       -36.35431176 eV

  energy without entropy =      -36.35093096  energy(sigma->0) =      -36.35318483


--------------------------------------------------------------------------------------------------------




----------------------------------------- Iteration    1(   8)  ---------------------------------------


    POTLOK:  cpu time    0.0292: real time    0.0293
    SETDIJ:  cpu time    0.0034: real time    0.0034
     EDDAV:  cpu time    3.7105: real time    3.7225
       DOS:  cpu time    0.0006: real time    0.0006
    CHARGE:  cpu time    0.1259: real time    0.1261
    MIXING:  cpu time    0.0013: real time    0.0013
    --------------------------------------------
      LOOP:  cpu time    3.8722: real time    3.8860

 eigenvalue-minimisations  :  2592
 total energy-change (2. order) : 0.1083812E+01  (-0.5331377E+00)
 number of electron     138.0000166 magnetization 
 augmentation part       63.8200312 magnetization 

 Broyden mixing:
  rms(total) = 0.46788E+00    rms(broyden)= 0.46786E+00
  rms(prec ) = 0.47596E+00
  weight for this iteration     100.00

 eigenvalues of (default mixing * dielectric matrix)
  average eigenvalue GAMMA=   1.2319
  2.3955  0.9409  0.3594

 Free energy of the ion-electron system (eV)
  ---------------------------------------------------
  alpha Z        PSCENC =       177.74950859
  Ewald energy   TEWEN  =     49279.48186214
  -Hartree energ DENC   =    -62046.43468620
  -exchange      EXHF   =         0.00000000
  -V(xc)+E(xc)   XCENC  =      -105.38119727
  PAW double counting   =     13352.61557189   -12821.37648186
  entropy T*S    EENTRO =        -0.00140933
  eigenvalues    EBANDS =      -751.28800390
  atomic energy  EATOM  =     12879.36433655
  Solvation  Ediel_sol  =         0.00000000
  ---------------------------------------------------
  free energy    TOTEN  =       -35.27049939 eV

  energy without entropy =      -35.26909007  energy(sigma->0) =      -35.27002962


--------------------------------------------------------------------------------------------------------




----------------------------------------- Iteration    1(   9)  ---------------------------------------


    POTLOK:  cpu time    0.0287: real time    0.0288
    SETDIJ:  cpu time    0.0036: real time    0.0036
     EDDAV:  cpu time    3.7948: real time    3.8074
       DOS:  cpu time    0.0006: real time    0.0006
    CHARGE:  cpu time    0.1425: real time    0.1429
    MIXING:  cpu time    0.0014: real time    0.0014
    --------------------------------------------
      LOOP:  cpu time    3.9728: real time    3.9872

 eigenvalue-minimisations  :  2592
 total energy-change (2. order) :-0.1170897E+00  (-0.2286057E+00)
 number of electron     138.0000175 magnetization 
 augmentation part       63.7494293 magnetization 

 Broyden mixing:
  rms(total) = 0.36148E+00    rms(broyden)= 0.36121E+00
  rms(prec ) = 0.38805E+00
  weight for this iteration     100.00

 eigenvalues of (default mixing * dielectric matrix)
  average eigenvalue GAMMA=   1.1391
  2.6016  1.0806  0.3730  0.5012

 Free energy of the ion-electron system (eV)
  ---------------------------------------------------
  alpha Z        PSCENC =       177.74950859
  Ewald energy   TEWEN  =     49279.48186214
  -Hartree energ DENC   =    -62040.45719854
  -exchange      EXHF   =         0.00000000
  -V(xc)+E(xc)   XCENC  =      -105.39605854
  PAW double counting   =     13632.29327808   -13106.77616906
  entropy T*S    EENTRO =        -0.00182067
  eigenvalues    EBANDS =      -751.64532763
  atomic energy  EATOM  =     12879.36433655
  Solvation  Ediel_sol  =         0.00000000
  ---------------------------------------------------
  free energy    TOTEN  =       -35.38758907 eV

  energy without entropy =      -35.38576840  energy(sigma->0) =      -35.38698218


--------------------------------------------------------------------------------------------------------




----------------------------------------- Iteration    1(  10)  ---------------------------------------


    POTLOK:  cpu time    0.0283: real time    0.0284
    SETDIJ:  cpu time    0.0033: real time    0.0033
     EDDAV:  cpu time    3.9016: real time    3.9150
       DOS:  cpu time    0.0006: real time    0.0006
    CHARGE:  cpu time    0.1375: real time    0.1379
    MIXING:  cpu time    0.0014: real time    0.0014
    --------------------------------------------
      LOOP:  cpu time    4.0739: real time    4.0896

 eigenvalue-minimisations  :  2760
 total energy-change (2. order) : 0.1309630E+00  (-0.4096089E-01)
 number of electron     138.0000172 magnetization 
 augmentation part       63.7389978 magnetization 

 Broyden mixing:
  rms(total) = 0.16331E+00    rms(broyden)= 0.16330E+00
  rms(prec ) = 0.17686E+00
  weight for this iteration     100.00

 eigenvalues of (default mixing * dielectric matrix)
  average eigenvalue GAMMA=   1.1062
  2.5326  0.3653  1.0738  0.8350  0.7242

 Free energy of the ion-electron system (eV)
  ---------------------------------------------------
  alpha Z        PSCENC =       177.74950859
  Ewald energy   TEWEN  =     49279.48186214
  -Hartree energ DENC   =    -62042.33608080
  -exchange      EXHF   =         0.00000000
  -V(xc)+E(xc)   XCENC  =      -105.52206743
  PAW double counting   =     13665.76703296   -13141.14738887
  entropy T*S    EENTRO =        -0.00169170
  eigenvalues    EBANDS =      -748.61213756
  atomic energy  EATOM  =     12879.36433655
  Solvation  Ediel_sol  =         0.00000000
  ---------------------------------------------------
  free energy    TOTEN  =       -35.25662611 eV

  energy without entropy =      -35.25493441  energy(sigma->0) =      -35.25606221


--------------------------------------------------------------------------------------------------------




----------------------------------------- Iteration    1(  11)  ---------------------------------------


    POTLOK:  cpu time    0.0279: real time    0.0279
    SETDIJ:  cpu time    0.0032: real time    0.0032
     EDDAV:  cpu time    3.7578: real time    3.7800
       DOS:  cpu time    0.0006: real time    0.0006
    CHARGE:  cpu time    0.1379: real time    0.1379
    MIXING:  cpu time    0.0015: real time    0.0015
    --------------------------------------------
      LOOP:  cpu time    3.9301: real time    3.9541

 eigenvalue-minimisations  :  2616
 total energy-change (2. order) : 0.2233149E-01  (-0.1582304E-01)
 number of electron     138.0000170 magnetization 
 augmentation part       63.7665768 magnetization 

 Broyden mixing:
  rms(total) = 0.36587E-01    rms(broyden)= 0.36377E-01
  rms(prec ) = 0.39948E-01
  weight for this iteration     100.00

 eigenvalues of (default mixing * dielectric matrix)
  average eigenvalue GAMMA=   1.1324
  2.5618  1.2230  1.2230  0.3658  0.7103  0.7103

 Free energy of the ion-electron system (eV)
  ---------------------------------------------------
  alpha Z        PSCENC =       177.74950859
  Ewald energy   TEWEN  =     49279.48186214
  -Hartree energ DENC   =    -62040.93710368
  -exchange      EXHF   =         0.00000000
  -V(xc)+E(xc)   XCENC  =      -105.59579756
  PAW double counting   =     13641.59928389   -13116.73460153
  entropy T*S    EENTRO =        -0.00291100
  eigenvalues    EBANDS =      -750.15887203
  atomic energy  EATOM  =     12879.36433655
  Solvation  Ediel_sol  =         0.00000000
  ---------------------------------------------------
  free energy    TOTEN  =       -35.23429462 eV

  energy without entropy =      -35.23138362  energy(sigma->0) =      -35.23332429


--------------------------------------------------------------------------------------------------------




----------------------------------------- Iteration    1(  12)  ---------------------------------------


    POTLOK:  cpu time    0.0280: real time    0.0281
    SETDIJ:  cpu time    0.0032: real time    0.0032
     EDDAV:  cpu time    3.6424: real time    3.6480
       DOS:  cpu time    0.0007: real time    0.0006
    CHARGE:  cpu time    0.1331: real time    0.1331
    MIXING:  cpu time    0.0015: real time    0.0015
    --------------------------------------------
      LOOP:  cpu time    3.8102: real time    3.8177

 eigenvalue-minimisations  :  2520
 total energy-change (2. order) :-0.1271866E-02  (-0.2252433E-02)
 number of electron     138.0000169 magnetization 
 augmentation part       63.7841569 magnetization 

 Broyden mixing:
  rms(total) = 0.21949E-01    rms(broyden)= 0.21866E-01
  rms(prec ) = 0.22951E-01
  weight for this iteration     100.00

 eigenvalues of (default mixing * dielectric matrix)
  average eigenvalue GAMMA=   1.1765
  2.6195  1.7835  0.3659  1.0910  0.8311  0.8311  0.7136

 Free energy of the ion-electron system (eV)
  ---------------------------------------------------
  alpha Z        PSCENC =       177.74950859
  Ewald energy   TEWEN  =     49279.48186214
  -Hartree energ DENC   =    -62040.62748464
  -exchange      EXHF   =         0.00000000
  -V(xc)+E(xc)   XCENC  =      -105.62343180
  PAW double counting   =     13625.90532588   -13101.00247343
  entropy T*S    EENTRO =        -0.00411235
  eigenvalues    EBANDS =      -750.47909744
  atomic energy  EATOM  =     12879.36433655
  Solvation  Ediel_sol  =         0.00000000
  ---------------------------------------------------
  free energy    TOTEN  =       -35.23556649 eV

  energy without entropy =      -35.23145414  energy(sigma->0) =      -35.23419570


--------------------------------------------------------------------------------------------------------




----------------------------------------- Iteration    1(  13)  ---------------------------------------


    POTLOK:  cpu time    0.0283: real time    0.0283
    SETDIJ:  cpu time    0.0033: real time    0.0033
     EDDAV:  cpu time    3.9057: real time    3.9158
       DOS:  cpu time    0.0006: real time    0.0006
    CHARGE:  cpu time    0.1361: real time    0.1361
    MIXING:  cpu time    0.0016: real time    0.0016
    --------------------------------------------
      LOOP:  cpu time    4.0768: real time    4.0889

 eigenvalue-minimisations  :  2664
 total energy-change (2. order) :-0.9436368E-03  (-0.1402830E-03)
 number of electron     138.0000169 magnetization 
 augmentation part       63.7833405 magnetization 

 Broyden mixing:
  rms(total) = 0.14897E-01    rms(broyden)= 0.14889E-01
  rms(prec ) = 0.16516E-01
  weight for this iteration     100.00

 eigenvalues of (default mixing * dielectric matrix)
  average eigenvalue GAMMA=   1.2118
  2.5896  1.9788  0.3658  1.1368  1.1368  1.1182  0.6842  0.6842

 Free energy of the ion-electron system (eV)
  ---------------------------------------------------
  alpha Z        PSCENC =       177.74950859
  Ewald energy   TEWEN  =     49279.48186214
  -Hartree energ DENC   =    -62041.07955433
  -exchange      EXHF   =         0.00000000
  -V(xc)+E(xc)   XCENC  =      -105.62008969
  PAW double counting   =     13618.83031215   -13093.90770744
  entropy T*S    EENTRO =        -0.00408769
  eigenvalues    EBANDS =      -750.05109042
  atomic energy  EATOM  =     12879.36433655
  Solvation  Ediel_sol  =         0.00000000
  ---------------------------------------------------
  free energy    TOTEN  =       -35.23651012 eV

  energy without entropy =      -35.23242244  energy(sigma->0) =      -35.23514756


--------------------------------------------------------------------------------------------------------




----------------------------------------- Iteration    1(  14)  ---------------------------------------


    POTLOK:  cpu time    0.0281: real time    0.0281
    SETDIJ:  cpu time    0.0032: real time    0.0032
     EDDAV:  cpu time    3.4533: real time    3.4547
       DOS:  cpu time    0.0006: real time    0.0006
    CHARGE:  cpu time    0.1357: real time    0.1357
    MIXING:  cpu time    0.0017: real time    0.0017
    --------------------------------------------
      LOOP:  cpu time    3.6238: real time    3.6268

 eigenvalue-minimisations  :  2328
 total energy-change (2. order) :-0.2763679E-03  (-0.1143731E-03)
 number of electron     138.0000169 magnetization 
 augmentation part       63.7792209 magnetization 

 Broyden mixing:
  rms(total) = 0.45497E-02    rms(broyden)= 0.45453E-02
  rms(prec ) = 0.50843E-02
  weight for this iteration     100.00

 eigenvalues of (default mixing * dielectric matrix)
  average eigenvalue GAMMA=   1.2540
  2.5470  2.5470  1.3370  1.1581  1.1581  0.3658  0.7533  0.7533  0.6669

 Free energy of the ion-electron system (eV)
  ---------------------------------------------------
  alpha Z        PSCENC =       177.74950859
  Ewald energy   TEWEN  =     49279.48186214
  -Hartree energ DENC   =    -62041.80479876
  -exchange      EXHF   =         0.00000000
  -V(xc)+E(xc)   XCENC  =      -105.61053349
  PAW double counting   =     13615.33431172   -13090.38303620
  entropy T*S    EENTRO =        -0.00379865
  eigenvalues    EBANDS =      -749.36463840
  atomic energy  EATOM  =     12879.36433655
  Solvation  Ediel_sol  =         0.00000000
  ---------------------------------------------------
  free energy    TOTEN  =       -35.23678649 eV

  energy without entropy =      -35.23298785  energy(sigma->0) =      -35.23552028


--------------------------------------------------------------------------------------------------------




----------------------------------------- Iteration    1(  15)  ---------------------------------------


    POTLOK:  cpu time    0.0283: real time    0.0283
    SETDIJ:  cpu time    0.0033: real time    0.0033
     EDDAV:  cpu time    3.5443: real time    3.5458
       DOS:  cpu time    0.0006: real time    0.0006
    CHARGE:  cpu time    0.1370: real time    0.1370
    MIXING:  cpu time    0.0017: real time    0.0017
    --------------------------------------------
      LOOP:  cpu time    3.7164: real time    3.7195

 eigenvalue-minimisations  :  2400
 total energy-change (2. order) :-0.3604153E-03  (-0.2731644E-04)
 number of electron     138.0000169 magnetization 
 augmentation part       63.7792282 magnetization 

 Broyden mixing:
  rms(total) = 0.15809E-02    rms(broyden)= 0.15775E-02
  rms(prec ) = 0.22488E-02
  weight for this iteration     100.00

 eigenvalues of (default mixing * dielectric matrix)
  average eigenvalue GAMMA=   1.2823
  2.7470  2.5709  1.2954  1.2954  0.3658  1.2509  1.0752  0.7716  0.7716  0.6795

 Free energy of the ion-electron system (eV)
  ---------------------------------------------------
  alpha Z        PSCENC =       177.74950859
  Ewald energy   TEWEN  =     49279.48186214
  -Hartree energ DENC   =    -62042.27170650
  -exchange      EXHF   =         0.00000000
  -V(xc)+E(xc)   XCENC  =      -105.60797525
  PAW double counting   =     13612.34513111   -13087.37460206
  entropy T*S    EENTRO =        -0.00391222
  eigenvalues    EBANDS =      -748.91978928
  atomic energy  EATOM  =     12879.36433655
  Solvation  Ediel_sol  =         0.00000000
  ---------------------------------------------------
  free energy    TOTEN  =       -35.23714691 eV

  energy without entropy =      -35.23323469  energy(sigma->0) =      -35.23584283


--------------------------------------------------------------------------------------------------------




----------------------------------------- Iteration    1(  16)  ---------------------------------------


    POTLOK:  cpu time    0.0280: real time    0.0280
    SETDIJ:  cpu time    0.0032: real time    0.0032
     EDDAV:  cpu time    2.9880: real time    2.9939
       DOS:  cpu time    0.0006: real time    0.0006
    CHARGE:  cpu time    0.1336: real time    0.1337
    MIXING:  cpu time    0.0021: real time    0.0021
    --------------------------------------------
      LOOP:  cpu time    3.1567: real time    3.1644

 eigenvalue-minimisations  :  1896
 total energy-change (2. order) :-0.1342299E-03  (-0.7575326E-05)
 number of electron     138.0000169 magnetization 
 augmentation part       63.7786393 magnetization 

 Broyden mixing:
  rms(total) = 0.16096E-02    rms(broyden)= 0.16057E-02
  rms(prec ) = 0.19372E-02
  weight for this iteration     100.00

 eigenvalues of (default mixing * dielectric matrix)
  average eigenvalue GAMMA=   1.3053
  2.7605  2.6840  1.6559  1.6559  0.3658  1.0207  1.0207  0.9728  0.6866  0.7679
  0.7679

 Free energy of the ion-electron system (eV)
  ---------------------------------------------------
  alpha Z        PSCENC =       177.74950859
  Ewald energy   TEWEN  =     49279.48186214
  -Hartree energ DENC   =    -62042.37533438
  -exchange      EXHF   =         0.00000000
  -V(xc)+E(xc)   XCENC  =      -105.60677501
  PAW double counting   =     13611.76384614   -13086.79125051
  entropy T*S    EENTRO =        -0.00381141
  eigenvalues    EBANDS =      -748.81966325
  atomic energy  EATOM  =     12879.36433655
  Solvation  Ediel_sol  =         0.00000000
  ---------------------------------------------------
  free energy    TOTEN  =       -35.23728114 eV

  energy without entropy =      -35.23346973  energy(sigma->0) =      -35.23601067


--------------------------------------------------------------------------------------------------------




----------------------------------------- Iteration    1(  17)  ---------------------------------------


    POTLOK:  cpu time    0.0280: real time    0.0280
    SETDIJ:  cpu time    0.0033: real time    0.0033
     EDDAV:  cpu time    2.9108: real time    2.9208
       DOS:  cpu time    0.0006: real time    0.0006
    CHARGE:  cpu time    0.1367: real time    0.1369
    MIXING:  cpu time    0.0017: real time    0.0017
    --------------------------------------------
      LOOP:  cpu time    3.0823: real time    3.0946

 eigenvalue-minimisations  :  1848
 total energy-change (2. order) :-0.1623075E-03  (-0.3726252E-05)
 number of electron     138.0000169 magnetization 
 augmentation part       63.7789300 magnetization 

 Broyden mixing:
  rms(total) = 0.49345E-03    rms(broyden)= 0.48998E-03
  rms(prec ) = 0.81798E-03
  weight for this iteration     100.00

 eigenvalues of (default mixing * dielectric matrix)
  average eigenvalue GAMMA=   1.3757
  3.3106  2.6260  2.1896  1.3930  1.3930  0.3658  1.0015  1.0015  1.0205  0.6846
  0.7611  0.7611

 Free energy of the ion-electron system (eV)
  ---------------------------------------------------
  alpha Z        PSCENC =       177.74950859
  Ewald energy   TEWEN  =     49279.48186214
  -Hartree energ DENC   =    -62042.52807542
  -exchange      EXHF   =         0.00000000
  -V(xc)+E(xc)   XCENC  =      -105.60761354
  PAW double counting   =     13611.56198161   -13086.58855305
  entropy T*S    EENTRO =        -0.00385914
  eigenvalues    EBANDS =      -748.66703118
  atomic energy  EATOM  =     12879.36433655
  Solvation  Ediel_sol  =         0.00000000
  ---------------------------------------------------
  free energy    TOTEN  =       -35.23744344 eV

  energy without entropy =      -35.23358431  energy(sigma->0) =      -35.23615706


--------------------------------------------------------------------------------------------------------




----------------------------------------- Iteration    1(  18)  ---------------------------------------


    POTLOK:  cpu time    0.0280: real time    0.0281
    SETDIJ:  cpu time    0.0032: real time    0.0032
     EDDAV:  cpu time    2.8722: real time    2.8760
       DOS:  cpu time    0.0007: real time    0.0007
    CHARGE:  cpu time    0.1338: real time    0.1338
    MIXING:  cpu time    0.0020: real time    0.0020
    --------------------------------------------
      LOOP:  cpu time    3.0411: real time    3.0467

 eigenvalue-minimisations  :  1800
 total energy-change (2. order) :-0.1203686E-03  (-0.1636867E-05)
 number of electron     138.0000169 magnetization 
 augmentation part       63.7787328 magnetization 

 Broyden mixing:
  rms(total) = 0.37810E-03    rms(broyden)= 0.37373E-03
  rms(prec ) = 0.54016E-03
  weight for this iteration     100.00

 eigenvalues of (default mixing * dielectric matrix)
  average eigenvalue GAMMA=   1.4347
  4.0511  2.6592  2.3722  1.5151  1.5151  0.3658  1.0269  1.0269  0.9463  0.9463
  0.6862  0.7697  0.7697

 Free energy of the ion-electron system (eV)
  ---------------------------------------------------
  alpha Z        PSCENC =       177.74950859
  Ewald energy   TEWEN  =     49279.48186214
  -Hartree energ DENC   =    -62042.72681149
  -exchange      EXHF   =         0.00000000
  -V(xc)+E(xc)   XCENC  =      -105.60712184
  PAW double counting   =     13611.68658557   -13086.71533502
  entropy T*S    EENTRO =        -0.00386042
  eigenvalues    EBANDS =      -748.46672789
  atomic energy  EATOM  =     12879.36433655
  Solvation  Ediel_sol  =         0.00000000
  ---------------------------------------------------
  free energy    TOTEN  =       -35.23756381 eV

  energy without entropy =      -35.23370339  energy(sigma->0) =      -35.23627701


--------------------------------------------------------------------------------------------------------




----------------------------------------- Iteration    1(  19)  ---------------------------------------


    POTLOK:  cpu time    0.0280: real time    0.0280
    SETDIJ:  cpu time    0.0032: real time    0.0032
     EDDAV:  cpu time    2.7622: real time    2.7632
       DOS:  cpu time    0.0006: real time    0.0006
    --------------------------------------------
      LOOP:  cpu time    2.7950: real time    2.7980

 eigenvalue-minimisations  :  1656
 total energy-change (2. order) :-0.5268548E-04  (-0.4196935E-06)
 number of electron     138.0000169 magnetization 
 augmentation part       63.7787328 magnetization 

 Free energy of the ion-electron system (eV)
  ---------------------------------------------------
  alpha Z        PSCENC =       177.74950859
  Ewald energy   TEWEN  =     49279.48186214
  -Hartree energ DENC   =    -62042.79831790
  -exchange      EXHF   =         0.00000000
  -V(xc)+E(xc)   XCENC  =      -105.60723259
  PAW double counting   =     13611.75674840   -13086.78641409
  entropy T*S    EENTRO =        -0.00387103
  eigenvalues    EBANDS =      -748.39423657
  atomic energy  EATOM  =     12879.36433655
  Solvation  Ediel_sol  =         0.00000000
  ---------------------------------------------------
  free energy    TOTEN  =       -35.23761650 eV

  energy without entropy =      -35.23374547  energy(sigma->0) =      -35.23632615


--------------------------------------------------------------------------------------------------------




 average (electrostatic) potential at core
  the test charge radii are     1.1249  0.7215
  (the norm of the test charge is              1.0000)
       1 -80.2063       2 -80.0876       3 -80.0876       4 -80.0876       5 -80.3311
       6 -80.3311       7 -80.3767       8 -80.3311       9 -80.0656      10 -80.0656
      11 -80.0656      12 -80.1900      13 -76.2215
 
 
 
 E-fermi :  -1.1850     XC(G=0):  -4.2352     alpha+bet : -3.8318


 k-point     1 :       0.0000    0.0000    0.0000
  band No.  band energies     occupation 
      1     -18.4307      2.00000
      2      -8.0842      2.00000
      3      -7.2141      2.00000
      4      -7.2100      2.00000
      5      -7.2100      2.00000
      6      -7.1957      2.00000
      7      -7.0714      2.00000
      8      -7.0714      2.00000
      9      -7.0654      2.00000
     10      -7.0238      2.00000
     11      -6.9222      2.00000
     12      -6.9222      2.00000
     13      -6.8673      2.00000
     14      -6.7721      2.00000
     15      -6.7721      2.00000
     16      -6.7471      2.00000
     17      -6.2841      2.00000
     18      -6.2840      2.00000
     19      -5.9769      2.00000
     20      -5.9769      2.00000
     21      -5.9580      2.00000
     22      -5.9306      2.00000
     23      -5.8562      2.00000
     24      -5.8562      2.00000
     25      -5.8483      2.00000
     26      -5.8167      2.00000
     27      -5.8167      2.00000
     28      -5.6519      2.00000
     29      -5.6519      2.00000
     30      -5.5601      2.00000
     31      -5.5453      2.00000
     32      -5.5453      2.00000
     33      -5.1505      2.00000
     34      -5.1363      2.00000
     35      -5.1363      2.00000
     36      -4.9930      2.00000
     37      -4.9491      2.00000
     38      -4.9491      2.00000
     39      -4.8763      2.00000
     40      -4.8763      2.00000
     41      -4.7951      2.00000
     42      -4.7140      2.00000
     43      -4.7140      2.00000
     44      -4.6028      2.00000
     45      -4.5913      2.00000
     46      -4.5913      2.00000
     47      -4.4157      2.00000
     48      -4.4157      2.00000
     49      -4.3089      2.00000
     50      -4.2934      2.00000
     51      -4.2934      2.00000
     52      -4.2478      2.00000
     53      -4.1916      2.00000
     54      -4.1916      2.00000
     55      -4.1722      2.00000
     56      -4.1722      2.00000
     57      -4.1560      2.00000
     58      -4.0072      2.00000
     59      -4.0072      2.00000
     60      -3.9661      2.00000
     61      -3.9661      2.00000
     62      -3.9283      2.00000
     63      -3.8656      2.00000
     64      -2.7505      2.00000
     65      -2.4391      2.00000
     66      -2.4389      2.00000
     67      -2.1565      2.00000
     68      -0.7862     -0.00000
     69      -0.7862     -0.00000
     70      -0.6526     -0.00000
     71      -0.3020     -0.00000
     72       0.1028     -0.00000
     73       0.1028     -0.00000
     74       0.2500     -0.00000
     75       0.6695     -0.00000
     76       0.6695     -0.00000
     77       1.5617      0.00000
     78       2.8483      0.00000
     79       2.8483      0.00000
     80       3.1001      0.00000
     81       3.1201      0.00000
     82       3.8899      0.00000
     83       3.8899      0.00000
     84       3.9600      0.00000
     85       3.9936      0.00000
     86       4.3733      0.00000
     87       4.8886      0.00000
     88       5.3841      0.00000
     89       5.4736      0.00000
     90       5.4843      0.00000
     91       5.4843      0.00000
     92       6.8600      0.00000
     93       7.1127      0.00000
     94       7.2133      0.00000
     95       7.2133      0.00000
     96       7.2986      0.00000

 k-point     2 :       0.1111    0.0000    0.0000
  band No.  band energies     occupation 
      1     -18.4297      2.00000
      2      -8.0063      2.00000
      3      -7.1870      2.00000
      4      -7.1647      2.00000
      5      -7.1629      2.00000
      6      -7.1483      2.00000
      7      -7.0491      2.00000
      8      -7.0306      2.00000
      9      -7.0172      2.00000
     10      -6.9657      2.00000
     11      -6.9015      2.00000
     12      -6.8917      2.00000
     13      -6.8570      2.00000
     14      -6.7355      2.00000
     15      -6.7225      2.00000
     16      -6.6970      2.00000
     17      -6.2772      2.00000
     18      -6.2613      2.00000
     19      -5.9867      2.00000
     20      -5.9861      2.00000
     21      -5.9363      2.00000
     22      -5.9272      2.00000
     23      -5.8653      2.00000
     24      -5.8418      2.00000
     25      -5.8278      2.00000
     26      -5.8069      2.00000
     27      -5.7860      2.00000
     28      -5.6864      2.00000
     29      -5.6335      2.00000
     30      -5.5667      2.00000
     31      -5.5662      2.00000
     32      -5.5110      2.00000
     33      -5.2469      2.00000
     34      -5.1649      2.00000
     35      -5.1432      2.00000
     36      -5.0433      2.00000
     37      -4.9873      2.00000
     38      -4.9854      2.00000
     39      -4.8965      2.00000
     40      -4.8308      2.00000
     41      -4.8196      2.00000
     42      -4.7340      2.00000
     43      -4.7285      2.00000
     44      -4.6393      2.00000
     45      -4.6074      2.00000
     46      -4.5979      2.00000
     47      -4.4488      2.00000
     48      -4.4284      2.00000
     49      -4.3374      2.00000
     50      -4.3148      2.00000
     51      -4.3007      2.00000
     52      -4.2448      2.00000
     53      -4.2374      2.00000
     54      -4.2315      2.00000
     55      -4.2278      2.00000
     56      -4.2103      2.00000
     57      -4.2026      2.00000
     58      -4.1000      2.00000
     59      -4.0584      2.00000
     60      -4.0263      2.00000
     61      -4.0215      2.00000
     62      -3.9909      2.00000
     63      -3.9267      2.00000
     64      -2.7411      2.00000
     65      -2.6022      2.00000
     66      -2.4565      2.00000
     67      -2.0248      2.00000
     68      -1.5252      2.00002
     69      -0.9371     -0.00255
     70      -0.8716     -0.00009
     71      -0.2548     -0.00000
     72      -0.0679     -0.00000
     73       0.1719     -0.00000
     74       0.4988     -0.00000
     75       1.0003     -0.00000
     76       1.1147     -0.00000
     77       1.7812      0.00000
     78       2.9539      0.00000
     79       2.9869      0.00000
     80       3.1741      0.00000
     81       3.2521      0.00000
     82       3.9311      0.00000
     83       3.9754      0.00000
     84       4.0280      0.00000
     85       4.0472      0.00000
     86       4.5992      0.00000
     87       4.9661      0.00000
     88       5.3426      0.00000
     89       5.4568      0.00000
     90       5.6671      0.00000
     91       5.8535      0.00000
     92       6.7558      0.00000
     93       6.9114      0.00000
     94       6.9307      0.00000
     95       7.2458      0.00000
     96       7.3680      0.00000

 k-point     3 :       0.2222   -0.0000    0.0000
  band No.  band energies     occupation 
      1     -18.4271      2.00000
      2      -7.7841      2.00000
      3      -7.1202      2.00000
      4      -7.0583      2.00000
      5      -7.0322      2.00000
      6      -7.0083      2.00000
      7      -6.9681      2.00000
      8      -6.9146      2.00000
      9      -6.9124      2.00000
     10      -6.8452      2.00000
     11      -6.8149      2.00000
     12      -6.8024      2.00000
     13      -6.7742      2.00000
     14      -6.6471      2.00000
     15      -6.5832      2.00000
     16      -6.5481      2.00000
     17      -6.2473      2.00000
     18      -6.1955      2.00000
     19      -6.0316      2.00000
     20      -5.9992      2.00000
     21      -5.9447      2.00000
     22      -5.9060      2.00000
     23      -5.8785      2.00000
     24      -5.8406      2.00000
     25      -5.7931      2.00000
     26      -5.7581      2.00000
     27      -5.7495      2.00000
     28      -5.6876      2.00000
     29      -5.6030      2.00000
     30      -5.5979      2.00000
     31      -5.5506      2.00000
     32      -5.4197      2.00000
     33      -5.4064      2.00000
     34      -5.2686      2.00000
     35      -5.1774      2.00000
     36      -5.1588      2.00000
     37      -5.1109      2.00000
     38      -5.0412      2.00000
     39      -4.9377      2.00000
     40      -4.8866      2.00000
     41      -4.8807      2.00000
     42      -4.8113      2.00000
     43      -4.7751      2.00000
     44      -4.7241      2.00000
     45      -4.6923      2.00000
     46      -4.6179      2.00000
     47      -4.5558      2.00000
     48      -4.4942      2.00000
     49      -4.4818      2.00000
     50      -4.4510      2.00000
     51      -4.4183      2.00000
     52      -4.4142      2.00000
     53      -4.3776      2.00000
     54      -4.3605      2.00000
     55      -4.2953      2.00000
     56      -4.2591      2.00000
     57      -4.2318      2.00000
     58      -4.1623      2.00000
     59      -4.1511      2.00000
     60      -4.1497      2.00000
     61      -4.1165      2.00000
     62      -4.0637      2.00000
     63      -4.0353      2.00000
     64      -3.2137      2.00000
     65      -2.7199      2.00000
     66      -2.4882      2.00000
     67      -2.3446      2.00000
     68      -1.7160      2.00000
     69      -1.1711      0.76666
     70      -1.1287      0.19498
     71      -0.7655     -0.00000
     72       0.2198     -0.00000
     73       0.2697     -0.00000
     74       0.6638     -0.00000
     75       1.3145     -0.00000
     76       1.7365      0.00000
     77       2.2300      0.00000
     78       3.1771      0.00000
     79       3.3624      0.00000
     80       3.3890      0.00000
     81       3.7163      0.00000
     82       4.1977      0.00000
     83       4.2365      0.00000
     84       4.2421      0.00000
     85       4.4346      0.00000
     86       4.8778      0.00000
     87       5.2840      0.00000
     88       5.4488      0.00000
     89       5.6462      0.00000
     90       6.0281      0.00000
     91       6.0309      0.00000
     92       6.5736      0.00000
     93       6.8176      0.00000
     94       6.9810      0.00000
     95       7.2312      0.00000
     96       7.3588      0.00000

 k-point     4 :       0.3333   -0.0000    0.0000
  band No.  band energies     occupation 
      1     -18.4243      2.00000
      2      -7.4660      2.00000
      3      -7.0468      2.00000
      4      -6.9779      2.00000
      5      -6.8633      2.00000
      6      -6.8412      2.00000
      7      -6.8016      2.00000
      8      -6.7841      2.00000
      9      -6.7314      2.00000
     10      -6.7172      2.00000
     11      -6.6838      2.00000
     12      -6.6732      2.00000
     13      -6.5626      2.00000
     14      -6.5229      2.00000
     15      -6.3980      2.00000
     16      -6.3421      2.00000
     17      -6.1700      2.00000
     18      -6.1166      2.00000
     19      -6.0789      2.00000
     20      -6.0779      2.00000
     21      -6.0216      2.00000
     22      -5.9480      2.00000
     23      -5.8747      2.00000
     24      -5.8099      2.00000
     25      -5.7930      2.00000
     26      -5.7314      2.00000
     27      -5.7049      2.00000
     28      -5.6140      2.00000
     29      -5.5972      2.00000
     30      -5.5358      2.00000
     31      -5.4881      2.00000
     32      -5.4640      2.00000
     33      -5.4346      2.00000
     34      -5.3721      2.00000
     35      -5.3535      2.00000
     36      -5.3072      2.00000
     37      -5.1321      2.00000
     38      -5.1064      2.00000
     39      -5.0018      2.00000
     40      -4.9748      2.00000
     41      -4.9716      2.00000
     42      -4.9345      2.00000
     43      -4.8840      2.00000
     44      -4.8621      2.00000
     45      -4.8279      2.00000
     46      -4.8195      2.00000
     47      -4.7936      2.00000
     48      -4.6677      2.00000
     49      -4.6528      2.00000
     50      -4.6438      2.00000
     51      -4.6392      2.00000
     52      -4.5752      2.00000
     53      -4.4948      2.00000
     54      -4.4691      2.00000
     55      -4.4106      2.00000
     56      -4.3907      2.00000
     57      -4.2808      2.00000
     58      -4.2603      2.00000
     59      -4.2048      2.00000
     60      -4.1916      2.00000
     61      -4.1785      2.00000
     62      -4.0638      2.00000
     63      -4.0385      2.00000
     64      -3.8774      2.00000
     65      -3.0671      2.00000
     66      -2.5091      2.00000
     67      -2.5039      2.00000
     68      -1.6987      2.00000
     69      -1.2690      1.99919
     70      -1.2233      1.59802
     71      -0.9012     -0.00045
     72       0.2135     -0.00000
     73       0.3401     -0.00000
     74       0.8685     -0.00000
     75       1.2577     -0.00000
     76       2.4603      0.00000
     77       2.5728      0.00000
     78       3.5149      0.00000
     79       3.5341      0.00000
     80       3.7124      0.00000
     81       3.9342      0.00000
     82       4.5643      0.00000
     83       4.6461      0.00000
     84       4.7959      0.00000
     85       5.1533      0.00000
     86       5.4388      0.00000
     87       5.5734      0.00000
     88       5.7441      0.00000
     89       5.9262      0.00000
     90       6.0110      0.00000
     91       6.1003      0.00000
     92       6.3957      0.00000
     93       6.6071      0.00000
     94       6.9548      0.00000
     95       7.0596      0.00000
     96       7.2040      0.00000

 k-point     5 :       0.4444   -0.0000    0.0000
  band No.  band energies     occupation 
      1     -18.4224      2.00000
      2      -7.1901      2.00000
      3      -7.0245      2.00000
      4      -6.8985      2.00000
      5      -6.7651      2.00000
      6      -6.7281      2.00000
      7      -6.6942      2.00000
      8      -6.6307      2.00000
      9      -6.5917      2.00000
     10      -6.5552      2.00000
     11      -6.5218      2.00000
     12      -6.5020      2.00000
     13      -6.4259      2.00000
     14      -6.3868      2.00000
     15      -6.2813      2.00000
     16      -6.2694      2.00000
     17      -6.2168      2.00000
     18      -6.1398      2.00000
     19      -6.1035      2.00000
     20      -5.9995      2.00000
     21      -5.9603      2.00000
     22      -5.9371      2.00000
     23      -5.8812      2.00000
     24      -5.8463      2.00000
     25      -5.8418      2.00000
     26      -5.7974      2.00000
     27      -5.7327      2.00000
     28      -5.5963      2.00000
     29      -5.5562      2.00000
     30      -5.5265      2.00000
     31      -5.4872      2.00000
     32      -5.4427      2.00000
     33      -5.4006      2.00000
     34      -5.3558      2.00000
     35      -5.2963      2.00000
     36      -5.2948      2.00000
     37      -5.2560      2.00000
     38      -5.1995      2.00000
     39      -5.1734      2.00000
     40      -5.1070      2.00000
     41      -5.0937      2.00000
     42      -5.0731      2.00000
     43      -5.0071      2.00000
     44      -4.9764      2.00000
     45      -4.9278      2.00000
     46      -4.9007      2.00000
     47      -4.8827      2.00000
     48      -4.8401      2.00000
     49      -4.8304      2.00000
     50      -4.7988      2.00000
     51      -4.7672      2.00000
     52      -4.7424      2.00000
     53      -4.6632      2.00000
     54      -4.5889      2.00000
     55      -4.5418      2.00000
     56      -4.4973      2.00000
     57      -4.4528      2.00000
     58      -4.3045      2.00000
     59      -4.2550      2.00000
     60      -4.2204      2.00000
     61      -4.1997      2.00000
     62      -4.1885      2.00000
     63      -4.0648      2.00000
     64      -3.7149      2.00000
     65      -3.3269      2.00000
     66      -2.6072      2.00000
     67      -2.5167      2.00000
     68      -1.8360      2.00000
     69      -1.2540      1.91282
     70      -1.2162      1.49999
     71      -0.6186     -0.00000
     72      -0.1428     -0.00000
     73       0.3743     -0.00000
     74       0.8398     -0.00000
     75       1.7464      0.00000
     76       2.3585      0.00000
     77       2.7494      0.00000
     78       3.3174      0.00000
     79       4.1962      0.00000
[...]
     91       6.0554      0.00000
     92       6.2013      0.00000
     93       6.5041      0.00000
     94       6.6678      0.00000
     95       6.8160      0.00000
     96       6.8339      0.00000

 k-point    11 :      -0.4444    0.2222    0.0000
  band No.  band energies     occupation 
      1     -18.4217      2.00000
      2      -7.0857      2.00000
      3      -6.8682      2.00000
      4      -6.7311      2.00000
      5      -6.6659      2.00000
      6      -6.6334      2.00000
      7      -6.6042      2.00000
      8      -6.5786      2.00000
      9      -6.5666      2.00000
     10      -6.5125      2.00000
     11      -6.4998      2.00000
     12      -6.3874      2.00000
     13      -6.3578      2.00000
     14      -6.3397      2.00000
     15      -6.3084      2.00000
     16      -6.2665      2.00000
     17      -6.2366      2.00000
     18      -6.1520      2.00000
     19      -6.1036      2.00000
     20      -6.0582      2.00000
     21      -5.9996      2.00000
     22      -5.9455      2.00000
     23      -5.9090      2.00000
     24      -5.8658      2.00000
     25      -5.8301      2.00000
     26      -5.7616      2.00000
     27      -5.7408      2.00000
     28      -5.6798      2.00000
     29      -5.6428      2.00000
     30      -5.5931      2.00000
     31      -5.5725      2.00000
     32      -5.5327      2.00000
     33      -5.4969      2.00000
     34      -5.4859      2.00000
     35      -5.4218      2.00000
     36      -5.3824      2.00000
     37      -5.3587      2.00000
     38      -5.2963      2.00000
     39      -5.2451      2.00000
     40      -5.1954      2.00000
     41      -5.1761      2.00000
     42      -5.1273      2.00000
     43      -5.0780      2.00000
     44      -4.9693      2.00000
     45      -4.9267      2.00000
     46      -4.8794      2.00000
     47      -4.8442      2.00000
     48      -4.8137      2.00000
     49      -4.7849      2.00000
     50      -4.7284      2.00000
     51      -4.6629      2.00000
     52      -4.6206      2.00000
     53      -4.5312      2.00000
     54      -4.5023      2.00000
     55      -4.4616      2.00000
     56      -4.4135      2.00000
     57      -4.3815      2.00000
     58      -4.3467      2.00000
     59      -4.3043      2.00000
     60      -4.2595      2.00000
     61      -4.2479      2.00000
     62      -4.2132      2.00000
     63      -4.0741      2.00000
     64      -3.5961      2.00000
     65      -3.3852      2.00000
     66      -3.1146      2.00000
     67      -2.7677      2.00000
     68      -2.4216      2.00000
     69      -1.6952      2.00000
     70      -1.1037      0.01327
     71      -0.3012     -0.00000
     72       0.2180     -0.00000
     73       1.0461     -0.00000
     74       1.2550     -0.00000
     75       1.9939      0.00000
     76       2.5216      0.00000
     77       2.6445      0.00000
     78       3.2500      0.00000
     79       3.6874      0.00000
     80       3.9239      0.00000
     81       4.3882      0.00000
     82       4.5165      0.00000
     83       4.9947      0.00000
     84       5.2071      0.00000
     85       5.2632      0.00000
     86       5.4104      0.00000
     87       5.6228      0.00000
     88       5.8139      0.00000
     89       5.8714      0.00000
     90       6.0535      0.00000
     91       6.3839      0.00000
     92       6.4863      0.00000
     93       6.5841      0.00000
     94       6.6824      0.00000
     95       6.7857      0.00000
     96       6.8518      0.00000

 k-point    12 :      -0.3333    0.3333    0.0000
  band No.  band energies     occupation 
      1     -18.4214      2.00000
      2      -7.0378      2.00000
      3      -6.7102      2.00000
      4      -6.6996      2.00000
      5      -6.5301      2.00000
      6      -6.5265      2.00000
      7      -6.5164      2.00000
      8      -6.4991      2.00000
      9      -6.4872      2.00000
     10      -6.4545      2.00000
     11      -6.4337      2.00000
     12      -6.4104      2.00000
     13      -6.4046      2.00000
     14      -6.4011      2.00000
     15      -6.3792      2.00000
     16      -6.3397      2.00000
     17      -6.2185      2.00000
     18      -6.1514      2.00000
     19      -6.1132      2.00000
     20      -6.0739      2.00000
     21      -5.9962      2.00000
     22      -5.9032      2.00000
     23      -5.9001      2.00000
     24      -5.8243      2.00000
     25      -5.8192      2.00000
     26      -5.7364      2.00000
     27      -5.7311      2.00000
     28      -5.7087      2.00000
     29      -5.7086      2.00000
     30      -5.6608      2.00000
     31      -5.6589      2.00000
     32      -5.5740      2.00000
     33      -5.5440      2.00000
     34      -5.5274      2.00000
     35      -5.4242      2.00000
     36      -5.4201      2.00000
     37      -5.4008      2.00000
     38      -5.3842      2.00000
     39      -5.3778      2.00000
     40      -5.3194      2.00000
     41      -5.2560      2.00000
     42      -5.1450      2.00000
     43      -4.9784      2.00000
     44      -4.9425      2.00000
     45      -4.9198      2.00000
     46      -4.8920      2.00000
     47      -4.8841      2.00000
     48      -4.7872      2.00000
     49      -4.7771      2.00000
     50      -4.6879      2.00000
     51      -4.6739      2.00000
     52      -4.5298      2.00000
     53      -4.5112      2.00000
     54      -4.4484      2.00000
     55      -4.4327      2.00000
     56      -4.4181      2.00000
     57      -4.3817      2.00000
     58      -4.3435      2.00000
     59      -4.3118      2.00000
     60      -4.2865      2.00000
     61      -4.2726      2.00000
     62      -4.0774      2.00000
     63      -4.0481      2.00000
     64      -4.0303      2.00000
     65      -3.3377      2.00000
     66      -3.1445      2.00000
     67      -2.9729      2.00000
     68      -2.4540      2.00000
     69      -1.7655      2.00000
     70      -1.2247      1.61619
     71       0.0352     -0.00000
     72       0.0797     -0.00000
     73       0.7880     -0.00000
     74       2.3699      0.00000
     75       2.4274      0.00000
     76       2.4334      0.00000
     77       2.6073      0.00000
     78       2.7766      0.00000
     79       3.2810      0.00000
     80       3.8674      0.00000
     81       4.5011      0.00000
     82       4.6956      0.00000
     83       4.9104      0.00000
     84       4.9250      0.00000
     85       5.0834      0.00000
     86       5.6844      0.00000
     87       5.6852      0.00000
     88       5.8396      0.00000
     89       5.9407      0.00000
     90       5.9511      0.00000
     91       5.9536      0.00000
     92       6.2848      0.00000
     93       6.5832      0.00000
     94       6.9154      0.00000
     95       6.9777      0.00000
     96       7.0088      0.00000


--------------------------------------------------------------------------------------------------------


 soft charge-density along one line, spin component           1
         0         1         2         3         4         5         6         7         8         9
 total charge-density along one line
 
 pseudopotential strength for first ion, spin component:           1
 -9.226  -0.000   0.000  -0.003   0.000  -9.244  -0.000   0.000
 -0.000  -9.218  -0.000   0.000  -0.003  -0.000  -9.238  -0.000
  0.000  -0.000  -9.221  -0.000   0.000   0.000  -0.000  -9.240
 -0.003   0.000  -0.000  -9.218  -0.000  -0.003   0.000  -0.000
  0.000  -0.003   0.000  -0.000  -9.226   0.000  -0.003   0.000
 -9.244  -0.000   0.000  -0.003   0.000  -9.237  -0.000   0.000
 -0.000  -9.238  -0.000   0.000  -0.003  -0.000  -9.231  -0.000
  0.000  -0.000  -9.240  -0.000   0.000   0.000  -0.000  -9.233
 -0.003   0.000  -0.000  -9.238  -0.000  -0.003   0.000  -0.000
  0.000  -0.003   0.000  -0.000  -9.244   0.000  -0.003   0.000
  0.000   0.000  -0.004   0.000   0.000   0.000   0.000  -0.004
  0.000   0.000  -0.006   0.000   0.000   0.000   0.000  -0.006
  0.000  -0.014  -0.000  -0.000   0.000   0.000  -0.013  -0.000
 -0.000   0.000  -0.017   0.000  -0.000  -0.000   0.000  -0.016
  0.000  -0.000  -0.000  -0.014   0.000   0.000  -0.000  -0.000
  0.000  -0.017  -0.000  -0.000   0.000   0.000  -0.016  -0.000
 -0.000   0.000  -0.020   0.000  -0.000  -0.000   0.000  -0.019
  0.000  -0.000  -0.000  -0.017   0.000   0.000  -0.000  -0.000
 total augmentation occupancy for first ion, spin component:           1
  3.125   0.000  -0.000  -0.023   0.000  -1.131  -0.000   0.000  -0.016  -0.000  -0.000   0.000   0.000   0.000  -0.017   0.000
  0.000   2.900  -0.000   0.000  -0.023  -0.000  -0.814  -0.000  -0.000  -0.016   0.000   0.000  -0.112   0.000   0.000  -0.000
 -0.000  -0.000   3.197   0.000   0.000   0.000  -0.000  -1.130   0.000  -0.000   0.338  -0.042  -0.000  -0.158   0.000   0.000
 -0.023   0.000   0.000   2.900   0.000  -0.016  -0.000   0.000  -0.814  -0.000   0.000   0.000  -0.000   0.000  -0.112   0.000
  0.000  -0.023   0.000   0.000   3.125   0.000  -0.016  -0.000  -0.000  -1.131   0.000  -0.000  -0.017  -0.000  -0.000   0.001
 -1.131   0.000   0.000  -0.016   0.000   1.087   0.000  -0.000   0.048   0.000   0.000  -0.000   0.000  -0.000   0.020  -0.000
 -0.000  -0.814  -0.000  -0.000  -0.016   0.000   0.696   0.000   0.000   0.048  -0.000   0.000   0.117  -0.000   0.000  -0.008
  0.000  -0.000  -1.130   0.000  -0.000  -0.000   0.000   1.026  -0.000   0.000  -0.326   0.052   0.000   0.182   0.000  -0.000
 -0.016  -0.000   0.000  -0.814  -0.000   0.048   0.000  -0.000   0.696   0.000   0.000   0.000   0.000  -0.000   0.117  -0.000
 -0.000  -0.016  -0.000  -0.000  -1.131  -0.000   0.048   0.000   0.000   1.087  -0.000   0.000   0.020   0.000   0.000  -0.002
 -0.000   0.000   0.338   0.000   0.000   0.000   0.000  -0.326   0.000  -0.000   1.918  -0.318   0.000   0.142   0.000  -0.000
  0.000   0.000  -0.042   0.000  -0.000  -0.000   0.000   0.052   0.000   0.000  -0.318   0.067   0.000  -0.036   0.000   0.000
 -0.000  -0.112  -0.000  -0.000  -0.017   0.000   0.117   0.000   0.000   0.020   0.000   0.000   0.143   0.000  -0.000  -0.008
  0.000  -0.000  -0.158   0.000  -0.000  -0.000   0.000   0.182  -0.000   0.000   0.142  -0.036   0.000   0.088  -0.000  -0.000
 -0.017  -0.000   0.000  -0.112  -0.000   0.020   0.000  -0.000   0.117   0.000   0.000   0.000   0.000   0.000   0.143  -0.000
  0.000  -0.000   0.000   0.000   0.001   0.000  -0.008  -0.000  -0.000  -0.002   0.000   0.000  -0.008   0.000  -0.000   0.001
  0.000  -0.000  -0.002  -0.000  -0.000   0.000   0.000  -0.009   0.000  -0.000  -0.014   0.003   0.000  -0.005   0.000  -0.000
  0.001  -0.000   0.000  -0.000   0.000  -0.002  -0.000  -0.000  -0.008  -0.000  -0.000  -0.000  -0.000   0.000  -0.008   0.000


------------------------ aborting loop because EDIFF is reached ----------------------------------------


 


 total charge     
 
# of ion     s       p       d       tot
----------------------------------------
  1        0.401   0.215   9.179   9.795
  2        0.413   0.200   9.180   9.793
  3        0.425   0.202   9.174   9.801
  4        0.419   0.200   9.179   9.798
  5        0.402   0.260   9.171   9.834
  6        0.411   0.258   9.176   9.845
  7        0.397   0.285   9.153   9.834
  8        0.409   0.258   9.178   9.845
  9        0.413   0.277   9.148   9.838
 10        0.397   0.270   9.142   9.809
 11        0.419   0.283   9.158   9.859
 12        0.382   0.194   9.217   9.792
 13        1.610   3.274   0.000   4.884
------------------------------------------------
tot        6.497   6.176 110.054 122.728
 
    CHARGE:  cpu time    0.1356: real time    0.1358
    FORLOC:  cpu time    0.0037: real time    0.0037
    FORNL :  cpu time    2.9129: real time    2.9138
    STRESS:  cpu time    4.2993: real time    4.3008
    FORCOR:  cpu time    0.0300: real time    0.0300
    FORHAR:  cpu time    0.0101: real time    0.0101
    MIXING:  cpu time    0.0028: real time    0.0028
    OFIELD:  cpu time    0.0001: real time    0.0001

  FORCE on cell =-STRESS in cart. coord.  units (eV):
  Direction    XX          YY          ZZ          XY          YZ          ZX
  --------------------------------------------------------------------------------------
  Alpha Z   177.74951   177.74951   177.74951
  Ewald   57127.85514 57127.85514-64976.24140    -0.00000    -0.00000    -0.00001
  Hartree 60314.56443 60314.56443-58586.32946    -0.00000    -0.00000    -0.00000
  E(xc)    -725.17127  -725.17125  -727.51997    -0.00002     0.00001     0.00001
  Local  ************************121354.85003     0.00108    -0.00008    -0.00015
  n-local  -123.72562  -140.51630  -135.04098    -7.58680     0.09669    -0.45287
  augment  1109.42642  1109.42700  1114.46707    -0.00050     0.00001     0.00002
  Kinetic  1760.05053  1764.83390  1776.64748     2.16356    -1.28571     1.16428
  Fock        0.00000     0.00000     0.00000     0.00000     0.00000     0.00000
  -------------------------------------------------------------------------------------
  Total      -2.31021    -2.31021    -1.41773     0.00000    -0.00000     0.00000
  in kB      -5.01283    -5.01283    -3.07627     0.00000    -0.00000     0.00000
  external pressure =       -4.37 kB  Pullay stress =        0.00 kB


 VOLUME and BASIS-vectors are now :
 -----------------------------------------------------------------------------
  energy-cutoff  :      400.00
  volume of cell :      738.38
      direct lattice vectors                 reciprocal lattice vectors
     5.864743640  0.000000000  0.000000000     0.170510437 -0.098444247  0.000000000
     2.932371820  5.079016980  0.000000000     0.000000000  0.196888493  0.000000000
     0.000000000  0.000000000 24.788543130     0.000000000  0.000000000  0.040341217

  length of vectors
     5.864743640  5.864743641 24.788543130     0.196888493  0.196888493  0.040341217


 FORCES acting on ions
    electron-ion (+dipol)            ewald-force                    non-local-force                 convergence-correction
 -----------------------------------------------------------------------------------------------
   0.357E-05 0.207E-05 0.217E+04   -.208E-04 -.120E-04 -.217E+04   0.104E-16 0.694E-17 -.224E+01   -.244E-07 -.141E-07 0.606E-02
   0.110E-04 0.213E+01 0.219E+04   0.182E-04 -.200E+01 -.219E+04   0.434E-17 -.118E+00 -.155E+01   0.254E-07 0.802E-03 0.405E-02
   0.184E+01 -.106E+01 0.219E+04   -.173E+01 0.100E+01 -.219E+04   -.102E+00 0.590E-01 -.155E+01   0.695E-03 -.401E-03 0.405E-02
   -.184E+01 -.106E+01 0.219E+04   0.173E+01 0.100E+01 -.219E+04   0.102E+00 0.590E-01 -.155E+01   -.695E-03 -.401E-03 0.405E-02
   -.236E+01 0.136E+01 0.146E+03   0.228E+01 -.132E+01 -.147E+03   0.782E-01 -.451E-01 0.270E+00   -.189E-02 0.109E-02 -.617E-02
   0.236E+01 0.136E+01 0.146E+03   -.228E+01 -.132E+01 -.147E+03   -.782E-01 -.451E-01 0.270E+00   0.189E-02 0.109E-02 -.617E-02
   0.115E-04 0.663E-05 0.133E+03   0.111E-04 0.638E-05 -.131E+03   -.347E-17 0.000E+00 -.150E+01   0.149E-07 0.860E-08 -.393E-02
   0.140E-04 -.273E+01 0.146E+03   -.939E-05 0.264E+01 -.147E+03   -.520E-17 0.903E-01 0.270E+00   -.130E-07 -.219E-02 -.617E-02
   0.582E+02 0.336E+02 -.193E+04   -.582E+02 -.336E+02 0.193E+04   -.266E-01 -.154E-01 -.289E+00   -.198E-03 -.114E-03 -.106E-01
   -.582E+02 0.336E+02 -.193E+04   0.582E+02 -.336E+02 0.193E+04   0.266E-01 -.154E-01 -.289E+00   0.198E-03 -.114E-03 -.106E-01
   0.833E-05 -.673E+02 -.193E+04   -.743E-05 0.672E+02 0.193E+04   -.976E-17 0.307E-01 -.289E+00   0.164E-07 0.229E-03 -.106E-01
   0.230E-05 0.131E-05 -.194E+04   0.100E-04 0.581E-05 0.193E+04   0.000E+00 0.000E+00 0.378E+01   0.863E-08 0.498E-08 -.144E-01
   0.331E-04 0.191E-04 -.156E+04   -.120E-05 -.647E-06 0.158E+04   0.191E-16 0.173E-17 -.212E+02   -.463E-08 -.267E-08 -.141E-02
 -----------------------------------------------------------------------------------------------
   0.133E-03 0.766E-04 0.259E+02   -.503E-14 -.635E-14 0.909E-12   -.455E-17 -.399E-16 -.259E+02   0.428E-07 0.247E-07 -.518E-01
 
 
 POSITION                                       TOTAL-FORCE (eV/Angst)
 -----------------------------------------------------------------------------------
      1.46619      0.84650     10.04627        -0.000000      0.000000      0.010275
      4.39856      0.84458     10.00664        -0.000000      0.008893      0.013484
      2.93071      3.38697     10.00664         0.007701     -0.004446      0.013484
      5.86641      3.38697     10.00664        -0.007701     -0.004446      0.013484
      5.86623      1.69215     12.38417        -0.004011      0.002316     -0.015034
      2.93089      1.69215     12.38417         0.004011      0.002316     -0.015034
      7.33093      4.23251     12.43020        -0.000000      0.000000      0.008806
      4.39856      4.23423     12.38417        -0.000000     -0.004632     -0.015034
      8.73077      5.04071     14.79961         0.008590      0.004959      0.018268
      5.93109      5.04071     14.79961        -0.008590      0.004959      0.018268
      7.33093      2.61612     14.79961        -0.000000     -0.009918      0.018268
      4.39856      2.53951     14.69343        -0.000000      0.000000     -0.055875
      1.46619      0.84650     15.97860         0.000000      0.000000     -0.013363
 -----------------------------------------------------------------------------------
    total drift:                                0.000133      0.000077     -0.002582


--------------------------------------------------------------------------------------------------------



  FREE ENERGIE OF THE ION-ELECTRON SYSTEM (eV)
  ---------------------------------------------------
  free  energy   TOTEN  =       -35.23761650 eV

  energy  without entropy=      -35.23374547  energy(sigma->0) =      -35.23632615
 


--------------------------------------------------------------------------------------------------------


    POTLOK:  cpu time    0.0345: real time    0.0345


--------------------------------------------------------------------------------------------------------


     LOOP+:  cpu time   80.4643: real time   80.7489
    4ORBIT:  cpu time    0.0000: real time    0.0000
 


 total charge     
 
# of ion     s       p       d       tot
----------------------------------------
  1        0.401   0.215   9.179   9.795
  2        0.413   0.200   9.180   9.793
  3        0.425   0.202   9.174   9.801
  4        0.419   0.200   9.179   9.798
  5        0.402   0.260   9.171   9.834
  6        0.411   0.258   9.176   9.845
  7        0.397   0.285   9.153   9.834
  8        0.409   0.258   9.178   9.845
  9        0.413   0.277   9.148   9.838
 10        0.397   0.270   9.142   9.809
 11        0.419   0.283   9.158   9.859
 12        0.382   0.194   9.217   9.792
 13        1.610   3.274   0.000   4.884
------------------------------------------------
tot        6.497   6.176 110.054 122.728
 

 total amount of memory used by VASP on root node    99324. kBytes
========================================================================

   base      :      30000. kBytes
   nonl-proj :      49507. kBytes
   fftplans  :       1950. kBytes
   grid      :       7104. kBytes
   one-center:        202. kBytes
   wavefun   :      10561. kBytes
 
  
  
 General timing and accounting informations for this job:
 ========================================================
  
                  Total CPU time used (sec):       82.782
                            User time (sec):       81.159
                          System time (sec):        1.623
                         Elapsed time (sec):       83.253
  
                   Maximum memory used (kb):      149532.
                   Average memory used (kb):           0.
  
                          Minor page faults:        68719
                          Major page faults:            8
                 Voluntary context switches:         1714
