PROCAR new format
# of k-points:   12         # of bands:  96         # of ions:  13

 k-point    1 :    0.00000000 0.00000000 0.00000000     weight = 0.01234568

band   1 # energy  -18.43072139 # occ.  2.00000000
 
ion      s      p      d    tot
  1  0.000  0.000  0.000  0.000
  2  0.000  0.000  0.000  0.000
  3  0.000  0.000  0.000  0.000
  4  0.000  0.000  0.000  0.000
  5  0.000  0.000  0.000  0.000
  6  0.000  0.000  0.000  0.000
  7  0.000  0.000  0.000  0.000
  8  0.000  0.000  0.000  0.000
  9  0.006  0.006  0.010  0.022
 10  0.006  0.006  0.010  0.022
 11  0.006  0.006  0.010  0.022
 12  0.000  0.000  0.000  0.000
 13  0.763  0.006  0.000  0.770
tot  0.782  0.024  0.031  0.836
 
band   2 # energy   -8.08418106 # occ.  2.00000000
 
ion      s      p      d    tot
  1  0.031  0.003  0.000  0.033
  2  0.027  0.002  0.000  0.029
  3  0.027  0.002  0.000  0.029
  4  0.027  0.002  0.000  0.029
  5  0.078  0.000  0.005  0.084
  6  0.078  0.000  0.005  0.084
  7  0.072  0.000  0.006  0.078
  8  0.078  0.000  0.005  0.084
  9  0.019  0.003  0.001  0.022
 10  0.019  0.003  0.001  0.022
 11  0.019  0.003  0.001  0.022
 12  0.028  0.003  0.000  0.030
 13  0.002  0.002  0.000  0.004
tot  0.505  0.021  0.025  0.551
 
band   3 # energy   -7.21406334 # occ.  2.00000000
 
ion      s      p      d    tot
  1  0.006  0.001  0.088  0.094
  2  0.010  0.000  0.017  0.028
  3  0.010  0.000  0.017  0.028
  4  0.010  0.000  0.017  0.028
  5  0.008  0.000  0.168  0.176
  6  0.008  0.000  0.168  0.176
  7  0.002  0.000  0.010  0.012
  8  0.008  0.000  0.168  0.176
  9  0.005  0.000  0.010  0.016
 10  0.005  0.000  0.010  0.016
 11  0.005  0.000  0.010  0.016
 12  0.002  0.001  0.073  0.076
 13  0.001  0.002  0.000  0.002
tot  0.081  0.005  0.756  0.842
 
band   4 # energy   -7.21003550 # occ.  2.00000000
 
ion      s      p      d    tot
  1  0.000  0.000  0.039  0.040
  2  0.000  0.000  0.027  0.028
  3  0.000  0.000  0.027  0.028
  4  0.001  0.000  0.010  0.011
  5  0.004  0.000  0.141  0.144
  6  0.014  0.000  0.032  0.046
  7  0.000  0.000  0.177  0.177
  8  0.004  0.000  0.141  0.144
  9  0.005  0.000  0.018  0.023
 10  0.001  0.000  0.061  0.062
 11  0.001  0.000  0.061  0.062
 12  0.000  0.001  0.066  0.067
 13  0.000  0.012  0.000  0.012
tot  0.031  0.014  0.800  0.845
 
band   5 # energy   -7.21002920 # occ.  2.00000000
 
ion      s      p      d    tot
  1  0.000  0.000  0.039  0.040
  2  0.001  0.000  0.016  0.017
  3  0.001  0.000  0.016  0.017
  4  0.000  0.000  0.033  0.033
  5  0.011  0.000  0.068  0.079
  6  0.000  0.000  0.177  0.177
  7  0.000  0.000  0.177  0.177
  8  0.011  0.000  0.068  0.079
  9  0.000  0.000  0.075  0.075
 10  0.004  0.000  0.032  0.036
 11  0.004  0.000  0.032  0.036
 12  0.000  0.001  0.066  0.067
 13  0.000  0.012  0.000  0.012
tot  0.031  0.014  0.800  0.845
 
band   6 # energy   -7.19568282 # occ.  2.00000000
 
ion      s      p      d    tot
  1  0.002  0.000  0.000  0.003
  2  0.003  0.000  0.027  0.030
  3  0.003  0.000  0.027  0.030
  4  0.003  0.000  0.027  0.030
  5  0.000  0.000  0.115  0.115
  6  0.000  0.000  0.115  0.115
  7  0.023  0.000  0.100  0.124
  8  0.000  0.000  0.115  0.115
  9  0.007  0.000  0.076  0.084
 10  0.007  0.000  0.076  0.084
 11  0.007  0.000  0.076  0.084
 12  0.002  0.000  0.000  0.003
 13  0.005  0.023  0.000  0.027
tot  0.065  0.024  0.753  0.842
 
band   7 # energy   -7.07136368 # occ.  2.00000000
 
ion      s      p      d    tot
  1  0.000  0.000  0.010  0.010
  2  0.002  0.001  0.011  0.014
  3  0.002  0.001  0.011  0.014
  4  0.008  0.002  0.019  0.029
  5  0.003  0.000  0.157  0.160
  6  0.013  0.000  0.024  0.037
  7  0.000  0.000  0.230  0.230
  8  0.003  0.000  0.157  0.160
  9  0.019  0.002  0.018  0.039
 10  0.005  0.000  0.046  0.051
 11  0.005  0.000  0.046  0.051
 12  0.000  0.000  0.037  0.037
 13  0.000  0.016  0.000  0.016
tot  0.061  0.022  0.766  0.849
 
band   8 # energy   -7.07135570 # occ.  2.00000000
 
ion      s      p      d    tot
  1  0.000  0.000  0.010  0.010
  2  0.006  0.002  0.016  0.024
  3  0.006  0.002  0.016  0.024
  4  0.000  0.000  0.009  0.009
  5  0.010  0.000  0.068  0.078
  6  0.000  0.000  0.201  0.201
  7  0.000  0.000  0.230  0.230
  8  0.010  0.000  0.068  0.078
  9  0.000  0.000  0.055  0.055
 10  0.014  0.001  0.027  0.043
 11  0.014  0.001  0.027  0.043
 12  0.000  0.000  0.037  0.037
 13  0.000  0.016  0.000  0.016
tot  0.061  0.022  0.766  0.849
 
band   9 # energy   -7.06541134 # occ.  2.00000000
 
ion      s      p      d    tot
  1  0.049  0.001  0.011  0.061
  2  0.010  0.000  0.057  0.067
  3  0.010  0.000  0.057  0.067
  4  0.010  0.000  0.057  0.067
  5  0.000  0.001  0.095  0.097
  6  0.000  0.001  0.095  0.097
  7  0.008  0.001  0.005  0.015
  8  0.000  0.001  0.095  0.097
  9  0.015  0.001  0.042  0.058
 10  0.015  0.001  0.042  0.058
 11  0.015  0.001  0.042  0.058
 12  0.000  0.001  0.030  0.031
 13  0.005  0.020  0.000  0.025
tot  0.137  0.030  0.630  0.797
 
band  10 # energy   -7.02377982 # occ.  2.00000000
 
ion      s      p      d    tot
  1  0.002  0.001  0.036  0.039
  2  0.024  0.000  0.036  0.060
  3  0.024  0.000  0.036  0.060
  4  0.024  0.000  0.036  0.060
  5  0.000  0.002  0.059  0.062
  6  0.000  0.002  0.059  0.062
  7  0.002  0.002  0.000  0.004
  8  0.000  0.002  0.059  0.062
  9  0.015  0.000  0.072  0.086
 10  0.015  0.000  0.072  0.086
 11  0.015  0.000  0.072  0.086
 12  0.063  0.001  0.033  0.097
 13  0.001  0.001  0.000  0.002
tot  0.183  0.013  0.569  0.765
 
band  11 # energy   -6.92215579 # occ.  2.00000000
 
ion      s      p      d    tot
  1  0.000  0.001  0.129  0.130
  2  0.001  0.001  0.088  0.089
  3  0.001  0.001  0.088  0.089
  4  0.003  0.000  0.029  0.033
  5  0.003  0.000  0.047  0.050
  6  0.012  0.000  0.112  0.124
  7  0.000  0.000  0.027  0.027
  8  0.003  0.000  0.047  0.050
  9  0.002  0.000  0.024  0.026
 10  0.000  0.000  0.069  0.070
 11  0.000  0.000  0.069  0.070
 12  0.000  0.001  0.111  0.113
 13  0.000  0.000  0.000  0.000
tot  0.026  0.006  0.841  0.872
 
band  12 # energy   -6.92215479 # occ.  2.00000000
 
ion      s      p      d    tot
  1  0.000  0.001  0.129  0.130
  2  0.002  0.000  0.049  0.052
  3  0.002  0.000  0.049  0.052
  4  0.000  0.001  0.107  0.108
  5  0.009  0.000  0.090  0.099
  6  0.000  0.000  0.026  0.026
  7  0.000  0.000  0.027  0.027
  8  0.009  0.000  0.090  0.099
  9  0.000  0.001  0.084  0.085
 10  0.001  0.000  0.039  0.041
 11  0.001  0.000  0.039  0.041
 12  0.000  0.001  0.111  0.113
 13  0.000  0.000  0.000  0.000
tot  0.026  0.006  0.841  0.872
 
band  13 # energy   -6.86730957 # occ.  2.00000000
 
ion      s      p      d    tot
  1  0.000  0.000  0.007  0.007
  2  0.000  0.001  0.063  0.065
  3  0.000  0.001  0.063  0.065
  4  0.000  0.001  0.063  0.065
  5  0.001  0.000  0.068  0.070
  6  0.001  0.000  0.068  0.070
  7  0.022  0.000  0.076  0.098
  8  0.001  0.000  0.068  0.070
  9  0.000  0.002  0.096  0.098
 10  0.000  0.002  0.096  0.098
 11  0.000  0.002  0.096  0.098
 12  0.004  0.000  0.023  0.027
 13  0.007  0.021  0.000  0.028
tot  0.037  0.032  0.789  0.858
 
band  14 # energy   -6.77206800 # occ.  2.00000000
 
ion      s      p      d    tot
  1  0.000  0.000  0.171  0.171
  2  0.004  0.000  0.117  0.121
  3  0.004  0.000  0.117  0.121
  4  0.015  0.000  0.029  0.044
  5  0.000  0.001  0.014  0.015
  6  0.000  0.001  0.003  0.004
  7  0.000  0.001  0.009  0.009
  8  0.000  0.001  0.014  0.015
  9  0.009  0.001  0.028  0.037
 10  0.002  0.000  0.104  0.107
 11  0.002  0.000  0.104  0.107
 12  0.000  0.000  0.094  0.095
 13  0.000  0.018  0.000  0.018
tot  0.035  0.023  0.805  0.863
 
band  15 # energy   -6.77205834 # occ.  2.00000000
 
ion      s      p      d    tot
  1  0.000  0.000  0.171  0.171
  2  0.011  0.000  0.058  0.070
  3  0.011  0.000  0.058  0.070
  4  0.000  0.000  0.146  0.146
  5  0.000  0.001  0.007  0.008
  6  0.000  0.001  0.018  0.019
  7  0.000  0.001  0.009  0.009
  8  0.000  0.001  0.007  0.008
  9  0.000  0.000  0.130  0.130
 10  0.007  0.000  0.053  0.060
 11  0.007  0.000  0.053  0.060
 12  0.000  0.000  0.095  0.095
 13  0.000  0.018  0.000  0.018
tot  0.035  0.023  0.805  0.863
 
band  16 # energy   -6.74711646 # occ.  2.00000000
 
ion      s      p      d    tot
  1  0.015  0.000  0.029  0.045
  2  0.002  0.000  0.180  0.182
  3  0.002  0.000  0.180  0.182
  4  0.002  0.000  0.180  0.182
  5  0.000  0.001  0.000  0.001
  6  0.000  0.001  0.000  0.001
  7  0.001  0.001  0.030  0.031
  8  0.000  0.001  0.000  0.001
  9  0.000  0.000  0.066  0.066
 10  0.000  0.000  0.066  0.066
 11  0.000  0.000  0.066  0.066
 12  0.009  0.000  0.022  0.031
 13  0.001  0.012  0.000  0.013
tot  0.034  0.015  0.819  0.868
 
band  17 # energy   -6.28407997 # occ.  2.00000000
 
ion      s      p      d    tot
  1  0.000  0.000  0.068  0.069
  2  0.000  0.000  0.047  0.047
  3  0.000  0.000  0.047  0.047
  4  0.000  0.000  0.015  0.015
  5  0.000  0.001  0.034  0.036
  6  0.000  0.004  0.006  0.009
  7  0.000  0.001  0.002  0.004
  8  0.000  0.001  0.034  0.036
  9  0.000  0.003  0.186  0.189
 10  0.000  0.001  0.110  0.111
 11  0.000  0.001  0.110  0.111
 12  0.000  0.000  0.118  0.118
 13  0.000  0.090  0.000  0.090
tot  0.000  0.104  0.777  0.882
 
band  18 # energy   -6.28403948 # occ.  2.00000000
 
ion      s      p      d    tot
  1  0.000  0.000  0.068  0.069
  2  0.000  0.000  0.025  0.026
  3  0.000  0.000  0.025  0.026
  4  0.000  0.000  0.057  0.057
  5  0.000  0.003  0.015  0.018
  6  0.000  0.001  0.044  0.045
  7  0.000  0.001  0.002  0.004
  8  0.000  0.003  0.015  0.018
  9  0.000  0.000  0.085  0.086
 10  0.000  0.002  0.161  0.163
 11  0.000  0.002  0.161  0.163
 12  0.000  0.000  0.118  0.118
 13  0.000  0.090  0.000  0.090
tot  0.000  0.104  0.778  0.882
 
band  19 # energy   -5.97693768 # occ.  2.00000000
 
ion      s      p      d    tot
  1  0.000  0.000  0.169  0.169
  2  0.000  0.000  0.127  0.127
  3  0.000  0.000  0.127  0.127
  4  0.000  0.000  0.045  0.045
  5  0.000  0.002  0.064  0.065
  6  0.000  0.003  0.053  0.056
  7  0.000  0.001  0.027  0.028
  8  0.000  0.002  0.064  0.065
  9  0.000  0.002  0.043  0.045
 10  0.000  0.001  0.056  0.057
 11  0.000  0.001  0.056  0.057
 12  0.000  0.000  0.043  0.044
 13  0.000  0.018  0.000  0.018
tot  0.001  0.029  0.874  0.903
 
band  20 # energy   -5.97692947 # occ.  2.00000000
 
ion      s      p      d    tot
  1  0.000  0.000  0.169  0.169
  2  0.000  0.000  0.072  0.073
  3  0.000  0.000  0.072  0.073
  4  0.000  0.000  0.155  0.155
  5  0.000  0.003  0.056  0.059
  6  0.000  0.001  0.067  0.069
  7  0.000  0.001  0.027  0.028
  8  0.000  0.003  0.056  0.059
  9  0.000  0.000  0.060  0.060
 10  0.000  0.001  0.047  0.049
 11  0.000  0.001  0.047  0.049
 12  0.000  0.000  0.043  0.044
 13  0.000  0.018  0.000  0.018
tot  0.001  0.029  0.874  0.903
 
band  21 # energy   -5.95798400 # occ.  2.00000000
 
ion      s      p      d    tot
  1  0.000  0.000  0.036  0.036
  2  0.000  0.000  0.084  0.084
  3  0.000  0.000  0.084  0.084
  4  0.000  0.000  0.084  0.084
  5  0.000  0.000  0.081  0.081
  6  0.000  0.000  0.081  0.081
  7  0.002  0.000  0.212  0.214
  8  0.000  0.000  0.081  0.081
  9  0.000  0.001  0.044  0.045
 10  0.000  0.001  0.044  0.045
 11  0.000  0.001  0.044  0.045
 12  0.000  0.001  0.039  0.040
 13  0.000  0.003  0.000  0.003
tot  0.003  0.007  0.914  0.923
 
band  22 # energy   -5.93057904 # occ.  2.00000000
 
ion      s      p      d    tot
  1  0.000  0.000  0.000  0.000
  2  0.000  0.000  0.137  0.137
  3  0.000  0.000  0.137  0.137
  4  0.000  0.000  0.137  0.137
  5  0.000  0.004  0.001  0.005
  6  0.000  0.004  0.001  0.005
  7  0.001  0.007  0.011  0.020
  8  0.000  0.004  0.001  0.005
  9  0.000  0.001  0.138  0.139
 10  0.000  0.001  0.138  0.139
 11  0.000  0.001  0.138  0.139
 12  0.000  0.000  0.002  0.002
 13  0.005  0.007  0.000  0.012
tot  0.007  0.029  0.841  0.878
 
band  23 # energy   -5.85621691 # occ.  2.00000000
 
ion      s      p      d    tot
  1  0.000  0.000  0.027  0.027
  2  0.000  0.000  0.012  0.012
  3  0.000  0.000  0.012  0.012
  4  0.000  0.000  0.022  0.023
  5  0.000  0.000  0.058  0.058
  6  0.000  0.001  0.147  0.148
  7  0.000  0.000  0.216  0.216
  8  0.000  0.000  0.058  0.058
  9  0.000  0.000  0.075  0.075
 10  0.000  0.000  0.030  0.031
 11  0.000  0.000  0.031  0.031
 12  0.000  0.001  0.235  0.236
 13  0.000  0.007  0.000  0.007
tot  0.000  0.010  0.922  0.933
 
band  24 # energy   -5.85621296 # occ.  2.00000000
 
ion      s      p      d    tot
  1  0.000  0.000  0.027  0.027
  2  0.000  0.000  0.019  0.019
  3  0.000  0.000  0.019  0.019
  4  0.000  0.000  0.008  0.008
  5  0.000  0.001  0.117  0.118
  6  0.000  0.000  0.028  0.028
  7  0.000  0.000  0.216  0.216
  8  0.000  0.001  0.117  0.118
  9  0.000  0.000  0.016  0.016
 10  0.000  0.000  0.060  0.060
 11  0.000  0.000  0.060  0.060
 12  0.000  0.001  0.235  0.236
 13  0.000  0.007  0.000  0.007
tot  0.000  0.010  0.922  0.933
 
band  25 # energy   -5.84829353 # occ.  2.00000000
 
ion      s      p      d    tot
  1  0.000  0.001  0.076  0.077
  2  0.000  0.001  0.054  0.055
  3  0.000  0.001  0.054  0.055
  4  0.000  0.001  0.054  0.055
  5  0.002  0.000  0.118  0.119
  6  0.002  0.000  0.118  0.119
  7  0.002  0.000  0.077  0.078
  8  0.002  0.000  0.118  0.119
  9  0.000  0.001  0.058  0.059
 10  0.000  0.001  0.058  0.059
 11  0.000  0.001  0.058  0.059
 12  0.000  0.001  0.064  0.065
 13  0.000  0.005  0.000  0.006
tot  0.008  0.011  0.908  0.926
 
band  26 # energy   -5.81673621 # occ.  2.00000000
 
ion      s      p      d    tot
  1  0.000  0.000  0.005  0.005
  2  0.000  0.000  0.016  0.016
  3  0.000  0.000  0.016  0.016
  4  0.000  0.000  0.017  0.017
  5  0.000  0.000  0.193  0.193
  6  0.000  0.000  0.148  0.149
  7  0.000  0.000  0.142  0.142
  8  0.000  0.000  0.193  0.193
  9  0.000  0.000  0.050  0.050
 10  0.000  0.000  0.050  0.050
 11  0.000  0.000  0.050  0.050
 12  0.000  0.000  0.051  0.051
 13  0.000  0.005  0.000  0.005
tot  0.001  0.007  0.930  0.938
 
band  27 # energy   -5.81673294 # occ.  2.00000000
 
ion      s      p      d    tot
  1  0.000  0.000  0.005  0.005
  2  0.000  0.000  0.017  0.017
  3  0.000  0.000  0.017  0.017
  4  0.000  0.000  0.015  0.015
  5  0.000  0.000  0.163  0.164
  6  0.000  0.000  0.208  0.208
  7  0.000  0.000  0.142  0.142
  8  0.000  0.000  0.163  0.164
  9  0.000  0.000  0.050  0.050
 10  0.000  0.000  0.050  0.050
 11  0.000  0.000  0.050  0.050
 12  0.000  0.000  0.051  0.052
 13  0.000  0.005  0.000  0.005
tot  0.001  0.007  0.930  0.938
 
band  28 # energy   -5.65185526 # occ.  2.00000000
 
ion      s      p      d    tot
  1  0.000  0.000  0.119  0.120
  2  0.000  0.000  0.075  0.075
  3  0.000  0.000  0.075  0.075
  4  0.000  0.000  0.076  0.076
  5  0.000  0.000  0.055  0.055
  6  0.000  0.000  0.220  0.220
  7  0.000  0.000  0.023  0.023
  8  0.000  0.000  0.055  0.055
  9  0.000  0.000  0.053  0.053
 10  0.000  0.000  0.056  0.056
 11  0.000  0.000  0.056  0.056
 12  0.000  0.000  0.080  0.080
 13  0.000  0.000  0.000  0.000
tot  0.000  0.001  0.943  0.944
 
band  29 # energy   -5.65185460 # occ.  2.00000000
 
ion      s      p      d    tot
  1  0.000  0.000  0.119  0.120
  2  0.000  0.000  0.075  0.076
  3  0.000  0.000  0.075  0.076
  4  0.000  0.000  0.075  0.075
  5  0.000  0.000  0.165  0.165
  6  0.000  0.000  0.000  0.000
  7  0.000  0.000  0.023  0.023
  8  0.000  0.000  0.165  0.165
  9  0.000  0.000  0.057  0.057
 10  0.000  0.000  0.054  0.054
 11  0.000  0.000  0.054  0.054
 12  0.000  0.000  0.080  0.080
 13  0.000  0.000  0.000  0.000
tot  0.000  0.001  0.943  0.944
 
band  30 # energy   -5.56005253 # occ.  2.00000000
 
ion      s      p      d    tot
  1  0.000  0.000  0.000  0.000
  2  0.000  0.000  0.069  0.070
  3  0.000  0.000  0.069  0.070
  4  0.000  0.000  0.069  0.070
  5  0.000  0.000  0.197  0.197
  6  0.000  0.000  0.197  0.197
  7  0.000  0.000  0.000  0.000
  8  0.000  0.000  0.197  0.197
  9  0.000  0.000  0.047  0.048
 10  0.000  0.000  0.047  0.048
 11  0.000  0.000  0.047  0.048
 12  0.000  0.000  0.000  0.000
 13  0.000  0.000  0.000  0.000
tot  0.000  0.001  0.942  0.943
 
band  31 # energy   -5.54529081 # occ.  2.00000000
 
ion      s      p      d    tot
  1  0.000  0.000  0.142  0.142
  2  0.000  0.000  0.165  0.165
  3  0.000  0.000  0.165  0.165
  4  0.000  0.000  0.165  0.165
  5  0.000  0.000  0.024  0.024
  6  0.000  0.000  0.022  0.022
  7  0.000  0.000  0.083  0.083
  8  0.000  0.000  0.024  0.024
  9  0.000  0.000  0.043  0.043
 10  0.000  0.000  0.033  0.033
 11  0.000  0.000  0.033  0.033
 12  0.000  0.000  0.044  0.044
 13  0.000  0.002  0.000  0.002
tot  0.000  0.003  0.942  0.946
 
band  32 # energy   -5.54528902 # occ.  2.00000000
 
ion      s      p      d    tot
  1  0.000  0.000  0.142  0.142
  2  0.000  0.000  0.165  0.165
  3  0.000  0.000  0.165  0.165
  4  0.000  0.000  0.165  0.165
  5  0.000  0.000  0.023  0.023
  6  0.000  0.000  0.025  0.025
  7  0.000  0.000  0.083  0.083
  8  0.000  0.000  0.023  0.023
  9  0.000  0.000  0.030  0.030
 10  0.000  0.000  0.040  0.040
 11  0.000  0.000  0.039  0.040
 12  0.000  0.000  0.044  0.044
 13  0.000  0.002  0.000  0.002
tot  0.000  0.003  0.942  0.946
 
band  33 # energy   -5.15046824 # occ.  2.00000000
 
ion      s      p      d    tot
  1  0.030  0.001  0.343  0.374
  2  0.005  0.000  0.003  0.009
  3  0.005  0.000  0.003  0.009
  4  0.005  0.000  0.003  0.009
  5  0.000  0.014  0.000  0.014
  6  0.000  0.014  0.000  0.014
  7  0.000  0.003  0.003  0.006
  8  0.000  0.014  0.000  0.014
  9  0.006  0.000  0.003  0.010
 10  0.006  0.000  0.003  0.010
 11  0.006  0.000  0.003  0.010
 12  0.030  0.001  0.318  0.349
 13  0.000  0.000  0.000  0.000
tot  0.094  0.047  0.685  0.826
 
band  34 # energy   -5.13634688 # occ.  2.00000000
 
ion      s      p      d    tot
  1  0.000  0.000  0.120  0.120
  2  0.000  0.000  0.025  0.025
  3  0.000  0.000  0.025  0.025
  4  0.001  0.000  0.098  0.099
  5  0.000  0.000  0.014  0.014
  6  0.000  0.001  0.022  0.023
  7  0.000  0.002  0.090  0.091
  8  0.000  0.000  0.014  0.014
  9  0.003  0.002  0.168  0.173
 10  0.001  0.001  0.092  0.094
 11  0.001  0.001  0.092  0.094
 12  0.000  0.000  0.117  0.118
 13  0.000  0.043  0.000  0.043
tot  0.005  0.052  0.876  0.933
 
band  35 # energy   -5.13632629 # occ.  2.00000000
 
ion      s      p      d    tot
  1  0.000  0.000  0.120  0.120
  2  0.000  0.000  0.074  0.074
  3  0.000  0.000  0.074  0.074
  4  0.000  0.000  0.000  0.000
  5  0.000  0.001  0.020  0.020
  6  0.000  0.000  0.011  0.011
  7  0.000  0.002  0.090  0.091
  8  0.000  0.001  0.020  0.020
  9  0.000  0.001  0.066  0.067
 10  0.002  0.002  0.142  0.146
 11  0.002  0.002  0.142  0.146
 12  0.000  0.000  0.117  0.118
 13  0.000  0.043  0.000  0.043
tot  0.005  0.052  0.876  0.933
 
band  36 # energy   -4.99300320 # occ.  2.00000000
 
ion      s      p      d    tot
  1  0.003  0.000  0.020  0.023
  2  0.017  0.000  0.100  0.117
  3  0.017  0.000  0.100  0.117
  4  0.017  0.000  0.100  0.117
  5  0.000  0.009  0.003  0.011
  6  0.000  0.009  0.003  0.011
  7  0.002  0.019  0.024  0.045
  8  0.000  0.009  0.003  0.011
  9  0.015  0.003  0.085  0.103
 10  0.015  0.003  0.085  0.103
 11  0.015  0.003  0.085  0.103
 12  0.002  0.000  0.044  0.045
 13  0.002  0.000  0.000  0.002
tot  0.104  0.055  0.650  0.809
 
band  37 # energy   -4.94912179 # occ.  2.00000000
 
ion      s      p      d    tot
  1  0.000  0.000  0.021  0.021
  2  0.002  0.000  0.078  0.080
  3  0.002  0.000  0.078  0.080
  4  0.007  0.000  0.277  0.284
  5  0.000  0.007  0.000  0.008
  6  0.000  0.003  0.001  0.004
  7  0.000  0.007  0.004  0.010
  8  0.000  0.007  0.000  0.008
  9  0.005  0.001  0.241  0.248
 10  0.001  0.000  0.075  0.076
 11  0.001  0.000  0.075  0.076
 12  0.000  0.000  0.016  0.016
 13  0.000  0.001  0.000  0.001
tot  0.018  0.027  0.866  0.912
 
band  38 # energy   -4.94912107 # occ.  2.00000000
 
ion      s      p      d    tot
  1  0.000  0.000  0.021  0.021
  2  0.005  0.000  0.211  0.216
  3  0.005  0.000  0.211  0.216
  4  0.000  0.000  0.011  0.011
  5  0.000  0.004  0.001  0.005
  6  0.000  0.009  0.000  0.009
  7  0.000  0.007  0.004  0.010
  8  0.000  0.004  0.001  0.005
  9  0.000  0.000  0.019  0.019
 10  0.004  0.001  0.186  0.190
 11  0.004  0.001  0.186  0.191
 12  0.000  0.000  0.016  0.016
 13  0.000  0.001  0.000  0.001
tot  0.018  0.027  0.866  0.912
 
band  39 # energy   -4.87629399 # occ.  2.00000000
 
ion      s      p      d    tot
  1  0.000  0.000  0.068  0.068
  2  0.000  0.000  0.060  0.060
  3  0.000  0.000  0.060  0.060
  4  0.000  0.000  0.049  0.049
  5  0.000  0.000  0.146  0.146
  6  0.000  0.000  0.120  0.120
  7  0.000  0.000  0.169  0.169
  8  0.000  0.000  0.146  0.146
  9  0.000  0.000  0.043  0.043
 10  0.000  0.000  0.039  0.039
 11  0.000  0.000  0.039  0.039
 12  0.000  0.000  0.031  0.031
 13  0.000  0.000  0.000  0.000
tot  0.000  0.001  0.969  0.970
 
band  40 # energy   -4.87629346 # occ.  2.00000000
 
ion      s      p      d    tot
  1  0.000  0.000  0.068  0.068
  2  0.000  0.000  0.053  0.053
  3  0.000  0.000  0.053  0.053
  4  0.000  0.000  0.063  0.063
  5  0.000  0.000  0.128  0.128
  6  0.000  0.000  0.154  0.154
  7  0.000  0.000  0.169  0.169
  8  0.000  0.000  0.128  0.128
  9  0.000  0.000  0.037  0.037
 10  0.000  0.000  0.042  0.042
 11  0.000  0.000  0.042  0.042
 12  0.000  0.000  0.031  0.031
 13  0.000  0.000  0.000  0.000
tot  0.000  0.001  0.969  0.970
 
band  41 # energy   -4.79510719 # occ.  2.00000000
 
ion      s      p      d    tot
  1  0.000  0.000  0.000  0.000
  2  0.000  0.000  0.153  0.153
  3  0.000  0.000  0.153  0.153
  4  0.000  0.000  0.153  0.153
  5  0.000  0.001  0.001  0.002
  6  0.000  0.001  0.001  0.002
  7  0.000  0.000  0.000  0.000
  8  0.000  0.001  0.001  0.002
  9  0.000  0.000  0.164  0.164
 10  0.000  0.000  0.164  0.164
 11  0.000  0.000  0.164  0.164
 12  0.000  0.000  0.000  0.000
 13  0.000  0.000  0.000  0.000
tot  0.000  0.002  0.955  0.957
 
band  42 # energy   -4.71400082 # occ.  2.00000000
 
ion      s      p      d    tot
  1  0.000  0.001  0.059  0.060
  2  0.000  0.001  0.121  0.122
  3  0.000  0.001  0.121  0.122
  4  0.000  0.000  0.063  0.064
  5  0.000  0.000  0.029  0.030
  6  0.001  0.000  0.095  0.096
  7  0.000  0.001  0.053  0.054
  8  0.000  0.000  0.029  0.030
  9  0.000  0.002  0.019  0.021
 10  0.000  0.002  0.045  0.047
 11  0.000  0.002  0.045  0.047
 12  0.000  0.002  0.241  0.242
 13  0.000  0.013  0.000  0.013
tot  0.002  0.025  0.920  0.947
 
band  43 # energy   -4.71399399 # occ.  2.00000000
 
ion      s      p      d    tot
  1  0.000  0.001  0.059  0.060
  2  0.000  0.000  0.082  0.083
  3  0.000  0.000  0.082  0.083
  4  0.000  0.001  0.140  0.141
  5  0.000  0.000  0.073  0.074
  6  0.000  0.000  0.007  0.008
  7  0.000  0.001  0.053  0.054
  8  0.000  0.000  0.073  0.074
  9  0.000  0.003  0.053  0.056
 10  0.000  0.002  0.028  0.030
 11  0.000  0.002  0.028  0.030
 12  0.000  0.002  0.241  0.242
 13  0.000  0.013  0.000  0.013
tot  0.002  0.025  0.920  0.947
 
band  44 # energy   -4.60280241 # occ.  2.00000000
 
ion      s      p      d    tot
  1  0.000  0.000  0.044  0.045
  2  0.002  0.002  0.057  0.061
  3  0.002  0.002  0.057  0.061
  4  0.002  0.002  0.057  0.061
  5  0.001  0.001  0.070  0.072
  6  0.001  0.001  0.070  0.072
  7  0.000  0.001  0.211  0.213
  8  0.001  0.001  0.070  0.072
  9  0.000  0.004  0.057  0.060
 10  0.000  0.004  0.057  0.060
 11  0.000  0.004  0.057  0.060
 12  0.001  0.000  0.041  0.043
 13  0.005  0.037  0.000  0.042
tot  0.013  0.058  0.849  0.920
 
band  45 # energy   -4.59134345 # occ.  2.00000000
 
ion      s      p      d    tot
  1  0.000  0.002  0.150  0.152
  2  0.000  0.001  0.024  0.025
  3  0.000  0.001  0.024  0.025
  4  0.000  0.000  0.082  0.082
  5  0.000  0.000  0.054  0.054
  6  0.001  0.000  0.155  0.156
  7  0.000  0.000  0.012  0.012
  8  0.000  0.000  0.054  0.054
  9  0.000  0.000  0.066  0.066
 10  0.000  0.001  0.161  0.162
 11  0.000  0.001  0.161  0.162
 12  0.000  0.001  0.003  0.004
 13  0.000  0.001  0.000  0.001
tot  0.001  0.009  0.944  0.954
 
band  46 # energy   -4.59134213 # occ.  2.00000000
 
ion      s      p      d    tot
  1  0.000  0.002  0.150  0.152
  2  0.000  0.001  0.062  0.063
  3  0.000  0.001  0.062  0.063
  4  0.000  0.002  0.004  0.006
  5  0.001  0.000  0.121  0.122
  6  0.000  0.000  0.020  0.020
  7  0.000  0.000  0.012  0.012
  8  0.001  0.000  0.121  0.122
  9  0.000  0.001  0.193  0.194
 10  0.000  0.000  0.098  0.098
 11  0.000  0.000  0.097  0.098
 12  0.000  0.001  0.003  0.004
 13  0.000  0.001  0.000  0.001
tot  0.001  0.009  0.944  0.954
 
band  47 # energy   -4.41571395 # occ.  2.00000000
 
ion      s      p      d    tot
  1  0.000  0.001  0.025  0.026
  2  0.000  0.000  0.101  0.102
  3  0.000  0.000  0.101  0.102
  4  0.000  0.000  0.291  0.291
  5  0.000  0.000  0.061  0.061
  6  0.000  0.000  0.097  0.097
  7  0.000  0.000  0.135  0.135
  8  0.000  0.000  0.061  0.061
  9  0.000  0.001  0.006  0.007
 10  0.000  0.000  0.003  0.003
 11  0.000  0.000  0.003  0.003
 12  0.000  0.000  0.069  0.070
 13  0.000  0.011  0.000  0.011
tot  0.000  0.015  0.953  0.968
 
band  48 # energy   -4.41570792 # occ.  2.00000000
 
ion      s      p      d    tot
  1  0.000  0.001  0.025  0.026
  2  0.000  0.000  0.227  0.228
  3  0.000  0.000  0.227  0.228
  4  0.000  0.000  0.038  0.039
  5  0.000  0.000  0.085  0.085
  6  0.000  0.000  0.049  0.049
  7  0.000  0.000  0.135  0.135
  8  0.000  0.000  0.085  0.085
  9  0.000  0.000  0.002  0.002
 10  0.000  0.001  0.005  0.006
 11  0.000  0.001  0.005  0.006
 12  0.000  0.000  0.069  0.070
 13  0.000  0.011  0.000  0.011
tot  0.000  0.015  0.953  0.969
 
band  49 # energy   -4.30893444 # occ.  2.00000000
 
ion      s      p      d    tot
  1  0.000  0.000  0.000  0.000
  2  0.000  0.000  0.084  0.084
  3  0.000  0.000  0.084  0.084
  4  0.000  0.000  0.084  0.084
  5  0.000  0.000  0.145  0.145
  6  0.000  0.000  0.145  0.145
  7  0.000  0.000  0.000  0.000
  8  0.000  0.000  0.145  0.145
  9  0.000  0.000  0.097  0.097
 10  0.000  0.000  0.097  0.097
 11  0.000  0.000  0.097  0.097
 12  0.000  0.000  0.000  0.000
 13  0.000  0.000  0.000  0.000
tot  0.000  0.001  0.978  0.978
 
band  50 # energy   -4.29344697 # occ.  2.00000000
 
ion      s      p      d    tot
  1  0.000  0.000  0.129  0.129
  2  0.000  0.000  0.086  0.087
  3  0.000  0.000  0.086  0.087
  4  0.000  0.000  0.023  0.023
  5  0.000  0.000  0.065  0.065
  6  0.000  0.000  0.187  0.187
  7  0.000  0.000  0.062  0.062
  8  0.000  0.000  0.065  0.065
  9  0.000  0.000  0.014  0.015
 10  0.000  0.000  0.068  0.068
 11  0.000  0.000  0.068  0.068
 12  0.000  0.000  0.121  0.122
 13  0.000  0.001  0.000  0.001
tot  0.000  0.002  0.975  0.978
 
band  51 # energy   -4.29344579 # occ.  2.00000000
 
ion      s      p      d    tot
  1  0.000  0.000  0.129  0.129
  2  0.000  0.000  0.044  0.044
  3  0.000  0.000  0.044  0.044
  4  0.000  0.000  0.108  0.108
  5  0.000  0.000  0.146  0.146
  6  0.000  0.000  0.024  0.024
  7  0.000  0.000  0.062  0.062
  8  0.000  0.000  0.146  0.146
  9  0.000  0.000  0.085  0.085
 10  0.000  0.000  0.032  0.032
 11  0.000  0.000  0.032  0.032
 12  0.000  0.000  0.121  0.122
 13  0.000  0.001  0.000  0.001
tot  0.000  0.002  0.975  0.978
 
band  52 # energy   -4.24783436 # occ.  2.00000000
 
ion      s      p      d    tot
  1  0.002  0.002  0.208  0.212
  2  0.000  0.000  0.036  0.037
  3  0.000  0.000  0.036  0.037
  4  0.000  0.000  0.036  0.037
  5  0.000  0.000  0.060  0.060
  6  0.000  0.000  0.060  0.060
  7  0.000  0.000  0.084  0.084
  8  0.000  0.000  0.060  0.060
  9  0.000  0.000  0.048  0.048
 10  0.000  0.000  0.048  0.048
 11  0.000  0.000  0.048  0.048
 12  0.001  0.003  0.212  0.216
 13  0.001  0.009  0.000  0.011
tot  0.005  0.017  0.936  0.958
 
band  53 # energy   -4.19159298 # occ.  2.00000000
 
ion      s      p      d    tot
  1  0.000  0.000  0.034  0.034
  2  0.000  0.000  0.054  0.055
  3  0.000  0.000  0.055  0.055
  4  0.001  0.001  0.181  0.183
  5  0.000  0.000  0.087  0.087
  6  0.000  0.000  0.062  0.062
  7  0.000  0.000  0.015  0.015
  8  0.000  0.000  0.087  0.087
  9  0.001  0.001  0.219  0.220
 10  0.000  0.000  0.065  0.065
 11  0.000  0.000  0.064  0.065
 12  0.000  0.000  0.037  0.037
 13  0.000  0.000  0.000  0.000
tot  0.003  0.004  0.960  0.967
 
band  54 # energy   -4.19159257 # occ.  2.00000000
 
ion      s      p      d    tot
  1  0.000  0.000  0.034  0.034
  2  0.001  0.001  0.139  0.140
  3  0.001  0.001  0.139  0.140
  4  0.000  0.000  0.012  0.012
  5  0.000  0.000  0.071  0.071
  6  0.000  0.000  0.096  0.096
  7  0.000  0.000  0.015  0.015
  8  0.000  0.000  0.071  0.071
  9  0.000  0.000  0.013  0.013
 10  0.001  0.001  0.167  0.169
 11  0.001  0.001  0.167  0.169
 12  0.000  0.000  0.037  0.037
 13  0.000  0.000  0.000  0.000
tot  0.003  0.004  0.960  0.967
 
band  55 # energy   -4.17220215 # occ.  2.00000000
 
ion      s      p      d    tot
  1  0.000  0.000  0.027  0.027
  2  0.000  0.000  0.016  0.016
  3  0.000  0.000  0.016  0.016
  4  0.000  0.000  0.006  0.006
  5  0.000  0.000  0.265  0.265
  6  0.000  0.000  0.029  0.029
  7  0.000  0.000  0.322  0.322
  8  0.000  0.000  0.265  0.265
  9  0.000  0.000  0.002  0.002
 10  0.000  0.000  0.009  0.009
 11  0.000  0.000  0.009  0.009
 12  0.000  0.000  0.018  0.018
 13  0.000  0.001  0.000  0.001
tot  0.000  0.001  0.985  0.986
 
band  56 # energy   -4.17220180 # occ.  2.00000000
 
ion      s      p      d    tot
  1  0.000  0.000  0.027  0.027
  2  0.000  0.000  0.009  0.009
  3  0.000  0.000  0.009  0.009
  4  0.000  0.000  0.020  0.020
  5  0.000  0.000  0.108  0.108
  6  0.000  0.000  0.343  0.343
  7  0.000  0.000  0.322  0.322
  8  0.000  0.000  0.108  0.108
  9  0.000  0.000  0.012  0.012
 10  0.000  0.000  0.004  0.004