<?xml version="1.0" encoding="ISO-8859-1"?>
<modeling>
 <generator>
  <i name="program" type="string">vasp </i>
  <i name="version" type="string">5.4.1  </i>
  <i name="subversion" type="string">05Feb16 (build Feb 08 2018 09:21:51) complex                          parallel </i>
  <i name="platform" type="string">LinuxIFC </i>
  <i name="date" type="string">2019 11 21 </i>
  <i name="time" type="string">23:49:26 </i>
 </generator>
 <incar>
  <i type="string" name="PREC">normal</i>
  <i name="ENCUT">    400.00000000</i>
  <i type="int" name="ISMEAR">     1</i>
  <i name="SIGMA">      0.10000000</i>
  <i type="logical" name="LWAVE"> F  </i>
  <i type="logical" name="LCHARG"> F  </i>
  <i type="logical" name="LORBIT"> F  </i>
  <v type="int" name="KPOINT_BSE">    -1     0     0     0</v>
 </incar>
 <kpoints>
  <generation param="Monkhorst-Pack">
   <v type="int" name="divisions">       9        9        1 </v>
   <v name="usershift">      0.00000000       0.00000000       0.00000000 </v>
   <v name="genvec1">      0.11111111       0.00000000       0.00000000 </v>
   <v name="genvec2">      0.00000000       0.11111111       0.00000000 </v>
   <v name="genvec3">      0.00000000       0.00000000       1.00000000 </v>
   <v name="shift">      0.00000000       0.00000000       0.00000000 </v>
  </generation>
  <varray name="kpointlist" >
   <v>       0.00000000       0.00000000       0.00000000 </v>
   <v>       0.11111111       0.00000000       0.00000000 </v>
   <v>       0.22222222      -0.00000000       0.00000000 </v>
   <v>       0.33333333      -0.00000000       0.00000000 </v>
   <v>       0.44444444      -0.00000000       0.00000000 </v>
   <v>       0.22222222       0.11111111       0.00000000 </v>
   <v>       0.33333333       0.11111111       0.00000000 </v>
   <v>       0.44444444       0.11111111       0.00000000 </v>
   <v>      -0.44444444       0.11111111       0.00000000 </v>
   <v>       0.44444444       0.22222222       0.00000000 </v>
   <v>      -0.44444444       0.22222222       0.00000000 </v>
   <v>      -0.33333333       0.33333333       0.00000000 </v>
  </varray>
  <varray name="weights" >
   <v>       0.01234568 </v>
   <v>       0.07407407 </v>
   <v>       0.07407407 </v>
   <v>       0.07407407 </v>
   <v>       0.07407407 </v>
   <v>       0.07407407 </v>
   <v>       0.14814815 </v>
   <v>       0.14814815 </v>
   <v>       0.07407407 </v>
   <v>       0.07407407 </v>
   <v>       0.14814815 </v>
   <v>       0.02469136 </v>
  </varray>
 </kpoints>
 <parameters>
  <separator name="general" >
   <i type="string" name="SYSTEM">unknown system</i>
   <i type="logical" name="LCOMPAT"> F  </i>
  </separator>
  <separator name="electronic" >
   <i type="string" name="PREC">normal</i>
   <i name="ENMAX">    400.00000000</i>
   <i name="ENAUG">    605.39200000</i>
   <i name="EDIFF">      0.00010000</i>
   <i type="int" name="IALGO">    38</i>
   <i type="int" name="IWAVPR">    10</i>
   <i type="int" name="NBANDS">    96</i>
   <i name="NELECT">    138.00000000</i>
   <i type="int" name="TURBO">     0</i>
   <i type="int" name="IRESTART">     0</i>
   <i type="int" name="NREBOOT">     0</i>
   <i type="int" name="NMIN">     0</i>
   <i name="EREF">      0.00000000</i>
   <separator name="electronic smearing" >
    <i type="int" name="ISMEAR">     1</i>
    <i name="SIGMA">      0.10000000</i>
    <i name="KSPACING">      0.50000000</i>
    <i type="logical" name="KGAMMA"> T  </i>
   </separator>
   <separator name="electronic projectors" >
    <i type="logical" name="LREAL"> F  </i>
    <v name="ROPT">      0.00000000      0.00000000</v>
    <i type="int" name="LMAXPAW">  -100</i>
    <i type="int" name="LMAXMIX">     2</i>
    <i type="logical" name="NLSPLINE"> F  </i>
   </separator>
   <separator name="electronic startup" >
    <i type="int" name="ISTART">     0</i>
    <i type="int" name="ICHARG">     2</i>
    <i type="int" name="INIWAV">     1</i>
   </separator>
   <separator name="electronic spin" >
    <i type="int" name="ISPIN">     1</i>
    <i type="logical" name="LNONCOLLINEAR"> F  </i>
    <v name="MAGMOM">      1.00000000      1.00000000      1.00000000      1.00000000      1.00000000      1.00000000      1.00000000      1.00000000      1.00000000      1.00000000      1.00000000      1.00000000      1.00000000</v>
    <i name="NUPDOWN">     -1.00000000</i>
    <i type="logical" name="LSORBIT"> F  </i>
    <v name="SAXIS">      0.00000000      0.00000000      1.00000000</v>
    <i type="logical" name="LSPIRAL"> F  </i>
    <v name="QSPIRAL">      0.00000000      0.00000000      0.00000000</v>
    <i type="logical" name="LZEROZ"> F  </i>
   </separator>
   <separator name="electronic exchange-correlation" >
    <i type="logical" name="LASPH"> F  </i>
    <i type="logical" name="LMETAGGA"> F  </i>
   </separator>
   <separator name="electronic convergence" >
    <i type="int" name="NELM">    60</i>
    <i type="int" name="NELMDL">    -5</i>
    <i type="int" name="NELMIN">     2</i>
    <i name="ENINI">    400.00000000</i>
    <separator name="electronic convergence detail" >
     <i type="logical" name="LDIAG"> T  </i>
     <i type="logical" name="LSUBROT"> F  </i>
     <i name="WEIMIN">      0.00000000</i>
     <i name="EBREAK">      0.00000026</i>
     <i name="DEPER">      0.30000000</i>
     <i type="int" name="NRMM">     4</i>
     <i name="TIME">      0.40000000</i>
    </separator>
   </separator>
   <separator name="electronic mixer" >
    <i name="AMIX">      0.40000000</i>
    <i name="BMIX">      1.00000000</i>
    <i name="AMIN">      0.10000000</i>
    <i name="AMIX_MAG">      1.60000000</i>
    <i name="BMIX_MAG">      1.00000000</i>
    <separator name="electronic mixer details" >
     <i type="int" name="IMIX">     4</i>
     <i type="logical" name="MIXFIRST"> F  </i>
     <i type="int" name="MAXMIX">   -45</i>
     <i name="WC">    100.00000000</i>
     <i type="int" name="INIMIX">     1</i>
     <i type="int" name="MIXPRE">     1</i>
     <i type="int" name="MREMOVE">     5</i>
    </separator>
   </separator>
   <separator name="electronic dipolcorrection" >
    <i type="logical" name="LDIPOL"> F  </i>
    <i type="logical" name="LMONO"> F  </i>
    <i type="int" name="IDIPOL">     0</i>
    <i name="EPSILON">      1.00000000</i>
    <v name="DIPOL">   -100.00000000   -100.00000000   -100.00000000</v>
    <i name="EFIELD">      0.00000000</i>
   </separator>
  </separator>
  <separator name="grids" >
   <i type="int" name="NGX">    30</i>
   <i type="int" name="NGY">    30</i>
   <i type="int" name="NGZ">   126</i>
   <i type="int" name="NGXF">    60</i>
   <i type="int" name="NGYF">    60</i>
   <i type="int" name="NGZF">   252</i>
   <i type="logical" name="ADDGRID"> F  </i>
  </separator>
  <separator name="ionic" >
   <i type="int" name="NSW">     0</i>
   <i type="int" name="IBRION">    -1</i>
   <i type="int" name="ISIF">     2</i>
   <i name="PSTRESS">      0.00000000</i>
   <i name="EDIFFG">      0.00100000</i>
   <i type="int" name="NFREE">     0</i>
   <i name="POTIM">      0.50000000</i>
   <i name="SMASS">     -3.00000000</i>
   <i name="SCALEE">      1.00000000</i>
  </separator>
  <separator name="ionic md" >
   <i name="TEBEG">      0.00010000</i>
   <i name="TEEND">      0.00010000</i>
   <i type="int" name="NBLOCK">     1</i>
   <i type="int" name="KBLOCK">     1</i>
   <i type="int" name="NPACO">   256</i>
   <i name="APACO">     16.00000000</i>
  </separator>
  <separator name="symmetry" >
   <i type="int" name="ISYM">     2</i>
   <i name="SYMPREC">      0.00001000</i>
  </separator>
  <separator name="dos" >
   <i type="logical" name="LORBIT"> F  </i>
   <v name="RWIGS">     -1.00000000     -1.00000000</v>
   <i type="int" name="NEDOS">   301</i>
   <i name="EMIN">     10.00000000</i>
   <i name="EMAX">    -10.00000000</i>
   <i name="EFERMI">      0.00000000</i>
  </separator>
  <separator name="writing" >
   <i type="int" name="NWRITE">     2</i>
   <i type="logical" name="LWAVE"> F  </i>
   <i type="logical" name="LCHARG"> F  </i>
   <i type="logical" name="LPARD"> F  </i>
   <i type="logical" name="LVTOT"> F  </i>
   <i type="logical" name="LVHAR"> F  </i>
   <i type="logical" name="LELF"> F  </i>
   <i type="logical" name="LOPTICS"> F  </i>
   <v name="STM">      0.00000000      0.00000000      0.00000000      0.00000000      0.00000000      0.00000000      0.00000000</v>
  </separator>
  <separator name="performance" >
   <i type="int" name="NPAR">    24</i>
   <i type="int" name="NSIM">     4</i>
   <i type="int" name="NBLK">    -1</i>
   <i type="logical" name="LPLANE"> T  </i>
   <i type="logical" name="LSCALAPACK"> F  </i>
   <i type="logical" name="LSCAAWARE"> F  </i>
   <i type="logical" name="LSCALU"> F  </i>
   <i type="logical" name="LASYNC"> F  </i>
   <i type="logical" name="LORBITALREAL"> F  </i>
  </separator>
  <separator name="miscellaneous" >
   <i type="int" name="IDIOT">     3</i>
   <i type="logical" name="LMUSIC"> F  </i>
   <v name="POMASS">    107.86800000     16.00000000</v>
   <v name="DARWINR">      0.00000000      0.00000000</v>
   <v name="DARWINV">      1.00000000      1.00000000</v>
   <i type="logical" name="LCORR"> T  </i>
  </separator>
  <i type="logical" name="GGA_COMPAT"> T  </i>
  <i type="logical" name="LBERRY"> F  </i>
  <i type="int" name="ICORELEVEL">     0</i>
  <i type="logical" name="LDAU"> F  </i>
  <i type="int" name="I_CONSTRAINED_M">     0</i>
  <separator name="electronic exchange-correlation" >
   <i type="string" name="GGA">--</i>
   <i type="int" name="VOSKOWN">     0</i>
   <i type="logical" name="LHFCALC"> F  </i>
   <i type="string" name="PRECFOCK"></i>
   <i type="logical" name="LSYMGRAD"> F  </i>
   <i type="logical" name="LHFONE"> F  </i>
   <i type="logical" name="LRHFCALC"> F  </i>
   <i type="logical" name="LTHOMAS"> F  </i>
   <i type="logical" name="LMODELHF"> F  </i>
   <i name="ENCUT4O">     -1.00000000</i>
   <i type="int" name="EXXOEP">     0</i>
   <i type="int" name="FOURORBIT">     0</i>
   <i name="AEXX">      0.00000000</i>
   <i name="HFALPHA">      0.00000000</i>
   <i name="MCALPHA">      0.00000000</i>
   <i name="ALDAX">      1.00000000</i>
   <i name="AGGAX">      1.00000000</i>
   <i name="ALDAC">      1.00000000</i>
   <i name="AGGAC">      1.00000000</i>
   <i type="int" name="NKREDX">     1</i>
   <i type="int" name="NKREDY">     1</i>
   <i type="int" name="NKREDZ">     1</i>
   <i type="logical" name="SHIFTRED"> F  </i>
   <i type="logical" name="ODDONLY"> F  </i>
   <i type="logical" name="EVENONLY"> F  </i>
   <i type="int" name="LMAXFOCK">     0</i>
   <i type="int" name="NMAXFOCKAE">     0</i>
   <i type="logical" name="LFOCKAEDFT"> F  </i>
   <i name="HFSCREEN">      0.00000000</i>
   <i name="HFSCREENC">      0.00000000</i>
   <i type="int" name="NBANDSGWLOW">     0</i>
  </separator>
  <separator name="vdW DFT" >
   <i type="logical" name="LUSE_VDW"> F  </i>
   <i name="Zab_VDW">     -0.84910000</i>
   <i name="PARAM1">      0.12340000</i>
   <i name="PARAM2">      1.00000000</i>
   <i name="PARAM3">      0.00000000</i>
  </separator>
  <separator name="model GW" >
   <i type="int" name="MODEL_GW">     0</i>
   <i name="MODEL_EPS0">     34.07905936</i>
   <i name="MODEL_ALPHA">      1.00000000</i>
  </separator>
  <separator name="linear response parameters" >
   <i type="logical" name="LEPSILON"> F  </i>
   <i type="logical" name="LRPA"> F  </i>
   <i type="logical" name="LNABLA"> F  </i>
   <i type="logical" name="LVEL"> F  </i>
   <i type="int" name="KINTER">     0</i>
   <i name="CSHIFT">      0.10000000</i>
   <i name="OMEGAMAX">     -1.00000000</i>
   <i name="DEG_THRESHOLD">      0.00200000</i>
  </separator>
  <separator name="orbital magnetization" >
   <i type="logical" name="NUCIND"> F  </i>
   <v name="MAGPOS">      0.00000000      0.00000000      0.00000000</v>
   <i type="logical" name="LNICSALL"> T  </i>
   <i type="logical" name="ORBITALMAG"> F  </i>
   <i type="logical" name="LMAGBLOCH"> F  </i>
   <i type="logical" name="LCHIMAG"> F  </i>
   <i type="logical" name="LGAUGE"> T  </i>
   <i type="int" name="MAGATOM">     0</i>
   <v name="MAGDIPOL">      0.00000000      0.00000000      0.00000000</v>
   <v name="AVECCONST">      0.00000000      0.00000000      0.00000000</v>
  </separator>
  <separator name="response functions" >
   <i type="logical" name="LADDER"> F  </i>
   <i type="logical" name="LFXC"> F  </i>
   <i type="logical" name="LHARTREE"> T  </i>
   <i type="int" name="IBSE">     0</i>
   <v type="int" name="KPOINT">    -1     0     0     0</v>
   <i type="logical" name="LTCTE"> F  </i>
   <i type="logical" name="LTETE"> F  </i>
   <i type="logical" name="LTRIPLET"> F  </i>
   <i type="logical" name="LFXCEPS"> F  </i>
   <i type="logical" name="LFXHEG"> F  </i>
   <i type="int" name="NATURALO">     0</i>
   <i type="logical" name="L2ORDER"> F  </i>
   <i type="logical" name="LUSEW"> F  </i>
   <i name="ENCUTGW">     -2.00000000</i>
   <i name="ENCUTGWSOFT">     -2.00000000</i>
   <i name="ENCUTLF">     -1.00000000</i>
   <i type="int" name="LMAXMP2">    -1</i>
   <i name="SCISSOR">      0.00000000</i>
   <i type="int" name="NOMEGA">     0</i>
   <i type="int" name="NOMEGAR">     0</i>
   <i type="int" name="NBANDSGW">    -1</i>
   <i type="int" name="NBANDSO">    -1</i>
   <i type="int" name="NBANDSV">    -1</i>
   <i type="int" name="NELM">     1</i>
   <i type="int" name="NELMHF">     1</i>
   <i type="int" name="DIM">     3</i>
   <i type="int" name="ANTIRES">     0</i>
   <i name="OMEGAMAX">    -30.00000000</i>
   <i name="OMEGAMIN">    -30.00000000</i>
   <i name="OMEGATL">   -200.00000000</i>
   <i type="int" name="OMEGAGRID">     0</i>
   <i name="CSHIFT">     -0.10000000</i>
   <i type="logical" name="SELFENERGY"> F  </i>
   <i type="logical" name="LSPECTRAL"> F  </i>
   <i type="logical" name="LSPECTRALGW"> F  </i>
   <i type="logical" name="LSINGLES"> F  </i>
   <i type="logical" name="LFERMIGW"> F  </i>
   <i type="logical" name="ODDONLYGW"> F  </i>
   <i type="logical" name="EVENONLYGW"> F  </i>
   <i type="int" name="NKREDLFX">     1</i>
   <i type="int" name="NKREDLFY">     1</i>
   <i type="int" name="NKREDLFZ">     1</i>
   <i type="int" name="MAXMEM">  1800</i>
   <i type="int" name="TELESCOPE">     0</i>
   <i type="int" name="TAUPAR">     1</i>
   <i type="int" name="OMEGAPAR">    -1</i>
   <i name="LAMBDA">      1.00000000</i>
  </separator>
  <separator name="External order field" >
   <i name="OFIELD_KAPPA">      0.00000000</i>
   <v name="OFIELD_K">      0.00000000      0.00000000      0.00000000</v>
   <i name="OFIELD_Q6_NEAR">      0.00000000</i>
   <i name="OFIELD_Q6_FAR">      0.00000000</i>
   <i name="OFIELD_A">      0.00000000</i>
  </separator>
 </parameters>
 <atominfo>
  <atoms>      13 </atoms>
  <types>       2 </types>
  <array name="atoms" >
   <dimension dim="1">ion</dimension>
   <field type="string">element</field>
   <field type="int">atomtype</field>
   <set>
    <rc><c>Ag</c><c>   1</c></rc>
    <rc><c>Ag</c><c>   1</c></rc>
    <rc><c>Ag</c><c>   1</c></rc>
    <rc><c>Ag</c><c>   1</c></rc>
    <rc><c>Ag</c><c>   1</c></rc>
    <rc><c>Ag</c><c>   1</c></rc>
    <rc><c>Ag</c><c>   1</c></rc>
    <rc><c>Ag</c><c>   1</c></rc>
    <rc><c>Ag</c><c>   1</c></rc>
    <rc><c>Ag</c><c>   1</c></rc>
    <rc><c>Ag</c><c>   1</c></rc>
    <rc><c>Ag</c><c>   1</c></rc>
    <rc><c>O </c><c>   2</c></rc>
   </set>
  </array>
  <array name="atomtypes" >
   <dimension dim="1">type</dimension>
   <field type="int">atomspertype</field>
   <field type="string">element</field>
   <field>mass</field>
   <field>valence</field>
   <field type="string">pseudopotential</field>
   <set>
    <rc><c>  12</c><c>Ag</c><c>    107.86800000</c><c>     11.00000000</c><c>  PAW_PBE Ag 02Apr2005                  </c></rc>
    <rc><c>   1</c><c>O </c><c>     16.00000000</c><c>      6.00000000</c><c>  PAW_PBE O 08Apr2002                   </c></rc>
   </set>
  </array>
 </atominfo>
 <structure name="initialpos" >
  <crystal>
   <varray name="basis" >
    <v>       5.86474364       0.00000000       0.00000000 </v>
    <v>       2.93237182       5.07901698       0.00000000 </v>
    <v>       0.00000000       0.00000000      24.78854313 </v>
   </varray>
   <i name="volume">    738.37961946 </i>
   <varray name="rec_basis" >
    <v>       0.17051044      -0.09844425       0.00000000 </v>
    <v>       0.00000000       0.19688849       0.00000000 </v>
    <v>       0.00000000       0.00000000       0.04034122 </v>
   </varray>
  </crystal>
  <varray name="positions" >
   <v>       0.16666667       0.16666667       0.40527889 </v>
   <v>       0.66685597       0.16628805       0.40368021 </v>
   <v>       0.16628805       0.66685597       0.40368021 </v>
   <v>       0.66685597       0.66685597       0.40368021 </v>
   <v>       0.83367022       0.33316489       0.49959255 </v>
   <v>       0.33316489       0.33316489       0.49959255 </v>
   <v>       0.83333333       0.83333333       0.50144943 </v>
   <v>       0.33316489       0.83367022       0.49959255 </v>
   <v>       0.99245853       0.99245853       0.59703445 </v>
   <v>       0.51508295       0.99245853       0.59703445 </v>
   <v>       0.99245853       0.51508295       0.59703445 </v>
   <v>       0.50000000       0.50000000       0.59275101 </v>
   <v>       0.16666667       0.16666667       0.64459630 </v>
  </varray>
 </structure>
 <calculation>
  <scstep>
   <time name="dav">    3.92    3.99</time>
   <time name="total">    3.98    4.06</time>
   <energy>
    <i name="alphaZ">    177.74950859 </i>
    <i name="ewald">  49279.48186214 </i>
    <i name="hartreedc"> -62155.72167842 </i>
    <i name="XCdc">   -101.63545899 </i>
    <i name="pawpsdc">  12388.09526881 </i>
    <i name="pawaedc"> -11836.53943832 </i>
    <i name="eentropy">     -0.00073197 </i>
    <i name="bandstr">    109.73585497 </i>
    <i name="atom">  12879.36433655 </i>
    <i name="e_fr_energy">    740.52952336 </i>
    <i name="e_wo_entrp">    740.53025533 </i>
    <i name="e_0_energy">    740.52976735 </i>
   </energy>
  </scstep>
  <scstep>
   <time name="dav">    4.59    4.59</time>
   <time name="total">    4.59    4.60</time>
   <energy>
    <i name="e_fr_energy">     -7.92156784 </i>
    <i name="e_wo_entrp">     -7.91143202 </i>
    <i name="e_0_energy">     -7.91818923 </i>
   </energy>
  </scstep>
  <scstep>
   <time name="dav">    4.19    4.19</time>
   <time name="total">    4.19    4.20</time>
   <energy>
    <i name="e_fr_energy">    -40.36544557 </i>
    <i name="e_wo_entrp">    -40.36226974 </i>
    <i name="e_0_energy">    -40.36438696 </i>
   </energy>
  </scstep>
  <scstep>
   <time name="dav">    3.65    3.65</time>
   <time name="total">    3.65    3.66</time>
   <energy>
    <i name="e_fr_energy">    -40.83221463 </i>
    <i name="e_wo_entrp">    -40.82918617 </i>
    <i name="e_0_energy">    -40.83120514 </i>
   </energy>
  </scstep>
  <scstep>
   <time name="dav">    4.28    4.30</time>
   <time name="total">    4.42    4.43</time>
   <energy>
    <i name="e_fr_energy">    -40.83967993 </i>
    <i name="e_wo_entrp">    -40.83665074 </i>
    <i name="e_0_energy">    -40.83867020 </i>
   </energy>
  </scstep>
  <scstep>
   <time name="dav">    4.65    4.66</time>
   <time name="total">    4.83    4.85</time>
   <energy>
    <i name="e_fr_energy">    -37.99995968 </i>
    <i name="e_wo_entrp">    -37.98994908 </i>
    <i name="e_0_energy">    -37.99662282 </i>
   </energy>
  </scstep>
  <scstep>
   <time name="dav">    4.02    4.05</time>
   <time name="total">    4.20    4.23</time>
   <energy>
    <i name="e_fr_energy">    -36.35431176 </i>
    <i name="e_wo_entrp">    -36.35093096 </i>
    <i name="e_0_energy">    -36.35318483 </i>
   </energy>
  </scstep>
  <scstep>
   <time name="dav">    3.71    3.72</time>
   <time name="total">    3.87    3.89</time>
   <energy>
    <i name="e_fr_energy">    -35.27049939 </i>
    <i name="e_wo_entrp">    -35.26909007 </i>
    <i name="e_0_energy">    -35.27002962 </i>
   </energy>
  </scstep>
  <scstep>
   <time name="dav">    3.79    3.81</time>
   <time name="total">    3.97    3.99</time>
   <energy>
    <i name="e_fr_energy">    -35.38758907 </i>
    <i name="e_wo_entrp">    -35.38576840 </i>
    <i name="e_0_energy">    -35.38698218 </i>
   </energy>
  </scstep>
  <scstep>
   <time name="dav">    3.90    3.91</time>
   <time name="total">    4.07    4.09</time>
   <energy>
    <i name="e_fr_energy">    -35.25662611 </i>
    <i name="e_wo_entrp">    -35.25493441 </i>
    <i name="e_0_energy">    -35.25606221 </i>
   </energy>
  </scstep>
  <scstep>
   <time name="dav">    3.76    3.78</time>
   <time name="total">    3.93    3.95</time>
   <energy>
    <i name="e_fr_energy">    -35.23429462 </i>
    <i name="e_wo_entrp">    -35.23138362 </i>
    <i name="e_0_energy">    -35.23332429 </i>
   </energy>
  </scstep>
  <scstep>
   <time name="dav">    3.64    3.65</time>
   <time name="total">    3.81    3.82</time>
   <energy>
    <i name="e_fr_energy">    -35.23556649 </i>
    <i name="e_wo_entrp">    -35.23145414 </i>
    <i name="e_0_energy">    -35.23419570 </i>
   </energy>
  </scstep>
  <scstep>
   <time name="dav">    3.91    3.92</time>
   <time name="total">    4.08    4.09</time>
   <energy>
    <i name="e_fr_energy">    -35.23651012 </i>
    <i name="e_wo_entrp">    -35.23242244 </i>
    <i name="e_0_energy">    -35.23514756 </i>
   </energy>
  </scstep>
  <scstep>
   <time name="dav">    3.45    3.45</time>
   <time name="total">    3.62    3.63</time>
   <energy>
    <i name="e_fr_energy">    -35.23678649 </i>
    <i name="e_wo_entrp">    -35.23298785 </i>
    <i name="e_0_energy">    -35.23552028 </i>
   </energy>
  </scstep>
  <scstep>
   <time name="dav">    3.54    3.55</time>
   <time name="total">    3.72    3.72</time>
   <energy>
    <i name="e_fr_energy">    -35.23714691 </i>
    <i name="e_wo_entrp">    -35.23323469 </i>
    <i name="e_0_energy">    -35.23584283 </i>
   </energy>
  </scstep>
  <scstep>
   <time name="dav">    2.99    2.99</time>
   <time name="total">    3.16    3.16</time>
   <energy>
    <i name="e_fr_energy">    -35.23728114 </i>
    <i name="e_wo_entrp">    -35.23346973 </i>
    <i name="e_0_energy">    -35.23601067 </i>
   </energy>
  </scstep>
  <scstep>
   <time name="dav">    2.91    2.92</time>
   <time name="total">    3.08    3.09</time>
   <energy>
    <i name="e_fr_energy">    -35.23744344 </i>
    <i name="e_wo_entrp">    -35.23358431 </i>
    <i name="e_0_energy">    -35.23615706 </i>
   </energy>
  </scstep>
  <scstep>
   <time name="dav">    2.87    2.88</time>
   <time name="total">    3.04    3.05</time>
   <energy>
    <i name="e_fr_energy">    -35.23756381 </i>
    <i name="e_wo_entrp">    -35.23370339 </i>
    <i name="e_0_energy">    -35.23627701 </i>
   </energy>
  </scstep>
  <scstep>
   <time name="dav">    2.76    2.76</time>
   <time name="total">    2.80    2.80</time>
   <energy>
    <i name="alphaZ">    177.74950859 </i>
    <i name="ewald">  49279.48186214 </i>
    <i name="hartreedc"> -62042.79831790 </i>
    <i name="XCdc">   -105.60723259 </i>
    <i name="pawpsdc">  13611.75674840 </i>
    <i name="pawaedc"> -13086.78641409 </i>
    <i name="eentropy">     -0.00387103 </i>
    <i name="bandstr">   -748.39423657 </i>
    <i name="atom">  12879.36433655 </i>
    <i name="e_fr_energy">    -35.23761650 </i>
    <i name="e_wo_entrp">    -35.23374547 </i>
    <i name="e_0_energy">    -35.23632615 </i>
   </energy>
  </scstep>
  <structure>
   <crystal>
    <varray name="basis" >
     <v>       5.86474364       0.00000000       0.00000000 </v>
     <v>       2.93237182       5.07901698       0.00000000 </v>
     <v>       0.00000000       0.00000000      24.78854313 </v>
    </varray>
    <i name="volume">    738.37961946 </i>
    <varray name="rec_basis" >
     <v>       0.17051044      -0.09844425       0.00000000 </v>
     <v>       0.00000000       0.19688849       0.00000000 </v>
     <v>       0.00000000       0.00000000       0.04034122 </v>
    </varray>
   </crystal>
   <varray name="positions" >
    <v>       0.16666667       0.16666667       0.40527889 </v>
    <v>       0.66685597       0.16628805       0.40368021 </v>
    <v>       0.16628805       0.66685597       0.40368021 </v>
    <v>       0.66685597       0.66685597       0.40368021 </v>
    <v>       0.83367022       0.33316489       0.49959255 </v>
    <v>       0.33316489       0.33316489       0.49959255 </v>
    <v>       0.83333333       0.83333333       0.50144943 </v>
    <v>       0.33316489       0.83367022       0.49959255 </v>
    <v>       0.99245853       0.99245853       0.59703445 </v>
    <v>       0.51508295       0.99245853       0.59703445 </v>
    <v>       0.99245853       0.51508295       0.59703445 </v>
    <v>       0.50000000       0.50000000       0.59275101 </v>
    <v>       0.16666667       0.16666667       0.64459630 </v>
   </varray>
  </structure>
  <varray name="forces" >
   <v>      -0.00000000       0.00000000       0.01027517 </v>
   <v>      -0.00000000       0.00889287       0.01348406 </v>
   <v>       0.00770145      -0.00444644       0.01348406 </v>
   <v>      -0.00770145      -0.00444644       0.01348406 </v>
   <v>      -0.00401115       0.00231584      -0.01503365 </v>
   <v>       0.00401115       0.00231584      -0.01503365 </v>
   <v>      -0.00000000       0.00000000       0.00880648 </v>
   <v>      -0.00000000      -0.00463167      -0.01503365 </v>
   <v>       0.00858960       0.00495921       0.01826842 </v>
   <v>      -0.00858960       0.00495921       0.01826842 </v>
   <v>      -0.00000000      -0.00991842       0.01826842 </v>
   <v>      -0.00000000       0.00000000      -0.05587547 </v>
   <v>       0.00000000       0.00000000      -0.01336267 </v>
  </varray>
  <varray name="stress" >
   <v>      -5.01283014       0.00000000       0.00000000 </v>
   <v>       0.00000000      -5.01283014      -0.00000000 </v>
   <v>       0.00000000      -0.00000000      -3.07627233 </v>
  </varray>
  <energy>
   <i name="e_fr_energy">    -35.23761650 </i>
   <i name="e_wo_entrp">    -35.23632615 </i>
   <i name="e_0_energy">     -0.00387103 </i>
  </energy>
  <time name="totalsc">   80.46   80.75</time>
  <eigenvalues>
   <array>
    <dimension dim="1">band</dimension>
    <dimension dim="2">kpoint</dimension>
    <dimension dim="3">spin</dimension>
    <field>eigene</field>
    <field>occ</field>
    <set>
     <set comment="spin 1">
      <set comment="kpoint 1">
       <r>  -18.4307    1.0000 </r>
       <r>   -8.0842    1.0000 </r>
       <r>   -7.2141    1.0000 </r>
       <r>   -7.2100    1.0000 </r>
       <r>   -7.2100    1.0000 </r>
       <r>   -7.1957    1.0000 </r>
       <r>   -7.0714    1.0000 </r>
       <r>   -7.0714    1.0000 </r>
       <r>   -7.0654    1.0000 </r>
       <r>   -7.0238    1.0000 </r>
       <r>   -6.9222    1.0000 </r>
       <r>   -6.9222    1.0000 </r>
       <r>   -6.8673    1.0000 </r>
       <r>   -6.7721    1.0000 </r>
       <r>   -6.7721    1.0000 </r>
       <r>   -6.7471    1.0000 </r>
       <r>   -6.2841    1.0000 </r>
       <r>   -6.2840    1.0000 </r>
       <r>   -5.9769    1.0000 </r>
       <r>   -5.9769    1.0000 </r>
       <r>   -5.9580    1.0000 </r>
       <r>   -5.9306    1.0000 </r>
       <r>   -5.8562    1.0000 </r>
       <r>   -5.8562    1.0000 </r>
       <r>   -5.8483    1.0000 </r>
       <r>   -5.8167    1.0000 </r>
       <r>   -5.8167    1.0000 </r>
       <r>   -5.6519    1.0000 </r>
       <r>   -5.6519    1.0000 </r>
       <r>   -5.5601    1.0000 </r>
       <r>   -5.5453    1.0000 </r>
       <r>   -5.5453    1.0000 </r>
       <r>   -5.1505    1.0000 </r>
       <r>   -5.1363    1.0000 </r>
       <r>   -5.1363    1.0000 </r>
       <r>   -4.9930    1.0000 </r>
       <r>   -4.9491    1.0000 </r>
       <r>   -4.9491    1.0000 </r>
       <r>   -4.8763    1.0000 </r>
       <r>   -4.8763    1.0000 </r>
       <r>   -4.7951    1.0000 </r>
       <r>   -4.7140    1.0000 </r>
       <r>   -4.7140    1.0000 </r>
       <r>   -4.6028    1.0000 </r>
       <r>   -4.5913    1.0000 </r>
       <r>   -4.5913    1.0000 </r>
       <r>   -4.4157    1.0000 </r>
       <r>   -4.4157    1.0000 </r>
       <r>   -4.3089    1.0000 </r>
       <r>   -4.2934    1.0000 </r>
       <r>   -4.2934    1.0000 </r>
       <r>   -4.2478    1.0000 </r>
       <r>   -4.1916    1.0000 </r>
       <r>   -4.1916    1.0000 </r>
       <r>   -4.1722    1.0000 </r>
       <r>   -4.1722    1.0000 </r>
       <r>   -4.1560    1.0000 </r>
       <r>   -4.0072    1.0000 </r>
       <r>   -4.0072    1.0000 </r>
       <r>   -3.9661    1.0000 </r>
       <r>   -3.9661    1.0000 </r>
       <r>   -3.9283    1.0000 </r>
       <r>   -3.8656    1.0000 </r>
       <r>   -2.7505    1.0000 </r>
       <r>   -2.4391    1.0000 </r>
       <r>   -2.4389    1.0000 </r>
       <r>   -2.1565    1.0000 </r>
       <r>   -0.7862   -0.0000 </r>
       <r>   -0.7862   -0.0000 </r>
       <r>   -0.6526   -0.0000 </r>
       <r>   -0.3020   -0.0000 </r>
       <r>    0.1028   -0.0000 </r>
       <r>    0.1028   -0.0000 </r>
       <r>    0.2500   -0.0000 </r>
       <r>    0.6695   -0.0000 </r>
       <r>    0.6695   -0.0000 </r>
       <r>    1.5617    0.0000 </r>
       <r>    2.8483    0.0000 </r>
       <r>    2.8483    0.0000 </r>
       <r>    3.1001    0.0000 </r>
       <r>    3.1201    0.0000 </r>
       <r>    3.8899    0.0000 </r>
       <r>    3.8899    0.0000 </r>
       <r>    3.9600    0.0000 </r>
       <r>    3.9936    0.0000 </r>
       <r>    4.3733    0.0000 </r>
       <r>    4.8886    0.0000 </r>
       <r>    5.3841    0.0000 </r>
       <r>    5.4736    0.0000 </r>
       <r>    5.4843    0.0000 </r>
       <r>    5.4843    0.0000 </r>
       <r>    6.8600    0.0000 </r>
       <r>    7.1127    0.0000 </r>
       <r>    7.2133    0.0000 </r>
       <r>    7.2133    0.0000 </r>
       <r>    7.2986    0.0000 </r>
      </set>
      <set comment="kpoint 2">
       <r>  -18.4297    1.0000 </r>
       <r>   -8.0063    1.0000 </r>
       <r>   -7.1870    1.0000 </r>
       <r>   -7.1647    1.0000 </r>
       <r>   -7.1629    1.0000 </r>
       <r>   -7.1483    1.0000 </r>
       <r>   -7.0491    1.0000 </r>
       <r>   -7.0306    1.0000 </r>
       <r>   -7.0172    1.0000 </r>
       <r>   -6.9657    1.0000 </r>
       <r>   -6.9015    1.0000 </r>
       <r>   -6.8917    1.0000 </r>
       <r>   -6.8570    1.0000 </r>
       <r>   -6.7355    1.0000 </r>
       <r>   -6.7225    1.0000 </r>
       <r>   -6.6970    1.0000 </r>
       <r>   -6.2772    1.0000 </r>
       <r>   -6.2613    1.0000 </r>
       <r>   -5.9867    1.0000 </r>
       <r>   -5.9861    1.0000 </r>
       <r>   -5.9363    1.0000 </r>
       <r>   -5.9272    1.0000 </r>
       <r>   -5.8653    1.0000 </r>
       <r>   -5.8418    1.0000 </r>
       <r>   -5.8278    1.0000 </r>
       <r>   -5.8069    1.0000 </r>
       <r>   -5.7860    1.0000 </r>
       <r>   -5.6864    1.0000 </r>
       <r>   -5.6335    1.0000 </r>
       <r>   -5.5667    1.0000 </r>
       <r>   -5.5662    1.0000 </r>
       <r>   -5.5110    1.0000 </r>
       <r>   -5.2469    1.0000 </r>
       <r>   -5.1649    1.0000 </r>
       <r>   -5.1432    1.0000 </r>
       <r>   -5.0433    1.0000 </r>
       <r>   -4.9873    1.0000 </r>
       <r>   -4.9854    1.0000 </r>
       <r>   -4.8965    1.0000 </r>
       <r>   -4.8308    1.0000 </r>
       <r>   -4.8196    1.0000 </r>
       <r>   -4.7340    1.0000 </r>
       <r>   -4.7285    1.0000 </r>
       <r>   -4.6393    1.0000 </r>
       <r>   -4.6074    1.0000 </r>
       <r>   -4.5979    1.0000 </r>
       <r>   -4.4488    1.0000 </r>
       <r>   -4.4284    1.0000 </r>
       <r>   -4.3374    1.0000 </r>
       <r>   -4.3148    1.0000 </r>
       <r>   -4.3007    1.0000 </r>
       <r>   -4.2448    1.0000 </r>
       <r>   -4.2374    1.0000 </r>
       <r>   -4.2315    1.0000 </r>
       <r>   -4.2278    1.0000 </r>
       <r>   -4.2103    1.0000 </r>
       <r>   -4.2026    1.0000 </r>
       <r>   -4.1000    1.0000 </r>
       <r>   -4.0584    1.0000 </r>
       <r>   -4.0263    1.0000 </r>
       <r>   -4.0215    1.0000 </r>
       <r>   -3.9909    1.0000 </r>
       <r>   -3.9267    1.0000 </r>
       <r>   -2.7411    1.0000 </r>
       <r>   -2.6022    1.0000 </r>
       <r>   -2.4565    1.0000 </r>
       <r>   -2.0248    1.0000 </r>
       <r>   -1.5252    1.0000 </r>
       <r>   -0.9371   -0.0013 </r>
       <r>   -0.8716   -0.0000 </r>
       <r>   -0.2548   -0.0000 </r>
       <r>   -0.0679   -0.0000 </r>
       <r>    0.1719   -0.0000 </r>
       <r>    0.4988   -0.0000 </r>
       <r>    1.0003   -0.0000 </r>
       <r>    1.1147   -0.0000 </r>
       <r>    1.7812    0.0000 </r>
       <r>    2.9539    0.0000 </r>
       <r>    2.9869    0.0000 </r>
       <r>    3.1741    0.0000 </r>
       <r>    3.2521    0.0000 </r>
       <r>    3.9311    0.0000 </r>
       <r>    3.9754    0.0000 </r>
       <r>    4.0280    0.0000 </r>
       <r>    4.0472    0.0000 </r>
       <r>    4.5992    0.0000 </r>
       <r>    4.9661    0.0000 </r>
       <r>    5.3426    0.0000 </r>
       <r>    5.4568    0.0000 </r>
       <r>    5.6671    0.0000 </r>
       <r>    5.8535    0.0000 </r>
       <r>    6.7558    0.0000 </r>
       <r>    6.9114    0.0000 </r>
       <r>    6.9307    0.0000 </r>
       <r>    7.2458    0.0000 </r>
       <r>    7.3680    0.0000 </r>
      </set>
      <set comment="kpoint 3">
       <r>  -18.4271    1.0000 </r>
       <r>   -7.7841    1.0000 </r>
       <r>   -7.1202    1.0000 </r>
       <r>   -7.0583    1.0000 </r>
       <r>   -7.0322    1.0000 </r>
       <r>   -7.0083    1.0000 </r>
       <r>   -6.9681    1.0000 </r>
       <r>   -6.9146    1.0000 </r>
       <r>   -6.9124    1.0000 </r>
       <r>   -6.8452    1.0000 </r>
       <r>   -6.8149    1.0000 </r>
       <r>   -6.8024    1.0000 </r>
       <r>   -6.7742    1.0000 </r>
       <r>   -6.6471    1.0000 </r>
       <r>   -6.5832    1.0000 </r>
       <r>   -6.5481    1.0000 </r>
       <r>   -6.2473    1.0000 </r>
       <r>   -6.1955    1.0000 </r>
       <r>   -6.0316    1.0000 </r>
       <r>   -5.9992    1.0000 </r>
       <r>   -5.9447    1.0000 </r>
       <r>   -5.9060    1.0000 </r>
       <r>   -5.8785    1.0000 </r>
       <r>   -5.8406    1.0000 </r>
       <r>   -5.7931    1.0000 </r>
       <r>   -5.7581    1.0000 </r>
       <r>   -5.7495    1.0000 </r>
       <r>   -5.6876    1.0000 </r>
       <r>   -5.6030    1.0000 </r>
       <r>   -5.5979    1.0000 </r>
       <r>   -5.5506    1.0000 </r>
       <r>   -5.4197    1.0000 </r>
       <r>   -5.4064    1.0000 </r>
       <r>   -5.2686    1.0000 </r>
       <r>   -5.1774    1.0000 </r>
       <r>   -5.1588    1.0000 </r>
       <r>   -5.1109    1.0000 </r>
       <r>   -5.0412    1.0000 </r>
       <r>   -4.9377    1.0000 </r>
       <r>   -4.8866    1.0000 </r>
       <r>   -4.8807    1.0000 </r>
       <r>   -4.8113    1.0000 </r>
       <r>   -4.7751    1.0000 </r>
       <r>   -4.7241    1.0000 </r>
       <r>   -4.6923    1.0000 </r>
       <r>   -4.6179    1.0000 </r>
       <r>   -4.5558    1.0000 </r>
       <r>   -4.4942    1.0000 </r>
       <r>   -4.4818    1.0000 </r>
       <r>   -4.4510    1.0000 </r>
       <r>   -4.4183    1.0000 </r>
       <r>   -4.4142    1.0000 </r>
       <r>   -4.3776    1.0000 </r>
       <r>   -4.3605    1.0000 </r>
       <r>   -4.2953    1.0000 </r>
       <r>   -4.2591    1.0000 </r>
       <r>   -4.2318    1.0000 </r>
       <r>   -4.1623    1.0000 </r>
       <r>   -4.1511    1.0000 </r>
       <r>   -4.1497    1.0000 </r>
       <r>   -4.1165    1.0000 </r>
       <r>   -4.0637    1.0000 </r>
       <r>   -4.0353    1.0000 </r>
       <r>   -3.2137    1.0000 </r>
       <r>   -2.7199    1.0000 </r>
       <r>   -2.4882    1.0000 </r>
       <r>   -2.3446    1.0000 </r>
       <r>   -1.7160    1.0000 </r>
       <r>   -1.1711    0.3833 </r>
       <r>   -1.1287    0.0975 </r>
       <r>   -0.7655   -0.0000 </r>
       <r>    0.2198   -0.0000 </r>
       <r>    0.2697   -0.0000 </r>
       <r>    0.6638   -0.0000 </r>
       <r>    1.3145   -0.0000 </r>
       <r>    1.7365    0.0000 </r>
       <r>    2.2300    0.0000 </r>
       <r>    3.1771    0.0000 </r>
       <r>    3.3624    0.0000 </r>
       <r>    3.3890    0.0000 </r>
       <r>    3.7163    0.0000 </r>
       <r>    4.1977    0.0000 </r>
       <r>    4.2365    0.0000 </r>
       <r>    4.2421    0.0000 </r>
       <r>    4.4346    0.0000 </r>
       <r>    4.8778    0.0000 </r>
       <r>    5.2840    0.0000 </r>
       <r>    5.4488    0.0000 </r>
       <r>    5.6462    0.0000 </r>
       <r>    6.0281    0.0000 </r>
       <r>    6.0309    0.0000 </r>
       <r>    6.5736    0.0000 </r>
       <r>    6.8176    0.0000 </r>
       <r>    6.9810    0.0000 </r>
       <r>    7.2312    0.0000 </r>
       <r>    7.3588    0.0000 </r>
      </set>
      <set comment="kpoint 4">
       <r>  -18.4243    1.0000 </r>
       <r>   -7.4660    1.0000 </r>
       <r>   -7.0468    1.0000 </r>
       <r>   -6.9779    1.0000 </r>
       <r>   -6.8633    1.0000 </r>
       <r>   -6.8412    1.0000 </r>
       <r>   -6.8016    1.0000 </r>
       <r>   -6.7841    1.0000 </r>
       <r>   -6.7314    1.0000 </r>
       <r>   -6.7172    1.0000 </r>
       <r>   -6.6838    1.0000 </r>
       <r>   -6.6732    1.0000 </r>
       <r>   -6.5626    1.0000 </r>
       <r>   -6.5229    1.0000 </r>
       <r>   -6.3980    1.0000 </r>
       <r>   -6.3421    1.0000 </r>
       <r>   -6.1700    1.0000 </r>
       <r>   -6.1166    1.0000 </r>
       <r>   -6.0789    1.0000 </r>
       <r>   -6.0779    1.0000 </r>
       <r>   -6.0216    1.0000 </r>
       <r>   -5.9480    1.0000 </r>
       <r>   -5.8747    1.0000 </r>
       <r>   -5.8099    1.0000 </r>
       <r>   -5.7930    1.0000 </r>
       <r>   -5.7314    1.0000 </r>
       <r>   -5.7049    1.0000 </r>
       <r>   -5.6140    1.0000 </r>
       <r>   -5.5972    1.0000 </r>
       <r>   -5.5358    1.0000 </r>
       <r>   -5.4881    1.0000 </r>
       <r>   -5.4640    1.0000 </r>
       <r>   -5.4346    1.0000 </r>
       <r>   -5.3721    1.0000 </r>
       <r>   -5.3535    1.0000 </r>
       <r>   -5.3072    1.0000 </r>
       <r>   -5.1321    1.0000 </r>
       <r>   -5.1064    1.0000 </r>
       <r>   -5.0018    1.0000 </r>
       <r>   -4.9748    1.0000 </r>
       <r>   -4.9716    1.0000 </r>
       <r>   -4.9345    1.0000 </r>
       <r>   -4.8840    1.0000 </r>
       <r>   -4.8621    1.0000 </r>
       <r>   -4.8279    1.0000 </r>
       <r>   -4.8195    1.0000 </r>
       <r>   -4.7936    1.0000 </r>
       <r>   -4.6677    1.0000 </r>
       <r>   -4.6528    1.0000 </r>
       <r>   -4.6438    1.0000 </r>
       <r>   -4.6392    1.0000 </r>
       <r>   -4.5752    1.0000 </r>
       <r>   -4.4948    1.0000 </r>
       <r>   -4.4691    1.0000 </r>
       <r>   -4.4106    1.0000 </r>
       <r>   -4.3907    1.0000 </r>
       <r>   -4.2808    1.0000 </r>
       <r>   -4.2603    1.0000 </r>
       <r>   -4.2048    1.0000 </r>
       <r>   -4.1916    1.0000 </r>
       <r>   -4.1785    1.0000 </r>
       <r>   -4.0638    1.0000 </r>
       <r>   -4.0385    1.0000 </r>
       <r>   -3.8774    1.0000 </r>
       <r>   -3.0671    1.0000 </r>
       <r>   -2.5091    1.0000 </r>
       <r>   -2.5039    1.0000 </r>
       <r>   -1.6987    1.0000 </r>
       <r>   -1.2690    0.9996 </r>
       <r>   -1.2233    0.7990 </r>
       <r>   -0.9012   -0.0002 </r>
       <r>    0.2135   -0.0000 </r>
       <r>    0.3401   -0.0000 </r>
       <r>    0.8685   -0.0000 </r>
       <r>    1.2577   -0.0000 </r>
       <r>    2.4603    0.0000 </r>
       <r>    2.5728    0.0000 </r>
       <r>    3.5149    0.0000 </r>
       <r>    3.5341    0.0000 </r>
       <r>    3.7124    0.0000 </r>
       <r>    3.9342    0.0000 </r>
       <r>    4.5643    0.0000 </r>
       <r>    4.6461    0.0000 </r>
       <r>    4.7959    0.0000 </r>
       <r>    5.1533    0.0000 </r>
       <r>    5.4388    0.0000 </r>
       <r>    5.5734    0.0000 </r>
       <r>    5.7441    0.0000 </r>
       <r>    5.9262    0.0000 </r>
       <r>    6.0110    0.0000 </r>
       <r>    6.1003    0.0000 </r>
       <r>    6.3957    0.0000 </r>
       <r>    6.6071    0.0000 </r>
       <r>    6.9548    0.0000 </r>
       <r>    7.0596    0.0000 </r>
       <r>    7.2040    0.0000 </r>
      </set>
      <set comment="kpoint 5">
       <r>  -18.4224    1.0000 </r>
       <r>   -7.1901    1.0000 </r>
       <r>   -7.0245    1.0000 </r>
       <r>   -6.8985    1.0000 </r>
       <r>   -6.7651    1.0000 </r>
       <r>   -6.7281    1.0000 </r>
       <r>   -6.6942    1.0000 </r>
       <r>   -6.6307    1.0000 </r>
       <r>   -6.5917    1.0000 </r>
       <r>   -6.5552    1.0000 </r>
       <r>   -6.5218    1.0000 </r>
       <r>   -6.5020    1.0000 </r>
       <r>   -6.4259    1.0000 </r>
       <r>   -6.3868    1.0000 </r>
       <r>   -6.2813    1.0000 </r>
       <r>   -6.2694    1.0000 </r>
       <r>   -6.2168    1.0000 </r>
       <r>   -6.1398    1.0000 </r>
       <r>   -6.1035    1.0000 </r>
       <r>   -5.9995    1.0000 </r>
       <r>   -5.9603    1.0000 </r>
       <r>   -5.9371    1.0000 </r>
       <r>   -5.8812    1.0000 </r>
       <r>   -5.8463    1.0000 </r>
       <r>   -5.8418    1.0000 </r>
       <r>   -5.7974    1.0000 </r>
       <r>   -5.7327    1.0000 </r>
       <r>   -5.5963    1.0000 </r>
       <r>   -5.5562    1.0000 </r>
       <r>   -5.5265    1.0000 </r>
       <r>   -5.4872    1.0000 </r>
       <r>   -5.4427    1.0000 </r>
       <r>   -5.4006    1.0000 </r>
       <r>   -5.3558    1.0000 </r>
       <r>   -5.2963    1.0000 </r>
       <r>   -5.2948    1.0000 </r>
       <r>   -5.2560    1.0000 </r>
       <r>   -5.1995    1.0000 </r>
       <r>   -5.1734    1.0000 </r>
       <r>   -5.1070    1.0000 </r>
       <r>   -5.0937    1.0000 </r>
       <r>   -5.0731    1.0000 </r>
       <r>   -5.0071    1.0000 </r>
       <r>   -4.9764    1.0000 </r>
       <r>   -4.9278    1.0000 </r>
       <r>   -4.9007    1.0000 </r>
       <r>   -4.8827    1.0000 </r>
       <r>   -4.8401    1.0000 </r>
       <r>   -4.8304    1.0000 </r>
       <r>   -4.7988    1.0000 </r>
       <r>   -4.7672    1.0000 </r>
       <r>   -4.7424    1.0000 </r>
       <r>   -4.6632    1.0000 </r>
       <r>   -4.5889    1.0000 </r>
       <r>   -4.5418    1.0000 </r>
       <r>   -4.4973    1.0000 </r>
       <r>   -4.4528    1.0000 </r>
       <r>   -4.3045    1.0000 </r>
       <r>   -4.2550    1.0000 </r>
       <r>   -4.2204    1.0000 </r>
       <r>   -4.1997    1.0000 </r>
       <r>   -4.1885    1.0000 </r>
       <r>   -4.0648    1.0000 </r>
       <r>   -3.7149    1.0000 </r>
       <r>   -3.3269    1.0000 </r>
       <r>   -2.6072    1.0000 </r>
       <r>   -2.5167    1.0000 </r>
       <r>   -1.8360    1.0000 </r>
       <r>   -1.2540    0.9564 </r>
       <r>   -1.2162    0.7500 </r>
       <r>   -0.6186   -0.0000 </r>
       <r>   -0.1428   -0.0000 </r>
       <r>    0.3743   -0.0000 </r>
       <r>    0.8398   -0.0000 </r>
       <r>    1.7464    0.0000 </r>
       <r>    2.3585    0.0000 </r>
       <r>    2.7494    0.0000 </r>
       <r>    3.3174    0.0000 </r>
       <r>    4.1962    0.0000 </r>
       <r>    4.3759    0.0000 </r>
       <r>    4.5405    0.0000 </r>
       <r>    4.7992    0.0000 </r>
       <r>    5.0235    0.0000 </r>
       <r>    5.1491    0.0000 </r>
       <r>    5.2879    0.0000 </r>
       <r>    5.5206    0.0000 </r>
       <r>    5.6207    0.0000 </r>
       <r>    5.6402    0.0000 </r>
       <r>    5.7780    0.0000 </r>
       <r>    5.8525    0.0000 </r>
       <r>    6.2063    0.0000 </r>
       <r>    6.4430    0.0000 </r>
       <r>    6.5522    0.0000 </r>
       <r>    6.6108    0.0000 </r>
       <r>    6.8850    0.0000 </r>
       <r>    7.0288    0.0000 </r>
      </set>
      <set comment="kpoint 6">
       <r>  -18.4279    1.0000 </r>
       <r>   -7.8557    1.0000 </r>
       <r>   -7.1244    1.0000 </r>
       <r>   -7.1072    1.0000 </r>
       <r>   -7.0751    1.0000 </r>
       <r>   -7.0478    1.0000 </r>
       <r>   -6.9897    1.0000 </r>
       <r>   -6.9601    1.0000 </r>
       <r>   -6.9413    1.0000 </r>
       <r>   -6.8647    1.0000 </r>
       <r>   -6.8555    1.0000 </r>
       <r>   -6.8368    1.0000 </r>
       <r>   -6.8073    1.0000 </r>
       <r>   -6.6677    1.0000 </r>
       <r>   -6.6425    1.0000 </r>
       <r>   -6.5889    1.0000 </r>
       <r>   -6.2584    1.0000 </r>
       <r>   -6.2189    1.0000 </r>
       <r>   -6.0144    1.0000 </r>
       <r>   -5.9899    1.0000 </r>
       <r>   -5.9419    1.0000 </r>
       <r>   -5.9097    1.0000 </r>
       <r>   -5.8763    1.0000 </r>
       <r>   -5.8372    1.0000 </r>
       <r>   -5.7950    1.0000 </r>
       <r>   -5.7817    1.0000 </r>
       <r>   -5.7410    1.0000 </r>
       <r>   -5.7138    1.0000 </r>
       <r>   -5.6037    1.0000 </r>
       <r>   -5.5987    1.0000 </r>
       <r>   -5.5621    1.0000 </r>
       <r>   -5.4539    1.0000 </r>
       <r>   -5.3610    1.0000 </r>
       <r>   -5.2372    1.0000 </r>
       <r>   -5.1587    1.0000 </r>
       <r>   -5.1179    1.0000 </r>
       <r>   -5.0684    1.0000 </r>
       <r>   -5.0328    1.0000 </r>
       <r>   -4.9422    1.0000 </r>
       <r>   -4.8645    1.0000 </r>
       <r>   -4.8375    1.0000 </r>
       <r>   -4.7818    1.0000 </r>
       <r>   -4.7626    1.0000 </r>
       <r>   -4.6953    1.0000 </r>
       <r>   -4.6488    1.0000 </r>
       <r>   -4.6259    1.0000 </r>
       <r>   -4.5241    1.0000 </r>
       <r>   -4.4632    1.0000 </r>
       <r>   -4.4170    1.0000 </r>
       <r>   -4.4006    1.0000 </r>
       <r>   -4.3698    1.0000 </r>
       <r>   -4.3414    1.0000 </r>
       <r>   -4.3352    1.0000 </r>
       <r>   -4.3006    1.0000 </r>
       <r>   -4.2833    1.0000 </r>
       <r>   -4.2504    1.0000 </r>
       <r>   -4.2373    1.0000 </r>
       <r>   -4.1698    1.0000 </r>
       <r>   -4.1336    1.0000 </r>
       <r>   -4.1062    1.0000 </r>
       <r>   -4.0980    1.0000 </r>
       <r>   -4.0735    1.0000 </r>
       <r>   -4.0221    1.0000 </r>
       <r>   -2.8501    1.0000 </r>
       <r>   -2.7767    1.0000 </r>
       <r>   -2.5163    1.0000 </r>
       <r>   -2.0411    1.0000 </r>
       <r>   -1.8973    1.0000 </r>
       <r>   -1.6557    1.0000 </r>
       <r>   -0.6510   -0.0000 </r>
       <r>   -0.3424   -0.0000 </r>
       <r>   -0.0428   -0.0000 </r>
       <r>    0.2297   -0.0000 </r>
       <r>    0.6265   -0.0000 </r>
       <r>    1.2475   -0.0000 </r>
       <r>    1.4738   -0.0000 </r>
       <r>    2.2421    0.0000 </r>
       <r>    3.0588    0.0000 </r>
       <r>    3.2464    0.0000 </r>
       <r>    3.3105    0.0000 </r>
       <r>    3.4510    0.0000 </r>
       <r>    4.1663    0.0000 </r>
       <r>    4.1743    0.0000 </r>
       <r>    4.2415    0.0000 </r>
       <r>    4.3989    0.0000 </r>
       <r>    4.8700    0.0000 </r>
       <r>    5.0423    0.0000 </r>
       <r>    5.4568    0.0000 </r>
       <r>    5.5893    0.0000 </r>
       <r>    5.7257    0.0000 </r>
       <r>    5.8535    0.0000 </r>
       <r>    6.8459    0.0000 </r>
       <r>    6.9992    0.0000 </r>
       <r>    7.1361    0.0000 </r>
       <r>    7.2028    0.0000 </r>
       <r>    7.3132    0.0000 </r>
      </set>
      <set comment="kpoint 7">
       <r>  -18.4252    1.0000 </r>
       <r>   -7.5804    1.0000 </r>
       <r>   -7.0452    1.0000 </r>
       <r>   -6.9900    1.0000 </r>
       <r>   -6.9403    1.0000 </r>
       <r>   -6.8904    1.0000 </r>
       <r>   -6.8695    1.0000 </r>
       <r>   -6.8295    1.0000 </r>
       <r>   -6.8080    1.0000 </r>
       <r>   -6.7668    1.0000 </r>
       <r>   -6.7593    1.0000 </r>
       <r>   -6.6983    1.0000 </r>
       <r>   -6.6325    1.0000 </r>
       <r>   -6.5536    1.0000 </r>
       <r>   -6.4905    1.0000 </r>
       <r>   -6.4037    1.0000 </r>
       <r>   -6.2052    1.0000 </r>
       <r>   -6.1404    1.0000 </r>
       <r>   -6.0836    1.0000 </r>
       <r>   -6.0267    1.0000 </r>
       <r>   -5.9841    1.0000 </r>
       <r>   -5.9161    1.0000 </r>
       <r>   -5.9022    1.0000 </r>
       <r>   -5.8320    1.0000 </r>
       <r>   -5.8092    1.0000 </r>
       <r>   -5.7402    1.0000 </r>
       <r>   -5.6957    1.0000 </r>
       <r>   -5.6256    1.0000 </r>
       <r>   -5.6118    1.0000 </r>
       <r>   -5.5660    1.0000 </r>
       <r>   -5.5132    1.0000 </r>
       <r>   -5.5000    1.0000 </r>
       <r>   -5.3896    1.0000 </r>
       <r>   -5.3473    1.0000 </r>
       <r>   -5.2962    1.0000 </r>
       <r>   -5.2776    1.0000 </r>
       <r>   -5.1411    1.0000 </r>
       <r>   -5.0690    1.0000 </r>
       <r>   -4.9846    1.0000 </r>
       <r>   -4.9539    1.0000 </r>
       <r>   -4.9141    1.0000 </r>
       <r>   -4.8763    1.0000 </r>
       <r>   -4.8337    1.0000 </r>
       <r>   -4.7928    1.0000 </r>
       <r>   -4.7687    1.0000 </r>
       <r>   -4.7197    1.0000 </r>
       <r>   -4.6948    1.0000 </r>
       <r>   -4.6235    1.0000 </r>
       <r>   -4.6105    1.0000 </r>
       <r>   -4.5813    1.0000 </r>
       <r>   -4.5403    1.0000 </r>
       <r>   -4.5104    1.0000 </r>
       <r>   -4.4858    1.0000 </r>
       <r>   -4.4635    1.0000 </r>
       <r>   -4.3702    1.0000 </r>
       <r>   -4.3078    1.0000 </r>
       <r>   -4.2915    1.0000 </r>
       <r>   -4.2483    1.0000 </r>
       <r>   -4.2088    1.0000 </r>
       <r>   -4.1874    1.0000 </r>
       <r>   -4.1582    1.0000 </r>
       <r>   -4.1001    1.0000 </r>
       <r>   -3.9535    1.0000 </r>
       <r>   -3.4484    1.0000 </r>
       <r>   -2.9074    1.0000 </r>
       <r>   -2.6640    1.0000 </r>
       <r>   -2.4558    1.0000 </r>
       <r>   -2.0664    1.0000 </r>
       <r>   -1.4545    1.0005 </r>
       <r>   -1.1175    0.0493 </r>
       <r>   -0.3870   -0.0000 </r>
       <r>   -0.0248   -0.0000 </r>
       <r>    0.7066   -0.0000 </r>
       <r>    0.9340   -0.0000 </r>
       <r>    1.2613   -0.0000 </r>
       <r>    1.7829    0.0000 </r>
       <r>    2.3342    0.0000 </r>
       <r>    3.4298    0.0000 </r>
       <r>    3.5852    0.0000 </r>
       <r>    3.8146    0.0000 </r>
       <r>    3.9818    0.0000 </r>
       <r>    4.4351    0.0000 </r>
       <r>    4.4454    0.0000 </r>
       <r>    4.5733    0.0000 </r>
       <r>    4.8241    0.0000 </r>
       <r>    5.0385    0.0000 </r>
       <r>    5.5365    0.0000 </r>
       <r>    5.6561    0.0000 </r>
       <r>    5.8466    0.0000 </r>
       <r>    6.0274    0.0000 </r>
       <r>    6.1145    0.0000 </r>
       <r>    6.6045    0.0000 </r>
       <r>    6.7424    0.0000 </r>
       <r>    6.8435    0.0000 </r>
       <r>    6.9319    0.0000 </r>
       <r>    7.1397    0.0000 </r>
      </set>
      <set comment="kpoint 8">
       <r>  -18.4229    1.0000 </r>
       <r>   -7.2653    1.0000 </r>
       <r>   -6.9961    1.0000 </r>
       <r>   -6.8957    1.0000 </r>
       <r>   -6.7716    1.0000 </r>
       <r>   -6.7521    1.0000 </r>
       <r>   -6.7136    1.0000 </r>
       <r>   -6.6858    1.0000 </r>
       <r>   -6.6601    1.0000 </r>
       <r>   -6.6146    1.0000 </r>
       <r>   -6.5825    1.0000 </r>
       <r>   -6.5475    1.0000 </r>
       <r>   -6.4445    1.0000 </r>
       <r>   -6.4116    1.0000 </r>
       <r>   -6.3277    1.0000 </r>
       <r>   -6.2718    1.0000 </r>
       <r>   -6.1789    1.0000 </r>
       <r>   -6.1479    1.0000 </r>
       <r>   -6.1145    1.0000 </r>
       <r>   -6.0150    1.0000 </r>
       <r>   -5.9939    1.0000 </r>
       <r>   -5.9709    1.0000 </r>
       <r>   -5.8673    1.0000 </r>
       <r>   -5.8268    1.0000 </r>
       <r>   -5.8154    1.0000 </r>
       <r>   -5.7618    1.0000 </r>
       <r>   -5.7350    1.0000 </r>
       <r>   -5.6413    1.0000 </r>
       <r>   -5.5749    1.0000 </r>
       <r>   -5.5471    1.0000 </r>
       <r>   -5.5252    1.0000 </r>
       <r>   -5.4997    1.0000 </r>
       <r>   -5.4601    1.0000 </r>
       <r>   -5.4144    1.0000 </r>
       <r>   -5.3283    1.0000 </r>
       <r>   -5.3221    1.0000 </r>
       <r>   -5.2341    1.0000 </r>
       <r>   -5.1368    1.0000 </r>
       <r>   -5.0852    1.0000 </r>
       <r>   -5.0608    1.0000 </r>
       <r>   -5.0424    1.0000 </r>
       <r>   -5.0170    1.0000 </r>
       <r>   -4.9790    1.0000 </r>
       <r>   -4.9359    1.0000 </r>
       <r>   -4.9194    1.0000 </r>
       <r>   -4.8763    1.0000 </r>
       <r>   -4.8465    1.0000 </r>
       <r>   -4.8169    1.0000 </r>
       <r>   -4.7510    1.0000 </r>
       <r>   -4.7379    1.0000 </r>
       <r>   -4.7060    1.0000 </r>
       <r>   -4.6723    1.0000 </r>
       <r>   -4.5982    1.0000 </r>
       <r>   -4.4988    1.0000 </r>
       <r>   -4.4628    1.0000 </r>
       <r>   -4.4439    1.0000 </r>
       <r>   -4.3301    1.0000 </r>
       <r>   -4.2913    1.0000 </r>
       <r>   -4.2525    1.0000 </r>
       <r>   -4.2174    1.0000 </r>
       <r>   -4.1949    1.0000 </r>
       <r>   -4.1248    1.0000 </r>
       <r>   -4.1008    1.0000 </r>
       <r>   -3.7465    1.0000 </r>
       <r>   -3.1636    1.0000 </r>
       <r>   -2.7724    1.0000 </r>
       <r>   -2.5487    1.0000 </r>
       <r>   -2.1398    1.0000 </r>
       <r>   -1.5971    1.0000 </r>
       <r>   -0.9340   -0.0011 </r>
       <r>   -0.4042   -0.0000 </r>
       <r>   -0.1023   -0.0000 </r>
       <r>    0.4776   -0.0000 </r>
       <r>    1.2813   -0.0000 </r>
       <r>    1.6189    0.0000 </r>
       <r>    2.0315    0.0000 </r>
       <r>    2.7311    0.0000 </r>
       <r>    3.2693    0.0000 </r>
       <r>    3.9554    0.0000 </r>
       <r>    4.0373    0.0000 </r>
       <r>    4.4386    0.0000 </r>
       <r>    4.8138    0.0000 </r>
       <r>    4.8461    0.0000 </r>
       <r>    4.9742    0.0000 </r>
       <r>    5.1781    0.0000 </r>
       <r>    5.2373    0.0000 </r>
       <r>    5.5533    0.0000 </r>
       <r>    5.9603    0.0000 </r>
       <r>    6.0322    0.0000 </r>
       <r>    6.2087    0.0000 </r>
       <r>    6.2384    0.0000 </r>
       <r>    6.3585    0.0000 </r>
       <r>    6.4983    0.0000 </r>
       <r>    6.6040    0.0000 </r>
       <r>    6.8316    0.0000 </r>
       <r>    7.2432    0.0000 </r>
      </set>
      <set comment="kpoint 9">
       <r>  -18.4219    1.0000 </r>
       <r>   -7.1177    1.0000 </r>
       <r>   -6.9725    1.0000 </r>
       <r>   -6.8355    1.0000 </r>
       <r>   -6.7239    1.0000 </r>
       <r>   -6.6808    1.0000 </r>
       <r>   -6.6474    1.0000 </r>
       <r>   -6.6155    1.0000 </r>
       <r>   -6.5675    1.0000 </r>
       <r>   -6.5094    1.0000 </r>
       <r>   -6.4401    1.0000 </r>
       <r>   -6.4289    1.0000 </r>
       <r>   -6.4013    1.0000 </r>
       <r>   -6.3326    1.0000 </r>
       <r>   -6.3036    1.0000 </r>
       <r>   -6.2630    1.0000 </r>
       <r>   -6.2420    1.0000 </r>
       <r>   -6.1542    1.0000 </r>
       <r>   -6.0826    1.0000 </r>
       <r>   -6.0277    1.0000 </r>
       <r>   -5.9884    1.0000 </r>
       <r>   -5.9242    1.0000 </r>
       <r>   -5.9074    1.0000 </r>
       <r>   -5.8781    1.0000 </r>
       <r>   -5.8326    1.0000 </r>
       <r>   -5.7917    1.0000 </r>
       <r>   -5.7331    1.0000 </r>
       <r>   -5.5942    1.0000 </r>
       <r>   -5.5621    1.0000 </r>
       <r>   -5.5413    1.0000 </r>
       <r>   -5.5063    1.0000 </r>
       <r>   -5.4766    1.0000 </r>
       <r>   -5.4295    1.0000 </r>
       <r>   -5.4161    1.0000 </r>
       <r>   -5.3636    1.0000 </r>
       <r>   -5.3192    1.0000 </r>
       <r>   -5.2863    1.0000 </r>
       <r>   -5.2713    1.0000 </r>
       <r>   -5.2110    1.0000 </r>
       <r>   -5.1693    1.0000 </r>
       <r>   -5.1370    1.0000 </r>
       <r>   -5.1184    1.0000 </r>
       <r>   -5.0666    1.0000 </r>
       <r>   -5.0067    1.0000 </r>
       <r>   -4.9748    1.0000 </r>
       <r>   -4.8964    1.0000 </r>
       <r>   -4.8891    1.0000 </r>
       <r>   -4.8429    1.0000 </r>
       <r>   -4.8169    1.0000 </r>
       <r>   -4.7605    1.0000 </r>
       <r>   -4.7466    1.0000 </r>
       <r>   -4.6945    1.0000 </r>
       <r>   -4.6563    1.0000 </r>
       <r>   -4.5423    1.0000 </r>
       <r>   -4.5162    1.0000 </r>
       <r>   -4.4913    1.0000 </r>
       <r>   -4.4274    1.0000 </r>
       <r>   -4.3216    1.0000 </r>
       <r>   -4.2831    1.0000 </r>
       <r>   -4.2523    1.0000 </r>
       <r>   -4.2354    1.0000 </r>
       <r>   -4.1985    1.0000 </r>
       <r>   -4.1107    1.0000 </r>
       <r>   -3.6420    1.0000 </r>
       <r>   -3.3156    1.0000 </r>
       <r>   -2.7815    1.0000 </r>
       <r>   -2.6009    1.0000 </r>
       <r>   -2.1705    1.0000 </r>
       <r>   -1.6694    1.0000 </r>
       <r>   -0.7583   -0.0000 </r>
       <r>   -0.2725   -0.0000 </r>
       <r>   -0.2358   -0.0000 </r>
       <r>    0.2214   -0.0000 </r>
       <r>    1.5353   -0.0000 </r>
       <r>    1.7264    0.0000 </r>
       <r>    2.1532    0.0000 </r>
       <r>    2.6639    0.0000 </r>
       <r>    3.7128    0.0000 </r>
       <r>    4.1322    0.0000 </r>
       <r>    4.2781    0.0000 </r>
       <r>    4.4808    0.0000 </r>
       <r>    4.5161    0.0000 </r>
       <r>    4.7113    0.0000 </r>
       <r>    5.2735    0.0000 </r>
       <r>    5.4176    0.0000 </r>
       <r>    5.5000    0.0000 </r>
       <r>    5.5193    0.0000 </r>
       <r>    5.7790    0.0000 </r>
       <r>    5.9616    0.0000 </r>
       <r>    6.0978    0.0000 </r>
       <r>    6.2706    0.0000 </r>
       <r>    6.4553    0.0000 </r>
       <r>    6.5524    0.0000 </r>
       <r>    6.6708    0.0000 </r>
       <r>    6.7516    0.0000 </r>
       <r>    6.8455    0.0000 </r>
      </set>
      <set comment="kpoint 10">
       <r>  -18.4231    1.0000 </r>
       <r>   -7.2936    1.0000 </r>
       <r>   -6.9648    1.0000 </r>
       <r>   -6.8417    1.0000 </r>
       <r>   -6.8157    1.0000 </r>
       <r>   -6.7605    1.0000 </r>
       <r>   -6.7390    1.0000 </r>
       <r>   -6.6963    1.0000 </r>
       <r>   -6.6927    1.0000 </r>
       <r>   -6.6644    1.0000 </r>
       <r>   -6.5747    1.0000 </r>
       <r>   -6.5607    1.0000 </r>
       <r>   -6.4568    1.0000 </r>
       <r>   -6.4015    1.0000 </r>
       <r>   -6.3627    1.0000 </r>
       <r>   -6.3110    1.0000 </r>
       <r>   -6.1507    1.0000 </r>
       <r>   -6.1434    1.0000 </r>
       <r>   -6.1085    1.0000 </r>
       <r>   -6.0131    1.0000 </r>
       <r>   -6.0054    1.0000 </r>
       <r>   -5.9617    1.0000 </r>
       <r>   -5.9231    1.0000 </r>
       <r>   -5.8540    1.0000 </r>
       <r>   -5.7990    1.0000 </r>
       <r>   -5.7641    1.0000 </r>
       <r>   -5.6902    1.0000 </r>
       <r>   -5.6525    1.0000 </r>
       <r>   -5.6164    1.0000 </r>
       <r>   -5.5915    1.0000 </r>
       <r>   -5.5374    1.0000 </r>
       <r>   -5.5226    1.0000 </r>
       <r>   -5.4762    1.0000 </r>
       <r>   -5.4251    1.0000 </r>
       <r>   -5.3512    1.0000 </r>
       <r>   -5.3432    1.0000 </r>
       <r>   -5.2004    1.0000 </r>
       <r>   -5.0994    1.0000 </r>
       <r>   -5.0804    1.0000 </r>
       <r>   -5.0640    1.0000 </r>
       <r>   -5.0002    1.0000 </r>
       <r>   -4.9900    1.0000 </r>
       <r>   -4.9664    1.0000 </r>
       <r>   -4.9124    1.0000 </r>
       <r>   -4.9017    1.0000 </r>
       <r>   -4.8633    1.0000 </r>
       <r>   -4.8208    1.0000 </r>
       <r>   -4.8173    1.0000 </r>
       <r>   -4.7657    1.0000 </r>
       <r>   -4.6913    1.0000 </r>
       <r>   -4.6742    1.0000 </r>
       <r>   -4.6177    1.0000 </r>
       <r>   -4.5630    1.0000 </r>
       <r>   -4.5174    1.0000 </r>
       <r>   -4.3832    1.0000 </r>
       <r>   -4.3611    1.0000 </r>
       <r>   -4.3508    1.0000 </r>
       <r>   -4.3147    1.0000 </r>
       <r>   -4.2664    1.0000 </r>
       <r>   -4.2335    1.0000 </r>
       <r>   -4.2122    1.0000 </r>
       <r>   -4.1808    1.0000 </r>
       <r>   -3.7823    1.0000 </r>
       <r>   -3.4746    1.0000 </r>
       <r>   -3.4281    1.0000 </r>
       <r>   -2.8265    1.0000 </r>
       <r>   -2.7216    1.0000 </r>
       <r>   -2.3369    1.0000 </r>
       <r>   -1.5248    1.0000 </r>
       <r>   -1.0782   -0.0308 </r>
       <r>   -0.6318   -0.0000 </r>
       <r>    0.6644   -0.0000 </r>
       <r>    0.8986   -0.0000 </r>
       <r>    1.2146   -0.0000 </r>
       <r>    1.3438   -0.0000 </r>
       <r>    1.7592    0.0000 </r>
       <r>    2.5965    0.0000 </r>
       <r>    3.5442    0.0000 </r>
       <r>    3.6536    0.0000 </r>
       <r>    3.9105    0.0000 </r>
       <r>    4.1362    0.0000 </r>
       <r>    4.7574    0.0000 </r>
       <r>    4.8373    0.0000 </r>
       <r>    5.0752    0.0000 </r>
       <r>    5.3963    0.0000 </r>
       <r>    5.5697    0.0000 </r>
       <r>    5.6681    0.0000 </r>
       <r>    5.7113    0.0000 </r>
       <r>    5.9162    0.0000 </r>
       <r>    6.0358    0.0000 </r>
       <r>    6.0554    0.0000 </r>
       <r>    6.2013    0.0000 </r>
       <r>    6.5041    0.0000 </r>
       <r>    6.6678    0.0000 </r>
       <r>    6.8160    0.0000 </r>
       <r>    6.8339    0.0000 </r>
      </set>
      <set comment="kpoint 11">
       <r>  -18.4217    1.0000 </r>
       <r>   -7.0857    1.0000 </r>
       <r>   -6.8682    1.0000 </r>
       <r>   -6.7311    1.0000 </r>
       <r>   -6.6659    1.0000 </r>
       <r>   -6.6334    1.0000 </r>
       <r>   -6.6042    1.0000 </r>
       <r>   -6.5786    1.0000 </r>
       <r>   -6.5666    1.0000 </r>
       <r>   -6.5125    1.0000 </r>
       <r>   -6.4998    1.0000 </r>
       <r>   -6.3874    1.0000 </r>
       <r>   -6.3578    1.0000 </r>
       <r>   -6.3397    1.0000 </r>
       <r>   -6.3084    1.0000 </r>
       <r>   -6.2665    1.0000 </r>
       <r>   -6.2366    1.0000 </r>
       <r>   -6.1520    1.0000 </r>
       <r>   -6.1036    1.0000 </r>
       <r>   -6.0582    1.0000 </r>
       <r>   -5.9996    1.0000 </r>
       <r>   -5.9455    1.0000 </r>
       <r>   -5.9090    1.0000 </r>
       <r>   -5.8658    1.0000 </r>
       <r>   -5.8301    1.0000 </r>
       <r>   -5.7616    1.0000 </r>
       <r>   -5.7408    1.0000 </r>
       <r>   -5.6798    1.0000 </r>
       <r>   -5.6428    1.0000 </r>
       <r>   -5.5931    1.0000 </r>
       <r>   -5.5725    1.0000 </r>
       <r>   -5.5327    1.0000 </r>
       <r>   -5.4969    1.0000 </r>
       <r>   -5.4859    1.0000 </r>
       <r>   -5.4218    1.0000 </r>
       <r>   -5.3824    1.0000 </r>
       <r>   -5.3587    1.0000 </r>
       <r>   -5.2963    1.0000 </r>
       <r>   -5.2451    1.0000 </r>
       <r>   -5.1954    1.0000 </r>
       <r>   -5.1761    1.0000 </r>
       <r>   -5.1273    1.0000 </r>
       <r>   -5.0780    1.0000 </r>
       <r>   -4.9693    1.0000 </r>
       <r>   -4.9267    1.0000 </r>
       <r>   -4.8794    1.0000 </r>
       <r>   -4.8442    1.0000 </r>
       <r>   -4.8137    1.0000 </r>
       <r>   -4.7849    1.0000 </r>
       <r>   -4.7284    1.0000 </r>
       <r>   -4.6629    1.0000 </r>
       <r>   -4.6206    1.0000 </r>
       <r>   -4.5312    1.0000 </r>
       <r>   -4.5023    1.0000 </r>
       <r>   -4.4616    1.0000 </r>
       <r>   -4.4135    1.0000 </r>
       <r>   -4.3815    1.0000 </r>
       <r>   -4.3467    1.0000 </r>
       <r>   -4.3043    1.0000 </r>
       <r>   -4.2595    1.0000 </r>
       <r>   -4.2479    1.0000 </r>
       <r>   -4.2132    1.0000 </r>
       <r>   -4.0741    1.0000 </r>
       <r>   -3.5961    1.0000 </r>
       <r>   -3.3852    1.0000 </r>
       <r>   -3.1146    1.0000 </r>
       <r>   -2.7677    1.0000 </r>
       <r>   -2.4216    1.0000 </r>
       <r>   -1.6952    1.0000 </r>
       <r>   -1.1037    0.0066 </r>
       <r>   -0.3012   -0.0000 </r>
       <r>    0.2180   -0.0000 </r>
       <r>    1.0461   -0.0000 </r>
       <r>    1.2550   -0.0000 </r>
       <r>    1.9939    0.0000 </r>
       <r>    2.5216    0.0000 </r>
       <r>    2.6445    0.0000 </r>
       <r>    3.2500    0.0000 </r>
       <r>    3.6874    0.0000 </r>
       <r>    3.9239    0.0000 </r>
       <r>    4.3882    0.0000 </r>
       <r>    4.5165    0.0000 </r>
       <r>    4.9947    0.0000 </r>
       <r>    5.2071    0.0000 </r>
       <r>    5.2632    0.0000 </r>
       <r>    5.4104    0.0000 </r>
       <r>    5.6228    0.0000 </r>
       <r>    5.8139    0.0000 </r>
       <r>    5.8714    0.0000 </r>
       <r>    6.0535    0.0000 </r>
       <r>    6.3839    0.0000 </r>
       <r>    6.4863    0.0000 </r>
       <r>    6.5841    0.0000 </r>
       <r>    6.6824    0.0000 </r>
       <r>    6.7857    0.0000 </r>
       <r>    6.8518    0.0000 </r>
      </set>
      <set comment="kpoint 12">
       <r>  -18.4214    1.0000 </r>
       <r>   -7.0378    1.0000 </r>
       <r>   -6.7102    1.0000 </r>
       <r>   -6.6996    1.0000 </r>
       <r>   -6.5301    1.0000 </r>
       <r>   -6.5265    1.0000 </r>
       <r>   -6.5164    1.0000 </r>
       <r>   -6.4991    1.0000 </r>
       <r>   -6.4872    1.0000 </r>
       <r>   -6.4545    1.0000 </r>
       <r>   -6.4337    1.0000 </r>
       <r>   -6.4104    1.0000 </r>
       <r>   -6.4046    1.0000 </r>
       <r>   -6.4011    1.0000 </r>
       <r>   -6.3792    1.0000 </r>
       <r>   -6.3397    1.0000 </r>
       <r>   -6.2185    1.0000 </r>
       <r>   -6.1514    1.0000 </r>
       <r>   -6.1132    1.0000 </r>
       <r>   -6.0739    1.0000 </r>
       <r>   -5.9962    1.0000 </r>
       <r>   -5.9032    1.0000 </r>
       <r>   -5.9001    1.0000 </r>
       <r>   -5.8243    1.0000 </r>
       <r>   -5.8192    1.0000 </r>
       <r>   -5.7364    1.0000 </r>
       <r>   -5.7311    1.0000 </r>
       <r>   -5.7087    1.0000 </r>
       <r>   -5.7086    1.0000 </r>
       <r>   -5.6608    1.0000 </r>
       <r>   -5.6589    1.0000 </r>
       <r>   -5.5740    1.0000 </r>
       <r>   -5.5440    1.0000 </r>
       <r>   -5.5274    1.0000 </r>
       <r>   -5.4242    1.0000 </r>
       <r>   -5.4201    1.0000 </r>
       <r>   -5.4008    1.0000 </r>
       <r>   -5.3842    1.0000 </r>
       <r>   -5.3778    1.0000 </r>
       <r>   -5.3194    1.0000 </r>
       <r>   -5.2560    1.0000 </r>
       <r>   -5.1450    1.0000 </r>
       <r>   -4.9784    1.0000 </r>
       <r>   -4.9425    1.0000 </r>
       <r>   -4.9198    1.0000 </r>
       <r>   -4.8920    1.0000 </r>
       <r>   -4.8841    1.0000 </r>
       <r>   -4.7872    1.0000 </r>
       <r>   -4.7771    1.0000 </r>
       <r>   -4.6879    1.0000 </r>
       <r>   -4.6739    1.0000 </r>
       <r>   -4.5298    1.0000 </r>
       <r>   -4.5112    1.0000 </r>
       <r>   -4.4484    1.0000 </r>
       <r>   -4.4327    1.0000 </r>
       <r>   -4.4181    1.0000 </r>
       <r>   -4.3817    1.0000 </r>
       <r>   -4.3435    1.0000 </r>
       <r>   -4.3118    1.0000 </r>
       <r>   -4.2865    1.0000 </r>
       <r>   -4.2726    1.0000 </r>
       <r>   -4.0774    1.0000 </r>
       <r>   -4.0481    1.0000 </r>
       <r>   -4.0303    1.0000 </r>
       <r>   -3.3377    1.0000 </r>
       <r>   -3.1445    1.0000 </r>
       <r>   -2.9729    1.0000 </r>
       <r>   -2.4540    1.0000 </r>
       <r>   -1.7655    1.0000 </r>
       <r>   -1.2247    0.8081 </r>
       <r>    0.0352   -0.0000 </r>
       <r>    0.0797   -0.0000 </r>
       <r>    0.7880   -0.0000 </r>
       <r>    2.3699    0.0000 </r>
       <r>    2.4274    0.0000 </r>
       <r>    2.4334    0.0000 </r>
       <r>    2.6073    0.0000 </r>
       <r>    2.7766    0.0000 </r>
       <r>    3.2810    0.0000 </r>
       <r>    3.8674    0.0000 </r>
       <r>    4.5011    0.0000 </r>
       <r>    4.6956    0.0000 </r>
       <r>    4.9104    0.0000 </r>
       <r>    4.9250    0.0000 </r>
       <r>    5.0834    0.0000 </r>
       <r>    5.6844    0.0000 </r>
       <r>    5.6852    0.0000 </r>
       <r>    5.8396    0.0000 </r>
       <r>    5.9407    0.0000 </r>
       <r>    5.9511    0.0000 </r>
       <r>    5.9536    0.0000 </r>
       <r>    6.2848    0.0000 </r>
       <r>    6.5832    0.0000 </r>
       <r>    6.9154    0.0000 </r>
       <r>    6.9777    0.0000 </r>
       <r>    7.0088    0.0000 </r>
      </set>
     </set>
    </set>
   </array>
  </eigenvalues>
  <separator name="orbital magnetization" >
   <v name="MAGDIPOLOUT">      0.00000000      0.00000000      0.00000000</v>
  </separator>
  <dos>
   <i name="efermi">     -1.18499911 </i>
   <total>
    <array>
     <dimension dim="1">gridpoints</dimension>
     <dimension dim="2">spin</dimension>
     <field>energy</field>
     <field>total</field>
     <field>integrated</field>
     <set>
      <set comment="spin 1">
       <r>   -19.7207     0.0000     0.0000 </r>
       <r>   -19.6261     0.0000     0.0000 </r>
       <r>   -19.5315     0.0000     0.0000 </r>
       <r>   -19.4369     0.0000     0.0000 </r>
       <r>   -19.3423     0.0000     0.0000 </r>
       <r>   -19.2477    -0.0000    -0.0000 </r>
       <r>   -19.1531    -0.0000    -0.0000 </r>
       <r>   -19.0585    -0.0000    -0.0000 </r>
       <r>   -18.9639    -0.0000    -0.0000 </r>
       <r>   -18.8693    -0.0000    -0.0000 </r>
       <r>   -18.7747    -0.0001    -0.0000 </r>
       <r>   -18.6801    -0.0189    -0.0018 </r>
       <r>   -18.5855    -0.4571    -0.0450 </r>
       <r>   -18.4909     1.5936     0.1057 </r>
       <r>   -18.3963    14.2454     1.4533 </r>
       <r>   -18.3017     6.5272     2.0707 </r>
       <r>   -18.2071    -0.6539     2.0089 </r>
       <r>   -18.1125    -0.0927     2.0001 </r>
       <r>   -18.0179    -0.0010     2.0000 </r>
       <r>   -17.9233    -0.0000     2.0000 </r>
       <r>   -17.8288    -0.0000     2.0000 </r>
       <r>   -17.7342    -0.0000     2.0000 </r>
       <r>   -17.6396     0.0000     2.0000 </r>
       <r>   -17.5450     0.0000     2.0000 </r>
       <r>   -17.4504     0.0000     2.0000 </r>
       <r>   -17.3558     0.0000     2.0000 </r>
       <r>   -17.2612     0.0000     2.0000 </r>
       <r>   -17.1666     0.0000     2.0000 </r>
       <r>   -17.0720     0.0000     2.0000 </r>
       <r>   -16.9774     0.0000     2.0000 </r>
       <r>   -16.8828     0.0000     2.0000 </r>
       <r>   -16.7882     0.0000     2.0000 </r>
       <r>   -16.6936     0.0000     2.0000 </r>
       <r>   -16.5990     0.0000     2.0000 </r>
       <r>   -16.5044     0.0000     2.0000 </r>
       <r>   -16.4098     0.0000     2.0000 </r>
       <r>   -16.3152     0.0000     2.0000 </r>
       <r>   -16.2206     0.0000     2.0000 </r>
       <r>   -16.1260     0.0000     2.0000 </r>
       <r>   -16.0314     0.0000     2.0000 </r>
       <r>   -15.9368     0.0000     2.0000 </r>
       <r>   -15.8422     0.0000     2.0000 </r>
       <r>   -15.7477     0.0000     2.0000 </r>
       <r>   -15.6531     0.0000     2.0000 </r>
       <r>   -15.5585     0.0000     2.0000 </r>
       <r>   -15.4639     0.0000     2.0000 </r>
       <r>   -15.3693     0.0000     2.0000 </r>
       <r>   -15.2747     0.0000     2.0000 </r>
       <r>   -15.1801     0.0000     2.0000 </r>
       <r>   -15.0855     0.0000     2.0000 </r>
       <r>   -14.9909     0.0000     2.0000 </r>
       <r>   -14.8963     0.0000     2.0000 </r>
       <r>   -14.8017     0.0000     2.0000 </r>
       <r>   -14.7071     0.0000     2.0000 </r>
       <r>   -14.6125     0.0000     2.0000 </r>
       <r>   -14.5179     0.0000     2.0000 </r>
       <r>   -14.4233     0.0000     2.0000 </r>
       <r>   -14.3287     0.0000     2.0000 </r>
       <r>   -14.2341     0.0000     2.0000 </r>
       <r>   -14.1395     0.0000     2.0000 </r>
       <r>   -14.0449     0.0000     2.0000 </r>
       <r>   -13.9503     0.0000     2.0000 </r>
       <r>   -13.8557     0.0000     2.0000 </r>
       <r>   -13.7612     0.0000     2.0000 </r>
       <r>   -13.6666     0.0000     2.0000 </r>
       <r>   -13.5720     0.0000     2.0000 </r>
       <r>   -13.4774     0.0000     2.0000 </r>
       <r>   -13.3828     0.0000     2.0000 </r>
       <r>   -13.2882     0.0000     2.0000 </r>
       <r>   -13.1936     0.0000     2.0000 </r>
       <r>   -13.0990     0.0000     2.0000 </r>
       <r>   -13.0044     0.0000     2.0000 </r>
       <r>   -12.9098     0.0000     2.0000 </r>
       <r>   -12.8152     0.0000     2.0000 </r>
       <r>   -12.7206     0.0000     2.0000 </r>
       <r>   -12.6260     0.0000     2.0000 </r>
       <r>   -12.5314     0.0000     2.0000 </r>
       <r>   -12.4368     0.0000     2.0000 </r>
       <r>   -12.3422     0.0000     2.0000 </r>
       <r>   -12.2476     0.0000     2.0000 </r>
       <r>   -12.1530     0.0000     2.0000 </r>
       <r>   -12.0584     0.0000     2.0000 </r>
       <r>   -11.9638     0.0000     2.0000 </r>
       <r>   -11.8692     0.0000     2.0000 </r>
       <r>   -11.7746     0.0000     2.0000 </r>
       <r>   -11.6801     0.0000     2.0000 </r>
       <r>   -11.5855     0.0000     2.0000 </r>
       <r>   -11.4909     0.0000     2.0000 </r>
       <r>   -11.3963     0.0000     2.0000 </r>
       <r>   -11.3017     0.0000     2.0000 </r>
       <r>   -11.2071     0.0000     2.0000 </r>
       <r>   -11.1125     0.0000     2.0000 </r>
       <r>   -11.0179     0.0000     2.0000 </r>
       <r>   -10.9233     0.0000     2.0000 </r>
       <r>   -10.8287     0.0000     2.0000 </r>
       <r>   -10.7341     0.0000     2.0000 </r>
       <r>   -10.6395     0.0000     2.0000 </r>
       <r>   -10.5449     0.0000     2.0000 </r>
       <r>   -10.4503     0.0000     2.0000 </r>
       <r>   -10.3557     0.0000     2.0000 </r>
       <r>   -10.2611     0.0000     2.0000 </r>
       <r>   -10.1665     0.0000     2.0000 </r>
       <r>   -10.0719     0.0000     2.0000 </r>
       <r>    -9.9773     0.0000     2.0000 </r>
       <r>    -9.8827     0.0000     2.0000 </r>
       <r>    -9.7881     0.0000     2.0000 </r>
       <r>    -9.6936     0.0000     2.0000 </r>
       <r>    -9.5990     0.0000     2.0000 </r>
       <r>    -9.5044     0.0000     2.0000 </r>
       <r>    -9.4098     0.0000     2.0000 </r>
       <r>    -9.3152     0.0000     2.0000 </r>
       <r>    -9.2206     0.0000     2.0000 </r>
       <r>    -9.1260     0.0000     2.0000 </r>
       <r>    -9.0314     0.0000     2.0000 </r>
       <r>    -8.9368    -0.0000     2.0000 </r>
       <r>    -8.8422    -0.0000     2.0000 </r>
       <r>    -8.7476    -0.0000     2.0000 </r>
       <r>    -8.6530    -0.0000     2.0000 </r>
       <r>    -8.5584    -0.0000     2.0000 </r>
       <r>    -8.4638    -0.0000     2.0000 </r>
       <r>    -8.3692    -0.0001     2.0000 </r>
       <r>    -8.2746    -0.0035     1.9997 </r>
       <r>    -8.1800    -0.0283     1.9970 </r>
       <r>    -8.0854     0.1742     2.0135 </r>
       <r>    -7.9908     1.0457     2.1124 </r>
       <r>    -7.8962     0.9323     2.2006 </r>
       <r>    -7.8016     1.6566     2.3573 </r>
       <r>    -7.7070     1.0858     2.4600 </r>
       <r>    -7.6125     0.8450     2.5399 </r>
       <r>    -7.5179     2.3483     2.7621 </r>
       <r>    -7.4233     1.2629     2.8815 </r>
       <r>    -7.3287     0.6778     2.9456 </r>
       <r>    -7.2341     3.8125     3.3063 </r>
       <r>    -7.1395     9.0921     4.1664 </r>
       <r>    -7.0449    19.0077     5.9644 </r>
       <r>    -6.9503    26.7203     8.4920 </r>
       <r>    -6.8557    30.7266    11.3986 </r>
       <r>    -6.7611    37.9295    14.9866 </r>
       <r>    -6.6665    43.7530    19.1254 </r>
       <r>    -6.5719    41.5782    23.0585 </r>
       <r>    -6.4773    32.4355    26.1267 </r>
       <r>    -6.3827    25.9303    28.5796 </r>
       <r>    -6.2881    28.0733    31.2352 </r>
       <r>    -6.1935    27.5363    33.8400 </r>
       <r>    -6.0989    28.7851    36.5630 </r>
       <r>    -6.0043    34.2977    39.8074 </r>
       <r>    -5.9097    44.7067    44.0364 </r>
       <r>    -5.8151    49.9728    48.7636 </r>
       <r>    -5.7205    44.9580    53.0164 </r>
       <r>    -5.6259    35.5477    56.3791 </r>
       <r>    -5.5314    49.4102    61.0530 </r>
       <r>    -5.4368    44.9814    65.3081 </r>
       <r>    -5.3422    36.9999    68.8081 </r>
       <r>    -5.2476    32.9966    71.9294 </r>
       <r>    -5.1530    30.7762    74.8407 </r>
       <r>    -5.0584    38.9644    78.5266 </r>
       <r>    -4.9638    41.7786    82.4786 </r>
       <r>    -4.8692    51.7893    87.3777 </r>
       <r>    -4.7746    54.5614    92.5389 </r>
       <r>    -4.6800    45.6625    96.8584 </r>
       <r>    -4.5854    39.3438   100.5801 </r>
       <r>    -4.4908    39.2149   104.2897 </r>
       <r>    -4.3962    42.5055   108.3105 </r>
       <r>    -4.3016    45.4810   112.6128 </r>
       <r>    -4.2070    60.1156   118.2994 </r>
       <r>    -4.1124    44.2170   122.4822 </r>
       <r>    -4.0178    25.1540   124.8616 </r>
       <r>    -3.9232     9.9308   125.8010 </r>
       <r>    -3.8286     2.8372   126.0694 </r>
       <r>    -3.7340     3.5286   126.4032 </r>
       <r>    -3.6394     3.9056   126.7727 </r>
       <r>    -3.5449     2.8751   127.0446 </r>
       <r>    -3.4503     3.7156   127.3961 </r>
       <r>    -3.3557     6.1740   127.9801 </r>
       <r>    -3.2611     3.5590   128.3168 </r>
       <r>    -3.1665     3.4719   128.6452 </r>
       <r>    -3.0719     5.0992   129.1276 </r>
       <r>    -2.9773     1.7619   129.2943 </r>
       <r>    -2.8827     2.4760   129.5285 </r>
       <r>    -2.7881     7.4198   130.2304 </r>
       <r>    -2.6935    10.3150   131.2061 </r>
       <r>    -2.5989     6.4675   131.8179 </r>
       <r>    -2.5043     9.5367   132.7200 </r>
       <r>    -2.4097    10.4662   133.7101 </r>
       <r>    -2.3151     4.2419   134.1113 </r>
       <r>    -2.2205     0.9263   134.1990 </r>
       <r>    -2.1259     3.3851   134.5192 </r>
       <r>    -2.0313     5.4323   135.0330 </r>
       <r>    -1.9367     2.5612   135.2753 </r>
       <r>    -1.8421     1.4860   135.4159 </r>
       <r>    -1.7475     2.4826   135.6507 </r>
       <r>    -1.6529     6.6574   136.2805 </r>
       <r>    -1.5583     5.4321   136.7944 </r>
       <r>    -1.4638     4.0315   137.1757 </r>
       <r>    -1.3692     1.8049   137.3465 </r>
       <r>    -1.2746     1.5567   137.4937 </r>
       <r>    -1.1800     5.7307   138.0358 </r>
       <r>    -1.0854     7.6114   138.7558 </r>
       <r>    -0.9908     3.6703   139.1030 </r>
       <r>    -0.8962     4.3226   139.5119 </r>
       <r>    -0.8016     3.6424   139.8565 </r>
       <r>    -0.7070     2.7552   140.1171 </r>
       <r>    -0.6124     3.5014   140.4483 </r>
       <r>    -0.5178     1.4272   140.5833 </r>
       <r>    -0.4232     1.6732   140.7416 </r>
       <r>    -0.3286     6.3952   141.3465 </r>
       <r>    -0.2340     6.1909   141.9322 </r>
       <r>    -0.1394     3.3760   142.2515 </r>
       <r>    -0.0448     5.7085   142.7915 </r>
       <r>     0.0498     4.0221   143.1720 </r>
       <r>     0.1444     1.7319   143.3358 </r>
       <r>     0.2390     7.5423   144.0493 </r>
       <r>     0.3336     5.8101   144.5989 </r>
       <r>     0.4282     2.4178   144.8276 </r>
       <r>     0.5227     3.2020   145.1305 </r>
       <r>     0.6173     2.3960   145.3572 </r>
       <r>     0.7119     5.0005   145.8302 </r>
       <r>     0.8065     2.9379   146.1081 </r>
       <r>     0.9011     3.7584   146.4636 </r>
       <r>     0.9957     4.6715   146.9055 </r>
       <r>     1.0903     3.5319   147.2396 </r>
       <r>     1.1849     2.4313   147.4696 </r>
       <r>     1.2795     9.2899   148.3484 </r>
       <r>     1.3741     7.0827   149.0184 </r>
[...]
        <r>  0.0000  0.0130  0.0578 </r>
        <r>  0.0336  0.0064  0.0219 </r>
        <r>  0.0336  0.0064  0.0219 </r>
        <r>  0.0336  0.0064  0.0219 </r>
        <r>  0.0026  0.0067  0.0309 </r>
        <r>  0.0026  0.0067  0.0309 </r>
        <r>  0.0000  0.0011  0.0299 </r>
        <r>  0.0026  0.0067  0.0309 </r>
        <r>  0.0109  0.0072  0.0374 </r>
        <r>  0.0109  0.0072  0.0374 </r>
        <r>  0.0109  0.0072  0.0374 </r>
        <r>  0.0306  0.0016  0.0453 </r>
        <r>  0.0000  0.0770  0.0000 </r>
       </set>
       <set comment="band 66">
        <r>  0.0000  0.0055  0.0055 </r>
        <r>  0.0156  0.0032  0.0131 </r>
        <r>  0.0156  0.0032  0.0131 </r>
        <r>  0.0156  0.0032  0.0131 </r>
        <r>  0.0000  0.0015  0.0285 </r>
        <r>  0.0000  0.0015  0.0285 </r>
        <r>  0.0034  0.0042  0.0017 </r>
        <r>  0.0000  0.0015  0.0285 </r>
        <r>  0.0370  0.0050  0.0903 </r>
        <r>  0.0370  0.0050  0.0903 </r>
        <r>  0.0370  0.0050  0.0903 </r>
        <r>  0.0000  0.0097  0.0381 </r>
        <r>  0.0000  0.1083  0.0000 </r>
       </set>
       <set comment="band 67">
        <r>  0.0705  0.0003  0.0119 </r>
        <r>  0.0077  0.0098  0.0216 </r>
        <r>  0.0077  0.0098  0.0216 </r>
        <r>  0.0077  0.0098  0.0216 </r>
        <r>  0.0001  0.0067  0.0246 </r>
        <r>  0.0001  0.0067  0.0246 </r>
        <r>  0.0000  0.0000  0.0579 </r>
        <r>  0.0001  0.0067  0.0246 </r>
        <r>  0.0204  0.0045  0.0493 </r>
        <r>  0.0204  0.0045  0.0493 </r>
        <r>  0.0204  0.0045  0.0493 </r>
        <r>  0.0000  0.0094  0.0203 </r>
        <r>  0.0058  0.1425  0.0000 </r>
       </set>
       <set comment="band 68">
        <r>  0.0000  0.0085  0.0115 </r>
        <r>  0.0293  0.0063  0.0132 </r>
        <r>  0.0293  0.0063  0.0132 </r>
        <r>  0.0293  0.0063  0.0132 </r>
        <r>  0.0002  0.0020  0.0281 </r>
        <r>  0.0002  0.0020  0.0281 </r>
        <r>  0.0181  0.0247  0.0004 </r>
        <r>  0.0002  0.0020  0.0281 </r>
        <r>  0.0031  0.0208  0.0322 </r>
        <r>  0.0031  0.0208  0.0322 </r>
        <r>  0.0031  0.0208  0.0322 </r>
        <r>  0.0000  0.0012  0.0091 </r>
        <r>  0.0000  0.2404  0.0000 </r>
       </set>
       <set comment="band 69">
        <r>  0.0000  0.0074  0.0048 </r>
        <r>  0.0199  0.0051  0.0092 </r>
        <r>  0.0199  0.0051  0.0092 </r>
        <r>  0.0199  0.0051  0.0092 </r>
        <r>  0.0087  0.0061  0.0133 </r>
        <r>  0.0087  0.0061  0.0133 </r>
        <r>  0.0000  0.0044  0.0137 </r>
        <r>  0.0087  0.0061  0.0133 </r>
        <r>  0.0022  0.0081  0.0798 </r>
        <r>  0.0022  0.0081  0.0798 </r>
        <r>  0.0022  0.0081  0.0798 </r>
        <r>  0.0352  0.0039  0.0027 </r>
        <r>  0.0000  0.2299  0.0000 </r>
       </set>
       <set comment="band 70">
        <r>  0.0464  0.0096  0.0111 </r>
        <r>  0.0048  0.0069  0.0098 </r>
        <r>  0.0048  0.0069  0.0098 </r>
        <r>  0.0048  0.0069  0.0098 </r>
        <r>  0.0208  0.0064  0.0093 </r>
        <r>  0.0208  0.0064  0.0093 </r>
        <r>  0.0000  0.0093  0.0116 </r>
        <r>  0.0208  0.0064  0.0093 </r>
        <r>  0.0006  0.0057  0.0682 </r>
        <r>  0.0006  0.0057  0.0682 </r>
        <r>  0.0006  0.0057  0.0682 </r>
        <r>  0.0000  0.0032  0.0098 </r>
        <r>  0.0012  0.2273  0.0000 </r>
       </set>
       <set comment="band 71">
        <r>  0.0000  0.0028  0.0166 </r>
        <r>  0.0136  0.0147  0.0111 </r>
        <r>  0.0136  0.0147  0.0111 </r>
        <r>  0.0135  0.0147  0.0111 </r>
        <r>  0.0267  0.0055  0.0122 </r>
        <r>  0.0267  0.0055  0.0122 </r>
        <r>  0.0000  0.0100  0.0054 </r>
        <r>  0.0267  0.0055  0.0122 </r>
        <r>  0.0002  0.0095  0.0207 </r>
        <r>  0.0002  0.0095  0.0207 </r>
        <r>  0.0002  0.0095  0.0207 </r>
        <r>  0.1037  0.0221  0.0077 </r>
        <r>  0.0000  0.0749  0.0000 </r>
       </set>
       <set comment="band 72">
        <r>  0.0000  0.0040  0.0183 </r>
        <r>  0.0157  0.0186  0.0141 </r>
        <r>  0.0157  0.0186  0.0141 </r>
        <r>  0.0157  0.0186  0.0141 </r>
        <r>  0.0122  0.0103  0.0046 </r>
        <r>  0.0122  0.0103  0.0045 </r>
        <r>  0.0476  0.0087  0.0359 </r>
        <r>  0.0122  0.0103  0.0046 </r>
        <r>  0.0200  0.0182  0.0191 </r>
        <r>  0.0200  0.0182  0.0191 </r>
        <r>  0.0200  0.0182  0.0191 </r>
        <r>  0.0000  0.0027  0.0131 </r>
        <r>  0.0000  0.0632  0.0000 </r>
       </set>
       <set comment="band 73">
        <r>  0.0079  0.0466  0.0046 </r>
        <r>  0.0038  0.0046  0.0135 </r>
        <r>  0.0038  0.0046  0.0135 </r>
        <r>  0.0038  0.0046  0.0135 </r>
        <r>  0.0135  0.0146  0.0116 </r>
        <r>  0.0135  0.0146  0.0116 </r>
        <r>  0.0000  0.0005  0.0120 </r>
        <r>  0.0135  0.0146  0.0116 </r>
        <r>  0.0347  0.0058  0.0259 </r>
        <r>  0.0347  0.0058  0.0259 </r>
        <r>  0.0347  0.0058  0.0259 </r>
        <r>  0.0000  0.0383  0.0004 </r>
        <r>  0.0144  0.0567  0.0000 </r>
       </set>
       <set comment="band 74">
        <r>  0.0000  0.0163  0.0118 </r>
        <r>  0.0000  0.0228  0.0155 </r>
        <r>  0.0000  0.0228  0.0155 </r>
        <r>  0.0000  0.0228  0.0155 </r>
        <r>  0.0000  0.0463  0.0245 </r>
        <r>  0.0000  0.0463  0.0245 </r>
        <r>  0.0000  0.0399  0.0312 </r>
        <r>  0.0000  0.0463  0.0245 </r>
        <r>  0.0231  0.0108  0.0070 </r>
        <r>  0.0231  0.0108  0.0070 </r>
        <r>  0.0231  0.0108  0.0070 </r>
        <r>  0.0230  0.0007  0.0058 </r>
        <r>  0.0000  0.0025  0.0000 </r>
       </set>
       <set comment="band 75">
        <r>  0.0000  0.0130  0.0074 </r>
        <r>  0.0000  0.0234  0.0152 </r>
        <r>  0.0000  0.0234  0.0152 </r>
        <r>  0.0000  0.0234  0.0152 </r>
        <r>  0.0489  0.0029  0.0123 </r>
        <r>  0.0489  0.0029  0.0123 </r>
        <r>  0.0449  0.0225  0.0084 </r>
        <r>  0.0489  0.0029  0.0123 </r>
        <r>  0.0002  0.0261  0.0120 </r>
        <r>  0.0002  0.0261  0.0120 </r>
        <r>  0.0002  0.0261  0.0120 </r>
        <r>  0.0000  0.0161  0.0213 </r>
        <r>  0.0000  0.0000  0.0000 </r>
       </set>
       <set comment="band 76">
        <r>  0.0385  0.0017  0.0078 </r>
        <r>  0.0386  0.0095  0.0082 </r>
        <r>  0.0386  0.0095  0.0082 </r>
        <r>  0.0386  0.0095  0.0082 </r>
        <r>  0.0000  0.0482  0.0253 </r>
        <r>  0.0000  0.0482  0.0253 </r>
        <r>  0.0000  0.0383  0.0341 </r>
        <r>  0.0000  0.0482  0.0253 </r>
        <r>  0.0001  0.0128  0.0106 </r>
        <r>  0.0001  0.0129  0.0106 </r>
        <r>  0.0001  0.0129  0.0106 </r>
        <r>  0.0000  0.0078  0.0100 </r>
        <r>  0.0004  0.0078  0.0000 </r>
       </set>
       <set comment="band 77">
        <r>  0.0000  0.0096  0.0196 </r>
        <r>  0.0001  0.0274  0.0078 </r>
        <r>  0.0001  0.0274  0.0078 </r>
        <r>  0.0001  0.0274  0.0078 </r>
        <r>  0.0005  0.0307  0.0119 </r>
        <r>  0.0005  0.0307  0.0119 </r>
        <r>  0.0000  0.0080  0.0144 </r>
        <r>  0.0005  0.0307  0.0119 </r>
        <r>  0.0009  0.0015  0.0101 </r>
        <r>  0.0009  0.0015  0.0101 </r>
        <r>  0.0009  0.0015  0.0101 </r>
        <r>  0.0007  0.0808  0.0005 </r>
        <r>  0.0000  0.0139  0.0000 </r>
       </set>
       <set comment="band 78">
        <r>  0.0000  0.0317  0.0277 </r>
        <r>  0.0001  0.0381  0.0193 </r>
        <r>  0.0001  0.0381  0.0193 </r>
        <r>  0.0001  0.0381  0.0193 </r>
        <r>  0.0222  0.0150  0.0102 </r>
        <r>  0.0222  0.0150  0.0102 </r>
        <r>  0.0383  0.0074  0.0004 </r>
        <r>  0.0222  0.0150  0.0102 </r>
        <r>  0.0004  0.0157  0.0109 </r>
        <r>  0.0004  0.0157  0.0109 </r>
        <r>  0.0004  0.0157  0.0109 </r>
        <r>  0.0000  0.0002  0.0029 </r>
        <r>  0.0000  0.0193  0.0000 </r>
       </set>
       <set comment="band 79">
        <r>  0.0355  0.0422  0.0002 </r>
        <r>  0.0125  0.0026  0.0087 </r>
        <r>  0.0125  0.0026  0.0087 </r>
        <r>  0.0125  0.0026  0.0087 </r>
        <r>  0.0035  0.0183  0.0149 </r>
        <r>  0.0035  0.0183  0.0149 </r>
        <r>  0.0000  0.0146  0.0012 </r>
        <r>  0.0035  0.0183  0.0149 </r>
        <r>  0.0110  0.0224  0.0079 </r>
        <r>  0.0110  0.0224  0.0079 </r>
        <r>  0.0110  0.0224  0.0079 </r>
        <r>  0.0000  0.0115  0.0233 </r>
        <r>  0.0119  0.0000  0.0000 </r>
       </set>
       <set comment="band 80">
        <r>  0.0000  0.0179  0.0123 </r>
        <r>  0.0008  0.0270  0.0120 </r>
        <r>  0.0008  0.0270  0.0120 </r>
        <r>  0.0008  0.0270  0.0120 </r>
        <r>  0.0060  0.0157  0.0025 </r>
        <r>  0.0060  0.0157  0.0025 </r>
        <r>  0.0244  0.0391  0.0007 </r>
        <r>  0.0060  0.0157  0.0025 </r>
        <r>  0.0000  0.0242  0.0337 </r>
        <r>  0.0000  0.0242  0.0337 </r>
        <r>  0.0000  0.0242  0.0337 </r>
        <r>  0.0000  0.0670  0.0162 </r>
        <r>  0.0000  0.0467  0.0000 </r>
       </set>
       <set comment="band 81">
        <r>  0.0000  0.0467  0.0246 </r>
        <r>  0.0003  0.0541  0.0234 </r>
        <r>  0.0003  0.0541  0.0234 </r>
        <r>  0.0003  0.0541  0.0234 </r>
        <r>  0.0006  0.0048  0.0171 </r>
        <r>  0.0006  0.0048  0.0171 </r>
        <r>  0.0000  0.0044  0.0164 </r>
        <r>  0.0006  0.0048  0.0171 </r>
        <r>  0.0436  0.0036  0.0034 </r>
        <r>  0.0436  0.0036  0.0034 </r>
        <r>  0.0436  0.0036  0.0034 </r>
        <r>  0.0259  0.0033  0.0050 </r>
        <r>  0.0000  0.0155  0.0000 </r>
       </set>
       <set comment="band 82">
        <r>  0.0393  0.0113  0.0078 </r>
        <r>  0.0739  0.0051  0.0009 </r>
        <r>  0.0739  0.0051  0.0009 </r>
        <r>  0.0739  0.0051  0.0009 </r>
        <r>  0.0015  0.0068  0.0117 </r>
        <r>  0.0015  0.0068  0.0117 </r>
        <r>  0.0000  0.0135  0.0087 </r>
        <r>  0.0015  0.0068  0.0117 </r>
        <r>  0.0042  0.0191  0.0060 </r>
        <r>  0.0042  0.0191  0.0060 </r>
        <r>  0.0042  0.0191  0.0060 </r>
        <r>  0.0000  0.0091  0.0180 </r>
        <r>  0.0075  0.0059  0.0000 </r>
       </set>
       <set comment="band 83">
        <r>  0.0000  0.0066  0.0001 </r>
        <r>  0.0065  0.0011  0.0051 </r>
        <r>  0.0065  0.0011  0.0051 </r>
        <r>  0.0063  0.0011  0.0050 </r>
        <r>  0.0048  0.0016  0.0013 </r>
        <r>  0.0049  0.0016  0.0013 </r>
        <r>  0.0066  0.0078  0.0069 </r>
        <r>  0.0048  0.0016  0.0013 </r>
        <r>  0.0036  0.0062  0.0043 </r>
        <r>  0.0036  0.0062  0.0042 </r>
        <r>  0.0036  0.0062  0.0042 </r>
        <r>  0.0000  0.0000  0.0009 </r>
        <r>  0.0000  0.0052  0.0000 </r>
       </set>
       <set comment="band 84">
        <r>  0.0000  0.0072  0.0009 </r>
        <r>  0.0063  0.0020  0.0053 </r>
        <r>  0.0063  0.0020  0.0053 </r>
        <r>  0.0065  0.0020  0.0054 </r>
        <r>  0.0053  0.0026  0.0045 </r>
        <r>  0.0052  0.0027  0.0044 </r>
        <r>  0.0000  0.0056  0.0000 </r>
        <r>  0.0053  0.0026  0.0045 </r>
        <r>  0.0002  0.0012  0.0019 </r>
        <r>  0.0002  0.0012  0.0019 </r>
        <r>  0.0002  0.0012  0.0019 </r>
        <r>  0.0077  0.0147  0.0041 </r>
        <r>  0.0000  0.0015  0.0000 </r>
       </set>
       <set comment="band 85">
        <r>  0.0250  0.0118  0.0043 </r>
        <r>  0.0015  0.0019  0.0018 </r>
        <r>  0.0015  0.0019  0.0018 </r>
        <r>  0.0015  0.0019  0.0019 </r>
        <r>  0.0015  0.0074  0.0023 </r>
        <r>  0.0015  0.0074  0.0023 </r>
        <r>  0.0000  0.0009  0.0031 </r>
        <r>  0.0015  0.0074  0.0023 </r>
        <r>  0.0000  0.0072  0.0008 </r>
        <r>  0.0000  0.0072  0.0008 </r>
        <r>  0.0000  0.0072  0.0008 </r>
        <r>  0.0000  0.0002  0.0050 </r>
        <r>  0.0026  0.0037  0.0000 </r>
       </set>
       <set comment="band 86">
        <r>  0.0000  0.0015  0.0007 </r>
        <r>  0.0019  0.0080  0.0022 </r>
        <r>  0.0019  0.0080  0.0022 </r>
        <r>  0.0000  0.0006  0.0014 </r>
        <r>  0.0021  0.0019  0.0016 </r>
        <r>  0.0064  0.0018  0.0035 </r>
        <r>  0.0029  0.0023  0.0025 </r>
        <r>  0.0021  0.0019  0.0016 </r>
        <r>  0.0063  0.0014  0.0040 </r>
        <r>  0.0016  0.0019  0.0011 </r>
        <r>  0.0016  0.0019  0.0011 </r>
        <r>  0.0055  0.0011  0.0057 </r>
        <r>  0.0000  0.0002  0.0000 </r>
       </set>
       <set comment="band 87">
        <r>  0.0000  0.0014  0.0007 </r>
        <r>  0.0007  0.0031  0.0017 </r>
        <r>  0.0007  0.0031  0.0017 </r>
        <r>  0.0026  0.0106  0.0024 </r>
        <r>  0.0044  0.0018  0.0023 </r>
        <r>  0.0000  0.0020  0.0004 </r>
        <r>  0.0053  0.0019  0.0042 </r>
        <r>  0.0044  0.0018  0.0023 </r>
        <r>  0.0009  0.0017  0.0009 </r>
        <r>  0.0056  0.0012  0.0038 </r>
        <r>  0.0056  0.0012  0.0038 </r>
        <r>  0.0030  0.0017  0.0033 </r>
        <r>  0.0000  0.0003  0.0000 </r>
       </set>
       <set comment="band 88">
        <r>  0.0121  0.0049  0.0036 </r>
        <r>  0.0004  0.0048  0.0006 </r>
        <r>  0.0004  0.0048  0.0006 </r>
        <r>  0.0005  0.0050  0.0006 </r>
        <r>  0.0014  0.0053  0.0032 </r>
        <r>  0.0014  0.0054  0.0031 </r>
        <r>  0.0000  0.0014  0.0011 </r>
        <r>  0.0014  0.0053  0.0032 </r>
        <r>  0.0003  0.0087  0.0017 </r>
        <r>  0.0004  0.0086  0.0017 </r>
        <r>  0.0004  0.0086  0.0017 </r>
        <r>  0.0000  0.0026  0.0051 </r>
        <r>  0.0002  0.0013  0.0000 </r>
       </set>
       <set comment="band 89">
        <r>  0.0000  0.0006  0.0008 </r>
        <r>  0.0010  0.0022  0.0010 </r>
        <r>  0.0010  0.0022  0.0010 </r>
        <r>  0.0006  0.0010  0.0007 </r>
        <r>  0.0001  0.0025  0.0006 </r>
        <r>  0.0001  0.0033  0.0004 </r>
        <r>  0.0000  0.0008  0.0006 </r>
        <r>  0.0001  0.0025  0.0006 </r>
        <r>  0.0000  0.0009  0.0006 </r>
        <r>  0.0001  0.0003  0.0006 </r>
        <r>  0.0001  0.0003  0.0006 </r>
        <r>  0.0013  0.0066  0.0005 </r>
        <r>  0.0000  0.0001  0.0000 </r>
       </set>
       <set comment="band 90">
        <r>  0.0003  0.0103  0.0026 </r>
        <r>  0.0023  0.0016  0.0003 </r>
        <r>  0.0023  0.0016  0.0003 </r>
        <r>  0.0042  0.0034  0.0009 </r>
        <r>  0.0018  0.0019  0.0031 </r>
        <r>  0.0025  0.0019  0.0025 </r>
        <r>  0.0000  0.0068  0.0011 </r>
        <r>  0.0018  0.0019  0.0031 </r>
        <r>  0.0016  0.0042  0.0034 </r>
        <r>  0.0008  0.0053  0.0022 </r>
        <r>  0.0008  0.0053  0.0022 </r>
        <r>  0.0000  0.0078  0.0014 </r>
        <r>  0.0026  0.0120  0.0000 </r>
       </set>
       <set comment="band 91">
        <r>  0.0000  0.0024  0.0008 </r>
        <r>  0.0016  0.0022  0.0009 </r>
        <r>  0.0016  0.0022  0.0009 </r>
        <r>  0.0001  0.0013  0.0007 </r>
        <r>  0.0007  0.0012  0.0008 </r>
        <r>  0.0000  0.0003  0.0016 </r>
        <r>  0.0002  0.0071  0.0002 </r>
        <r>  0.0007  0.0012  0.0008 </r>
        <r>  0.0001  0.0031  0.0007 </r>
        <r>  0.0008  0.0028  0.0019 </r>
        <r>  0.0008  0.0028  0.0019 </r>
        <r>  0.0001  0.0022  0.0005 </r>
        <r>  0.0004  0.0020  0.0000 </r>
       </set>
       <set comment="band 92">
        <r>  0.0055  0.0023  0.0010 </r>
        <r>  0.0016  0.0224  0.0006 </r>
        <r>  0.0016  0.0224  0.0006 </r>
        <r>  0.0016  0.0226  0.0006 </r>
        <r>  0.0014  0.0101  0.0090 </r>
        <r>  0.0014  0.0102  0.0090 </r>
        <r>  0.0000  0.0035  0.0075 </r>
        <r>  0.0014  0.0101  0.0090 </r>
        <r>  0.0058  0.0317  0.0046 </r>
        <r>  0.0058  0.0317  0.0046 </r>
        <r>  0.0058  0.0317  0.0046 </r>
        <r>  0.0000  0.0138  0.0231 </r>
        <r>  0.0086  0.0076  0.0000 </r>
       </set>
       <set comment="band 93">
        <r>  0.0000  0.0066  0.0057 </r>
        <r>  0.0001  0.0080  0.0065 </r>
        <r>  0.0001  0.0080  0.0065 </r>
        <r>  0.0001  0.0080  0.0065 </r>
        <r>  0.0008  0.0227  0.0086 </r>
        <r>  0.0008  0.0227  0.0086 </r>
        <r>  0.0000  0.0195  0.0079 </r>
        <r>  0.0008  0.0227  0.0086 </r>
        <r>  0.0677  0.0110  0.0058 </r>
        <r>  0.0677  0.0111  0.0058 </r>
        <r>  0.0677  0.0111  0.0058 </r>
        <r>  0.0365  0.0141  0.0016 </r>
        <r>  0.0000  0.0474  0.0000 </r>
       </set>
       <set comment="band 94">
        <r>  0.0000  0.0162  0.0108 </r>
        <r>  0.0010  0.0110  0.0143 </r>
        <r>  0.0010  0.0110  0.0143 </r>
        <r>  0.0010  0.0109  0.0143 </r>
        <r>  0.0472  0.0015  0.0006 </r>
        <r>  0.0473  0.0016  0.0006 </r>
        <r>  0.0218  0.0000  0.0020 </r>
        <r>  0.0472  0.0015  0.0006 </r>
        <r>  0.0003  0.0166  0.0104 </r>
        <r>  0.0002  0.0163  0.0104 </r>
        <r>  0.0002  0.0163  0.0104 </r>
        <r>  0.0000  0.0285  0.0089 </r>
        <r>  0.0000  0.0059  0.0000 </r>
       </set>
       <set comment="band 95">
        <r>  0.0000  0.0003  0.0008 </r>
        <r>  0.0014  0.0040  0.0020 </r>
        <r>  0.0014  0.0040  0.0020 </r>
        <r>  0.0013  0.0035  0.0020 </r>
        <r>  0.0000  0.0062  0.0008 </r>
        <r>  0.0001  0.0066  0.0007 </r>
        <r>  0.0000  0.0001  0.0010 </r>
        <r>  0.0000  0.0062  0.0008 </r>
        <r>  0.0014  0.0016  0.0012 </r>
        <r>  0.0011  0.0019  0.0009 </r>
        <r>  0.0011  0.0019  0.0009 </r>
        <r>  0.0016  0.0063  0.0034 </r>
        <r>  0.0000  0.0000  0.0000 </r>
       </set>
       <set comment="band 96">
        <r>  0.0000  0.0000  0.0010 </r>
        <r>  0.0007  0.0066  0.0034 </r>
        <r>  0.0007  0.0066  0.0034 </r>
        <r>  0.0009  0.0069  0.0035 </r>
        <r>  0.0052  0.0012  0.0012 </r>
        <r>  0.0052  0.0007  0.0013 </r>
        <r>  0.0016  0.0166  0.0006 </r>
        <r>  0.0052  0.0012  0.0012 </r>
        <r>  0.0012  0.0025  0.0044 </r>
        <r>  0.0014  0.0025  0.0046 </r>
        <r>  0.0014  0.0025  0.0046 </r>
        <r>  0.0000  0.0116  0.0021 </r>
        <r>  0.0000  0.0012  0.0000 </r>
       </set>
      </set>
     </set>
    </set>
   </array>
  </projected>
 </calculation>
 <structure name="finalpos" >
  <crystal>
   <varray name="basis" >
    <v>       5.86474364       0.00000000       0.00000000 </v>
    <v>       2.93237182       5.07901698       0.00000000 </v>
    <v>       0.00000000       0.00000000      24.78854313 </v>
   </varray>
   <i name="volume">    738.37961946 </i>
   <varray name="rec_basis" >
    <v>       0.17051044      -0.09844425       0.00000000 </v>
    <v>       0.00000000       0.19688849       0.00000000 </v>
    <v>       0.00000000       0.00000000       0.04034122 </v>
   </varray>
  </crystal>
  <varray name="positions" >
   <v>       0.16666667       0.16666667       0.40527889 </v>
   <v>       0.66685597       0.16628805       0.40368021 </v>
   <v>       0.16628805       0.66685597       0.40368021 </v>
   <v>       0.66685597       0.66685597       0.40368021 </v>
   <v>       0.83367022       0.33316489       0.49959255 </v>
   <v>       0.33316489       0.33316489       0.49959255 </v>
   <v>       0.83333333       0.83333333       0.50144943 </v>
   <v>       0.33316489       0.83367022       0.49959255 </v>
   <v>       0.99245853       0.99245853       0.59703445 </v>
   <v>       0.51508295       0.99245853       0.59703445 </v>
   <v>       0.99245853       0.51508295       0.59703445 </v>
   <v>       0.50000000       0.50000000       0.59275101 </v>
   <v>       0.16666667       0.16666667       0.64459630 </v>
  </varray>
 </structure>
</modeling>
