unknown system                          
           1
     5.864744    0.000000    0.000000
     2.932372    5.079017    0.000000
     0.000000    0.000000   24.788543
   Ag   O 
  12   1
Direct configuration=     1
   0.16666667  0.16666667  0.40527889
   0.66685597  0.16628805  0.40368021
   0.16628805  0.66685597  0.40368021
   0.66685597  0.66685597  0.40368021
   0.83367022  0.33316489  0.49959255
   0.33316489  0.33316489  0.49959255
   0.83333333  0.83333333  0.50144943
   0.33316489  0.83367022  0.49959255
   0.99245853  0.99245853  0.59703445
   0.51508295  0.99245853  0.59703445
   0.99245853  0.51508295  0.59703445
   0.50000000  0.50000000  0.59275101
   0.16666667  0.16666667  0.64459630
