   1   1   0   0
  0.1728000E+04  0.1200000E-08  0.1200000E-08  0.1200000E-08  0.5000000E-15
  1.000000000000000E-004
  CAR 
 unknown system                          
      2.13757189    -25.42358010  301    -10.05823786      1.00000000
    -25.424  0.0000E+00  0.0000E+00
    -25.332  0.0000E+00  0.0000E+00
    -25.240  0.0000E+00  0.0000E+00
    -25.148  0.0000E+00  0.0000E+00
    -25.056  0.0000E+00  0.0000E+00
    -24.964  0.0000E+00  0.0000E+00
    -24.872  0.0000E+00  0.0000E+00
    -24.780  0.0000E+00  0.0000E+00
    -24.689  0.0000E+00  0.0000E+00
    -24.597  0.0000E+00  0.0000E+00
    -24.505  0.0000E+00  0.0000E+00
    -24.413  0.0000E+00  0.0000E+00
    -24.321  0.0000E+00  0.0000E+00
    -24.229  0.1208E-14  0.1110E-15
    -24.137  0.2177E+02  0.2000E+01
    -24.046  0.0000E+00  0.2000E+01
    -23.954  0.0000E+00  0.2000E+01
    -23.862  0.0000E+00  0.2000E+01
    -23.770  0.0000E+00  0.2000E+01
    -23.678  0.0000E+00  0.2000E+01
    -23.586  0.0000E+00  0.2000E+01
    -23.494  0.0000E+00  0.2000E+01
    -23.402  0.0000E+00  0.2000E+01
    -23.311  0.0000E+00  0.2000E+01
    -23.219  0.0000E+00  0.2000E+01
    -23.127  0.0000E+00  0.2000E+01
    -23.035  0.0000E+00  0.2000E+01
    -22.943  0.0000E+00  0.2000E+01
    -22.851  0.0000E+00  0.2000E+01
    -22.759  0.0000E+00  0.2000E+01
    -22.667  0.0000E+00  0.2000E+01
    -22.576  0.0000E+00  0.2000E+01
    -22.484  0.0000E+00  0.2000E+01
    -22.392  0.0000E+00  0.2000E+01
    -22.300  0.0000E+00  0.2000E+01
    -22.208  0.0000E+00  0.2000E+01
    -22.116  0.0000E+00  0.2000E+01
    -22.024  0.0000E+00  0.2000E+01
    -21.933  0.0000E+00  0.2000E+01
    -21.841  0.0000E+00  0.2000E+01
    -21.749  0.0000E+00  0.2000E+01
    -21.657  0.0000E+00  0.2000E+01
    -21.565  0.0000E+00  0.2000E+01
    -21.473  0.0000E+00  0.2000E+01
    -21.381  0.0000E+00  0.2000E+01
    -21.289  0.0000E+00  0.2000E+01
    -21.198  0.0000E+00  0.2000E+01
    -21.106  0.0000E+00  0.2000E+01
    -21.014  0.0000E+00  0.2000E+01
    -20.922  0.0000E+00  0.2000E+01
    -20.830  0.0000E+00  0.2000E+01
    -20.738  0.0000E+00  0.2000E+01
    -20.646  0.0000E+00  0.2000E+01
    -20.554  0.0000E+00  0.2000E+01
    -20.463  0.0000E+00  0.2000E+01
    -20.371  0.0000E+00  0.2000E+01
    -20.279  0.0000E+00  0.2000E+01
    -20.187  0.0000E+00  0.2000E+01
    -20.095  0.0000E+00  0.2000E+01
    -20.003  0.0000E+00  0.2000E+01
    -19.911  0.0000E+00  0.2000E+01
    -19.819  0.0000E+00  0.2000E+01
    -19.728  0.0000E+00  0.2000E+01
    -19.636  0.0000E+00  0.2000E+01
    -19.544  0.0000E+00  0.2000E+01
    -19.452  0.0000E+00  0.2000E+01
    -19.360  0.0000E+00  0.2000E+01
    -19.268  0.0000E+00  0.2000E+01
    -19.176  0.0000E+00  0.2000E+01
    -19.085  0.0000E+00  0.2000E+01
    -18.993  0.0000E+00  0.2000E+01
    -18.901  0.0000E+00  0.2000E+01
    -18.809  0.0000E+00  0.2000E+01
    -18.717  0.0000E+00  0.2000E+01
    -18.625  0.0000E+00  0.2000E+01
    -18.533  0.0000E+00  0.2000E+01
    -18.441  0.0000E+00  0.2000E+01
    -18.350  0.0000E+00  0.2000E+01
    -18.258  0.0000E+00  0.2000E+01
    -18.166  0.0000E+00  0.2000E+01
    -18.074  0.0000E+00  0.2000E+01
    -17.982  0.0000E+00  0.2000E+01
    -17.890  0.0000E+00  0.2000E+01
    -17.798  0.0000E+00  0.2000E+01
    -17.706  0.0000E+00  0.2000E+01
    -17.615  0.0000E+00  0.2000E+01
    -17.523  0.0000E+00  0.2000E+01
    -17.431  0.0000E+00  0.2000E+01
    -17.339  0.0000E+00  0.2000E+01
    -17.247  0.0000E+00  0.2000E+01
    -17.155  0.0000E+00  0.2000E+01
    -17.063  0.0000E+00  0.2000E+01
    -16.971  0.0000E+00  0.2000E+01
    -16.880  0.0000E+00  0.2000E+01
    -16.788  0.0000E+00  0.2000E+01
    -16.696  0.0000E+00  0.2000E+01
    -16.604  0.0000E+00  0.2000E+01
    -16.512  0.0000E+00  0.2000E+01
    -16.420  0.0000E+00  0.2000E+01
    -16.328  0.0000E+00  0.2000E+01
    -16.237  0.0000E+00  0.2000E+01
    -16.145  0.0000E+00  0.2000E+01
    -16.053  0.0000E+00  0.2000E+01
    -15.961  0.0000E+00  0.2000E+01
    -15.869  0.0000E+00  0.2000E+01
    -15.777  0.0000E+00  0.2000E+01
    -15.685  0.0000E+00  0.2000E+01
    -15.593  0.0000E+00  0.2000E+01
    -15.502  0.0000E+00  0.2000E+01
    -15.410  0.0000E+00  0.2000E+01
    -15.318  0.0000E+00  0.2000E+01
    -15.226  0.0000E+00  0.2000E+01
    -15.134  0.0000E+00  0.2000E+01
    -15.042  0.0000E+00  0.2000E+01
    -14.950  0.0000E+00  0.2000E+01
    -14.858  0.0000E+00  0.2000E+01
    -14.767  0.0000E+00  0.2000E+01
    -14.675  0.0000E+00  0.2000E+01
    -14.583  0.0000E+00  0.2000E+01
    -14.491  0.0000E+00  0.2000E+01
    -14.399  0.0000E+00  0.2000E+01
    -14.307  0.0000E+00  0.2000E+01
    -14.215  0.0000E+00  0.2000E+01
    -14.124  0.0000E+00  0.2000E+01
    -14.032  0.0000E+00  0.2000E+01
    -13.940  0.0000E+00  0.2000E+01
    -13.848  0.0000E+00  0.2000E+01
    -13.756  0.0000E+00  0.2000E+01
    -13.664  0.0000E+00  0.2000E+01
    -13.572  0.0000E+00  0.2000E+01
    -13.480  0.0000E+00  0.2000E+01
    -13.389  0.0000E+00  0.2000E+01
    -13.297  0.0000E+00  0.2000E+01
    -13.205  0.0000E+00  0.2000E+01
    -13.113  0.0000E+00  0.2000E+01
    -13.021  0.0000E+00  0.2000E+01
    -12.929  0.0000E+00  0.2000E+01
    -12.837  0.0000E+00  0.2000E+01
    -12.745  0.0000E+00  0.2000E+01
    -12.654  0.0000E+00  0.2000E+01
    -12.562  0.0000E+00  0.2000E+01
    -12.470  0.0000E+00  0.2000E+01
    -12.378  0.0000E+00  0.2000E+01
    -12.286  0.0000E+00  0.2000E+01
    -12.194  0.0000E+00  0.2000E+01
    -12.102  0.0000E+00  0.2000E+01
    -12.010  0.0000E+00  0.2000E+01
    -11.919  0.0000E+00  0.2000E+01
    -11.827  0.0000E+00  0.2000E+01
    -11.735  0.0000E+00  0.2000E+01
    -11.643  0.0000E+00  0.2000E+01
    -11.551  0.0000E+00  0.2000E+01
    -11.459  0.0000E+00  0.2000E+01
    -11.367  0.0000E+00  0.2000E+01
    -11.276  0.0000E+00  0.2000E+01
    -11.184  0.0000E+00  0.2000E+01
    -11.092  0.0000E+00  0.2000E+01
    -11.000  0.0000E+00  0.2000E+01
    -10.908  0.0000E+00  0.2000E+01
    -10.816  0.0000E+00  0.2000E+01
    -10.724  0.0000E+00  0.2000E+01
    -10.632  0.0000E+00  0.2000E+01
    -10.541  0.0000E+00  0.2000E+01
    -10.449  0.0000E+00  0.2000E+01
    -10.357  0.0000E+00  0.2000E+01
    -10.265  0.0000E+00  0.2000E+01
    -10.173  0.5836E+00  0.2054E+01
    -10.081  0.6473E+02  0.8000E+01
     -9.989  0.0000E+00  0.8000E+01
     -9.897  0.0000E+00  0.8000E+01
     -9.806  0.0000E+00  0.8000E+01
     -9.714  0.0000E+00  0.8000E+01
     -9.622  0.0000E+00  0.8000E+01
     -9.530  0.0000E+00  0.8000E+01
     -9.438  0.0000E+00  0.8000E+01
     -9.346  0.0000E+00  0.8000E+01
     -9.254  0.0000E+00  0.8000E+01
     -9.163  0.0000E+00  0.8000E+01
     -9.071  0.0000E+00  0.8000E+01
     -8.979  0.0000E+00  0.8000E+01
     -8.887  0.0000E+00  0.8000E+01
     -8.795  0.0000E+00  0.8000E+01
     -8.703  0.0000E+00  0.8000E+01
     -8.611  0.0000E+00  0.8000E+01
     -8.519  0.0000E+00  0.8000E+01
     -8.428  0.0000E+00  0.8000E+01
     -8.336  0.0000E+00  0.8000E+01
     -8.244  0.0000E+00  0.8000E+01
     -8.152  0.0000E+00  0.8000E+01
     -8.060  0.0000E+00  0.8000E+01
     -7.968  0.0000E+00  0.8000E+01
     -7.876  0.0000E+00  0.8000E+01
     -7.784  0.0000E+00  0.8000E+01
     -7.693  0.0000E+00  0.8000E+01
     -7.601  0.0000E+00  0.8000E+01
     -7.509  0.0000E+00  0.8000E+01
     -7.417  0.0000E+00  0.8000E+01
     -7.325  0.0000E+00  0.8000E+01
     -7.233  0.0000E+00  0.8000E+01
     -7.141  0.0000E+00  0.8000E+01
     -7.049  0.0000E+00  0.8000E+01
     -6.958  0.0000E+00  0.8000E+01
     -6.866  0.0000E+00  0.8000E+01
     -6.774  0.0000E+00  0.8000E+01
     -6.682  0.0000E+00  0.8000E+01
     -6.590  0.0000E+00  0.8000E+01
     -6.498  0.0000E+00  0.8000E+01
     -6.406  0.0000E+00  0.8000E+01
     -6.315  0.0000E+00  0.8000E+01
     -6.223  0.0000E+00  0.8000E+01
     -6.131  0.0000E+00  0.8000E+01
     -6.039  0.0000E+00  0.8000E+01
     -5.947  0.0000E+00  0.8000E+01
     -5.855  0.0000E+00  0.8000E+01
     -5.763  0.0000E+00  0.8000E+01
     -5.671  0.0000E+00  0.8000E+01
     -5.580  0.0000E+00  0.8000E+01
     -5.488  0.0000E+00  0.8000E+01
     -5.396  0.0000E+00  0.8000E+01
     -5.304  0.0000E+00  0.8000E+01
     -5.212  0.0000E+00  0.8000E+01
     -5.120  0.0000E+00  0.8000E+01
     -5.028  0.0000E+00  0.8000E+01
     -4.936  0.0000E+00  0.8000E+01
     -4.845  0.0000E+00  0.8000E+01
     -4.753  0.0000E+00  0.8000E+01
     -4.661  0.0000E+00  0.8000E+01
     -4.569  0.0000E+00  0.8000E+01
     -4.477  0.0000E+00  0.8000E+01
     -4.385  0.0000E+00  0.8000E+01
     -4.293  0.0000E+00  0.8000E+01
     -4.201  0.0000E+00  0.8000E+01
     -4.110  0.0000E+00  0.8000E+01
     -4.018  0.0000E+00  0.8000E+01
     -3.926  0.0000E+00  0.8000E+01
     -3.834  0.0000E+00  0.8000E+01
     -3.742  0.0000E+00  0.8000E+01
     -3.650  0.0000E+00  0.8000E+01
     -3.558  0.0000E+00  0.8000E+01
     -3.467  0.0000E+00  0.8000E+01
     -3.375  0.0000E+00  0.8000E+01
     -3.283  0.0000E+00  0.8000E+01
     -3.191  0.0000E+00  0.8000E+01
     -3.099  0.0000E+00  0.8000E+01
     -3.007  0.0000E+00  0.8000E+01
     -2.915  0.0000E+00  0.8000E+01
     -2.823  0.0000E+00  0.8000E+01
     -2.732  0.0000E+00  0.8000E+01
     -2.640  0.0000E+00  0.8000E+01
     -2.548  0.0000E+00  0.8000E+01
     -2.456  0.0000E+00  0.8000E+01
     -2.364  0.0000E+00  0.8000E+01
     -2.272  0.0000E+00  0.8000E+01
     -2.180  0.0000E+00  0.8000E+01
     -2.088  0.0000E+00  0.8000E+01
     -1.997  0.0000E+00  0.8000E+01
     -1.905  0.0000E+00  0.8000E+01
     -1.813  0.0000E+00  0.8000E+01
     -1.721  0.0000E+00  0.8000E+01
     -1.629  0.0000E+00  0.8000E+01
     -1.537  0.0000E+00  0.8000E+01
     -1.445  0.0000E+00  0.8000E+01
     -1.354  0.0000E+00  0.8000E+01
     -1.262  0.0000E+00  0.8000E+01
     -1.170  0.0000E+00  0.8000E+01
     -1.078  0.0000E+00  0.8000E+01
     -0.986  0.0000E+00  0.8000E+01
     -0.894  0.0000E+00  0.8000E+01
     -0.802  0.0000E+00  0.8000E+01
     -0.710  0.0000E+00  0.8000E+01
     -0.619  0.0000E+00  0.8000E+01
     -0.527  0.0000E+00  0.8000E+01
     -0.435  0.0000E+00  0.8000E+01
     -0.343  0.5063E-02  0.8000E+01
     -0.251  0.2176E+02  0.1000E+02
     -0.159  0.0000E+00  0.1000E+02
     -0.067  0.0000E+00  0.1000E+02
      0.025  0.0000E+00  0.1000E+02
      0.116  0.0000E+00  0.1000E+02
      0.208  0.0000E+00  0.1000E+02
      0.300  0.0000E+00  0.1000E+02
      0.392  0.0000E+00  0.1000E+02
      0.484  0.0000E+00  0.1000E+02
      0.576  0.0000E+00  0.1000E+02
      0.668  0.2177E+02  0.1200E+02
      0.760  0.0000E+00  0.1200E+02
      0.851  0.5021E-04  0.1200E+02
      0.943  0.4354E+02  0.1600E+02
      1.035  0.0000E+00  0.1600E+02
      1.127  0.0000E+00  0.1600E+02
      1.219  0.0000E+00  0.1600E+02
      1.311  0.0000E+00  0.1600E+02
      1.403  0.0000E+00  0.1600E+02
      1.494  0.0000E+00  0.1600E+02
      1.586  0.0000E+00  0.1600E+02
      1.678  0.0000E+00  0.1600E+02
      1.770  0.0000E+00  0.1600E+02
      1.862  0.0000E+00  0.1600E+02
      1.954  0.0000E+00  0.1600E+02
      2.046  0.0000E+00  0.1600E+02
      2.138  0.0000E+00  0.1600E+02
