       N       E                     dE             d eps       ncg     rms          rms(c)
DAV:   1     0.673564801852E+02    0.67356E+02   -0.13384E+03    24   0.327E+02
DAV:   2     0.134682153161E+02   -0.53888E+02   -0.53888E+02    32   0.778E+01
DAV:   3     0.428251007350E+00   -0.13040E+02   -0.13040E+02    16   0.556E+01
DAV:   4    -0.189986420307E-01   -0.44725E+00   -0.44725E+00    16   0.150E+01
DAV:   5    -0.232901346342E-01   -0.42915E-02   -0.42915E-02    16   0.127E+00    0.656E-02
DAV:   6    -0.238467724441E-01   -0.55664E-03   -0.10820E-03    16   0.283E-01    0.247E-02
DAV:   7    -0.239676873379E-01   -0.12091E-03   -0.36474E-05    32   0.519E-02    0.130E-02
DAV:   8    -0.242336662335E-01   -0.26598E-03   -0.12354E-05    16   0.355E-02    0.275E-03
DAV:   9    -0.242356654867E-01   -0.19993E-05   -0.48052E-07    16   0.571E-03
   1 F= -.24235665E-01 E0= -.24235665E-01  d E =-.275735E-43
