 vasp.5.4.1 05Feb16 (build Feb 08 2018 09:21:51) complex                        
  
 executed on             LinuxIFC date 2019.11.07  20:22:06
 running on    8 total cores
 distrk:  each k-point on    8 cores,    1 groups
 distr:  one band on NCORES_PER_BAND=   1 cores,    8 groups


--------------------------------------------------------------------------------------------------------


 INCAR:
 POTCAR:    PAW_PBE Ar 07Sep2000                  

 ----------------------------------------------------------------------------- 
|                                                                             |
|           W    W    AA    RRRRR   N    N  II  N    N   GGGG   !!!           |
|           W    W   A  A   R    R  NN   N  II  NN   N  G    G  !!!           |
|           W    W  A    A  R    R  N N  N  II  N N  N  G       !!!           |
|           W WW W  AAAAAA  RRRRR   N  N N  II  N  N N  G  GGG   !            |
|           WW  WW  A    A  R   R   N   NN  II  N   NN  G    G                |
|           W    W  A    A  R    R  N    N  II  N    N   GGGG   !!!           |
|                                                                             |
|      For optimal performance we recommend to set                            |
|        NCORE= 4 - approx SQRT( number of cores)                             |
|      NCORE specifies how many cores store one orbital (NPAR=cpu/NCORE).     |
|      This setting can  greatly improve the performance of VASP for DFT.     |
|      The default, NPAR=number of cores might be grossly inefficient         |
|      on modern multi-core architectures or massively parallel machines.     |
|      Do your own testing !!!!                                               |
|      Unfortunately you need to use the default for GW and RPA calculations. |
|      (for HF NCORE is supported but not extensively tested yet)             |
|                                                                             |
 ----------------------------------------------------------------------------- 

 POTCAR:    PAW_PBE Ar 07Sep2000                  
   VRHFIN =Ar: s2p6                                                             
   LEXCH  = PE                                                                  
   EATOM  =   579.0493 eV,   42.5589 Ry                                         
                                                                                
   TITEL  = PAW_PBE Ar 07Sep2000                                                
   LULTRA =        F    use ultrasoft PP ?                                      
   IUNSCR =        1    unscreen: 0-lin 1-nonlin 2-no                           
   RPACOR =    2.000    partial core radius                                     
   POMASS =   39.949; ZVAL   =    8.000    mass and valenz                      
   RCORE  =    1.900    outmost cutoff radius                                   
   RWIGS  =    1.800; RWIGS  =    0.953    wigner-seitz radius (au A)           
   ENMAX  =  266.408; ENMIN  =  199.806 eV                                      
   ICORE  =        2    local potential                                         
   LCOR   =        T    correct aug charges                                     
   LPAW   =        T    paw PP                                                  
   EAUG   =  482.930                                                            
   DEXC   =    0.000                                                            
   RMAX   =    1.945    core radius for proj-oper                               
   RAUG   =    1.300    factor for augmentation sphere                          
   RDEP   =    1.972    radius for radial grids                                 
   RDEPT  =    1.517    core radius for aug-charge                              
                                                                                
   Atomic configuration                                                         
    6 entries                                                                   
     n  l   j            E        occ.                                          
     1  0  0.50     -3120.2029   2.0000                                         
     2  0  0.50      -296.9756   2.0000                                         
     2  1  1.50      -229.8673   6.0000                                         
     3  0  0.50       -24.2863   2.0000                                         
     3  1  0.50       -10.2695   6.0000                                         
     3  2  1.50        -2.7212   0.0000                                         
   Description                                                                  
     l       E           TYP  RCUT    TYP  RCUT                                 
     0    -24.2863172     23  1.500                                             
     0     54.4233040     23  1.500                                             
     1    -10.2694819     23  1.900                                             
     2     -2.7211652     23  1.500                                             
  local pseudopotential read in
  partial core-charges read in
  partial kinetic energy density read in
  atomic valenz-charges read in
  non local Contribution for L=           0  read in
    real space projection operators read in
  non local Contribution for L=           0  read in
    real space projection operators read in
  non local Contribution for L=           1  read in
    real space projection operators read in
    PAW grid and wavefunctions read in
 
   number of l-projection  operators is LMAX  =           3
   number of lm-projection operators is LMMAX =           5
 
  PAW_PBE Ar 07Sep2000                  :
 energy of atom  1       EATOM= -579.0493
 kinetic energy error for atom=    0.0337 (will be added to EATOM!!)
 
 
 POSCAR: Ar                                      
  positions in cartesian coordinates
  No initial velocities read in
 exchange correlation table for  LEXCH =        8
   RHO(1)=    0.500       N(1)  =     2000
   RHO(2)=  100.500       N(2)  =     4000
 


--------------------------------------------------------------------------------------------------------


 ion  position               nearest neighbor table
   1  0.500  0.500  0.500-
 
  LATTYP: Found a simple cubic cell.
 ALAT       =    12.0000000000
  
  Lattice vectors:
  
 A1 = (  12.0000000000,   0.0000000000,   0.0000000000)
 A2 = (   0.0000000000,  12.0000000000,   0.0000000000)
 A3 = (   0.0000000000,   0.0000000000,  12.0000000000)


Analysis of symmetry for initial positions (statically):
=====================================================================
 Subroutine PRICEL returns:
 Original cell was already a primitive cell.
 

 Routine SETGRP: Setting up the symmetry group for a 
 simple cubic supercell.


 Subroutine GETGRP returns: Found 48 space group operations
 (whereof 48 operations were pure point group operations)
 out of a pool of 48 trial point group operations.


The static configuration has the point symmetry O_h .


Analysis of symmetry for dynamics (positions and initial velocities):
=====================================================================
 Subroutine PRICEL returns:
 Original cell was already a primitive cell.
 

 Routine SETGRP: Setting up the symmetry group for a 
 simple cubic supercell.


 Subroutine GETGRP returns: Found 48 space group operations
 (whereof 48 operations were pure point group operations)
 out of a pool of 48 trial point group operations.


The dynamic configuration has the point symmetry O_h .


 Subroutine INISYM returns: Found 48 space group operations
 (whereof 48 operations are pure point group operations),
 and found     1 'primitive' translations

 
 
 KPOINTS: KPOINTS created by Atomic Simulation Env

Automatic generation of k-mesh.
Space group operators:
 irot       det(A)        alpha          n_x          n_y          n_z        tau_x        tau_y        tau_z
    1     1.000000     0.000000     1.000000     0.000000     0.000000     0.000000     0.000000     0.000000
    2    -1.000000     0.000000     1.000000     0.000000     0.000000     0.000000     0.000000     0.000000
    3     1.000000   120.000000    -0.577350    -0.577350    -0.577350     0.000000     0.000000     0.000000
    4    -1.000000   120.000000    -0.577350    -0.577350    -0.577350     0.000000     0.000000     0.000000
    5     1.000000   120.000000     0.577350     0.577350     0.577350     0.000000     0.000000     0.000000
    6    -1.000000   120.000000     0.577350     0.577350     0.577350     0.000000     0.000000     0.000000
    7     1.000000    90.000000     0.000000     0.000000    -1.000000     0.000000     0.000000     0.000000
    8    -1.000000    90.000000     0.000000     0.000000    -1.000000     0.000000     0.000000     0.000000
    9     1.000000   180.000000     0.000000     0.707107     0.707107     0.000000     0.000000     0.000000
   10    -1.000000   180.000000     0.000000     0.707107     0.707107     0.000000     0.000000     0.000000
   11     1.000000    90.000000     0.000000     1.000000     0.000000     0.000000     0.000000     0.000000
   12    -1.000000    90.000000     0.000000     1.000000     0.000000     0.000000     0.000000     0.000000
   13     1.000000   180.000000     0.000000     0.000000     1.000000     0.000000     0.000000     0.000000
   14    -1.000000   180.000000     0.000000     0.000000     1.000000     0.000000     0.000000     0.000000
   15     1.000000   120.000000    -0.577350     0.577350     0.577350     0.000000     0.000000     0.000000
   16    -1.000000   120.000000    -0.577350     0.577350     0.577350     0.000000     0.000000     0.000000
   17     1.000000   120.000000    -0.577350     0.577350    -0.577350     0.000000     0.000000     0.000000
   18    -1.000000   120.000000    -0.577350     0.577350    -0.577350     0.000000     0.000000     0.000000
   19     1.000000    90.000000     0.000000     0.000000     1.000000     0.000000     0.000000     0.000000
   20    -1.000000    90.000000     0.000000     0.000000     1.000000     0.000000     0.000000     0.000000
   21     1.000000    90.000000    -1.000000     0.000000     0.000000     0.000000     0.000000     0.000000
   22    -1.000000    90.000000    -1.000000     0.000000     0.000000     0.000000     0.000000     0.000000
   23     1.000000   180.000000     0.707107     0.000000     0.707107     0.000000     0.000000     0.000000
   24    -1.000000   180.000000     0.707107     0.000000     0.707107     0.000000     0.000000     0.000000
   25     1.000000   120.000000     0.577350    -0.577350     0.577350     0.000000     0.000000     0.000000
   26    -1.000000   120.000000     0.577350    -0.577350     0.577350     0.000000     0.000000     0.000000
   27     1.000000   120.000000    -0.577350    -0.577350     0.577350     0.000000     0.000000     0.000000
   28    -1.000000   120.000000    -0.577350    -0.577350     0.577350     0.000000     0.000000     0.000000
   29     1.000000   180.000000     1.000000     0.000000     0.000000     0.000000     0.000000     0.000000
   30    -1.000000   180.000000     1.000000     0.000000     0.000000     0.000000     0.000000     0.000000
   31     1.000000    90.000000     0.000000    -1.000000     0.000000     0.000000     0.000000     0.000000
   32    -1.000000    90.000000     0.000000    -1.000000     0.000000     0.000000     0.000000     0.000000
   33     1.000000   180.000000     0.707107     0.707107     0.000000     0.000000     0.000000     0.000000
   34    -1.000000   180.000000     0.707107     0.707107     0.000000     0.000000     0.000000     0.000000
   35     1.000000    90.000000     1.000000     0.000000     0.000000     0.000000     0.000000     0.000000
   36    -1.000000    90.000000     1.000000     0.000000     0.000000     0.000000     0.000000     0.000000
   37     1.000000   120.000000     0.577350    -0.577350    -0.577350     0.000000     0.000000     0.000000
   38    -1.000000   120.000000     0.577350    -0.577350    -0.577350     0.000000     0.000000     0.000000
   39     1.000000   180.000000     0.000000     1.000000     0.000000     0.000000     0.000000     0.000000
   40    -1.000000   180.000000     0.000000     1.000000     0.000000     0.000000     0.000000     0.000000
   41     1.000000   120.000000     0.577350     0.577350    -0.577350     0.000000     0.000000     0.000000
   42    -1.000000   120.000000     0.577350     0.577350    -0.577350     0.000000     0.000000     0.000000
   43     1.000000   180.000000     0.000000    -0.707107     0.707107     0.000000     0.000000     0.000000
   44    -1.000000   180.000000     0.000000    -0.707107     0.707107     0.000000     0.000000     0.000000
   45     1.000000   180.000000     0.707107    -0.707107     0.000000     0.000000     0.000000     0.000000
   46    -1.000000   180.000000     0.707107    -0.707107     0.000000     0.000000     0.000000     0.000000
   47     1.000000   180.000000     0.707107     0.000000    -0.707107     0.000000     0.000000     0.000000
   48    -1.000000   180.000000     0.707107     0.000000    -0.707107     0.000000     0.000000     0.000000
 
 Subroutine IBZKPT returns following result:
 ===========================================
 
 Found      1 irreducible k-points:
 
 Following reciprocal coordinates:
            Coordinates               Weight
  0.000000  0.000000  0.000000      1.000000
 
 Following cartesian coordinates:
            Coordinates               Weight
  0.000000  0.000000  0.000000      1.000000
 


--------------------------------------------------------------------------------------------------------




 Dimension of arrays:
   k-points           NKPTS =      1   k-points in BZ     NKDIM =      1   number of bands    NBANDS=      8
   number of dos      NEDOS =    301   number of ions     NIONS =      1
   non local maximal  LDIM  =      3   non local SUM 2l+1 LMDIM =      5
   total plane-waves  NPLWV = 157464
   max r-space proj   IRMAX =      1   max aug-charges    IRDMAX=   1859
   dimension x,y,z NGX =    54 NGY =   54 NGZ =   54
   dimension x,y,z NGXF=   108 NGYF=  108 NGZF=  108
   support grid    NGXF=   108 NGYF=  108 NGZF=  108
   ions per type =               1
 NGX,Y,Z   is equivalent  to a cutoff of   7.48,  7.48,  7.48 a.u.
 NGXF,Y,Z  is equivalent  to a cutoff of  14.96, 14.96, 14.96 a.u.


 I would recommend the setting:
   dimension x,y,z NGX =    51 NGY =   51 NGZ =   51
 SYSTEM =  unknown system                          
 POSCAR =  Ar                                      

 Startparameter for this run:
   NWRITE =      2    write-flag & timer
   PREC   = normal    normal or accurate (medium, high low for compatibility)
   ISTART =      0    job   : 0-new  1-cont  2-samecut
   ICHARG =      2    charge: 1-file 2-atom 10-const
   ISPIN  =      1    spin polarized calculation?
   LNONCOLLINEAR =      F non collinear calculations
   LSORBIT =      F    spin-orbit coupling
   INIWAV =      1    electr: 0-lowe 1-rand  2-diag
   LASPH  =      F    aspherical Exc in radial PAW
   METAGGA=      F    non-selfconsistent MetaGGA calc.

 Electronic Relaxation 1
   ENCUT  =  300.0 eV  22.05 Ry    4.70 a.u.  16.95 16.95 16.95*2*pi/ulx,y,z
   ENINI  =  300.0     initial cutoff
   ENAUG  =  482.9 eV  augmentation charge cutoff
   NELM   =     60;   NELMIN=  2; NELMDL= -5     # of ELM steps 
   EDIFF  = 0.1E-03   stopping-criterion for ELM
   LREAL  =      F    real-space projection
   NLSPLINE    = F    spline interpolate recip. space projectors
   LCOMPAT=      F    compatible to vasp.4.4
   GGA_COMPAT  = T    GGA compatible to vasp.4.4-vasp.4.6
   LMAXPAW     = -100 max onsite density
   LMAXMIX     =    2 max onsite mixed and CHGCAR
   VOSKOWN=      0    Vosko Wilk Nusair interpolation
   ROPT   =    0.00000
 Ionic relaxation
   EDIFFG = 0.1E-02   stopping-criterion for IOM
   NSW    =      0    number of steps for IOM
   NBLOCK =      1;   KBLOCK =      1    inner block; outer block 
   IBRION =     -1    ionic relax: 0-MD 1-quasi-New 2-CG
   NFREE  =      0    steps in history (QN), initial steepest desc. (CG)
   ISIF   =      2    stress and relaxation
   IWAVPR =     10    prediction:  0-non 1-charg 2-wave 3-comb
   ISYM   =      2    0-nonsym 1-usesym 2-fastsym
   LCORR  =      T    Harris-Foulkes like correction to forces

   POTIM  = 0.5000    time-step for ionic-motion
   TEIN   =    0.0    initial temperature
   TEBEG  =    0.0;   TEEND  =   0.0 temperature during run
   SMASS  =  -3.00    Nose mass-parameter (am)
   estimated Nose-frequenzy (Omega)   =  0.10E-29 period in steps =****** mass=  -0.329E-26a.u.
   SCALEE = 1.0000    scale energy and forces
   NPACO  =    256;   APACO  = 16.0  distance and # of slots for P.C.
   PSTRESS=    0.0 pullay stress

  Mass of Ions in am
   POMASS =  39.95
  Ionic Valenz
   ZVAL   =   8.00
  Atomic Wigner-Seitz radii
   RWIGS  =  -1.00
  virtual crystal weights 
   VCA    =   1.00
   NELECT =       8.0000    total number of electrons
   NUPDOWN=      -1.0000    fix difference up-down

 DOS related values:
   EMIN   =  10.00;   EMAX   =-10.00  energy-range for DOS
   EFERMI =   0.00
   ISMEAR =     0;   SIGMA  =   0.01  broadening in eV -4-tet -1-fermi 0-gaus

 Electronic relaxation 2 (details)
   IALGO  =     38    algorithm
   LDIAG  =      T    sub-space diagonalisation (order eigenvalues)
   LSUBROT=      F    optimize rotation matrix (better conditioning)
   TURBO    =      0    0=normal 1=particle mesh
   IRESTART =      0    0=no restart 2=restart with 2 vectors
   NREBOOT  =      0    no. of reboots
   NMIN     =      0    reboot dimension
   EREF     =   0.00    reference energy to select bands
   IMIX   =      4    mixing-type and parameters
     AMIX     =   0.40;   BMIX     =  1.00
     AMIX_MAG =   1.60;   BMIX_MAG =  1.00
     AMIN     =   0.10
     WC   =   100.;   INIMIX=   1;  MIXPRE=   1;  MAXMIX= -45

 Intra band minimization:
   WEIMIN = 0.0000     energy-eigenvalue tresh-hold
   EBREAK =  0.31E-05  absolut break condition
   DEPER  =   0.30     relativ break condition  

   TIME   =   0.40     timestep for ELM

  volume/ion in A,a.u.               =    1728.00     11661.12
  Fermi-wavevector in a.u.,A,eV,Ry     =   0.272850  0.515611  1.012913  0.074447
  Thomas-Fermi vector in A             =   1.113822
 
 Write flags
   LWAVE  =      F    write WAVECAR
   LCHARG =      F    write CHGCAR
   LVTOT  =      F    write LOCPOT, total local potential
   LVHAR  =      F    write LOCPOT, Hartree potential only
   LELF   =      F    write electronic localiz. function (ELF)
   LORBIT =      0    0 simple, 1 ext, 2 COOP (PROOUT)


 Dipole corrections
   LMONO  =      F    monopole corrections only (constant potential shift)
   LDIPOL =      F    correct potential (dipole corrections)
   IDIPOL =      0    1-x, 2-y, 3-z, 4-all directions 
   EPSILON=  1.0000000 bulk dielectric constant

 Exchange correlation treatment:
   GGA     =    --    GGA type
   LEXCH   =     8    internal setting for exchange type
   VOSKOWN=      0    Vosko Wilk Nusair interpolation
   LHFCALC =     F    Hartree Fock is set to
   LHFONE  =     F    Hartree Fock one center treatment
   AEXX    =    0.0000 exact exchange contribution

 Linear response parameters
   LEPSILON=     F    determine dielectric tensor
   LRPA    =     F    only Hartree local field effects (RPA)
   LNABLA  =     F    use nabla operator in PAW spheres
   LVEL    =     F    velocity operator in full k-point grid
   LINTERFAST=   F  fast interpolation
   KINTER  =     0    interpolate to denser k-point grid
   CSHIFT  =0.1000    complex shift for real part using Kramers Kronig
   OMEGAMAX=  -1.0    maximum frequency
   DEG_THRESHOLD= 0.2000000E-02 threshold for treating states as degnerate
   RTIME   =    0.100 relaxation time in fs

 Orbital magnetization related:
   ORBITALMAG=     F  switch on orbital magnetization
   LCHIMAG   =     F  perturbation theory with respect to B field
   DQ        =  0.001000  dq finite difference perturbation B field



--------------------------------------------------------------------------------------------------------


 Static calculation
 charge density and potential will be updated during run
 non-spin polarized calculation
 Variant of blocked Davidson
 Davidson routine will perform the subspace rotation
 perform sub-space diagonalisation
    after iterative eigenvector-optimisation
 modified Broyden-mixing scheme, WC =      100.0
 initial mixing is a Kerker type mixing with AMIX =  0.4000 and BMIX =      1.0000
 Hartree-type preconditioning will be used
 using additional bands            4
 reciprocal scheme for non local part
 use partial core corrections
 calculate Harris-corrections to forces 
   (improved forces if not selfconsistent)
 use gradient corrections 
 use of overlap-Matrix (Vanderbilt PP)
 Gauss-broadening in eV      SIGMA  =   0.01


--------------------------------------------------------------------------------------------------------


  energy-cutoff  :      300.00
  volume of cell :     1728.00
      direct lattice vectors                 reciprocal lattice vectors
    12.000000000  0.000000000  0.000000000     0.083333333  0.000000000  0.000000000
     0.000000000 12.000000000  0.000000000     0.000000000  0.083333333  0.000000000
     0.000000000  0.000000000 12.000000000     0.000000000  0.000000000  0.083333333

  length of vectors
    12.000000000 12.000000000 12.000000000     0.083333333  0.083333333  0.083333333


 
 k-points in units of 2pi/SCALE and weight: KPOINTS created by Atomic Simulation Env
   0.00000000  0.00000000  0.00000000       1.000
 
 k-points in reciprocal lattice and weights: KPOINTS created by Atomic Simulation Env
   0.00000000  0.00000000  0.00000000       1.000
 
 position of ions in fractional coordinates (direct lattice) 
   0.50000000  0.50000000  0.50000000
 
 position of ions in cartesian coordinates  (Angst):
   6.00000000  6.00000000  6.00000000
 


--------------------------------------------------------------------------------------------------------


 k-point  1 :   0.0000 0.0000 0.0000  plane waves:   20341

 maximum and minimum number of plane-waves per node :     20341    20341

 maximum number of plane-waves:     20341
 maximum index in each direction: 
   IXMAX=   16   IYMAX=   16   IZMAX=   16
   IXMIN=  -16   IYMIN=  -16   IZMIN=  -16

 WARNING: aliasing errors must be expected set NGX to  66 to avoid them
 WARNING: aliasing errors must be expected set NGY to  66 to avoid them
 WARNING: aliasing errors must be expected set NGZ to  66 to avoid them
 aliasing errors are usually negligible using standard VASP settings
 and one can safely disregard these warnings

 serial   3D FFT for wavefunctions
 parallel 3D FFT for charge:
    minimum data exchange during FFTs selected (reduces bandwidth)


 total amount of memory used by VASP on root node    51918. kBytes
========================================================================

   base      :      30000. kBytes
   nonl-proj :       1139. kBytes
   fftplans  :       6173. kBytes
   grid      :      14280. kBytes
   one-center:          1. kBytes
   wavefun   :        325. kBytes
 
     INWAV:  cpu time    0.0000: real time    0.0001
 Broyden mixing: mesh for mixing (old mesh)
   NGX = 33   NGY = 33   NGZ = 33
  (NGX  =108   NGY  =108   NGZ  =108)
  gives a total of  35937 points

 initial charge density was supplied:
 charge density of overlapping atoms calculated
 number of electron       8.0000000 magnetization 
 keeping initial charge density in first step


--------------------------------------------------------------------------------------------------------


 Maximum index for augmentation-charges          194 (set IRDMAX)


--------------------------------------------------------------------------------------------------------


 First call to EWALD:  gamma=   0.148
 Maximum number of real-space cells 3x 3x 3
 Maximum number of reciprocal cells 3x 3x 3

 FEWALD executed in parallel
    FEWALD:  cpu time    0.0015: real time    0.0015


----------------------------------------- Iteration    1(   1)  ---------------------------------------


    POTLOK:  cpu time    0.1146: real time    0.1146
    SETDIJ:  cpu time    0.0015: real time    0.0015
     EDDAV:  cpu time    0.0470: real time    0.0470
       DOS:  cpu time    0.0002: real time    0.0002
    --------------------------------------------
      LOOP:  cpu time    0.1643: real time    0.1648

 eigenvalue-minimisations  :    24
 total energy-change (2. order) : 0.6735648E+02  (-0.1338357E+03)
 number of electron       8.0000000 magnetization 
 augmentation part        8.0000000 magnetization 

 Free energy of the ion-electron system (eV)
  ---------------------------------------------------
  alpha Z        PSCENC =         0.08552978
  Ewald energy   TEWEN  =      -108.95061336
  -Hartree energ DENC   =      -385.56052840
  -exchange      EXHF   =         0.00000000
  -V(xc)+E(xc)   XCENC  =        29.15732214
  PAW double counting   =       464.39213177     -468.88429268
  entropy T*S    EENTRO =        -0.00000000
  eigenvalues    EBANDS =       -41.89869869
  atomic energy  EATOM  =       579.01562963
  Solvation  Ediel_sol  =         0.00000000
  ---------------------------------------------------
  free energy    TOTEN  =        67.35648019 eV

  energy without entropy =       67.35648019  energy(sigma->0) =       67.35648019


--------------------------------------------------------------------------------------------------------




----------------------------------------- Iteration    1(   2)  ---------------------------------------


     EDDAV:  cpu time    0.0517: real time    0.0517
       DOS:  cpu time    0.0001: real time    0.0001
    --------------------------------------------
      LOOP:  cpu time    0.0529: real time    0.0543

 eigenvalue-minimisations  :    32
 total energy-change (2. order) :-0.5388826E+02  (-0.5388826E+02)
 number of electron       8.0000000 magnetization 
 augmentation part        8.0000000 magnetization 

 Free energy of the ion-electron system (eV)
  ---------------------------------------------------
  alpha Z        PSCENC =         0.08552978
  Ewald energy   TEWEN  =      -108.95061336
  -Hartree energ DENC   =      -385.56052840
  -exchange      EXHF   =         0.00000000
  -V(xc)+E(xc)   XCENC  =        29.15732214
  PAW double counting   =       464.39213177     -468.88429268
  entropy T*S    EENTRO =        -0.00000000
  eigenvalues    EBANDS =       -95.78696356
  atomic energy  EATOM  =       579.01562963
  Solvation  Ediel_sol  =         0.00000000
  ---------------------------------------------------
  free energy    TOTEN  =        13.46821532 eV

  energy without entropy =       13.46821532  energy(sigma->0) =       13.46821532


--------------------------------------------------------------------------------------------------------




----------------------------------------- Iteration    1(   3)  ---------------------------------------


     EDDAV:  cpu time    0.0302: real time    0.0302
       DOS:  cpu time    0.0001: real time    0.0001
    --------------------------------------------
      LOOP:  cpu time    0.0311: real time    0.0329

 eigenvalue-minimisations  :    16
 total energy-change (2. order) :-0.1303996E+02  (-0.1303996E+02)
 number of electron       8.0000000 magnetization 
 augmentation part        8.0000000 magnetization 

 Free energy of the ion-electron system (eV)
  ---------------------------------------------------
  alpha Z        PSCENC =         0.08552978
  Ewald energy   TEWEN  =      -108.95061336
  -Hartree energ DENC   =      -385.56052840
  -exchange      EXHF   =         0.00000000
  -V(xc)+E(xc)   XCENC  =        29.15732214
  PAW double counting   =       464.39213177     -468.88429268
  entropy T*S    EENTRO =        -0.00000000
  eigenvalues    EBANDS =      -108.82692787
  atomic energy  EATOM  =       579.01562963
  Solvation  Ediel_sol  =         0.00000000
  ---------------------------------------------------
  free energy    TOTEN  =         0.42825101 eV

  energy without entropy =        0.42825101  energy(sigma->0) =        0.42825101


--------------------------------------------------------------------------------------------------------




----------------------------------------- Iteration    1(   4)  ---------------------------------------


     EDDAV:  cpu time    0.0296: real time    0.0297
       DOS:  cpu time    0.0001: real time    0.0001
    --------------------------------------------
      LOOP:  cpu time    0.0305: real time    0.0321

 eigenvalue-minimisations  :    16
 total energy-change (2. order) :-0.4472496E+00  (-0.4472496E+00)
 number of electron       8.0000000 magnetization 
 augmentation part        8.0000000 magnetization 

 Free energy of the ion-electron system (eV)
  ---------------------------------------------------
  alpha Z        PSCENC =         0.08552978
  Ewald energy   TEWEN  =      -108.95061336
  -Hartree energ DENC   =      -385.56052840
  -exchange      EXHF   =         0.00000000
  -V(xc)+E(xc)   XCENC  =        29.15732214
  PAW double counting   =       464.39213177     -468.88429268
  entropy T*S    EENTRO =        -0.00000000
  eigenvalues    EBANDS =      -109.27417752
  atomic energy  EATOM  =       579.01562963
  Solvation  Ediel_sol  =         0.00000000
  ---------------------------------------------------
  free energy    TOTEN  =        -0.01899864 eV

  energy without entropy =       -0.01899864  energy(sigma->0) =       -0.01899864


--------------------------------------------------------------------------------------------------------




----------------------------------------- Iteration    1(   5)  ---------------------------------------


     EDDAV:  cpu time    0.0300: real time    0.0300
       DOS:  cpu time    0.0001: real time    0.0001
    CHARGE:  cpu time    0.0320: real time    0.0320
    MIXING:  cpu time    0.0053: real time    0.0053
    --------------------------------------------
      LOOP:  cpu time    0.0683: real time    0.0701

 eigenvalue-minimisations  :    16
 total energy-change (2. order) :-0.4291493E-02  (-0.4291493E-02)
 number of electron       7.9999900 magnetization 
 augmentation part       -0.6334201 magnetization 

 Broyden mixing:
  rms(total) = 0.65573E-02    rms(broyden)= 0.28520E-02
  rms(prec ) = 0.29932E-02
  weight for this iteration     100.00
  WARNING: grid for Broyden might be to small

 Free energy of the ion-electron system (eV)
  ---------------------------------------------------
  alpha Z        PSCENC =         0.08552978
  Ewald energy   TEWEN  =      -108.95061336
  -Hartree energ DENC   =      -385.56052840
  -exchange      EXHF   =         0.00000000
  -V(xc)+E(xc)   XCENC  =        29.15732214
  PAW double counting   =       464.39213177     -468.88429268
  entropy T*S    EENTRO =        -0.00000000
  eigenvalues    EBANDS =      -109.27846901
  atomic energy  EATOM  =       579.01562963
  Solvation  Ediel_sol  =         0.00000000
  ---------------------------------------------------
  free energy    TOTEN  =        -0.02329013 eV

  energy without entropy =       -0.02329013  energy(sigma->0) =       -0.02329013


--------------------------------------------------------------------------------------------------------




----------------------------------------- Iteration    1(   6)  ---------------------------------------


    POTLOK:  cpu time    0.0951: real time    0.0952
    SETDIJ:  cpu time    0.0013: real time    0.0013
     EDDAV:  cpu time    0.0324: real time    0.0326
       DOS:  cpu time    0.0001: real time    0.0001
    CHARGE:  cpu time    0.0336: real time    0.0336
    MIXING:  cpu time    0.0060: real time    0.0060
    --------------------------------------------
      LOOP:  cpu time    0.1695: real time    0.1713

 eigenvalue-minimisations  :    16
 total energy-change (2. order) :-0.5566378E-03  (-0.1081976E-03)
 number of electron       7.9999900 magnetization 
 augmentation part       -0.6333609 magnetization 

 Broyden mixing:
  rms(total) = 0.24710E-02    rms(broyden)= 0.21180E-02
  rms(prec ) = 0.22043E-02
  weight for this iteration     100.00
  WARNING: grid for Broyden might be to small

 eigenvalues of (default mixing * dielectric matrix)
  average eigenvalue GAMMA=   1.1387
  1.1387

 Free energy of the ion-electron system (eV)
  ---------------------------------------------------
  alpha Z        PSCENC =         0.08552978
  Ewald energy   TEWEN  =      -108.95061336
  -Hartree energ DENC   =      -385.53637563
  -exchange      EXHF   =         0.00000000
  -V(xc)+E(xc)   XCENC  =        29.15667625
  PAW double counting   =       465.61707564     -470.11043278
  entropy T*S    EENTRO =        -0.00000000
  eigenvalues    EBANDS =      -109.30133630
  atomic energy  EATOM  =       579.01562963
  Solvation  Ediel_sol  =         0.00000000
  ---------------------------------------------------
  free energy    TOTEN  =        -0.02384677 eV

  energy without entropy =       -0.02384677  energy(sigma->0) =       -0.02384677


--------------------------------------------------------------------------------------------------------




----------------------------------------- Iteration    1(   7)  ---------------------------------------


    POTLOK:  cpu time    0.0922: real time    0.0924
    SETDIJ:  cpu time    0.0020: real time    0.0020
     EDDAV:  cpu time    0.0506: real time    0.0507
       DOS:  cpu time    0.0001: real time    0.0001
    CHARGE:  cpu time    0.0268: real time    0.0269
    MIXING:  cpu time    0.0042: real time    0.0042
    --------------------------------------------
      LOOP:  cpu time    0.1771: real time    0.1792

 eigenvalue-minimisations  :    32
 total energy-change (2. order) :-0.1209149E-03  (-0.3647371E-05)
 number of electron       7.9999900 magnetization 
 augmentation part       -0.6332964 magnetization 

 Broyden mixing:
  rms(total) = 0.13016E-02    rms(broyden)= 0.12759E-02
  rms(prec ) = 0.13199E-02
  weight for this iteration     100.00

 eigenvalues of (default mixing * dielectric matrix)
  average eigenvalue GAMMA=   1.7830
  0.8977  2.6683

 Free energy of the ion-electron system (eV)
  ---------------------------------------------------
  alpha Z        PSCENC =         0.08552978
  Ewald energy   TEWEN  =      -108.95061336
  -Hartree energ DENC   =      -385.54654391
  -exchange      EXHF   =         0.00000000
  -V(xc)+E(xc)   XCENC  =        29.15744312
  PAW double counting   =       466.62307875     -471.11871588
  entropy T*S    EENTRO =        -0.00000000
  eigenvalues    EBANDS =      -109.28977581
  atomic energy  EATOM  =       579.01562963
  Solvation  Ediel_sol  =         0.00000000
  ---------------------------------------------------
  free energy    TOTEN  =        -0.02396769 eV

  energy without entropy =       -0.02396769  energy(sigma->0) =       -0.02396769


--------------------------------------------------------------------------------------------------------




----------------------------------------- Iteration    1(   8)  ---------------------------------------


    POTLOK:  cpu time    0.0830: real time    0.0831
    SETDIJ:  cpu time    0.0012: real time    0.0012
     EDDAV:  cpu time    0.0304: real time    0.0304
       DOS:  cpu time    0.0001: real time    0.0001
    CHARGE:  cpu time    0.0270: real time    0.0270
    MIXING:  cpu time    0.0042: real time    0.0042
    --------------------------------------------
      LOOP:  cpu time    0.1469: real time    0.1530

 eigenvalue-minimisations  :    16
 total energy-change (2. order) :-0.2659789E-03  (-0.1235441E-05)
 number of electron       7.9999900 magnetization 
 augmentation part       -0.6332372 magnetization 

 Broyden mixing:
  rms(total) = 0.27479E-03    rms(broyden)= 0.27053E-03
  rms(prec ) = 0.33685E-03
  weight for this iteration     100.00

 eigenvalues of (default mixing * dielectric matrix)
  average eigenvalue GAMMA=   1.5310
  2.6271  0.9830  0.9830

 Free energy of the ion-electron system (eV)
  ---------------------------------------------------
  alpha Z        PSCENC =         0.08552978
  Ewald energy   TEWEN  =      -108.95061336
  -Hartree energ DENC   =      -385.56060456
  -exchange      EXHF   =         0.00000000
  -V(xc)+E(xc)   XCENC  =        29.15841394
  PAW double counting   =       468.23352782     -472.73256522
  entropy T*S    EENTRO =        -0.00000000
  eigenvalues    EBANDS =      -109.27355170
  atomic energy  EATOM  =       579.01562963
  Solvation  Ediel_sol  =         0.00000000
  ---------------------------------------------------
  free energy    TOTEN  =        -0.02423367 eV

  energy without entropy =       -0.02423367  energy(sigma->0) =       -0.02423367


--------------------------------------------------------------------------------------------------------




----------------------------------------- Iteration    1(   9)  ---------------------------------------


    POTLOK:  cpu time    0.0822: real time    0.0822
    SETDIJ:  cpu time    0.0012: real time    0.0012
     EDDAV:  cpu time    0.0296: real time    0.0296
       DOS:  cpu time    0.0001: real time    0.0001
    --------------------------------------------
      LOOP:  cpu time    0.1141: real time    0.1156

 eigenvalue-minimisations  :    16
 total energy-change (2. order) :-0.1999253E-05  (-0.4805243E-07)
 number of electron       7.9999900 magnetization 
 augmentation part       -0.6332372 magnetization 

 Free energy of the ion-electron system (eV)
  ---------------------------------------------------
  alpha Z        PSCENC =         0.08552978
  Ewald energy   TEWEN  =      -108.95061336
  -Hartree energ DENC   =      -385.55449062
  -exchange      EXHF   =         0.00000000
  -V(xc)+E(xc)   XCENC  =        29.15805355
  PAW double counting   =       468.18147477     -472.68023885
  entropy T*S    EENTRO =        -0.00000000
  eigenvalues    EBANDS =      -109.27958056
  atomic energy  EATOM  =       579.01562963
  Solvation  Ediel_sol  =         0.00000000
  ---------------------------------------------------
  free energy    TOTEN  =        -0.02423567 eV

  energy without entropy =       -0.02423567  energy(sigma->0) =       -0.02423567


--------------------------------------------------------------------------------------------------------




 average (electrostatic) potential at core
  the test charge radii are     0.8078
  (the norm of the test charge is              1.0000)
       1-155.7317
 
 
 
 E-fermi : -10.0582     XC(G=0):  -0.3302     alpha+bet : -0.1095


 k-point     1 :       0.0000    0.0000    0.0000
  band No.  band energies     occupation 
      1     -24.1708      2.00000
      2     -10.1563      2.00000
      3     -10.1563      2.00000
      4     -10.1563      2.00000
      5      -0.3182      0.00000
      6       0.6376      0.00000
      7       0.8848      0.00000
      8       0.8848      0.00000


--------------------------------------------------------------------------------------------------------


 soft charge-density along one line, spin component           1
         0         1         2         3         4         5         6         7         8         9
 total charge-density along one line
 
 pseudopotential strength for first ion, spin component:           1
 67.713 -74.278  -0.000  -0.000  -0.000
-74.278  87.766   0.000   0.000   0.000
 -0.000   0.000  12.899   0.000   0.000
 -0.000   0.000   0.000  12.899  -0.000
 -0.000   0.000   0.000  -0.000  12.899
 total augmentation occupancy for first ion, spin component:           1
  2.032   0.014   0.000   0.000   0.000
  0.014   0.000   0.000   0.000   0.000
  0.000   0.000   2.000   0.000   0.000
  0.000   0.000   0.000   2.000   0.000
  0.000   0.000   0.000   0.000   2.000


------------------------ aborting loop because EDIFF is reached ----------------------------------------


    CHARGE:  cpu time    0.0318: real time    0.0318
    FORLOC:  cpu time    0.0038: real time    0.0038
    FORNL :  cpu time    0.0033: real time    0.0034
    STRESS:  cpu time    0.0475: real time    0.0475
    FORCOR:  cpu time    0.0973: real time    0.0972
    FORHAR:  cpu time    0.0237: real time    0.0237
    MIXING:  cpu time    0.0066: real time    0.0066
    OFIELD:  cpu time    0.0001: real time    0.0001

  FORCE on cell =-STRESS in cart. coord.  units (eV):
  Direction    XX          YY          ZZ          XY          YZ          ZX
  --------------------------------------------------------------------------------------
  Alpha Z     0.08553     0.08553     0.08553
  Ewald     -36.31687   -36.31687   -36.31687     0.00000     0.00000     0.00000
  Hartree   128.51447   128.51447   128.51447    -0.00000    -0.00000    -0.00000
  E(xc)     -31.00484   -31.00484   -31.00484     0.00000    -0.00000    -0.00000
  Local    -342.33882  -342.33882  -342.33882     0.00000     0.00000    -0.00000
  n-local   156.86096   156.86095   156.86096     0.00001    -0.00000    -0.00000
  augment   -23.44090   -23.44090   -23.44090     0.00000    -0.00000     0.00000
  Kinetic   147.49408   147.49405   147.49408     0.00001    -0.00000     0.00000
  Fock        0.00000     0.00000     0.00000     0.00000     0.00000     0.00000
  -------------------------------------------------------------------------------------
  Total      -0.14641    -0.14641    -0.14641    -0.00000     0.00000    -0.00000
  in kB      -0.13575    -0.13575    -0.13575    -0.00000     0.00000    -0.00000
  external pressure =       -0.14 kB  Pullay stress =        0.00 kB


 VOLUME and BASIS-vectors are now :
 -----------------------------------------------------------------------------
  energy-cutoff  :      300.00
  volume of cell :     1728.00
      direct lattice vectors                 reciprocal lattice vectors
    12.000000000  0.000000000  0.000000000     0.083333333  0.000000000  0.000000000
     0.000000000 12.000000000  0.000000000     0.000000000  0.083333333  0.000000000
     0.000000000  0.000000000 12.000000000     0.000000000  0.000000000  0.083333333

  length of vectors
    12.000000000 12.000000000 12.000000000     0.083333333  0.083333333  0.083333333


 FORCES acting on ions
    electron-ion (+dipol)            ewald-force                    non-local-force                 convergence-correction
 -----------------------------------------------------------------------------------------------
   0.105E-12 -.425E-12 0.172E-11   0.280E-16 0.802E-17 0.759E-17   0.000E+00 0.000E+00 0.000E+00   -.784E-15 -.156E-12 -.347E-12
 -----------------------------------------------------------------------------------------------
   0.105E-12 -.425E-12 0.172E-11   0.280E-16 0.802E-17 0.759E-17   0.000E+00 0.000E+00 0.000E+00   -.784E-15 -.156E-12 -.347E-12
 
 
 POSITION                                       TOTAL-FORCE (eV/Angst)
 -----------------------------------------------------------------------------------
      6.00000      6.00000      6.00000         0.000000      0.000000      0.000000
 -----------------------------------------------------------------------------------
    total drift:                                0.000000     -0.000000      0.000000


--------------------------------------------------------------------------------------------------------



  FREE ENERGIE OF THE ION-ELECTRON SYSTEM (eV)
  ---------------------------------------------------
  free  energy   TOTEN  =        -0.02423567 eV

  energy  without entropy=       -0.02423567  energy(sigma->0) =       -0.02423567
 


--------------------------------------------------------------------------------------------------------


    POTLOK:  cpu time    0.0852: real time    0.0852


--------------------------------------------------------------------------------------------------------


     LOOP+:  cpu time    1.2583: real time    1.2859
    4ORBIT:  cpu time    0.0000: real time    0.0000

 total amount of memory used by VASP on root node    51918. kBytes
========================================================================

   base      :      30000. kBytes
   nonl-proj :       1139. kBytes
   fftplans  :       6173. kBytes
   grid      :      14280. kBytes
   one-center:          1. kBytes
   wavefun   :        325. kBytes
 
  
  
 General timing and accounting informations for this job:
 ========================================================
  
                  Total CPU time used (sec):        1.761
                            User time (sec):        1.623
                          System time (sec):        0.138
                         Elapsed time (sec):        1.879
  
                   Maximum memory used (kb):       94704.
                   Average memory used (kb):           0.
  
                          Minor page faults:        25442
                          Major page faults:            7
                 Voluntary context switches:          584
