<?xml version="1.0" encoding="ISO-8859-1"?>
<modeling>
 <generator>
  <i name="program" type="string">vasp </i>
  <i name="version" type="string">5.4.1  </i>
  <i name="subversion" type="string">05Feb16 (build Feb 08 2018 09:21:51) complex                          parallel </i>
  <i name="platform" type="string">LinuxIFC </i>
  <i name="date" type="string">2019 11 07 </i>
  <i name="time" type="string">20:22:06 </i>
 </generator>
 <incar>
  <i type="string" name="PREC">normal</i>
  <i name="ENCUT">    300.00000000</i>
  <i type="int" name="ISMEAR">     0</i>
  <i name="SIGMA">      0.01000000</i>
  <i type="logical" name="LWAVE"> F  </i>
  <i type="logical" name="LCHARG"> F  </i>
  <v type="int" name="KPOINT_BSE">    -1     0     0     0</v>
 </incar>
 <kpoints>
  <generation param="Monkhorst-Pack">
   <v type="int" name="divisions">       1        1        1 </v>
   <v name="usershift">      0.00000000       0.00000000       0.00000000 </v>
   <v name="genvec1">      1.00000000       0.00000000       0.00000000 </v>
   <v name="genvec2">      0.00000000       1.00000000       0.00000000 </v>
   <v name="genvec3">      0.00000000       0.00000000       1.00000000 </v>
   <v name="shift">      0.00000000       0.00000000       0.00000000 </v>
  </generation>
  <varray name="kpointlist" >
   <v>       0.00000000       0.00000000       0.00000000 </v>
  </varray>
  <varray name="weights" >
   <v>       1.00000000 </v>
  </varray>
 </kpoints>
 <parameters>
  <separator name="general" >
   <i type="string" name="SYSTEM">unknown system</i>
   <i type="logical" name="LCOMPAT"> F  </i>
  </separator>
  <separator name="electronic" >
   <i type="string" name="PREC">normal</i>
   <i name="ENMAX">    300.00000000</i>
   <i name="ENAUG">    482.93000000</i>
   <i name="EDIFF">      0.00010000</i>
   <i type="int" name="IALGO">    38</i>
   <i type="int" name="IWAVPR">    10</i>
   <i type="int" name="NBANDS">     8</i>
   <i name="NELECT">      8.00000000</i>
   <i type="int" name="TURBO">     0</i>
   <i type="int" name="IRESTART">     0</i>
   <i type="int" name="NREBOOT">     0</i>
   <i type="int" name="NMIN">     0</i>
   <i name="EREF">      0.00000000</i>
   <separator name="electronic smearing" >
    <i type="int" name="ISMEAR">     0</i>
    <i name="SIGMA">      0.01000000</i>
    <i name="KSPACING">      0.50000000</i>
    <i type="logical" name="KGAMMA"> T  </i>
   </separator>
   <separator name="electronic projectors" >
    <i type="logical" name="LREAL"> F  </i>
    <v name="ROPT">      0.00000000</v>
    <i type="int" name="LMAXPAW">  -100</i>
    <i type="int" name="LMAXMIX">     2</i>
    <i type="logical" name="NLSPLINE"> F  </i>
   </separator>
   <separator name="electronic startup" >
    <i type="int" name="ISTART">     0</i>
    <i type="int" name="ICHARG">     2</i>
    <i type="int" name="INIWAV">     1</i>
   </separator>
   <separator name="electronic spin" >
    <i type="int" name="ISPIN">     1</i>
    <i type="logical" name="LNONCOLLINEAR"> F  </i>
    <v name="MAGMOM">      1.00000000</v>
    <i name="NUPDOWN">     -1.00000000</i>
    <i type="logical" name="LSORBIT"> F  </i>
    <v name="SAXIS">      0.00000000      0.00000000      1.00000000</v>
    <i type="logical" name="LSPIRAL"> F  </i>
    <v name="QSPIRAL">      0.00000000      0.00000000      0.00000000</v>
    <i type="logical" name="LZEROZ"> F  </i>
   </separator>
   <separator name="electronic exchange-correlation" >
    <i type="logical" name="LASPH"> F  </i>
    <i type="logical" name="LMETAGGA"> F  </i>
   </separator>
   <separator name="electronic convergence" >
    <i type="int" name="NELM">    60</i>
    <i type="int" name="NELMDL">    -5</i>
    <i type="int" name="NELMIN">     2</i>
    <i name="ENINI">    300.00000000</i>
    <separator name="electronic convergence detail" >
     <i type="logical" name="LDIAG"> T  </i>
     <i type="logical" name="LSUBROT"> F  </i>
     <i name="WEIMIN">      0.00000000</i>
     <i name="EBREAK">      0.00000313</i>
     <i name="DEPER">      0.30000000</i>
     <i type="int" name="NRMM">     4</i>
     <i name="TIME">      0.40000000</i>
    </separator>
   </separator>
   <separator name="electronic mixer" >
    <i name="AMIX">      0.40000000</i>
    <i name="BMIX">      1.00000000</i>
    <i name="AMIN">      0.10000000</i>
    <i name="AMIX_MAG">      1.60000000</i>
    <i name="BMIX_MAG">      1.00000000</i>
    <separator name="electronic mixer details" >
     <i type="int" name="IMIX">     4</i>
     <i type="logical" name="MIXFIRST"> F  </i>
     <i type="int" name="MAXMIX">   -45</i>
     <i name="WC">    100.00000000</i>
     <i type="int" name="INIMIX">     1</i>
     <i type="int" name="MIXPRE">     1</i>
     <i type="int" name="MREMOVE">     5</i>
    </separator>
   </separator>
   <separator name="electronic dipolcorrection" >
    <i type="logical" name="LDIPOL"> F  </i>
    <i type="logical" name="LMONO"> F  </i>
    <i type="int" name="IDIPOL">     0</i>
    <i name="EPSILON">      1.00000000</i>
    <v name="DIPOL">   -100.00000000   -100.00000000   -100.00000000</v>
    <i name="EFIELD">      0.00000000</i>
   </separator>
  </separator>
  <separator name="grids" >
   <i type="int" name="NGX">    54</i>
   <i type="int" name="NGY">    54</i>
   <i type="int" name="NGZ">    54</i>
   <i type="int" name="NGXF">   108</i>
   <i type="int" name="NGYF">   108</i>
   <i type="int" name="NGZF">   108</i>
   <i type="logical" name="ADDGRID"> F  </i>
  </separator>
  <separator name="ionic" >
   <i type="int" name="NSW">     0</i>
   <i type="int" name="IBRION">    -1</i>
   <i type="int" name="ISIF">     2</i>
   <i name="PSTRESS">      0.00000000</i>
   <i name="EDIFFG">      0.00100000</i>
   <i type="int" name="NFREE">     0</i>
   <i name="POTIM">      0.50000000</i>
   <i name="SMASS">     -3.00000000</i>
   <i name="SCALEE">      1.00000000</i>
  </separator>
  <separator name="ionic md" >
   <i name="TEBEG">      0.00010000</i>
   <i name="TEEND">      0.00010000</i>
   <i type="int" name="NBLOCK">     1</i>
   <i type="int" name="KBLOCK">     1</i>
   <i type="int" name="NPACO">   256</i>
   <i name="APACO">     16.00000000</i>
  </separator>
  <separator name="symmetry" >
   <i type="int" name="ISYM">     2</i>
   <i name="SYMPREC">      0.00001000</i>
  </separator>
  <separator name="dos" >
   <i type="logical" name="LORBIT"> F  </i>
   <v name="RWIGS">     -1.00000000</v>
   <i type="int" name="NEDOS">   301</i>
   <i name="EMIN">     10.00000000</i>
   <i name="EMAX">    -10.00000000</i>
   <i name="EFERMI">      0.00000000</i>
  </separator>
  <separator name="writing" >
   <i type="int" name="NWRITE">     2</i>
   <i type="logical" name="LWAVE"> F  </i>
   <i type="logical" name="LCHARG"> F  </i>
   <i type="logical" name="LPARD"> F  </i>
   <i type="logical" name="LVTOT"> F  </i>
   <i type="logical" name="LVHAR"> F  </i>
   <i type="logical" name="LELF"> F  </i>
   <i type="logical" name="LOPTICS"> F  </i>
   <v name="STM">      0.00000000      0.00000000      0.00000000      0.00000000      0.00000000      0.00000000      0.00000000</v>
  </separator>
  <separator name="performance" >
   <i type="int" name="NPAR">     8</i>
   <i type="int" name="NSIM">     4</i>
   <i type="int" name="NBLK">    -1</i>
   <i type="logical" name="LPLANE"> T  </i>
   <i type="logical" name="LSCALAPACK"> F  </i>
   <i type="logical" name="LSCAAWARE"> F  </i>
   <i type="logical" name="LSCALU"> F  </i>
   <i type="logical" name="LASYNC"> F  </i>
   <i type="logical" name="LORBITALREAL"> F  </i>
  </separator>
  <separator name="miscellaneous" >
   <i type="int" name="IDIOT">     3</i>
   <i type="logical" name="LMUSIC"> F  </i>
   <v name="POMASS">     39.94900000</v>
   <v name="DARWINR">      0.00000000</v>
   <v name="DARWINV">      1.00000000</v>
   <i type="logical" name="LCORR"> T  </i>
  </separator>
  <i type="logical" name="GGA_COMPAT"> T  </i>
  <i type="logical" name="LBERRY"> F  </i>
  <i type="int" name="ICORELEVEL">     0</i>
  <i type="logical" name="LDAU"> F  </i>
  <i type="int" name="I_CONSTRAINED_M">     0</i>
  <separator name="electronic exchange-correlation" >
   <i type="string" name="GGA">--</i>
   <i type="int" name="VOSKOWN">     0</i>
   <i type="logical" name="LHFCALC"> F  </i>
   <i type="string" name="PRECFOCK"></i>
   <i type="logical" name="LSYMGRAD"> F  </i>
   <i type="logical" name="LHFONE"> F  </i>
   <i type="logical" name="LRHFCALC"> F  </i>
   <i type="logical" name="LTHOMAS"> F  </i>
   <i type="logical" name="LMODELHF"> F  </i>
   <i name="ENCUT4O">     -1.00000000</i>
   <i type="int" name="EXXOEP">     0</i>
   <i type="int" name="FOURORBIT">     0</i>
   <i name="AEXX">      0.00000000</i>
   <i name="HFALPHA">      0.00000000</i>
   <i name="MCALPHA">      0.00000000</i>
   <i name="ALDAX">      1.00000000</i>
   <i name="AGGAX">      1.00000000</i>
   <i name="ALDAC">      1.00000000</i>
   <i name="AGGAC">      1.00000000</i>
   <i type="int" name="NKREDX">     1</i>
   <i type="int" name="NKREDY">     1</i>
   <i type="int" name="NKREDZ">     1</i>
   <i type="logical" name="SHIFTRED"> F  </i>
   <i type="logical" name="ODDONLY"> F  </i>
   <i type="logical" name="EVENONLY"> F  </i>
   <i type="int" name="LMAXFOCK">     0</i>
   <i type="int" name="NMAXFOCKAE">     0</i>
   <i type="logical" name="LFOCKAEDFT"> F  </i>
   <i name="HFSCREEN">      0.00000000</i>
   <i name="HFSCREENC">      0.00000000</i>
   <i type="int" name="NBANDSGWLOW">     0</i>
  </separator>
  <separator name="vdW DFT" >
   <i type="logical" name="LUSE_VDW"> F  </i>
   <i name="Zab_VDW">     -0.84910000</i>
   <i name="PARAM1">      0.12340000</i>
   <i name="PARAM2">      1.00000000</i>
   <i name="PARAM3">      0.00000000</i>
  </separator>
  <separator name="model GW" >
   <i type="int" name="MODEL_GW">     0</i>
   <i name="MODEL_EPS0">   1036.80000000</i>
   <i name="MODEL_ALPHA">      1.00000000</i>
  </separator>
  <separator name="linear response parameters" >
   <i type="logical" name="LEPSILON"> F  </i>
   <i type="logical" name="LRPA"> F  </i>
   <i type="logical" name="LNABLA"> F  </i>
   <i type="logical" name="LVEL"> F  </i>
   <i type="int" name="KINTER">     0</i>
   <i name="CSHIFT">      0.10000000</i>
   <i name="OMEGAMAX">     -1.00000000</i>
   <i name="DEG_THRESHOLD">      0.00200000</i>
  </separator>
  <separator name="orbital magnetization" >
   <i type="logical" name="NUCIND"> F  </i>
   <v name="MAGPOS">      0.00000000      0.00000000      0.00000000</v>
   <i type="logical" name="LNICSALL"> T  </i>
   <i type="logical" name="ORBITALMAG"> F  </i>
   <i type="logical" name="LMAGBLOCH"> F  </i>
   <i type="logical" name="LCHIMAG"> F  </i>
   <i type="logical" name="LGAUGE"> T  </i>
   <i type="int" name="MAGATOM">     0</i>
   <v name="MAGDIPOL">      0.00000000      0.00000000      0.00000000</v>
   <v name="AVECCONST">      0.00000000      0.00000000      0.00000000</v>
  </separator>
  <separator name="response functions" >
   <i type="logical" name="LADDER"> F  </i>
   <i type="logical" name="LFXC"> F  </i>
   <i type="logical" name="LHARTREE"> T  </i>
   <i type="int" name="IBSE">     0</i>
   <v type="int" name="KPOINT">    -1     0     0     0</v>
   <i type="logical" name="LTCTE"> F  </i>
   <i type="logical" name="LTETE"> F  </i>
   <i type="logical" name="LTRIPLET"> F  </i>
   <i type="logical" name="LFXCEPS"> F  </i>
   <i type="logical" name="LFXHEG"> F  </i>
   <i type="int" name="NATURALO">     0</i>
   <i type="logical" name="L2ORDER"> F  </i>
   <i type="logical" name="LUSEW"> F  </i>
   <i name="ENCUTGW">     -2.00000000</i>
   <i name="ENCUTGWSOFT">     -2.00000000</i>
   <i name="ENCUTLF">     -1.00000000</i>
   <i type="int" name="LMAXMP2">    -1</i>
   <i name="SCISSOR">      0.00000000</i>
   <i type="int" name="NOMEGA">     0</i>
   <i type="int" name="NOMEGAR">     0</i>
   <i type="int" name="NBANDSGW">    -1</i>
   <i type="int" name="NBANDSO">    -1</i>
   <i type="int" name="NBANDSV">    -1</i>
   <i type="int" name="NELM">     1</i>
   <i type="int" name="NELMHF">     1</i>
   <i type="int" name="DIM">     3</i>
   <i type="int" name="ANTIRES">     0</i>
   <i name="OMEGAMAX">    -30.00000000</i>
   <i name="OMEGAMIN">    -30.00000000</i>
   <i name="OMEGATL">   -200.00000000</i>
   <i type="int" name="OMEGAGRID">     0</i>
   <i name="CSHIFT">     -0.10000000</i>
   <i type="logical" name="SELFENERGY"> F  </i>
   <i type="logical" name="LSPECTRAL"> F  </i>
   <i type="logical" name="LSPECTRALGW"> F  </i>
   <i type="logical" name="LSINGLES"> F  </i>
   <i type="logical" name="LFERMIGW"> F  </i>
   <i type="logical" name="ODDONLYGW"> F  </i>
   <i type="logical" name="EVENONLYGW"> F  </i>
   <i type="int" name="NKREDLFX">     1</i>
   <i type="int" name="NKREDLFY">     1</i>
   <i type="int" name="NKREDLFZ">     1</i>
   <i type="int" name="MAXMEM">  1800</i>
   <i type="int" name="TELESCOPE">     0</i>
   <i type="int" name="TAUPAR">     1</i>
   <i type="int" name="OMEGAPAR">    -1</i>
   <i name="LAMBDA">      1.00000000</i>
  </separator>
  <separator name="External order field" >
   <i name="OFIELD_KAPPA">      0.00000000</i>
   <v name="OFIELD_K">      0.00000000      0.00000000      0.00000000</v>
   <i name="OFIELD_Q6_NEAR">      0.00000000</i>
   <i name="OFIELD_Q6_FAR">      0.00000000</i>
   <i name="OFIELD_A">      0.00000000</i>
  </separator>
 </parameters>
 <atominfo>
  <atoms>       1 </atoms>
  <types>       1 </types>
  <array name="atoms" >
   <dimension dim="1">ion</dimension>
   <field type="string">element</field>
   <field type="int">atomtype</field>
   <set>
    <rc><c>Ar</c><c>   1</c></rc>
   </set>
  </array>
  <array name="atomtypes" >
   <dimension dim="1">type</dimension>
   <field type="int">atomspertype</field>
   <field type="string">element</field>
   <field>mass</field>
   <field>valence</field>
   <field type="string">pseudopotential</field>
   <set>
    <rc><c>   1</c><c>Ar</c><c>     39.94900000</c><c>      8.00000000</c><c>  PAW_PBE Ar 07Sep2000                  </c></rc>
   </set>
  </array>
 </atominfo>
 <structure name="initialpos" >
  <crystal>
   <varray name="basis" >
    <v>      12.00000000       0.00000000       0.00000000 </v>
    <v>       0.00000000      12.00000000       0.00000000 </v>
    <v>       0.00000000       0.00000000      12.00000000 </v>
   </varray>
   <i name="volume">   1728.00000000 </i>
   <varray name="rec_basis" >
    <v>       0.08333333       0.00000000       0.00000000 </v>
    <v>       0.00000000       0.08333333       0.00000000 </v>
    <v>       0.00000000       0.00000000       0.08333333 </v>
   </varray>
  </crystal>
  <varray name="positions" >
   <v>       0.50000000       0.50000000       0.50000000 </v>
  </varray>
 </structure>
 <calculation>
  <scstep>
   <time name="dav">    0.05    0.05</time>
   <time name="total">    0.16    0.16</time>
   <energy>
    <i name="alphaZ">      0.08552978 </i>
    <i name="ewald">   -108.95061336 </i>
    <i name="hartreedc">   -385.56052840 </i>
    <i name="XCdc">     29.15732214 </i>
    <i name="pawpsdc">    464.39213177 </i>
    <i name="pawaedc">   -468.88429268 </i>
    <i name="eentropy">     -0.00000000 </i>
    <i name="bandstr">    -41.89869869 </i>
    <i name="atom">    579.01562963 </i>
    <i name="e_fr_energy">     67.35648019 </i>
    <i name="e_wo_entrp">     67.35648019 </i>
    <i name="e_0_energy">     67.35648019 </i>
   </energy>
  </scstep>
  <scstep>
   <time name="dav">    0.05    0.05</time>
   <time name="total">    0.05    0.05</time>
   <energy>
    <i name="e_fr_energy">     13.46821532 </i>
    <i name="e_wo_entrp">     13.46821532 </i>
    <i name="e_0_energy">     13.46821532 </i>
   </energy>
  </scstep>
  <scstep>
   <time name="dav">    0.03    0.03</time>
   <time name="total">    0.03    0.03</time>
   <energy>
    <i name="e_fr_energy">      0.42825101 </i>
    <i name="e_wo_entrp">      0.42825101 </i>
    <i name="e_0_energy">      0.42825101 </i>
   </energy>
  </scstep>
  <scstep>
   <time name="dav">    0.03    0.03</time>
   <time name="total">    0.03    0.03</time>
   <energy>
    <i name="e_fr_energy">     -0.01899864 </i>
    <i name="e_wo_entrp">     -0.01899864 </i>
    <i name="e_0_energy">     -0.01899864 </i>
   </energy>
  </scstep>
  <scstep>
   <time name="dav">    0.03    0.03</time>
   <time name="total">    0.07    0.07</time>
   <energy>
    <i name="e_fr_energy">     -0.02329013 </i>
    <i name="e_wo_entrp">     -0.02329013 </i>
    <i name="e_0_energy">     -0.02329013 </i>
   </energy>
  </scstep>
  <scstep>
   <time name="dav">    0.03    0.03</time>
   <time name="total">    0.17    0.17</time>
   <energy>
    <i name="e_fr_energy">     -0.02384677 </i>
    <i name="e_wo_entrp">     -0.02384677 </i>
    <i name="e_0_energy">     -0.02384677 </i>
   </energy>
  </scstep>
  <scstep>
   <time name="dav">    0.05    0.05</time>
   <time name="total">    0.18    0.18</time>
   <energy>
    <i name="e_fr_energy">     -0.02396769 </i>
    <i name="e_wo_entrp">     -0.02396769 </i>
    <i name="e_0_energy">     -0.02396769 </i>
   </energy>
  </scstep>
  <scstep>
   <time name="dav">    0.03    0.03</time>
   <time name="total">    0.15    0.15</time>
   <energy>
    <i name="e_fr_energy">     -0.02423367 </i>
    <i name="e_wo_entrp">     -0.02423367 </i>
    <i name="e_0_energy">     -0.02423367 </i>
   </energy>
  </scstep>
  <scstep>
   <time name="dav">    0.03    0.03</time>
   <time name="total">    0.11    0.12</time>
   <energy>
    <i name="alphaZ">      0.08552978 </i>
    <i name="ewald">   -108.95061336 </i>
    <i name="hartreedc">   -385.55449062 </i>
    <i name="XCdc">     29.15805355 </i>
    <i name="pawpsdc">    468.18147477 </i>
    <i name="pawaedc">   -472.68023885 </i>
    <i name="eentropy">     -0.00000000 </i>
    <i name="bandstr">   -109.27958056 </i>
    <i name="atom">    579.01562963 </i>
    <i name="e_fr_energy">     -0.02423567 </i>
    <i name="e_wo_entrp">     -0.02423567 </i>
    <i name="e_0_energy">     -0.02423567 </i>
   </energy>
  </scstep>
  <structure>
   <crystal>
    <varray name="basis" >
     <v>      12.00000000       0.00000000       0.00000000 </v>
     <v>       0.00000000      12.00000000       0.00000000 </v>
     <v>       0.00000000       0.00000000      12.00000000 </v>
    </varray>
    <i name="volume">   1728.00000000 </i>
    <varray name="rec_basis" >
     <v>       0.08333333       0.00000000       0.00000000 </v>
     <v>       0.00000000       0.08333333       0.00000000 </v>
     <v>       0.00000000       0.00000000       0.08333333 </v>
    </varray>
   </crystal>
   <varray name="positions" >
    <v>       0.50000000       0.50000000       0.50000000 </v>
   </varray>
  </structure>
  <varray name="forces" >
   <v>       0.00000000       0.00000000       0.00000000 </v>
  </varray>
  <varray name="stress" >
   <v>      -0.13574783       0.00000000      -0.00000000 </v>
   <v>      -0.00000000      -0.13574783       0.00000000 </v>
   <v>       0.00000000       0.00000000      -0.13574783 </v>
  </varray>
  <energy>
   <i name="e_fr_energy">     -0.02423567 </i>
   <i name="e_wo_entrp">     -0.02423567 </i>
   <i name="e_0_energy">     -0.00000000 </i>
  </energy>
  <time name="totalsc">    1.26    1.29</time>
  <eigenvalues>
   <array>
    <dimension dim="1">band</dimension>
    <dimension dim="2">kpoint</dimension>
    <dimension dim="3">spin</dimension>
    <field>eigene</field>
    <field>occ</field>
    <set>
     <set comment="spin 1">
      <set comment="kpoint 1">
       <r>  -24.1708    1.0000 </r>
       <r>  -10.1563    1.0000 </r>
       <r>  -10.1563    1.0000 </r>
       <r>  -10.1563    1.0000 </r>
       <r>   -0.3182    0.0000 </r>
       <r>    0.6376    0.0000 </r>
       <r>    0.8848    0.0000 </r>
       <r>    0.8848    0.0000 </r>
      </set>
     </set>
    </set>
   </array>
  </eigenvalues>
  <separator name="orbital magnetization" >
   <v name="MAGDIPOLOUT">      0.00000000      0.00000000      0.00000000</v>
  </separator>
  <dos>
   <i name="efermi">    -10.05823786 </i>
   <total>
    <array>
     <dimension dim="1">gridpoints</dimension>
     <dimension dim="2">spin</dimension>
     <field>energy</field>
     <field>total</field>
     <field>integrated</field>
     <set>
      <set comment="spin 1">
       <r>   -25.4236     0.0000     0.0000 </r>
       <r>   -25.3317     0.0000     0.0000 </r>
       <r>   -25.2398     0.0000     0.0000 </r>
       <r>   -25.1480     0.0000     0.0000 </r>
       <r>   -25.0561     0.0000     0.0000 </r>
       <r>   -24.9642     0.0000     0.0000 </r>
       <r>   -24.8724     0.0000     0.0000 </r>
       <r>   -24.7805     0.0000     0.0000 </r>
       <r>   -24.6886     0.0000     0.0000 </r>
       <r>   -24.5967     0.0000     0.0000 </r>
       <r>   -24.5049     0.0000     0.0000 </r>
       <r>   -24.4130     0.0000     0.0000 </r>
       <r>   -24.3211     0.0000     0.0000 </r>
       <r>   -24.2293     0.0000     0.0000 </r>
       <r>   -24.1374    21.7697     2.0000 </r>
       <r>   -24.0455     0.0000     2.0000 </r>
       <r>   -23.9537     0.0000     2.0000 </r>
       <r>   -23.8618     0.0000     2.0000 </r>
       <r>   -23.7699     0.0000     2.0000 </r>
       <r>   -23.6780     0.0000     2.0000 </r>
       <r>   -23.5862     0.0000     2.0000 </r>
       <r>   -23.4943     0.0000     2.0000 </r>
       <r>   -23.4024     0.0000     2.0000 </r>
       <r>   -23.3106     0.0000     2.0000 </r>
       <r>   -23.2187     0.0000     2.0000 </r>
       <r>   -23.1268     0.0000     2.0000 </r>
       <r>   -23.0349     0.0000     2.0000 </r>
       <r>   -22.9431     0.0000     2.0000 </r>
       <r>   -22.8512     0.0000     2.0000 </r>
       <r>   -22.7593     0.0000     2.0000 </r>
       <r>   -22.6675     0.0000     2.0000 </r>
       <r>   -22.5756     0.0000     2.0000 </r>
       <r>   -22.4837     0.0000     2.0000 </r>
       <r>   -22.3919     0.0000     2.0000 </r>
       <r>   -22.3000     0.0000     2.0000 </r>
       <r>   -22.2081     0.0000     2.0000 </r>
       <r>   -22.1162     0.0000     2.0000 </r>
       <r>   -22.0244     0.0000     2.0000 </r>
       <r>   -21.9325     0.0000     2.0000 </r>
       <r>   -21.8406     0.0000     2.0000 </r>
       <r>   -21.7488     0.0000     2.0000 </r>
       <r>   -21.6569     0.0000     2.0000 </r>
       <r>   -21.5650     0.0000     2.0000 </r>
       <r>   -21.4731     0.0000     2.0000 </r>
       <r>   -21.3813     0.0000     2.0000 </r>
       <r>   -21.2894     0.0000     2.0000 </r>
       <r>   -21.1975     0.0000     2.0000 </r>
       <r>   -21.1057     0.0000     2.0000 </r>
       <r>   -21.0138     0.0000     2.0000 </r>
       <r>   -20.9219     0.0000     2.0000 </r>
       <r>   -20.8301     0.0000     2.0000 </r>
       <r>   -20.7382     0.0000     2.0000 </r>
       <r>   -20.6463     0.0000     2.0000 </r>
       <r>   -20.5544     0.0000     2.0000 </r>
       <r>   -20.4626     0.0000     2.0000 </r>
       <r>   -20.3707     0.0000     2.0000 </r>
       <r>   -20.2788     0.0000     2.0000 </r>
       <r>   -20.1870     0.0000     2.0000 </r>
       <r>   -20.0951     0.0000     2.0000 </r>
       <r>   -20.0032     0.0000     2.0000 </r>
       <r>   -19.9113     0.0000     2.0000 </r>
       <r>   -19.8195     0.0000     2.0000 </r>
       <r>   -19.7276     0.0000     2.0000 </r>
       <r>   -19.6357     0.0000     2.0000 </r>
       <r>   -19.5439     0.0000     2.0000 </r>
       <r>   -19.4520     0.0000     2.0000 </r>
       <r>   -19.3601     0.0000     2.0000 </r>
       <r>   -19.2683     0.0000     2.0000 </r>
       <r>   -19.1764     0.0000     2.0000 </r>
       <r>   -19.0845     0.0000     2.0000 </r>
       <r>   -18.9926     0.0000     2.0000 </r>
       <r>   -18.9008     0.0000     2.0000 </r>
       <r>   -18.8089     0.0000     2.0000 </r>
       <r>   -18.7170     0.0000     2.0000 </r>
       <r>   -18.6252     0.0000     2.0000 </r>
       <r>   -18.5333     0.0000     2.0000 </r>
       <r>   -18.4414     0.0000     2.0000 </r>
       <r>   -18.3496     0.0000     2.0000 </r>
       <r>   -18.2577     0.0000     2.0000 </r>
       <r>   -18.1658     0.0000     2.0000 </r>
       <r>   -18.0739     0.0000     2.0000 </r>
       <r>   -17.9821     0.0000     2.0000 </r>
       <r>   -17.8902     0.0000     2.0000 </r>
       <r>   -17.7983     0.0000     2.0000 </r>
       <r>   -17.7065     0.0000     2.0000 </r>
       <r>   -17.6146     0.0000     2.0000 </r>
       <r>   -17.5227     0.0000     2.0000 </r>
       <r>   -17.4308     0.0000     2.0000 </r>
       <r>   -17.3390     0.0000     2.0000 </r>
       <r>   -17.2471     0.0000     2.0000 </r>
       <r>   -17.1552     0.0000     2.0000 </r>
       <r>   -17.0634     0.0000     2.0000 </r>
       <r>   -16.9715     0.0000     2.0000 </r>
       <r>   -16.8796     0.0000     2.0000 </r>
       <r>   -16.7878     0.0000     2.0000 </r>
       <r>   -16.6959     0.0000     2.0000 </r>
       <r>   -16.6040     0.0000     2.0000 </r>
       <r>   -16.5121     0.0000     2.0000 </r>
       <r>   -16.4203     0.0000     2.0000 </r>
       <r>   -16.3284     0.0000     2.0000 </r>
       <r>   -16.2365     0.0000     2.0000 </r>
       <r>   -16.1447     0.0000     2.0000 </r>
       <r>   -16.0528     0.0000     2.0000 </r>
       <r>   -15.9609     0.0000     2.0000 </r>
       <r>   -15.8690     0.0000     2.0000 </r>
       <r>   -15.7772     0.0000     2.0000 </r>
       <r>   -15.6853     0.0000     2.0000 </r>
       <r>   -15.5934     0.0000     2.0000 </r>
       <r>   -15.5016     0.0000     2.0000 </r>
       <r>   -15.4097     0.0000     2.0000 </r>
       <r>   -15.3178     0.0000     2.0000 </r>
       <r>   -15.2260     0.0000     2.0000 </r>
       <r>   -15.1341     0.0000     2.0000 </r>
       <r>   -15.0422     0.0000     2.0000 </r>
       <r>   -14.9503     0.0000     2.0000 </r>
       <r>   -14.8585     0.0000     2.0000 </r>
       <r>   -14.7666     0.0000     2.0000 </r>
       <r>   -14.6747     0.0000     2.0000 </r>
       <r>   -14.5829     0.0000     2.0000 </r>
       <r>   -14.4910     0.0000     2.0000 </r>
       <r>   -14.3991     0.0000     2.0000 </r>
       <r>   -14.3072     0.0000     2.0000 </r>
       <r>   -14.2154     0.0000     2.0000 </r>
       <r>   -14.1235     0.0000     2.0000 </r>
       <r>   -14.0316     0.0000     2.0000 </r>
       <r>   -13.9398     0.0000     2.0000 </r>
       <r>   -13.8479     0.0000     2.0000 </r>
       <r>   -13.7560     0.0000     2.0000 </r>
       <r>   -13.6642     0.0000     2.0000 </r>
       <r>   -13.5723     0.0000     2.0000 </r>
       <r>   -13.4804     0.0000     2.0000 </r>
       <r>   -13.3885     0.0000     2.0000 </r>
       <r>   -13.2967     0.0000     2.0000 </r>
       <r>   -13.2048     0.0000     2.0000 </r>
       <r>   -13.1129     0.0000     2.0000 </r>
       <r>   -13.0211     0.0000     2.0000 </r>
       <r>   -12.9292     0.0000     2.0000 </r>
       <r>   -12.8373     0.0000     2.0000 </r>
       <r>   -12.7455     0.0000     2.0000 </r>
       <r>   -12.6536     0.0000     2.0000 </r>
       <r>   -12.5617     0.0000     2.0000 </r>
       <r>   -12.4698     0.0000     2.0000 </r>
       <r>   -12.3780     0.0000     2.0000 </r>
       <r>   -12.2861     0.0000     2.0000 </r>
       <r>   -12.1942     0.0000     2.0000 </r>
       <r>   -12.1024     0.0000     2.0000 </r>
       <r>   -12.0105     0.0000     2.0000 </r>
       <r>   -11.9186     0.0000     2.0000 </r>
       <r>   -11.8267     0.0000     2.0000 </r>
       <r>   -11.7349     0.0000     2.0000 </r>
       <r>   -11.6430     0.0000     2.0000 </r>
       <r>   -11.5511     0.0000     2.0000 </r>
       <r>   -11.4593     0.0000     2.0000 </r>
       <r>   -11.3674     0.0000     2.0000 </r>
       <r>   -11.2755     0.0000     2.0000 </r>
       <r>   -11.1837     0.0000     2.0000 </r>
       <r>   -11.0918     0.0000     2.0000 </r>
       <r>   -10.9999     0.0000     2.0000 </r>
       <r>   -10.9080     0.0000     2.0000 </r>
       <r>   -10.8162     0.0000     2.0000 </r>
       <r>   -10.7243     0.0000     2.0000 </r>
       <r>   -10.6324     0.0000     2.0000 </r>
       <r>   -10.5406     0.0000     2.0000 </r>
       <r>   -10.4487     0.0000     2.0000 </r>
       <r>   -10.3568     0.0000     2.0000 </r>
       <r>   -10.2649     0.0000     2.0000 </r>
       <r>   -10.1731     0.5836     2.0536 </r>
       <r>   -10.0812    64.7257     8.0000 </r>
       <r>    -9.9893     0.0000     8.0000 </r>
       <r>    -9.8975     0.0000     8.0000 </r>
       <r>    -9.8056     0.0000     8.0000 </r>
       <r>    -9.7137     0.0000     8.0000 </r>
       <r>    -9.6219     0.0000     8.0000 </r>
       <r>    -9.5300     0.0000     8.0000 </r>
       <r>    -9.4381     0.0000     8.0000 </r>
       <r>    -9.3462     0.0000     8.0000 </r>
       <r>    -9.2544     0.0000     8.0000 </r>
       <r>    -9.1625     0.0000     8.0000 </r>
       <r>    -9.0706     0.0000     8.0000 </r>
       <r>    -8.9788     0.0000     8.0000 </r>
       <r>    -8.8869     0.0000     8.0000 </r>
       <r>    -8.7950     0.0000     8.0000 </r>
       <r>    -8.7031     0.0000     8.0000 </r>
       <r>    -8.6113     0.0000     8.0000 </r>
       <r>    -8.5194     0.0000     8.0000 </r>
       <r>    -8.4275     0.0000     8.0000 </r>
       <r>    -8.3357     0.0000     8.0000 </r>
       <r>    -8.2438     0.0000     8.0000 </r>
       <r>    -8.1519     0.0000     8.0000 </r>
       <r>    -8.0601     0.0000     8.0000 </r>
       <r>    -7.9682     0.0000     8.0000 </r>
       <r>    -7.8763     0.0000     8.0000 </r>
       <r>    -7.7844     0.0000     8.0000 </r>
       <r>    -7.6926     0.0000     8.0000 </r>
       <r>    -7.6007     0.0000     8.0000 </r>
       <r>    -7.5088     0.0000     8.0000 </r>
       <r>    -7.4170     0.0000     8.0000 </r>
       <r>    -7.3251     0.0000     8.0000 </r>
       <r>    -7.2332     0.0000     8.0000 </r>
       <r>    -7.1413     0.0000     8.0000 </r>
       <r>    -7.0495     0.0000     8.0000 </r>
       <r>    -6.9576     0.0000     8.0000 </r>
       <r>    -6.8657     0.0000     8.0000 </r>
       <r>    -6.7739     0.0000     8.0000 </r>
       <r>    -6.6820     0.0000     8.0000 </r>
       <r>    -6.5901     0.0000     8.0000 </r>
       <r>    -6.4983     0.0000     8.0000 </r>
       <r>    -6.4064     0.0000     8.0000 </r>
       <r>    -6.3145     0.0000     8.0000 </r>
       <r>    -6.2226     0.0000     8.0000 </r>
       <r>    -6.1308     0.0000     8.0000 </r>
       <r>    -6.0389     0.0000     8.0000 </r>
       <r>    -5.9470     0.0000     8.0000 </r>
       <r>    -5.8552     0.0000     8.0000 </r>
       <r>    -5.7633     0.0000     8.0000 </r>
       <r>    -5.6714     0.0000     8.0000 </r>
       <r>    -5.5796     0.0000     8.0000 </r>
       <r>    -5.4877     0.0000     8.0000 </r>
       <r>    -5.3958     0.0000     8.0000 </r>
       <r>    -5.3039     0.0000     8.0000 </r>
       <r>    -5.2121     0.0000     8.0000 </r>
       <r>    -5.1202     0.0000     8.0000 </r>
       <r>    -5.0283     0.0000     8.0000 </r>
       <r>    -4.9365     0.0000     8.0000 </r>
       <r>    -4.8446     0.0000     8.0000 </r>
       <r>    -4.7527     0.0000     8.0000 </r>
       <r>    -4.6608     0.0000     8.0000 </r>
       <r>    -4.5690     0.0000     8.0000 </r>
       <r>    -4.4771     0.0000     8.0000 </r>
       <r>    -4.3852     0.0000     8.0000 </r>
       <r>    -4.2934     0.0000     8.0000 </r>
       <r>    -4.2015     0.0000     8.0000 </r>
       <r>    -4.1096     0.0000     8.0000 </r>
       <r>    -4.0178     0.0000     8.0000 </r>
       <r>    -3.9259     0.0000     8.0000 </r>
       <r>    -3.8340     0.0000     8.0000 </r>
       <r>    -3.7421     0.0000     8.0000 </r>
       <r>    -3.6503     0.0000     8.0000 </r>
       <r>    -3.5584     0.0000     8.0000 </r>
       <r>    -3.4665     0.0000     8.0000 </r>
       <r>    -3.3747     0.0000     8.0000 </r>
       <r>    -3.2828     0.0000     8.0000 </r>
       <r>    -3.1909     0.0000     8.0000 </r>
       <r>    -3.0990     0.0000     8.0000 </r>
       <r>    -3.0072     0.0000     8.0000 </r>
       <r>    -2.9153     0.0000     8.0000 </r>
       <r>    -2.8234     0.0000     8.0000 </r>
       <r>    -2.7316     0.0000     8.0000 </r>
       <r>    -2.6397     0.0000     8.0000 </r>
       <r>    -2.5478     0.0000     8.0000 </r>
       <r>    -2.4560     0.0000     8.0000 </r>
       <r>    -2.3641     0.0000     8.0000 </r>
       <r>    -2.2722     0.0000     8.0000 </r>
       <r>    -2.1803     0.0000     8.0000 </r>
       <r>    -2.0885     0.0000     8.0000 </r>
       <r>    -1.9966     0.0000     8.0000 </r>
       <r>    -1.9047     0.0000     8.0000 </r>
       <r>    -1.8129     0.0000     8.0000 </r>
       <r>    -1.7210     0.0000     8.0000 </r>
       <r>    -1.6291     0.0000     8.0000 </r>
       <r>    -1.5372     0.0000     8.0000 </r>
       <r>    -1.4454     0.0000     8.0000 </r>
       <r>    -1.3535     0.0000     8.0000 </r>
       <r>    -1.2616     0.0000     8.0000 </r>
       <r>    -1.1698     0.0000     8.0000 </r>
       <r>    -1.0779     0.0000     8.0000 </r>
       <r>    -0.9860     0.0000     8.0000 </r>
       <r>    -0.8942     0.0000     8.0000 </r>
       <r>    -0.8023     0.0000     8.0000 </r>
       <r>    -0.7104     0.0000     8.0000 </r>
       <r>    -0.6185     0.0000     8.0000 </r>
       <r>    -0.5267     0.0000     8.0000 </r>
       <r>    -0.4348     0.0000     8.0000 </r>
       <r>    -0.3429     0.0051     8.0005 </r>
       <r>    -0.2511    21.7647    10.0000 </r>
       <r>    -0.1592     0.0000    10.0000 </r>
       <r>    -0.0673     0.0000    10.0000 </r>
       <r>     0.0246     0.0000    10.0000 </r>
       <r>     0.1164     0.0000    10.0000 </r>
       <r>     0.2083     0.0000    10.0000 </r>
       <r>     0.3002     0.0000    10.0000 </r>
       <r>     0.3920     0.0000    10.0000 </r>
       <r>     0.4839     0.0000    10.0000 </r>
       <r>     0.5758     0.0000    10.0000 </r>
       <r>     0.6676    21.7695    12.0000 </r>
       <r>     0.7595     0.0000    12.0000 </r>
       <r>     0.8514     0.0001    12.0000 </r>
       <r>     0.9433    43.5395    16.0000 </r>
       <r>     1.0351     0.0000    16.0000 </r>
       <r>     1.1270     0.0000    16.0000 </r>
       <r>     1.2189     0.0000    16.0000 </r>
       <r>     1.3107     0.0000    16.0000 </r>
       <r>     1.4026     0.0000    16.0000 </r>
       <r>     1.4945     0.0000    16.0000 </r>
       <r>     1.5863     0.0000    16.0000 </r>
       <r>     1.6782     0.0000    16.0000 </r>
       <r>     1.7701     0.0000    16.0000 </r>
       <r>     1.8620     0.0000    16.0000 </r>
       <r>     1.9538     0.0000    16.0000 </r>
       <r>     2.0457     0.0000    16.0000 </r>
       <r>     2.1376     0.0000    16.0000 </r>
      </set>
     </set>
    </array>
   </total>
  </dos>
 </calculation>
 <structure name="finalpos" >
  <crystal>
   <varray name="basis" >
    <v>      12.00000000       0.00000000       0.00000000 </v>
    <v>       0.00000000      12.00000000       0.00000000 </v>
    <v>       0.00000000       0.00000000      12.00000000 </v>
   </varray>
   <i name="volume">   1728.00000000 </i>
   <varray name="rec_basis" >
    <v>       0.08333333       0.00000000       0.00000000 </v>
    <v>       0.00000000       0.08333333       0.00000000 </v>
    <v>       0.00000000       0.00000000       0.08333333 </v>
   </varray>
  </crystal>
  <varray name="positions" >
   <v>       0.50000000       0.50000000       0.50000000 </v>
  </varray>
 </structure>
</modeling>
