   4   4   0   0
  0.1887258E+02  0.4226333E-09  0.4226333E-09  0.4226333E-09  0.5000000E-15
  1.000000000000000E-004
  CAR 
 unknown system                          
     36.23166637     -1.67696874  301      7.04156024      1.00000000
     -1.677  0.0000E+00  0.0000E+00
     -1.551  0.0000E+00  0.0000E+00
     -1.424  0.0000E+00  0.0000E+00
     -1.298  0.0000E+00  0.0000E+00
     -1.172  0.0000E+00  0.0000E+00
     -1.045  0.0000E+00  0.0000E+00
     -0.919  0.0000E+00  0.0000E+00
     -0.792 -0.1479E-31 -0.1869E-32
     -0.666 -0.4070E-23 -0.5143E-24
     -0.540 -0.4331E-16 -0.5472E-17
     -0.413 -0.1816E-10 -0.2295E-11
     -0.287 -0.2824E-06 -0.3569E-07
     -0.161 -0.1410E-03 -0.1785E-04
     -0.034 -0.7378E-03 -0.1111E-03
      0.092  0.2025E-01  0.2448E-02
      0.218  0.1332E+00  0.1928E-01
      0.345  0.2662E+00  0.5291E-01
      0.471  0.1769E+00  0.7526E-01
      0.598  0.2789E+00  0.1105E+00
      0.724  0.6724E+00  0.1955E+00
      0.850  0.2195E+00  0.2232E+00
      0.977  0.4075E+00  0.2747E+00
      1.103  0.6903E+00  0.3619E+00
      1.229  0.7813E+00  0.4606E+00
      1.356  0.1839E+01  0.6931E+00
      1.482  0.6936E+01  0.1569E+01
      1.608  0.9925E+01  0.2824E+01
      1.735  0.1558E+02  0.4792E+01
      1.861  0.1635E+02  0.6858E+01
      1.988  0.1384E+02  0.8607E+01
      2.114  0.1014E+02  0.9888E+01
      2.240  0.9898E+01  0.1114E+02
      2.367  0.1374E+02  0.1288E+02
      2.493  0.1106E+02  0.1427E+02
      2.619  0.1309E+02  0.1593E+02
      2.746  0.1469E+02  0.1778E+02
      2.872  0.1958E+02  0.2026E+02
      2.998  0.1771E+02  0.2249E+02
      3.125  0.1284E+02  0.2412E+02
      3.251  0.1222E+02  0.2566E+02
      3.378  0.1403E+02  0.2743E+02
      3.504  0.1554E+02  0.2940E+02
      3.630  0.1488E+02  0.3128E+02
      3.757  0.1283E+02  0.3290E+02
      3.883  0.1320E+02  0.3457E+02
      4.009  0.1230E+02  0.3612E+02
      4.136  0.1919E+02  0.3854E+02
      4.262  0.1707E+02  0.4070E+02
      4.388  0.5888E+01  0.4145E+02
      4.515  0.1966E+00  0.4147E+02
      4.641  0.2138E+00  0.4150E+02
      4.767  0.4003E+00  0.4155E+02
      4.894  0.2176E+01  0.4182E+02
      5.020  0.1053E+01  0.4196E+02
      5.147  0.1209E+01  0.4211E+02
      5.273  0.6227E-01  0.4212E+02
      5.399  0.5853E+00  0.4219E+02
      5.526  0.5019E+00  0.4225E+02
      5.652  0.1526E+01  0.4245E+02
      5.778  0.1794E+01  0.4267E+02
      5.905  0.1148E+01  0.4282E+02
      6.031  0.5226E+00  0.4288E+02
      6.157  0.5200E+00  0.4295E+02
      6.284  0.1243E+01  0.4311E+02
      6.410  0.3220E+00  0.4315E+02
      6.537  0.6127E+00  0.4323E+02
      6.663  0.1880E+01  0.4346E+02
      6.789  0.9718E+00  0.4359E+02
      6.916  0.1825E+01  0.4382E+02
      7.042  0.1455E+01  0.4400E+02
      7.168  0.7808E+00  0.4410E+02
      7.295  0.8982E+00  0.4421E+02
      7.421  0.1857E+00  0.4424E+02
      7.547  0.5547E+00  0.4431E+02
      7.674  0.2255E+01  0.4459E+02
      7.800  0.1853E+01  0.4483E+02
      7.927  0.7131E+00  0.4492E+02
      8.053  0.1110E+01  0.4506E+02
      8.179  0.1568E+01  0.4525E+02
      8.306  0.8263E+00  0.4536E+02
      8.432  0.9956E+00  0.4548E+02
      8.558  0.7539E+00  0.4558E+02
      8.685  0.1535E-01  0.4558E+02
      8.811  0.1547E+01  0.4578E+02
      8.937  0.2425E+01  0.4608E+02
      9.064  0.3881E+00  0.4613E+02
      9.190  0.1447E+01  0.4631E+02
      9.317  0.1514E+01  0.4651E+02
      9.443  0.6834E+00  0.4659E+02
      9.569  0.8404E+00  0.4670E+02
      9.696  0.3562E+00  0.4674E+02
      9.822  0.6058E+00  0.4682E+02
      9.948  0.6463E+00  0.4690E+02
     10.075  0.1757E+01  0.4712E+02
     10.201  0.5750E+00  0.4720E+02
     10.327  0.1432E+01  0.4738E+02
     10.454  0.1960E+01  0.4763E+02
     10.580  0.1169E+01  0.4777E+02
     10.707  0.7150E+00  0.4786E+02
     10.833  0.1428E+01  0.4804E+02
     10.959  0.1726E+01  0.4826E+02
     11.086  0.1828E+01  0.4849E+02
     11.212  0.7868E+00  0.4859E+02
     11.338  0.7915E+00  0.4869E+02
     11.465  0.2051E+01  0.4895E+02
     11.591  0.2181E+01  0.4923E+02
     11.717  0.5761E+00  0.4930E+02
     11.844  0.2523E+00  0.4933E+02
     11.970  0.1118E+01  0.4947E+02
     12.097  0.2429E+01  0.4978E+02
     12.223  0.1272E+01  0.4994E+02
     12.349  0.7729E+00  0.5004E+02
     12.476  0.1606E+01  0.5024E+02
     12.602  0.6549E+00  0.5032E+02
     12.728  0.1074E+01  0.5046E+02
     12.855  0.1338E+01  0.5063E+02
     12.981  0.4976E+00  0.5069E+02
     13.107  0.1933E+01  0.5094E+02
     13.234  0.2231E+01  0.5122E+02
     13.360  0.1160E+01  0.5136E+02
     13.486  0.9942E+00  0.5149E+02
     13.613  0.2750E+01  0.5184E+02
     13.739  0.1333E+01  0.5201E+02
     13.866  0.4465E+00  0.5206E+02
     13.992  0.1779E+01  0.5229E+02
     14.118  0.3112E+01  0.5268E+02
     14.245  0.1784E+01  0.5291E+02
     14.371  0.1363E+01  0.5308E+02
     14.497  0.8997E+00  0.5319E+02
     14.624  0.1300E+01  0.5336E+02
     14.750  0.1959E+01  0.5360E+02
     14.876  0.3765E+01  0.5408E+02
     15.003  0.1101E+01  0.5422E+02
     15.129  0.2377E+01  0.5452E+02
     15.256  0.1855E+01  0.5475E+02
     15.382  0.9639E+00  0.5488E+02
     15.508  0.7270E+00  0.5497E+02
     15.635  0.2799E+01  0.5532E+02
     15.761  0.8589E+00  0.5543E+02
     15.887  0.1863E+01  0.5566E+02
     16.014  0.1764E+01  0.5589E+02
     16.140  0.3308E+01  0.5631E+02
     16.266  0.2332E+01  0.5660E+02
     16.393  0.1847E+01  0.5683E+02
     16.519  0.1196E+01  0.5698E+02
     16.646  0.1909E+01  0.5723E+02
     16.772  0.8507E+00  0.5733E+02
     16.898  0.3221E+01  0.5774E+02
     17.025  0.3653E+01  0.5820E+02
     17.151  0.2544E+01  0.5852E+02
     17.277  0.1399E+01  0.5870E+02
     17.404  0.7650E+00  0.5880E+02
     17.530  0.1987E+01  0.5905E+02
     17.656  0.3900E+01  0.5954E+02
     17.783  0.3665E+01  0.6000E+02
     17.909  0.1460E+01  0.6019E+02
     18.036  0.1582E+01  0.6039E+02
     18.162  0.1108E+01  0.6053E+02
     18.288  0.3135E+01  0.6092E+02
     18.415  0.1908E+01  0.6117E+02
     18.541  0.7199E+00  0.6126E+02
     18.667  0.1661E+01  0.6147E+02
     18.794  0.3132E+01  0.6186E+02
     18.920  0.3176E+01  0.6226E+02
     19.046  0.3404E+01  0.6269E+02
     19.173  0.2088E+01  0.6296E+02
     19.299  0.1562E+01  0.6315E+02
     19.426  0.3156E+01  0.6355E+02
     19.552  0.1622E+01  0.6376E+02
     19.678  0.1016E+00  0.6377E+02
     19.805  0.1847E+01  0.6401E+02
     19.931  0.3301E+01  0.6442E+02
     20.057  0.2240E+01  0.6471E+02
     20.184  0.1199E+01  0.6486E+02
     20.310  0.1065E+01  0.6499E+02
     20.436  0.1374E+01  0.6516E+02
     20.563  0.3102E+01  0.6556E+02
     20.689  0.1654E+01  0.6577E+02
     20.815  0.1915E+01  0.6601E+02
     20.942  0.1457E+01  0.6619E+02
     21.068  0.2082E+01  0.6646E+02
     21.195  0.1404E+01  0.6663E+02
     21.321  0.2232E+01  0.6691E+02
     21.447  0.8465E+00  0.6702E+02
     21.574  0.2630E+01  0.6735E+02
     21.700  0.3321E+01  0.6777E+02
     21.826  0.1878E+01  0.6801E+02
     21.953  0.3684E+00  0.6806E+02
     22.079  0.1725E+01  0.6828E+02
     22.205  0.2473E+01  0.6859E+02
     22.332  0.6366E+00  0.6867E+02
     22.458  0.2383E+01  0.6897E+02
     22.585  0.1553E+01  0.6917E+02
     22.711  0.1331E+01  0.6933E+02
     22.837  0.2733E+01  0.6968E+02
     22.964  0.4013E+01  0.7019E+02
     23.090  0.4115E+01  0.7071E+02
     23.216  0.3642E+01  0.7117E+02
     23.343  0.2011E+01  0.7142E+02
     23.469  0.3107E+01  0.7181E+02
     23.595  0.4100E+01  0.7233E+02
     23.722  0.8908E+01  0.7346E+02
     23.848  0.5045E+01  0.7409E+02
     23.975  0.2854E+01  0.7446E+02
     24.101  0.3861E+01  0.7494E+02
     24.227  0.1014E+01  0.7507E+02
     24.354  0.1405E+01  0.7525E+02
     24.480  0.1513E+01  0.7544E+02
     24.606  0.3031E+01  0.7582E+02
     24.733  0.1232E+01  0.7598E+02
     24.859  0.4894E+01  0.7660E+02
     24.985  0.2982E+01  0.7697E+02
     25.112  0.5767E+01  0.7770E+02
     25.238  0.2718E+01  0.7805E+02
     25.365  0.2608E+01  0.7838E+02
     25.491  0.3385E+01  0.7880E+02
     25.617  0.1358E+01  0.7898E+02
     25.744  0.1479E+01  0.7916E+02
     25.870  0.1764E+01  0.7938E+02
     25.996  0.1075E+01  0.7952E+02
     26.123  0.6911E+00  0.7961E+02
     26.249  0.2159E+01  0.7988E+02
     26.375  0.1538E+01  0.8008E+02
     26.502  0.2151E+01  0.8035E+02
     26.628  0.1168E+01  0.8049E+02
     26.755  0.1290E+01  0.8066E+02
     26.881  0.3388E+01  0.8109E+02
     27.007  0.2268E+01  0.8137E+02
     27.134  0.1120E+01  0.8151E+02
     27.260  0.1951E+01  0.8176E+02
     27.386  0.6888E+00  0.8185E+02
     27.513  0.1373E+01  0.8202E+02
     27.639  0.2230E+01  0.8230E+02
     27.765  0.3034E+00  0.8234E+02
     27.892  0.1472E+01  0.8253E+02
     28.018  0.2967E+01  0.8290E+02
     28.144  0.8932E+00  0.8301E+02
     28.271  0.5091E+00  0.8308E+02
     28.397  0.3052E+01  0.8346E+02
     28.524  0.1679E+01  0.8368E+02
     28.650  0.3211E+01  0.8408E+02
     28.776  0.5379E+01  0.8476E+02
     28.903  0.3002E+01  0.8514E+02
     29.029  0.4547E+01  0.8572E+02
     29.155  0.3404E+01  0.8615E+02
     29.282  0.1958E+01  0.8639E+02
     29.408  0.2977E+01  0.8677E+02
     29.534  0.2175E+01  0.8704E+02
     29.661  0.2510E+01  0.8736E+02
     29.787  0.3084E+01  0.8775E+02
     29.914  0.2893E+01  0.8812E+02
     30.040  0.1756E+01  0.8834E+02
     30.166  0.5080E+01  0.8898E+02
     30.293  0.1443E+01  0.8916E+02
     30.419  0.1383E+01  0.8934E+02
     30.545  0.1378E+01  0.8951E+02
     30.672  0.2380E+01  0.8981E+02
     30.798  0.5100E+01  0.9046E+02
     30.924  0.3034E+01  0.9084E+02
     31.051  0.2832E+01  0.9120E+02
     31.177  0.3587E+01  0.9165E+02
     31.304  0.3993E+01  0.9216E+02
     31.430  0.2312E+01  0.9245E+02
     31.556  0.3170E+01  0.9285E+02
     31.683  0.3208E+01  0.9325E+02
     31.809  0.3648E+01  0.9372E+02
     31.935  0.3542E+01  0.9416E+02
     32.062  0.3253E+01  0.9457E+02
     32.188  0.2970E+01  0.9495E+02
     32.314  0.2008E+01  0.9520E+02
     32.441  0.8671E+00  0.9531E+02
     32.567  0.1605E+01  0.9552E+02
     32.694  0.7761E+00  0.9561E+02
     32.820 -0.5215E-02  0.9561E+02
     32.946  0.2961E-01  0.9562E+02
     33.073  0.1069E+01  0.9575E+02
     33.199  0.3255E+00  0.9579E+02
     33.325  0.8020E-01  0.9580E+02
     33.452  0.1179E+00  0.9582E+02
     33.578  0.6053E+00  0.9589E+02
     33.704  0.6626E+00  0.9598E+02
     33.831  0.1315E-01  0.9598E+02
     33.957  0.1402E+00  0.9600E+02
     34.084  0.9061E-03  0.9600E+02
     34.210 -0.9683E-03  0.9600E+02
     34.336 -0.3806E-03  0.9600E+02
     34.463  0.3702E-02  0.9600E+02
     34.589  0.1820E-01  0.9600E+02
     34.715  0.3319E-03  0.9600E+02
     34.842 -0.1383E-03  0.9600E+02
     34.968 -0.2822E-06  0.9600E+02
     35.094 -0.1816E-10  0.9600E+02
     35.221 -0.4339E-16  0.9600E+02
     35.347  0.0000E+00  0.9600E+02
     35.473  0.0000E+00  0.9600E+02
     35.600  0.0000E+00  0.9600E+02
     35.726  0.0000E+00  0.9600E+02
     35.853  0.0000E+00  0.9600E+02
     35.979  0.0000E+00  0.9600E+02
     36.105  0.0000E+00  0.9600E+02
     36.232  0.0000E+00  0.9600E+02
