    4    4    1    1
  0.1887258E+02  0.4226333E-09  0.4226333E-09  0.4226333E-09  0.5000000E-15
  1.000000000000000E-004
  CAR 
 unknown system                          
     44     35     48
 
  0.0000000E+00  0.0000000E+00  0.0000000E+00  0.1371742E-02
    1        0.046151   1.000000
    2        1.278165   1.000000
    3        1.278165   1.000000
    4        1.278165   1.000000
    5        1.383402   1.000000
    6        1.383402   1.000000
    7        1.383402   1.000000
    8        2.636085   1.000000
    9        2.636085   1.000000
   10        2.636085   1.000000
   11        3.499032   1.000000
   12        3.499032   1.000000
   13        4.136622   1.000000
   14        4.136622   1.000000
   15        4.136622   1.000000
   16        4.337260   1.000000
   17        4.337260   1.000000
   18        4.337260   1.000000
   19        4.337260   1.000000
   20        4.337260   1.000000
   21        4.337260   1.000000
   22        8.799172  -0.000000
   23        8.799172  -0.000000
   24        8.799172  -0.000000
   25       13.087809   0.000000
   26       13.087809   0.000000
   27       13.087809   0.000000
   28       17.253002   0.000000
   29       17.253002   0.000000
   30       17.253002   0.000000
   31       17.253002   0.000000
   32       17.253002   0.000000
   33       17.253002   0.000000
   34       22.870636   0.000000
   35       23.076180   0.000000
   36       23.076180   0.000000
   37       23.076180   0.000000
   38       23.123624   0.000000
   39       23.123624   0.000000
   40       23.123624   0.000000
   41       25.845895   0.000000
   42       25.845895   0.000000
   43       25.845895   0.000000
   44       30.429888   0.000000
   45       30.983304   0.000000
   46       30.983304   0.000000
   47       30.983304   0.000000
   48       34.508547   0.000000
 
  0.1111111E+00  0.0000000E+00  0.0000000E+00  0.8230453E-02
    1        0.165119   1.000000
    2        1.323223   1.000000
    3        1.337131   1.000000
    4        1.337131   1.000000
    5        1.417629   1.000000
    6        1.436210   1.000000
    7        1.436210   1.000000
    8        2.594059   1.000000
    9        2.675825   1.000000
   10        2.675825   1.000000
   11        3.457611   1.000000
   12        3.517356   1.000000
   13        4.081288   1.000000
   14        4.081288   1.000000
   15        4.116461   1.000000
   16        4.151066   1.000000
   17        4.151066   1.000000
   18        4.269319   1.000000
   19        4.269319   1.000000
   20        4.337379   1.000000
   21        4.337379   1.000000
   22        8.004293  -0.000000
   23        9.088017  -0.000000
   24        9.088017  -0.000000
   25       13.106817   0.000000
   26       13.106817   0.000000
   27       14.075389   0.000000
   28       16.842517   0.000000
   29       16.842517   0.000000
   30       16.852871   0.000000
   31       16.852871   0.000000
   32       17.457613   0.000000
   33       17.457613   0.000000
   34       22.876781   0.000000
   35       23.065890   0.000000
   36       23.115033   0.000000
   37       23.575938   0.000000
   38       23.575938   0.000000
   39       23.762920   0.000000
   40       23.762920   0.000000
   41       25.373782   0.000000
   42       25.455830   0.000000
   43       25.455830   0.000000
   44       30.907888   0.000000
   45       30.907888   0.000000
   46       31.057941   0.000000
   47       31.210440   0.000000
   48       33.275183   0.000000
 
  0.2222222E+00  0.0000000E+00  0.0000000E+00  0.8230453E-02
    1        0.510514   1.000000
    2        1.447903   1.000000
    3        1.500051   1.000000
    4        1.500051   1.000000
    5        1.517277   1.000000
    6        1.594027   1.000000
    7        1.594027   1.000000
    8        2.474994   1.000000
    9        2.793386   1.000000
   10        2.793386   1.000000
   11        3.349528   1.000000
   12        3.570424   1.000000
   13        3.705197   1.000000
   14        3.705197   1.000000
   15        3.926618   1.000000
   16        3.926618   1.000000
   17        4.058697   1.000000
   18        4.082107   1.000000
   19        4.082107   1.000000
   20        4.337633   1.000000
   21        4.337633   1.000000
   22        6.549598   1.000000
   23        9.838785   0.000000
   24        9.838785   0.000000
   25       13.167214   0.000000
   26       13.167214   0.000000
   27       15.856351   0.000000
   28       15.856351   0.000000
   29       16.042124   0.000000
   30       16.042124   0.000000
   31       16.107944   0.000000
   32       18.051226   0.000000
   33       18.051226   0.000000
   34       22.895290   0.000000
   35       23.061108   0.000000
   36       23.090547   0.000000
   37       24.413736   0.000000
   38       24.413736   0.000000
   39       24.481196   0.000000
   40       24.698342   0.000000
   41       24.698342   0.000000
   42       25.419777   0.000000
   43       25.419777   0.000000
   44       30.084927   0.000000
   45       31.054084   0.000000
   46       31.054084   0.000000
   47       31.882933   0.000000
   48       33.408292   0.000000
 
  0.3333333E+00  0.0000000E+00  0.0000000E+00  0.8230453E-02
    1        1.030210   1.000000
    2        1.613349   1.000000
    3        1.672917   1.000000
    4        1.719281   1.000000
    5        1.719281   1.000000
    6        1.854868   1.000000
    7        1.854868   1.000000
    8        2.297210   1.000000
    9        2.982446   1.000000
   10        2.982446   1.000000
   11        3.174486   1.000000
   12        3.174486   1.000000
   13        3.240191   1.000000
   14        3.652586   1.000000
   15        3.715722   1.000000
   16        3.715722   1.000000
   17        3.815984   1.000000
   18        3.815984   1.000000
   19        3.970952   1.000000
   20        4.337941   1.000000
   21        4.337941   1.000000
   22        5.127403   1.000000
   23       10.867990   0.000000
   24       10.867990   0.000000
   25       13.270784   0.000000
   26       13.270784   0.000000
   27       14.628015   0.000000
   28       14.628015   0.000000
   29       15.285208   0.000000
   30       15.285208   0.000000
   31       18.488866   0.000000
   32       18.981318   0.000000
   33       18.981318   0.000000
   34       22.925540   0.000000
   35       23.026564   0.000000
   36       23.026564   0.000000
   37       23.053610   0.000000
   38       23.140234   0.000000
   39       23.624947   0.000000
   40       26.186189   0.000000
   41       26.186189   0.000000
   42       27.360319   0.000000
   43       27.525811   0.000000
   44       27.525811   0.000000
   45       31.650573   0.000000
   46       31.650573   0.000000
   47       31.803644   0.000000
   48       31.803645   0.000000
 
  0.4444444E+00  0.0000000E+00  0.0000000E+00  0.8230453E-02
    1        1.543215   1.000000
    2        1.720351   1.000000
    3        1.869613   1.000000
    4        1.894546   1.000000
    5        1.894546   1.000000
    6        2.086221   1.000000
    7        2.214158   1.000000
    8        2.214158   1.000000
    9        2.661350   1.000000
   10        2.661350   1.000000
   11        3.230677   1.000000
   12        3.230677   1.000000
   13        3.331037   1.000000
   14        3.518595   1.000000
   15        3.518595   1.000000
   16        3.545004   1.000000
   17        3.545004   1.000000
   18        3.754704   1.000000
   19        3.865337   1.000000
   20        3.972974   1.000000
   21        4.338017   1.000000
   22        4.338017   1.000000
   23       12.056910   0.000000
   24       12.056910   0.000000
   25       13.331774   0.000000
   26       13.331774   0.000000
   27       13.380097   0.000000
   28       13.380097   0.000000
   29       14.816459   0.000000
   30       14.816459   0.000000
   31       20.178202   0.000000
   32       20.178202   0.000000
   33       20.933446   0.000000
   34       21.561052   0.000000
   35       21.561052   0.000000
   36       22.727350   0.000000
   37       22.965213   0.000000
   38       23.009836   0.000000
   39       23.489266   0.000000
   40       24.820810   0.000000
   41       27.903188   0.000000
   42       27.903188   0.000000
   43       29.578411   0.000000
   44       29.578411   0.000000
   45       29.794246   0.000000
   46       29.794246   0.000000
   47       32.652773   0.000000
   48       32.652774   0.000000
 
  0.1111111E+00  0.1111111E+00  0.0000000E+00  0.1646091E-01
    1        0.281229   1.000000
    2        1.376896   1.000000
    3        1.382964   1.000000
    4        1.382964   1.000000
    5        1.469176   1.000000
    6        1.469176   1.000000
    7        1.504216   1.000000
    8        2.579943   1.000000
    9        2.689864   1.000000
   10        2.710796   1.000000
   11        3.447261   1.000000
   12        3.511548   1.000000
   13        3.997345   1.000000
   14        3.997345   1.000000
   15        4.029772   1.000000
   16        4.030574   1.000000
   17        4.146125   1.000000
   18        4.146125   1.000000
   19        4.269124   1.000000
   20        4.269124   1.000000
   21        4.289792   1.000000
   22        8.271971  -0.000000
   23        8.271971  -0.000000
   24        9.359164  -0.000000
   25       13.122912   0.000000
   26       14.112795   0.000000
   27       14.112795   0.000000
   28       15.622560   0.000000
   29       17.036292   0.000000
   30       17.036292   0.000000
   31       17.039979   0.000000
   32       17.039979   0.000000
   33       17.645836   0.000000
   34       22.774421   0.000000
   35       23.056837   0.000000
   36       23.580536   0.000000
   37       23.580536   0.000000
   38       23.768014   0.000000
   39       23.768014   0.000000
   40       24.185734   0.000000
   41       25.040042   0.000000
   42       25.266282   0.000000
   43       26.272135   0.000000
   44       29.656480   0.000000
   45       30.961084   0.000000
   46       31.253439   0.000000
   47       32.542248   0.000000
   48       33.034143   0.000000
 
  0.2222222E+00  0.1111111E+00  0.0000000E+00  0.3292181E-01
    1        0.617513   1.000000
    2        1.503534   1.000000
    3        1.509897   1.000000
    4        1.548045   1.000000
    5        1.565094   1.000000
    6        1.623156   1.000000
    7        1.686659   1.000000
    8        2.479128   1.000000
    9        2.794502   1.000000
   10        2.809225   1.000000
   11        3.360416   1.000000
   12        3.568787   1.000000
   13        3.588565   1.000000
   14        3.643184   1.000000
   15        3.799633   1.000000
   16        3.885393   1.000000
   17        3.961721   1.000000
   18        4.080923   1.000000
   19        4.092443   1.000000
   20        4.266518   1.000000
   21        4.268265   1.000000
   22        6.816222   1.003243
   23        8.946120  -0.000000
   24       10.076530   0.000000
   25       13.148450   0.000000
   26       14.217608   0.000000
   27       14.393241   0.000000
   28       16.035661   0.000000
   29       16.133336   0.000000
   30       16.223739   0.000000
   31       17.559260   0.000000
   32       17.585900   0.000000
   33       17.594535   0.000000
   34       22.423831   0.000000
   35       22.924715   0.000000
   36       23.597776   0.000000
   37       23.622826   0.000000
   38       23.814514   0.000000
   39       24.724456   0.000000
   40       24.768515   0.000000
   41       25.428354   0.000000
   42       26.009423   0.000000
   43       26.808149   0.000000
   44       29.088072   0.000000
   45       31.038727   0.000000
   46       31.154285   0.000000
   47       31.871661   0.000000
   48       33.569741   0.000000
 
  0.3333333E+00  0.1111111E+00  0.0000000E+00  0.3292181E-01
    1        1.121298   1.000000
    2        1.680061   1.000000
    3        1.708688   1.000000
    4        1.714972   1.000000
    5        1.770418   1.000000
    6        1.877195   1.000000
    7        1.942150   1.000000
    8        2.312107   1.000000
    9        2.922612   1.000000
   10        2.980664   1.000000
   11        3.085197   1.000000
   12        3.147441   1.000000
   13        3.311646   1.000000
   14        3.524038   1.000000
   15        3.676161   1.000000
   16        3.687807   1.000000
   17        3.741610   1.000000
   18        3.813968   1.000000
   19        3.989462   1.000000
   20        4.262698   1.000000
   21        4.266811   1.000000
   22        5.425069   1.000000
   23        9.832349   0.000000
   24       11.077216   0.000000
   25       12.819831   0.000000
   26       13.676826   0.000000
   27       14.307487   0.000000
   28       14.802088   0.000000
   29       15.584799   0.000000
   30       16.877840   0.000000
   31       18.232987   0.000000
   32       18.454933   0.000000
   33       18.668751   0.000000
   34       21.706427   0.000000
   35       21.716555   0.000000
   36       23.638782   0.000000
   37       23.993438   0.000000
   38       24.238920   0.000000
   39       24.837768   0.000000
   40       25.048239   0.000000
   41       26.229333   0.000000
   42       27.423900   0.000000
   43       27.560935   0.000000
   44       28.832494   0.000000
   45       30.826520   0.000000
   46       31.565455   0.000000
   47       31.649451   0.000000
   48       31.880339   0.000000
 
  0.4444444E+00  0.1111111E+00  0.0000000E+00  0.3292181E-01
    1        1.620231   1.000000
    2        1.793672   1.000000
    3        1.903773   1.000000
    4        1.918579   1.000000
    5        1.945477   1.000000
    6        2.111092   1.000000
    7        2.225993   1.000000
    8        2.236885   1.000000
    9        2.614375   1.000000
   10        2.657598   1.000000
   11        2.983910   1.000000
   12        3.207388   1.000000
   13        3.227974   1.000000
   14        3.515936   1.000000
   15        3.530186   1.000000
   16        3.533260   1.000000
   17        3.554663   1.000000
   18        3.834878   1.000000
   19        3.842686   1.000000
   20        4.263394   1.000000
   21        4.265063   1.000000
   22        4.346235   1.000000
   23       10.815848   0.000000
   24       11.842159   0.000000
   25       12.246441   0.000000
   26       13.509638   0.000000
   27       13.804163   0.000000
   28       14.124685   0.000000
   29       15.579908   0.000000
   30       16.119476   0.000000
   31       19.373135   0.000000
   32       19.525661   0.000000
   33       20.520687   0.000000
   34       20.677933   0.000000
   35       21.010158   0.000000
   36       23.227543   0.000000
   37       23.725629   0.000000
   38       23.900857   0.000000
   39       24.468833   0.000000
   40       25.573964   0.000000
   41       26.801252   0.000000
   42       27.959604   0.000000
   43       28.309706   0.000000
   44       29.862526   0.000000
   45       30.846440   0.000000
   46       30.920622   0.000000
   47       31.757390   0.000000
   48       32.544843   0.000000
 
  0.2222222E+00  0.2222222E+00  0.0000000E+00  0.1646091E-01
    1        0.924113   1.000000
    2        1.577041   1.000000
    3        1.681987   1.000000
    4        1.681987   1.000000
    5        1.707673   1.000000
    6        1.707673   1.000000
    7        1.888400   1.000000
    8        2.448624   1.000000
    9        2.844288   1.000000
   10        2.854712   1.000000
   11        3.323964   1.000000
   12        3.352968   1.000000
   13        3.352968   1.000000
   14        3.420743   1.000000
   15        3.649134   1.000000
   16        3.767564   1.000000
   17        3.962666   1.000000
   18        3.962666   1.000000
   19        4.077545   1.000000
   20        4.077545   1.000000
   21        4.151316   1.000000
   22        7.454313  -0.000000
   23        7.454313  -0.000000
   24       10.725491   0.000000
   25       12.590277   0.000000
   26       13.579423   0.000000
   27       16.009613   0.000000
   28       16.009613   0.000000
   29       16.549577   0.000000
   30       16.549577   0.000000
   31       16.926473   0.000000
   32       16.926473   0.000000
   33       18.758069   0.000000
   34       21.515162   0.000000
   35       21.518450   0.000000
   36       22.960655   0.000000
   37       24.804991   0.000000
   38       24.804991   0.000000
   39       25.249715   0.000000
   40       25.489686   0.000000
   41       25.489686   0.000000
   42       27.442541   0.000000
   43       27.491707   0.000000
   44       28.693041   0.000000
   45       30.413560   0.000000
   46       30.926793   0.000000
   47       32.333218   0.000000
   48       32.994081   0.000000
 
  0.3333333E+00  0.2222222E+00  0.0000000E+00  0.3292181E-01
    1        1.374287   1.000000
    2        1.739238   1.000000
    3        1.838917   1.000000
    4        1.866723   1.000000
    5        1.915973   1.000000
    6        1.941284   1.000000
    7        2.132568   1.000000
    8        2.338521   1.000000
    9        2.870661   1.000000
   10        2.886123   1.000000
   11        2.995604   1.000000
   12        3.051977   1.000000
   13        3.075619   1.000000
   14        3.300266   1.000000
   15        3.603165   1.000000
   16        3.754428   1.000000
   17        3.808862   1.000000
   18        3.864053   1.000000
   19        3.879406   1.000000
   20        4.073244   1.000000
   21        4.092216   1.000000
   22        6.063841   1.000000
   23        8.271488  -0.000000
   24       11.368531   0.000000
   25       11.662063   0.000000
   26       13.699269   0.000000
   27       15.300543   0.000000
   28       15.314477   0.000000
   29       17.033445   0.000000
   30       17.106306   0.000000
   31       17.335525   0.000000
   32       18.836972   0.000000
   33       18.848284   0.000000
   34       20.237952   0.000000
   35       20.479774   0.000000
   36       23.684695   0.000000
   37       24.943882   0.000000
   38       25.439520   0.000000
   39       25.644759   0.000000
   40       25.699687   0.000000
   41       26.356779   0.000000
   42       27.175800   0.000000
   43       28.372742   0.000000
   44       29.185735   0.000000
   45       30.741018   0.000000
   46       31.199135   0.000000
   47       31.324549   0.000000
   48       32.112621   0.000000
 
  0.4444444E+00  0.2222222E+00  0.0000000E+00  0.3292181E-01
    1        1.823980   1.000000
    2        1.967101   1.000000
    3        1.997625   1.000000
    4        2.002365   1.000000
    5        2.087560   1.000000
    6        2.177772   1.000000
    7        2.257815   1.000000
    8        2.330357   1.000000
    9        2.508823   1.000000
   10        2.639981   1.000000
   11        2.782771   1.000000
   12        2.826166   1.000000
   13        3.228829   1.000000
   14        3.469437   1.000000
   15        3.485400   1.000000
   16        3.511606   1.000000
   17        3.549187   1.000000
   18        3.707541   1.000000
   19        4.070205   1.000000
   20        4.073057   1.000000
   21        4.249945   1.000000
   22        4.961384   1.000000
   23        9.195824  -0.000000
   24       10.222089   0.000000
   25       12.783820   0.000000
   26       14.017632   0.000000
   27       14.048946   0.000000
   28       14.590609   0.000000
   29       17.534587   0.000000
   30       18.041931   0.000000
   31       18.209119   0.000000
   32       18.310762   0.000000
   33       19.083399   0.000000
   34       19.386836   0.000000
   35       21.217218   0.000000
   36       23.557876   0.000000
   37       25.136367   0.000000
   38       25.339524   0.000000
   39       25.342050   0.000000
   40       26.193246   0.000000
   41       27.023066   0.000000
   42       27.123382   0.000000
   43       28.123033   0.000000
   44       30.061148   0.000000
   45       30.115183   0.000000
   46       31.176690   0.000000
   47       31.765826   0.000000
   48       32.077850   0.000000
 
  0.3333333E+00  0.3333333E+00  0.0000000E+00  0.1646091E-01
    1        1.720971   1.000000
    2        1.841389   1.000000
    3        2.038185   1.000000
    4        2.038185   1.000000
    5        2.127645   1.000000
    6        2.127645   1.000000
    7        2.329663   1.000000
    8        2.358475   1.000000
    9        2.660954   1.000000
   10        2.660954   1.000000
   11        2.861104   1.000000
   12        2.862945   1.000000
   13        3.079155   1.000000
   14        3.203563   1.000000
   15        3.473437   1.000000
   16        3.684090   1.000000
   17        3.684090   1.000000
   18        3.805096   1.000000
   19        3.805096   1.000000
   20        3.934418   1.000000
   21        4.246338   1.000000
   22        6.847059   1.009510
   23        6.847059   1.009510
   24        9.982500   0.000000
   25       12.531220   0.000000
   26       13.976331   0.000000
   27       16.004364   0.000000
   28       16.004364   0.000000
   29       16.064100   0.000000
   30       16.064100   0.000000
   31       18.926471   0.000000
   32       19.235048   0.000000
   33       19.235048   0.000000
   34       19.271463   0.000000
   35       20.442490   0.000000
   36       22.952468   0.000000
   37       25.419541   0.000000
   38       26.395675   0.000000
   39       26.555305   0.000000
   40       26.555305   0.000000
   41       26.912831   0.000000
   42       26.912831   0.000000
   43       27.553354   0.000000
   44       29.536477   0.000000
   45       30.964710   0.000000
   46       30.993306   0.000000
   47       30.993306   0.000000
   48       32.482026   0.000000
 
  0.4444444E+00  0.3333333E+00  0.0000000E+00  0.3292181E-01
    1        2.021031   1.000000
    2        2.053867   1.000000
    3        2.152401   1.000000
    4        2.257225   1.000000
    5        2.260212   1.000000
    6        2.265925   1.000000
    7        2.298333   1.000000
    8        2.442596   1.000000
    9        2.507247   1.000000
   10        2.539390   1.000000
   11        2.589978   1.000000
   12        2.728853   1.000000
   13        3.260863   1.000000
   14        3.292349   1.000000
   15        3.380692   1.000000
   16        3.472624   1.000000
   17        3.513280   1.000000
   18        3.517494   1.000000
   19        3.811760   1.000000
   20        3.845822   1.000000
   21        4.825046   1.000000
   22        5.681498   1.000000
   23        7.744664  -0.000000
   24        8.778733  -0.000000
   25       13.597863   0.000000
   26       14.436817   0.000000
   27       14.794616   0.000000
   28       15.106736   0.000000
   29       16.813655   0.000000
   30       17.021720   0.000000
   31       17.786183   0.000000
   32       18.107867   0.000000
   33       19.798767   0.000000
   34       20.451176   0.000000
   35       21.585447   0.000000
   36       23.845062   0.000000
   37       24.067052   0.000000
   38       25.928824   0.000000
   39       26.763425   0.000000
   40       26.769612   0.000000
   41       26.823132   0.000000
   42       26.845528   0.000000
   43       28.360167   0.000000
   44       30.303141   0.000000
   45       30.337122   0.000000
   46       30.688371   0.000000
   47       31.445672   0.000000
   48       32.295741   0.000000
 
  0.4444444E+00  0.4444444E+00  0.0000000E+00  0.1646091E-01
    1        2.106400   1.000000
    2        2.180646   1.000000
    3        2.245216   1.000000
    4        2.245216   1.000000
    5        2.318459   1.000000
    6        2.327273   1.000000
    7        2.327273   1.000000
    8        2.485316   1.000000
    9        2.616767   1.000000
   10        2.616767   1.000000
   11        2.679168   1.000000
   12        2.780223   1.000000
   13        3.164736   1.000000
   14        3.254372   1.000000
   15        3.306583   1.000000
   16        3.306583   1.000000
   17        3.363866   1.000000
   18        3.556916   1.000000
   19        3.556916   1.000000
   20        3.661288   1.000000
   21        5.566787   1.000000
   22        6.529880   1.000000
   23        6.529880   1.000000
   24        7.550350  -0.000000
   25       14.614311   0.000000
   26       15.011323   0.000000
   27       15.772099   0.000000
   28       15.772099   0.000000
   29       15.798856   0.000000
   30       15.798856   0.000000
   31       16.689343   0.000000
   32       16.891362   0.000000
   33       22.142869   0.000000
   34       22.142869   0.000000
   35       22.550518   0.000000
   36       23.233578   0.000000
   37       24.009242   0.000000
   38       24.962854   0.000000
   39       25.089308   0.000000
   40       25.089308   0.000000
   41       28.070713   0.000000
   42       28.517189   0.000000
   43       28.517189   0.000000
   44       30.106808   0.000000
   45       31.182023   0.000000
   46       31.678285   0.000000
   47       31.963773   0.000000
   48       31.986667   0.000000
 
  0.1111111E+00  0.1111111E+00  0.1111111E+00  0.1097394E-01
    1        0.393330   1.000000
    2        1.418834   1.000000
    3        1.418834   1.000000
    4        1.418834   1.000000
    5        1.540077   1.000000
    6        1.540077   1.000000
    7        1.540077   1.000000
    8        2.577001   1.000000
    9        2.718339   1.000000
   10        2.718339   1.000000
   11        3.474638   1.000000
   12        3.474638   1.000000
   13        3.955145   1.000000
   14        3.955145   1.000000
   15        3.955145   1.000000
   16        3.969041   1.000000
   17        3.969041   1.000000
   18        3.969041   1.000000
   19        4.271412   1.000000
   20        4.271412   1.000000
   21        4.271412   1.000000
   22        8.517831  -0.000000
   23        8.517831  -0.000000
   24        8.517831  -0.000000
   25       14.133811   0.000000
   26       14.133811   0.000000
   27       14.133811   0.000000
   28       15.819840   0.000000
   29       15.819840   0.000000
   30       15.819840   0.000000
   31       17.839886   0.000000
   32       17.839886   0.000000
   33       17.839886   0.000000
   34       22.334341   0.000000
   35       23.045004   0.000000
   36       23.045004   0.000000
   37       23.045004   0.000000
   38       23.829855   0.000000
   39       25.066199   0.000000
   40       25.066199   0.000000
   41       25.066199   0.000000
   42       25.852760   0.000000
   43       25.852760   0.000000
   44       29.543667   0.000000
   45       30.705553   0.000000
   46       30.705553   0.000000
   47       33.507232   0.000000
   48       33.872809   0.000000
 
  0.2222222E+00  0.1111111E+00  0.1111111E+00  0.3292181E-01
    1        0.716033   1.000000
    2        1.530215   1.000000
    3        1.540305   1.000000
    4        1.540305   1.000000
    5        1.648908   1.000000
    6        1.724381   1.000000
    7        1.724381   1.000000
    8        2.500615   1.000000
    9        2.803703   1.000000
   10        2.803846   1.000000
   11        3.390677   1.000000
   12        3.548128   1.000000
   13        3.548128   1.000000
   14        3.553002   1.000000
   15        3.744611   1.000000
   16        3.809506   1.000000
   17        3.858707   1.000000
   18        3.858707   1.000000
   19        4.209483   1.000000
   20        4.246182   1.000000
   21        4.246182   1.000000
   22        7.047966   0.445910
   23        9.151933  -0.000000
   24        9.151933  -0.000000
   25       14.000750   0.000000
   26       14.000750   0.000000
   27       14.813073   0.000000
   28       14.813073   0.000000
   29       15.916373   0.000000
   30       16.583897   0.000000
   31       17.727128   0.000000
   32       17.727128   0.000000
   33       18.406073   0.000000
   34       21.319241   0.000000
   35       23.023502   0.000000
   36       23.484863   0.000000
   37       23.621485   0.000000
   38       23.621485   0.000000
   39       24.745829   0.000000
   40       25.162923   0.000000
   41       26.380095   0.000000
   42       26.840168   0.000000
   43       26.840168   0.000000
   44       28.657695   0.000000
   45       30.703997   0.000000
   46       31.013019   0.000000
   47       32.095919   0.000000
   48       33.615701   0.000000
 
  0.3333333E+00  0.1111111E+00  0.1111111E+00  0.3292181E-01
    1        1.192466   1.000000
    2        1.673090   1.000000
    3        1.743808   1.000000
    4        1.743808   1.000000
    5        1.822657   1.000000
    6        1.972968   1.000000
    7        1.972968   1.000000
    8        2.354751   1.000000
    9        2.897915   1.000000
   10        2.943749   1.000000
   11        3.073223   1.000000
   12        3.073223   1.000000
   13        3.403764   1.000000
   14        3.437664   1.000000
   15        3.592065   1.000000
   16        3.671688   1.000000
   17        3.681441   1.000000
   18        3.681441   1.000000
   19        4.103404   1.000000
   20        4.224891   1.000000
   21        4.224891   1.000000
   22        5.648768   1.000000
   23       10.004592   0.000000
   24       10.004592   0.000000
   25       13.073237   0.000000
   26       13.073237   0.000000
   27       14.815342   0.000000
   28       14.815342   0.000000
   29       16.953523   0.000000
   30       17.023198   0.000000
   31       17.023198   0.000000
   32       18.669117   0.000000
   33       19.301904   0.000000
   34       20.169047   0.000000
   35       23.033232   0.000000
   36       23.193288   0.000000
   37       23.312915   0.000000
   38       25.041561   0.000000
   39       25.041561   0.000000
   40       25.378951   0.000000
   41       25.719261   0.000000
   42       27.578312   0.000000
   43       28.779801   0.000000
   44       28.779801   0.000000
   45       30.853807   0.000000
   46       31.188944   0.000000
   47       31.728418   0.000000
   48       31.728419   0.000000
 
  0.4444444E+00  0.1111111E+00  0.1111111E+00  0.3292181E-01
    1        1.649138   1.000000
    2        1.782905   1.000000