       N       E                     dE             d eps       ncg     rms          rms(c)
DAV:   1     0.191316886004E+03    0.19132E+03   -0.18642E+04  3360   0.722E+02
DAV:   2    -0.872148238212E+01   -0.20004E+03   -0.18788E+03  4392   0.180E+02
DAV:   3    -0.116981403373E+02   -0.29767E+01   -0.29744E+01  4008   0.237E+01
DAV:   4    -0.117074790297E+02   -0.93387E-02   -0.93385E-02  4848   0.143E+00
DAV:   5    -0.117075695583E+02   -0.90529E-04   -0.90528E-04  3864   0.140E-01    0.804E+00
DAV:   6    -0.108426576033E+02    0.86491E+00   -0.23982E+00  4320   0.841E+00    0.551E+00
DAV:   7    -0.108247968618E+02    0.17861E-01   -0.15900E-02  4080   0.653E-01    0.324E+00
DAV:   8    -0.108165455835E+02    0.82513E-02   -0.25315E-03  4272   0.222E-01    0.108E-01
DAV:   9    -0.108165887960E+02   -0.43213E-04   -0.32528E-05  3120   0.207E-02
   1 F= -.10816589E+02 E0= -.10816824E+02  d E =0.704152E-03
