 vasp.5.4.1 05Feb16 (build Feb 08 2018 09:21:51) complex                        
  
 executed on             LinuxIFC date 2019.11.21  15:54:16
 running on   24 total cores
 distrk:  each k-point on   24 cores,    1 groups
 distr:  one band on NCORES_PER_BAND=   1 cores,   24 groups


--------------------------------------------------------------------------------------------------------


 INCAR:
 POTCAR:    PAW_PBE Ag 02Apr2005                  

 ----------------------------------------------------------------------------- 
|                                                                             |
|           W    W    AA    RRRRR   N    N  II  N    N   GGGG   !!!           |
|           W    W   A  A   R    R  NN   N  II  NN   N  G    G  !!!           |
|           W    W  A    A  R    R  N N  N  II  N N  N  G       !!!           |
|           W WW W  AAAAAA  RRRRR   N  N N  II  N  N N  G  GGG   !            |
|           WW  WW  A    A  R   R   N   NN  II  N   NN  G    G                |
|           W    W  A    A  R    R  N    N  II  N    N   GGGG   !!!           |
|                                                                             |
|      For optimal performance we recommend to set                            |
|        NCORE= 4 - approx SQRT( number of cores)                             |
|      NCORE specifies how many cores store one orbital (NPAR=cpu/NCORE).     |
|      This setting can  greatly improve the performance of VASP for DFT.     |
|      The default, NPAR=number of cores might be grossly inefficient         |
|      on modern multi-core architectures or massively parallel machines.     |
|      Do your own testing !!!!                                               |
|      Unfortunately you need to use the default for GW and RPA calculations. |
|      (for HF NCORE is supported but not extensively tested yet)             |
|                                                                             |
 ----------------------------------------------------------------------------- 

 POTCAR:    PAW_PBE Ag 02Apr2005                  
   VRHFIN =Ag : s1 d10                                                          
   LEXCH  = PE                                                                  
   EATOM  =  1037.2675 eV,   76.2370 Ry                                         
                                                                                
   TITEL  = PAW_PBE Ag 02Apr2005                                                
   LULTRA =        F    use ultrasoft PP ?                                      
   IUNSCR =        1    unscreen: 0-lin 1-nonlin 2-no                           
   RPACOR =    2.000    partial core radius                                     
   POMASS =  107.868; ZVAL   =   11.000    mass and valenz                      
   RCORE  =    2.500    outmost cutoff radius                                   
   RWIGS  =    2.840; RWIGS  =    1.503    wigner-seitz radius (au A)           
   ENMAX  =  249.844; ENMIN  =  187.383 eV                                      
   ICORE  =        3    local potential                                         
   LCOR   =        T    correct aug charges                                     
   LPAW   =        T    paw PP                                                  
   EAUG   =  412.496                                                            
   DEXC   =    0.000                                                            
   RMAX   =    2.560    core radius for proj-oper                               
   RAUG   =    1.300    factor for augmentation sphere                          
   RDEP   =    2.576    radius for radial grids                                 
   RDEPT  =    2.072    core radius for aug-charge                              
                                                                                
   Atomic configuration                                                         
   12 entries                                                                   
     n  l   j            E        occ.                                          
     1  0  0.50    -25324.9161   2.0000                                         
     2  0  0.50     -3728.5341   2.0000                                         
     2  1  1.50     -3344.0404   6.0000                                         
     3  0  0.50      -683.5581   2.0000                                         
     3  1  1.50      -557.3225   6.0000                                         
     3  2  2.50      -358.3853  10.0000                                         
     4  0  0.50       -95.0341   2.0000                                         
     4  1  1.50       -58.5511   6.0000                                         
     4  2  2.50        -7.4440  10.0000                                         
     5  0  0.50        -4.4045   1.0000                                         
     5  1  0.50        -1.3606   0.0000                                         
     4  3  2.50        -1.3606   0.0000                                         
   Description                                                                  
     l       E           TYP  RCUT    TYP  RCUT                                 
     2     -7.4439781     23  2.400                                             
     2     -8.8045607     23  2.400                                             
     0     -4.4044681     23  2.400                                             
     0      1.9520038     23  2.400                                             
     1     -1.3605826     23  2.500                                             
     1     27.2116520     23  2.500                                             
     3     -4.0817478     23  2.400                                             
  local pseudopotential read in
  partial core-charges read in
  partial kinetic energy density read in
  atomic valenz-charges read in
  non local Contribution for L=           2  read in
    real space projection operators read in
  non local Contribution for L=           2  read in
    real space projection operators read in
  non local Contribution for L=           0  read in
    real space projection operators read in
  non local Contribution for L=           0  read in
    real space projection operators read in
  non local Contribution for L=           1  read in
    real space projection operators read in
  non local Contribution for L=           1  read in
    real space projection operators read in
    PAW grid and wavefunctions read in
 
   number of l-projection  operators is LMAX  =           6
   number of lm-projection operators is LMMAX =          18
 
  PAW_PBE Ag 02Apr2005                  :
 energy of atom  1       EATOM=-1037.2675
 kinetic energy error for atom=    0.0091 (will be added to EATOM!!)
 
 
 POSCAR: Ag                                      
  positions in cartesian coordinates
  No initial velocities read in
 exchange correlation table for  LEXCH =        8
   RHO(1)=    0.500       N(1)  =     2000
   RHO(2)=  100.500       N(2)  =     4000
 


--------------------------------------------------------------------------------------------------------


 ion  position               nearest neighbor table
   1  0.000  0.000  0.000-   2 2.99   3 2.99   4 2.99   2 2.99   3 2.99   2 2.99   4 2.99   2 2.99
                             3 2.99   4 2.99   3 2.99   4 2.99
   2  0.000  0.500  0.500-   1 2.99   3 2.99   4 2.99   1 2.99   4 2.99   1 2.99   3 2.99   1 2.99
                             3 2.99   4 2.99   4 2.99   3 2.99
   3  0.500  0.000  0.500-   1 2.99   2 2.99   4 2.99   1 2.99   4 2.99   2 2.99   4 2.99   4 2.99
                             1 2.99   2 2.99   1 2.99   2 2.99
   4  0.500  0.500  0.000-   1 2.99   2 2.99   3 2.99   2 2.99   3 2.99   1 2.99   3 2.99   3 2.99
                             1 2.99   2 2.99   2 2.99   1 2.99
 
  LATTYP: Found a simple cubic cell.
 ALAT       =     4.2263333333
  
  Lattice vectors:
  
 A1 = (   4.2263333333,   0.0000000000,   0.0000000000)
 A2 = (   0.0000000000,   4.2263333333,   0.0000000000)
 A3 = (   0.0000000000,   0.0000000000,   4.2263333333)


Analysis of symmetry for initial positions (statically):
=====================================================================
 Subroutine PRICEL returns following result:
 
  LATTYP: Found a face centered cubic cell.
 ALAT       =     4.2263333333
  
  Lattice vectors:
  
 A1 = (   2.1131666667,   2.1131666667,  -0.0000000000)
 A2 = (   2.1131666667,   0.0000000000,  -2.1131666667)
 A3 = (   0.0000000000,   2.1131666667,  -2.1131666667)
 
   4 primitive cells build up your supercell.
 

 Routine SETGRP: Setting up the symmetry group for a 
 simple cubic supercell.


 Subroutine GETGRP returns: Found 48 space group operations
 (whereof 48 operations were pure point group operations)
 out of a pool of 48 trial point group operations.


The static configuration has the point symmetry O_h .


Analysis of symmetry for dynamics (positions and initial velocities):
=====================================================================
 Subroutine PRICEL returns following result:
 
  LATTYP: Found a face centered cubic cell.
 ALAT       =     4.2263333333
  
  Lattice vectors:
  
 A1 = (   2.1131666667,   2.1131666667,  -0.0000000000)
 A2 = (   2.1131666667,   0.0000000000,  -2.1131666667)
 A3 = (   0.0000000000,   2.1131666667,  -2.1131666667)
 
   4 primitive cells build up your supercell.
 

 Routine SETGRP: Setting up the symmetry group for a 
 simple cubic supercell.


 Subroutine GETGRP returns: Found 48 space group operations
 (whereof 48 operations were pure point group operations)
 out of a pool of 48 trial point group operations.


The dynamic configuration has the point symmetry O_h .


 Subroutine INISYM returns: Found 48 space group operations
 (whereof 48 operations are pure point group operations),
 and found     4 'primitive' translations

 
 
 KPOINTS: KPOINTS created by Atomic Simulation Env

Automatic generation of k-mesh.
Space group operators:
 irot       det(A)        alpha          n_x          n_y          n_z        tau_x        tau_y        tau_z
    1     1.000000     0.000001     1.000000     0.000000     0.000000     0.000000     0.000000     0.000000
    2    -1.000000     0.000001     1.000000     0.000000     0.000000     0.000000     0.000000     0.000000
    3     1.000000   120.000000    -0.577350    -0.577350    -0.577350     0.000000     0.000000     0.000000
    4    -1.000000   120.000000    -0.577350    -0.577350    -0.577350     0.000000     0.000000     0.000000
    5     1.000000   120.000000     0.577350     0.577350     0.577350     0.000000     0.000000     0.000000
    6    -1.000000   120.000000     0.577350     0.577350     0.577350     0.000000     0.000000     0.000000
    7     1.000000    90.000000     0.000000     0.000000    -1.000000     0.000000     0.000000     0.000000
    8    -1.000000    90.000000     0.000000     0.000000    -1.000000     0.000000     0.000000     0.000000
    9     1.000000   180.000000     0.000000     0.707107     0.707107     0.000000     0.000000     0.000000
   10    -1.000000   180.000000     0.000000     0.707107     0.707107     0.000000     0.000000     0.000000
   11     1.000000    90.000000     0.000000     1.000000     0.000000     0.000000     0.000000     0.000000
   12    -1.000000    90.000000     0.000000     1.000000     0.000000     0.000000     0.000000     0.000000
   13     1.000000   180.000000     0.000000     0.000000     1.000000     0.000000     0.000000     0.000000
   14    -1.000000   180.000000     0.000000     0.000000     1.000000     0.000000     0.000000     0.000000
   15     1.000000   120.000000    -0.577350     0.577350     0.577350     0.000000     0.000000     0.000000
   16    -1.000000   120.000000    -0.577350     0.577350     0.577350     0.000000     0.000000     0.000000
   17     1.000000   120.000000    -0.577350     0.577350    -0.577350     0.000000     0.000000     0.000000
   18    -1.000000   120.000000    -0.577350     0.577350    -0.577350     0.000000     0.000000     0.000000
   19     1.000000    90.000000     0.000000     0.000000     1.000000     0.000000     0.000000     0.000000
   20    -1.000000    90.000000     0.000000     0.000000     1.000000     0.000000     0.000000     0.000000
   21     1.000000    90.000000    -1.000000     0.000000     0.000000     0.000000     0.000000     0.000000
   22    -1.000000    90.000000    -1.000000     0.000000     0.000000     0.000000     0.000000     0.000000
   23     1.000000   180.000000     0.707107     0.000000     0.707107     0.000000     0.000000     0.000000
   24    -1.000000   180.000000     0.707107     0.000000     0.707107     0.000000     0.000000     0.000000
   25     1.000000   120.000000     0.577350    -0.577350     0.577350     0.000000     0.000000     0.000000
   26    -1.000000   120.000000     0.577350    -0.577350     0.577350     0.000000     0.000000     0.000000
   27     1.000000   120.000000    -0.577350    -0.577350     0.577350     0.000000     0.000000     0.000000
   28    -1.000000   120.000000    -0.577350    -0.577350     0.577350     0.000000     0.000000     0.000000
   29     1.000000   180.000000     1.000000     0.000000     0.000000     0.000000     0.000000     0.000000
   30    -1.000000   180.000000     1.000000     0.000000     0.000000     0.000000     0.000000     0.000000
   31     1.000000    90.000000     0.000000    -1.000000     0.000000     0.000000     0.000000     0.000000
   32    -1.000000    90.000000     0.000000    -1.000000     0.000000     0.000000     0.000000     0.000000
   33     1.000000   180.000000     0.707107     0.707107     0.000000     0.000000     0.000000     0.000000
   34    -1.000000   180.000000     0.707107     0.707107     0.000000     0.000000     0.000000     0.000000
   35     1.000000    90.000000     1.000000     0.000000     0.000000     0.000000     0.000000     0.000000
   36    -1.000000    90.000000     1.000000     0.000000     0.000000     0.000000     0.000000     0.000000
   37     1.000000   120.000000     0.577350    -0.577350    -0.577350     0.000000     0.000000     0.000000
   38    -1.000000   120.000000     0.577350    -0.577350    -0.577350     0.000000     0.000000     0.000000
   39     1.000000   180.000000     0.000000     1.000000     0.000000     0.000000     0.000000     0.000000
   40    -1.000000   180.000000     0.000000     1.000000     0.000000     0.000000     0.000000     0.000000
   41     1.000000   120.000000     0.577350     0.577350    -0.577350     0.000000     0.000000     0.000000
   42    -1.000000   120.000000     0.577350     0.577350    -0.577350     0.000000     0.000000     0.000000
   43     1.000000   180.000000     0.000000    -0.707107     0.707107     0.000000     0.000000     0.000000
   44    -1.000000   180.000000     0.000000    -0.707107     0.707107     0.000000     0.000000     0.000000
   45     1.000000   180.000000     0.707107    -0.707107     0.000000     0.000000     0.000000     0.000000
   46    -1.000000   180.000000     0.707107    -0.707107     0.000000     0.000000     0.000000     0.000000
   47     1.000000   180.000000     0.707107     0.000000    -0.707107     0.000000     0.000000     0.000000
   48    -1.000000   180.000000     0.707107     0.000000    -0.707107     0.000000     0.000000     0.000000
 
 Subroutine IBZKPT returns following result:
 ===========================================
 
 Found     35 irreducible k-points:
 
 Following reciprocal coordinates:
            Coordinates               Weight
  0.000000  0.000000  0.000000      1.000000
  0.111111  0.000000  0.000000      6.000000
  0.222222  0.000000  0.000000      6.000000
  0.333333  0.000000  0.000000      6.000000
  0.444444  0.000000  0.000000      6.000000
  0.111111  0.111111  0.000000     12.000000
  0.222222  0.111111  0.000000     24.000000
  0.333333  0.111111  0.000000     24.000000
  0.444444  0.111111  0.000000     24.000000
  0.222222  0.222222  0.000000     12.000000
  0.333333  0.222222  0.000000     24.000000
  0.444444  0.222222  0.000000     24.000000
  0.333333  0.333333  0.000000     12.000000
  0.444444  0.333333  0.000000     24.000000
  0.444444  0.444444  0.000000     12.000000
  0.111111  0.111111  0.111111      8.000000
  0.222222  0.111111  0.111111     24.000000
  0.333333  0.111111  0.111111     24.000000
  0.444444  0.111111  0.111111     24.000000
  0.222222  0.222222  0.111111     24.000000
  0.333333  0.222222  0.111111     48.000000
  0.444444  0.222222  0.111111     48.000000
  0.333333  0.333333  0.111111     24.000000
  0.444444  0.333333  0.111111     48.000000
  0.444444  0.444444  0.111111     24.000000
  0.222222  0.222222  0.222222      8.000000
  0.333333  0.222222  0.222222     24.000000
  0.444444  0.222222  0.222222     24.000000
  0.333333  0.333333  0.222222     24.000000
  0.444444  0.333333  0.222222     48.000000
  0.444444  0.444444  0.222222     24.000000
  0.333333  0.333333  0.333333      8.000000
  0.444444  0.333333  0.333333     24.000000
  0.444444  0.444444  0.333333     24.000000
  0.444444  0.444444  0.444444      8.000000
 
 Following cartesian coordinates:
            Coordinates               Weight
  0.000000  0.000000  0.000000      1.000000
  0.026290  0.000000  0.000000      6.000000
  0.052580  0.000000  0.000000      6.000000
  0.078871  0.000000  0.000000      6.000000
  0.105161  0.000000  0.000000      6.000000
  0.026290  0.026290  0.000000     12.000000
  0.052580  0.026290  0.000000     24.000000
  0.078871  0.026290  0.000000     24.000000
  0.105161  0.026290  0.000000     24.000000
  0.052580  0.052580  0.000000     12.000000
  0.078871  0.052580  0.000000     24.000000
  0.105161  0.052580  0.000000     24.000000
  0.078871  0.078871  0.000000     12.000000
  0.105161  0.078871  0.000000     24.000000
  0.105161  0.105161  0.000000     12.000000
  0.026290  0.026290  0.026290      8.000000
  0.052580  0.026290  0.026290     24.000000
  0.078871  0.026290  0.026290     24.000000
  0.105161  0.026290  0.026290     24.000000
  0.052580  0.052580  0.026290     24.000000
  0.078871  0.052580  0.026290     48.000000
  0.105161  0.052580  0.026290     48.000000
  0.078871  0.078871  0.026290     24.000000
  0.105161  0.078871  0.026290     48.000000
  0.105161  0.105161  0.026290     24.000000
  0.052580  0.052580  0.052580      8.000000
  0.078871  0.052580  0.052580     24.000000
  0.105161  0.052580  0.052580     24.000000
  0.078871  0.078871  0.052580     24.000000
  0.105161  0.078871  0.052580     48.000000
  0.105161  0.105161  0.052580     24.000000
  0.078871  0.078871  0.078871      8.000000
  0.105161  0.078871  0.078871     24.000000
  0.105161  0.105161  0.078871     24.000000
  0.105161  0.105161  0.105161      8.000000
 


--------------------------------------------------------------------------------------------------------




 Dimension of arrays:
   k-points           NKPTS =     35   k-points in BZ     NKDIM =     35   number of bands    NBANDS=     48
   number of dos      NEDOS =    301   number of ions     NIONS =      4
   non local maximal  LDIM  =      6   non local SUM 2l+1 LMDIM =     18
   total plane-waves  NPLWV =  13824
   max r-space proj   IRMAX =      1   max aug-charges    IRDMAX=   9202
   dimension x,y,z NGX =    24 NGY =   24 NGZ =   24
   dimension x,y,z NGXF=    48 NGYF=   48 NGZF=   48
   support grid    NGXF=    48 NGYF=   48 NGZF=   48
   ions per type =               4
 NGX,Y,Z   is equivalent  to a cutoff of   9.44,  9.44,  9.44 a.u.
 NGXF,Y,Z  is equivalent  to a cutoff of  18.88, 18.88, 18.88 a.u.


 I would recommend the setting:
   dimension x,y,z NGX =    21 NGY =   21 NGZ =   21
 SYSTEM =  unknown system                          
 POSCAR =  Ag                                      

 Startparameter for this run:
   NWRITE =      2    write-flag & timer
   PREC   = normal    normal or accurate (medium, high low for compatibility)
   ISTART =      0    job   : 0-new  1-cont  2-samecut
   ICHARG =      2    charge: 1-file 2-atom 10-const
   ISPIN  =      1    spin polarized calculation?
   LNONCOLLINEAR =      F non collinear calculations
   LSORBIT =      F    spin-orbit coupling
   INIWAV =      1    electr: 0-lowe 1-rand  2-diag
   LASPH  =      F    aspherical Exc in radial PAW
   METAGGA=      F    non-selfconsistent MetaGGA calc.

 Electronic Relaxation 1
   ENCUT  =  400.0 eV  29.40 Ry    5.42 a.u.   6.89  6.89  6.89*2*pi/ulx,y,z
   ENINI  =  400.0     initial cutoff
   ENAUG  =  412.5 eV  augmentation charge cutoff
   NELM   =     60;   NELMIN=  2; NELMDL= -5     # of ELM steps 
   EDIFF  = 0.1E-03   stopping-criterion for ELM
   LREAL  =      F    real-space projection
   NLSPLINE    = F    spline interpolate recip. space projectors
   LCOMPAT=      F    compatible to vasp.4.4
   GGA_COMPAT  = T    GGA compatible to vasp.4.4-vasp.4.6
   LMAXPAW     = -100 max onsite density
   LMAXMIX     =    2 max onsite mixed and CHGCAR
   VOSKOWN=      0    Vosko Wilk Nusair interpolation
   ROPT   =    0.00000
 Ionic relaxation
   EDIFFG = 0.1E-02   stopping-criterion for IOM
   NSW    =      0    number of steps for IOM
   NBLOCK =      1;   KBLOCK =      1    inner block; outer block 
   IBRION =     -1    ionic relax: 0-MD 1-quasi-New 2-CG
   NFREE  =      0    steps in history (QN), initial steepest desc. (CG)
   ISIF   =      2    stress and relaxation
   IWAVPR =     10    prediction:  0-non 1-charg 2-wave 3-comb
   ISYM   =      2    0-nonsym 1-usesym 2-fastsym
   LCORR  =      T    Harris-Foulkes like correction to forces

   POTIM  = 0.5000    time-step for ionic-motion
   TEIN   =    0.0    initial temperature
   TEBEG  =    0.0;   TEEND  =   0.0 temperature during run
   SMASS  =  -3.00    Nose mass-parameter (am)
   estimated Nose-frequenzy (Omega)   =  0.10E-29 period in steps =****** mass=  -0.408E-27a.u.
   SCALEE = 1.0000    scale energy and forces
   NPACO  =    256;   APACO  = 16.0  distance and # of slots for P.C.
   PSTRESS=    0.0 pullay stress

  Mass of Ions in am
   POMASS = 107.87
  Ionic Valenz
   ZVAL   =  11.00
  Atomic Wigner-Seitz radii
   RWIGS  =  -1.00
  virtual crystal weights 
   VCA    =   1.00
   NELECT =      44.0000    total number of electrons
   NUPDOWN=      -1.0000    fix difference up-down

 DOS related values:
   EMIN   =  10.00;   EMAX   =-10.00  energy-range for DOS
   EFERMI =   0.00
   ISMEAR =     1;   SIGMA  =   0.10  broadening in eV -4-tet -1-fermi 0-gaus

 Electronic relaxation 2 (details)
   IALGO  =     38    algorithm
   LDIAG  =      T    sub-space diagonalisation (order eigenvalues)
   LSUBROT=      F    optimize rotation matrix (better conditioning)
   TURBO    =      0    0=normal 1=particle mesh
   IRESTART =      0    0=no restart 2=restart with 2 vectors
   NREBOOT  =      0    no. of reboots
   NMIN     =      0    reboot dimension
   EREF     =   0.00    reference energy to select bands
   IMIX   =      4    mixing-type and parameters
     AMIX     =   0.40;   BMIX     =  1.00
     AMIX_MAG =   1.60;   BMIX_MAG =  1.00
     AMIN     =   0.10
     WC   =   100.;   INIMIX=   1;  MIXPRE=   1;  MAXMIX= -45

 Intra band minimization:
   WEIMIN = 0.0000     energy-eigenvalue tresh-hold
   EBREAK =  0.52E-06  absolut break condition
   DEPER  =   0.30     relativ break condition  

   TIME   =   0.40     timestep for ELM

  volume/ion in A,a.u.               =      18.87       127.36
  Fermi-wavevector in a.u.,A,eV,Ry     =   1.367504  2.584208 25.443813  1.870068
  Thomas-Fermi vector in A             =   2.493551
 
 Write flags
   LWAVE  =      F    write WAVECAR
   LCHARG =      F    write CHGCAR
   LVTOT  =      F    write LOCPOT, total local potential
   LVHAR  =      F    write LOCPOT, Hartree potential only
   LELF   =      F    write electronic localiz. function (ELF)
   LORBIT =      0    0 simple, 1 ext, 2 COOP (PROOUT)


 Dipole corrections
   LMONO  =      F    monopole corrections only (constant potential shift)
   LDIPOL =      F    correct potential (dipole corrections)
   IDIPOL =      0    1-x, 2-y, 3-z, 4-all directions 
   EPSILON=  1.0000000 bulk dielectric constant

 Exchange correlation treatment:
   GGA     =    --    GGA type
   LEXCH   =     8    internal setting for exchange type
   VOSKOWN=      0    Vosko Wilk Nusair interpolation
   LHFCALC =     F    Hartree Fock is set to
   LHFONE  =     F    Hartree Fock one center treatment
   AEXX    =    0.0000 exact exchange contribution

 Linear response parameters
   LEPSILON=     F    determine dielectric tensor
   LRPA    =     F    only Hartree local field effects (RPA)
   LNABLA  =     F    use nabla operator in PAW spheres
   LVEL    =     F    velocity operator in full k-point grid
   LINTERFAST=   F  fast interpolation
   KINTER  =     0    interpolate to denser k-point grid
   CSHIFT  =0.1000    complex shift for real part using Kramers Kronig
   OMEGAMAX=  -1.0    maximum frequency
   DEG_THRESHOLD= 0.2000000E-02 threshold for treating states as degnerate
   RTIME   =    0.100 relaxation time in fs

 Orbital magnetization related:
   ORBITALMAG=     F  switch on orbital magnetization
   LCHIMAG   =     F  perturbation theory with respect to B field
   DQ        =  0.001000  dq finite difference perturbation B field



--------------------------------------------------------------------------------------------------------


 Static calculation
 charge density and potential will be updated during run
 non-spin polarized calculation
 Variant of blocked Davidson
 Davidson routine will perform the subspace rotation
 perform sub-space diagonalisation
    after iterative eigenvector-optimisation
 modified Broyden-mixing scheme, WC =      100.0
 initial mixing is a Kerker type mixing with AMIX =  0.4000 and BMIX =      1.0000
 Hartree-type preconditioning will be used
 using additional bands           26
 reciprocal scheme for non local part
 use partial core corrections
 calculate Harris-corrections to forces 
   (improved forces if not selfconsistent)
 use gradient corrections 
 use of overlap-Matrix (Vanderbilt PP)
 Methfessel and Paxton  Order N= 1 SIGMA  =   0.10


--------------------------------------------------------------------------------------------------------


  energy-cutoff  :      400.00
  volume of cell :       75.49
      direct lattice vectors                 reciprocal lattice vectors
     4.226333333  0.000000000  0.000000000     0.236611720  0.000000000  0.000000000
     0.000000000  4.226333333  0.000000000     0.000000000  0.236611720  0.000000000
     0.000000000  0.000000000  4.226333333     0.000000000  0.000000000  0.236611720

  length of vectors
     4.226333333  4.226333333  4.226333333     0.236611720  0.236611720  0.236611720


 
 k-points in units of 2pi/SCALE and weight: KPOINTS created by Atomic Simulation Env
   0.00000000  0.00000000  0.00000000       0.001
   0.02629019  0.00000000  0.00000000       0.008
   0.05258038  0.00000000  0.00000000       0.008
   0.07887057  0.00000000  0.00000000       0.008
   0.10516076  0.00000000  0.00000000       0.008
   0.02629019  0.02629019  0.00000000       0.016
   0.05258038  0.02629019  0.00000000       0.033
   0.07887057  0.02629019  0.00000000       0.033
   0.10516076  0.02629019  0.00000000       0.033
   0.05258038  0.05258038  0.00000000       0.016
   0.07887057  0.05258038  0.00000000       0.033
   0.10516076  0.05258038  0.00000000       0.033
   0.07887057  0.07887057  0.00000000       0.016
   0.10516076  0.07887057  0.00000000       0.033
   0.10516076  0.10516076  0.00000000       0.016
   0.02629019  0.02629019  0.02629019       0.011
   0.05258038  0.02629019  0.02629019       0.033
   0.07887057  0.02629019  0.02629019       0.033
   0.10516076  0.02629019  0.02629019       0.033
   0.05258038  0.05258038  0.02629019       0.033
   0.07887057  0.05258038  0.02629019       0.066
   0.10516076  0.05258038  0.02629019       0.066
   0.07887057  0.07887057  0.02629019       0.033
   0.10516076  0.07887057  0.02629019       0.066
   0.10516076  0.10516076  0.02629019       0.033
   0.05258038  0.05258038  0.05258038       0.011
   0.07887057  0.05258038  0.05258038       0.033
   0.10516076  0.05258038  0.05258038       0.033
   0.07887057  0.07887057  0.05258038       0.033
   0.10516076  0.07887057  0.05258038       0.066
   0.10516076  0.10516076  0.05258038       0.033
   0.07887057  0.07887057  0.07887057       0.011
   0.10516076  0.07887057  0.07887057       0.033
   0.10516076  0.10516076  0.07887057       0.033
   0.10516076  0.10516076  0.10516076       0.011
 
 k-points in reciprocal lattice and weights: KPOINTS created by Atomic Simulation Env
   0.00000000  0.00000000  0.00000000       0.001
   0.11111111  0.00000000  0.00000000       0.008
   0.22222222  0.00000000  0.00000000       0.008
   0.33333333  0.00000000  0.00000000       0.008
   0.44444444  0.00000000  0.00000000       0.008
   0.11111111  0.11111111  0.00000000       0.016
   0.22222222  0.11111111  0.00000000       0.033
   0.33333333  0.11111111  0.00000000       0.033
   0.44444444  0.11111111  0.00000000       0.033
   0.22222222  0.22222222  0.00000000       0.016
   0.33333333  0.22222222  0.00000000       0.033
   0.44444444  0.22222222  0.00000000       0.033
   0.33333333  0.33333333  0.00000000       0.016
   0.44444444  0.33333333  0.00000000       0.033
   0.44444444  0.44444444  0.00000000       0.016
   0.11111111  0.11111111  0.11111111       0.011
   0.22222222  0.11111111  0.11111111       0.033
   0.33333333  0.11111111  0.11111111       0.033
   0.44444444  0.11111111  0.11111111       0.033
   0.22222222  0.22222222  0.11111111       0.033
   0.33333333  0.22222222  0.11111111       0.066
   0.44444444  0.22222222  0.11111111       0.066
   0.33333333  0.33333333  0.11111111       0.033
   0.44444444  0.33333333  0.11111111       0.066
   0.44444444  0.44444444  0.11111111       0.033
   0.22222222  0.22222222  0.22222222       0.011
   0.33333333  0.22222222  0.22222222       0.033
   0.44444444  0.22222222  0.22222222       0.033
   0.33333333  0.33333333  0.22222222       0.033
   0.44444444  0.33333333  0.22222222       0.066
   0.44444444  0.44444444  0.22222222       0.033
   0.33333333  0.33333333  0.33333333       0.011
   0.44444444  0.33333333  0.33333333       0.033
   0.44444444  0.44444444  0.33333333       0.033
   0.44444444  0.44444444  0.44444444       0.011
 
 position of ions in fractional coordinates (direct lattice) 
   0.00000000  0.00000000  0.00000000
   0.00000000  0.50000000  0.50000000
   0.50000000  0.00000000  0.50000000
   0.50000000  0.50000000  0.00000000
 
 position of ions in cartesian coordinates  (Angst):
   0.00000000  0.00000000  0.00000000
   0.00000000  2.11316667  2.11316667
   2.11316667  0.00000000  2.11316667
   2.11316667  2.11316667  0.00000000
 


--------------------------------------------------------------------------------------------------------


 k-point  1 :   0.0000 0.0000 0.0000  plane waves:    1357
 k-point  2 :   0.1111 0.0000 0.0000  plane waves:    1362
 k-point  3 :   0.2222 0.0000 0.0000  plane waves:    1362
 k-point  4 :   0.3333 0.0000 0.0000  plane waves:    1366
 k-point  5 :   0.4444 0.0000 0.0000  plane waves:    1382
 k-point  6 :   0.1111 0.1111 0.0000  plane waves:    1361
 k-point  7 :   0.2222 0.1111 0.0000  plane waves:    1363
 k-point  8 :   0.3333 0.1111 0.0000  plane waves:    1367
 k-point  9 :   0.4444 0.1111 0.0000  plane waves:    1371
 k-point 10 :   0.2222 0.2222 0.0000  plane waves:    1362
 k-point 11 :   0.3333 0.2222 0.0000  plane waves:    1368
 k-point 12 :   0.4444 0.2222 0.0000  plane waves:    1371
 k-point 13 :   0.3333 0.3333 0.0000  plane waves:    1374
 k-point 14 :   0.4444 0.3333 0.0000  plane waves:    1371
 k-point 15 :   0.4444 0.4444 0.0000  plane waves:    1360
 k-point 16 :   0.1111 0.1111 0.1111  plane waves:    1370
 k-point 17 :   0.2222 0.1111 0.1111  plane waves:    1354
 k-point 18 :   0.3333 0.1111 0.1111  plane waves:    1370
 k-point 19 :   0.4444 0.1111 0.1111  plane waves:    1375
 k-point 20 :   0.2222 0.2222 0.1111  plane waves:    1372
 k-point 21 :   0.3333 0.2222 0.1111  plane waves:    1365
 k-point 22 :   0.4444 0.2222 0.1111  plane waves:    1378
 k-point 23 :   0.3333 0.3333 0.1111  plane waves:    1371
 k-point 24 :   0.4444 0.3333 0.1111  plane waves:    1366
 k-point 25 :   0.4444 0.4444 0.1111  plane waves:    1369
 k-point 26 :   0.2222 0.2222 0.2222  plane waves:    1376
 k-point 27 :   0.3333 0.2222 0.2222  plane waves:    1373
 k-point 28 :   0.4444 0.2222 0.2222  plane waves:    1362
 k-point 29 :   0.3333 0.3333 0.2222  plane waves:    1378
 k-point 30 :   0.4444 0.3333 0.2222  plane waves:    1379
 k-point 31 :   0.4444 0.4444 0.2222  plane waves:    1378
 k-point 32 :   0.3333 0.3333 0.3333  plane waves:    1385
 k-point 33 :   0.4444 0.3333 0.3333  plane waves:    1380
 k-point 34 :   0.4444 0.4444 0.3333  plane waves:    1381
 k-point 35 :   0.4444 0.4444 0.4444  plane waves:    1376

 maximum and minimum number of plane-waves per node :      1385     1354

 maximum number of plane-waves:      1385
 maximum index in each direction: 
   IXMAX=    6   IYMAX=    6   IZMAX=    6
   IXMIN=   -7   IYMIN=   -7   IZMIN=   -7

 WARNING: aliasing errors must be expected set NGX to  28 to avoid them
 WARNING: aliasing errors must be expected set NGY to  28 to avoid them
 WARNING: aliasing errors must be expected set NGZ to  28 to avoid them
 aliasing errors are usually negligible using standard VASP settings
 and one can safely disregard these warnings

 serial   3D FFT for wavefunctions
 parallel 3D FFT for charge:
    minimum data exchange during FFTs selected (reduces bandwidth)


 total amount of memory used by VASP on root node    39815. kBytes
========================================================================

   base      :      30000. kBytes
   nonl-proj :       7104. kBytes
   fftplans  :        221. kBytes
   grid      :        789. kBytes
   one-center:         62. kBytes
   wavefun   :       1639. kBytes
 
     INWAV:  cpu time    0.0000: real time    0.0001
 Broyden mixing: mesh for mixing (old mesh)
   NGX = 13   NGY = 13   NGZ = 13
  (NGX  = 48   NGY  = 48   NGZ  = 48)
  gives a total of   2197 points

 initial charge density was supplied:
 charge density of overlapping atoms calculated
 number of electron      44.0000000 magnetization 
 keeping initial charge density in first step


--------------------------------------------------------------------------------------------------------


 Maximum index for augmentation-charges          509 (set IRDMAX)


--------------------------------------------------------------------------------------------------------


 First call to EWALD:  gamma=   0.419
 Maximum number of real-space cells 3x 3x 3
 Maximum number of reciprocal cells 3x 3x 3

 FEWALD executed in parallel
    FEWALD:  cpu time    0.0016: real time    0.0016


----------------------------------------- Iteration    1(   1)  ---------------------------------------


    POTLOK:  cpu time    0.0235: real time    0.0240
    SETDIJ:  cpu time    0.0029: real time    0.0029
     EDDAV:  cpu time    0.5199: real time    0.5200
       DOS:  cpu time    0.0009: real time    0.0009
    --------------------------------------------
      LOOP:  cpu time    0.5493: real time    0.5517

 eigenvalue-minimisations  :  3360
 total energy-change (2. order) : 0.1913169E+03  (-0.1864189E+04)
 number of electron      44.0000000 magnetization 
 augmentation part       44.0000000 magnetization 

 Free energy of the ion-electron system (eV)
  ---------------------------------------------------
  alpha Z        PSCENC =       180.27807918
  Ewald energy   TEWEN  =     -3780.36707451
  -Hartree energ DENC   =      -873.29400812
  -exchange      EXHF   =         0.00000000
  -V(xc)+E(xc)   XCENC  =       -42.69895926
  PAW double counting   =      4013.84859731    -3829.39709692
  entropy T*S    EENTRO =        -0.00167539
  eigenvalues    EBANDS =       373.91531022
  atomic energy  EATOM  =      4149.03371350
  Solvation  Ediel_sol  =         0.00000000
  ---------------------------------------------------
  free energy    TOTEN  =       191.31688600 eV

  energy without entropy =      191.31856139  energy(sigma->0) =      191.31744447


--------------------------------------------------------------------------------------------------------




----------------------------------------- Iteration    1(   2)  ---------------------------------------


     EDDAV:  cpu time    0.7341: real time    0.7342
       DOS:  cpu time    0.0008: real time    0.0008
    --------------------------------------------
      LOOP:  cpu time    0.7362: real time    0.7373

 eigenvalue-minimisations  :  4392
 total energy-change (2. order) :-0.2000384E+03  (-0.1878846E+03)
 number of electron      44.0000000 magnetization 
 augmentation part       44.0000000 magnetization 

 Free energy of the ion-electron system (eV)
  ---------------------------------------------------
  alpha Z        PSCENC =       180.27807918
  Ewald energy   TEWEN  =     -3780.36707451
  -Hartree energ DENC   =      -873.29400812
  -exchange      EXHF   =         0.00000000
  -V(xc)+E(xc)   XCENC  =       -42.69895926
  PAW double counting   =      4013.84859731    -3829.39709692
  entropy T*S    EENTRO =        -0.00221656
  eigenvalues    EBANDS =       173.87748300
  atomic energy  EATOM  =      4149.03371350
  Solvation  Ediel_sol  =         0.00000000
  ---------------------------------------------------
  free energy    TOTEN  =        -8.72148238 eV

  energy without entropy =       -8.71926583  energy(sigma->0) =       -8.72074353


--------------------------------------------------------------------------------------------------------




----------------------------------------- Iteration    1(   3)  ---------------------------------------


     EDDAV:  cpu time    0.6796: real time    0.6797
       DOS:  cpu time    0.0015: real time    0.0015
    --------------------------------------------
      LOOP:  cpu time    0.6820: real time    0.6837

 eigenvalue-minimisations  :  4008
 total energy-change (2. order) :-0.2976658E+01  (-0.2974385E+01)
 number of electron      44.0000000 magnetization 
 augmentation part       44.0000000 magnetization 

 Free energy of the ion-electron system (eV)
  ---------------------------------------------------
  alpha Z        PSCENC =       180.27807918
  Ewald energy   TEWEN  =     -3780.36707451
  -Hartree energ DENC   =      -873.29400812
  -exchange      EXHF   =         0.00000000
  -V(xc)+E(xc)   XCENC  =       -42.69895926
  PAW double counting   =      4013.84859731    -3829.39709692
  entropy T*S    EENTRO =        -0.00203479
  eigenvalues    EBANDS =       170.90064328
  atomic energy  EATOM  =      4149.03371350
  Solvation  Ediel_sol  =         0.00000000
  ---------------------------------------------------
  free energy    TOTEN  =       -11.69814034 eV

  energy without entropy =      -11.69610555  energy(sigma->0) =      -11.69746207


--------------------------------------------------------------------------------------------------------




----------------------------------------- Iteration    1(   4)  ---------------------------------------


     EDDAV:  cpu time    0.8497: real time    0.8497
       DOS:  cpu time    0.0007: real time    0.0007
    --------------------------------------------
      LOOP:  cpu time    0.8512: real time    0.8526

 eigenvalue-minimisations  :  4848
 total energy-change (2. order) :-0.9338692E-02  (-0.9338509E-02)
 number of electron      44.0000000 magnetization 
 augmentation part       44.0000000 magnetization 

 Free energy of the ion-electron system (eV)
  ---------------------------------------------------
  alpha Z        PSCENC =       180.27807918
  Ewald energy   TEWEN  =     -3780.36707451
  -Hartree energ DENC   =      -873.29400812
  -exchange      EXHF   =         0.00000000
  -V(xc)+E(xc)   XCENC  =       -42.69895926
  PAW double counting   =      4013.84859731    -3829.39709692
  entropy T*S    EENTRO =        -0.00203320
  eigenvalues    EBANDS =       170.89130299
  atomic energy  EATOM  =      4149.03371350
  Solvation  Ediel_sol  =         0.00000000
  ---------------------------------------------------
  free energy    TOTEN  =       -11.70747903 eV

  energy without entropy =      -11.70544583  energy(sigma->0) =      -11.70680130


--------------------------------------------------------------------------------------------------------




----------------------------------------- Iteration    1(   5)  ---------------------------------------


     EDDAV:  cpu time    0.6187: real time    0.6188
       DOS:  cpu time    0.0007: real time    0.0007
    CHARGE:  cpu time    0.0146: real time    0.0146
    MIXING:  cpu time    0.0005: real time    0.0006
    --------------------------------------------
      LOOP:  cpu time    0.6355: real time    0.6373

 eigenvalue-minimisations  :  3864
 total energy-change (2. order) :-0.9052855E-04  (-0.9052782E-04)
 number of electron      43.9999889 magnetization 
 augmentation part       20.3699973 magnetization 

 Broyden mixing:
  rms(total) = 0.80378E+00    rms(broyden)= 0.80377E+00
  rms(prec ) = 0.14936E+01
  weight for this iteration     100.00

 Free energy of the ion-electron system (eV)
  ---------------------------------------------------
  alpha Z        PSCENC =       180.27807918
  Ewald energy   TEWEN  =     -3780.36707451
  -Hartree energ DENC   =      -873.29400812
  -exchange      EXHF   =         0.00000000
  -V(xc)+E(xc)   XCENC  =       -42.69895926
  PAW double counting   =      4013.84859731    -3829.39709692
  entropy T*S    EENTRO =        -0.00203318
  eigenvalues    EBANDS =       170.89121244
  atomic energy  EATOM  =      4149.03371350
  Solvation  Ediel_sol  =         0.00000000
  ---------------------------------------------------
  free energy    TOTEN  =       -11.70756956 eV

  energy without entropy =      -11.70553638  energy(sigma->0) =      -11.70689183


--------------------------------------------------------------------------------------------------------




----------------------------------------- Iteration    1(   6)  ---------------------------------------


    POTLOK:  cpu time    0.0049: real time    0.0049
    SETDIJ:  cpu time    0.0023: real time    0.0023
     EDDAV:  cpu time    0.7281: real time    0.7284
       DOS:  cpu time    0.0007: real time    0.0007
    CHARGE:  cpu time    0.0125: real time    0.0125
    MIXING:  cpu time    0.0004: real time    0.0004
    --------------------------------------------
      LOOP:  cpu time    0.7500: real time    0.7519

 eigenvalue-minimisations  :  4320
 total energy-change (2. order) : 0.8649120E+00  (-0.2398167E+00)
 number of electron      43.9999887 magnetization 
 augmentation part       21.0323496 magnetization 

 Broyden mixing:
  rms(total) = 0.55072E+00    rms(broyden)= 0.55071E+00
  rms(prec ) = 0.57771E+00
  weight for this iteration     100.00

 eigenvalues of (default mixing * dielectric matrix)
  average eigenvalue GAMMA=   1.0047
  1.0047

 Free energy of the ion-electron system (eV)
  ---------------------------------------------------
  alpha Z        PSCENC =       180.27807918
  Ewald energy   TEWEN  =     -3780.36707451
  -Hartree energ DENC   =      -835.21228531
  -exchange      EXHF   =         0.00000000
  -V(xc)+E(xc)   XCENC  =       -44.08258192
  PAW double counting   =      4129.36543438    -3948.15784764
  entropy T*S    EENTRO =         0.00034338
  eigenvalues    EBANDS =       138.29956133
  atomic energy  EATOM  =      4149.03371350
  Solvation  Ediel_sol  =         0.00000000
  ---------------------------------------------------
  free energy    TOTEN  =       -10.84265760 eV

  energy without entropy =      -10.84300098  energy(sigma->0) =      -10.84277206


--------------------------------------------------------------------------------------------------------




----------------------------------------- Iteration    1(   7)  ---------------------------------------


    POTLOK:  cpu time    0.0047: real time    0.0047
    SETDIJ:  cpu time    0.0033: real time    0.0033
     EDDAV:  cpu time    0.6894: real time    0.6896
       DOS:  cpu time    0.0008: real time    0.0008
    CHARGE:  cpu time    0.0148: real time    0.0148
    MIXING:  cpu time    0.0003: real time    0.0003
    --------------------------------------------
      LOOP:  cpu time    0.7145: real time    0.7166

 eigenvalue-minimisations  :  4080
 total energy-change (2. order) : 0.1786074E-01  (-0.1589986E-02)
 number of electron      43.9999887 magnetization 
 augmentation part       21.0637571 magnetization 

 Broyden mixing:
  rms(total) = 0.32351E+00    rms(broyden)= 0.32350E+00
  rms(prec ) = 0.33471E+00
  weight for this iteration     100.00

 eigenvalues of (default mixing * dielectric matrix)
  average eigenvalue GAMMA=   1.8042
  1.0410  2.5673

 Free energy of the ion-electron system (eV)
  ---------------------------------------------------
  alpha Z        PSCENC =       180.27807918
  Ewald energy   TEWEN  =     -3780.36707451
  -Hartree energ DENC   =      -830.42982113
  -exchange      EXHF   =         0.00000000
  -V(xc)+E(xc)   XCENC  =       -44.27074791
  PAW double counting   =      4219.41344431    -4040.50200705
  entropy T*S    EENTRO =         0.00062158
  eigenvalues    EBANDS =       136.01899516
  atomic energy  EATOM  =      4149.03371350
  Solvation  Ediel_sol  =         0.00000000
  ---------------------------------------------------
  free energy    TOTEN  =       -10.82479686 eV

  energy without entropy =      -10.82541844  energy(sigma->0) =      -10.82500406


--------------------------------------------------------------------------------------------------------




----------------------------------------- Iteration    1(   8)  ---------------------------------------


    POTLOK:  cpu time    0.0065: real time    0.0065
    SETDIJ:  cpu time    0.0022: real time    0.0022
     EDDAV:  cpu time    0.7048: real time    0.7050
       DOS:  cpu time    0.0008: real time    0.0008
    CHARGE:  cpu time    0.0124: real time    0.0124
    MIXING:  cpu time    0.0004: real time    0.0004
    --------------------------------------------
      LOOP:  cpu time    0.7281: real time    0.7305

 eigenvalue-minimisations  :  4272
 total energy-change (2. order) : 0.8251278E-02  (-0.2531496E-03)
 number of electron      43.9999887 magnetization 
 augmentation part       21.0719979 magnetization 

 Broyden mixing:
  rms(total) = 0.10793E-01    rms(broyden)= 0.10790E-01
  rms(prec ) = 0.11692E-01
  weight for this iteration     100.00

 eigenvalues of (default mixing * dielectric matrix)
  average eigenvalue GAMMA=   1.5563
  2.4903  1.0245  1.1540

 Free energy of the ion-electron system (eV)
  ---------------------------------------------------
  alpha Z        PSCENC =       180.27807918
  Ewald energy   TEWEN  =     -3780.36707451
  -Hartree energ DENC   =      -825.76862904
  -exchange      EXHF   =         0.00000000
  -V(xc)+E(xc)   XCENC  =       -44.45928670
  PAW double counting   =      4338.74377223    -4162.86731548
  entropy T*S    EENTRO =         0.00070896
  eigenvalues    EBANDS =       134.58948626
  atomic energy  EATOM  =      4149.03371350
  Solvation  Ediel_sol  =         0.00000000
  ---------------------------------------------------
  free energy    TOTEN  =       -10.81654558 eV

  energy without entropy =      -10.81725454  energy(sigma->0) =      -10.81678190


--------------------------------------------------------------------------------------------------------




----------------------------------------- Iteration    1(   9)  ---------------------------------------


    POTLOK:  cpu time    0.0060: real time    0.0067
    SETDIJ:  cpu time    0.0022: real time    0.0022
     EDDAV:  cpu time    0.5437: real time    0.5438
       DOS:  cpu time    0.0012: real time    0.0012
    --------------------------------------------
      LOOP:  cpu time    0.5542: real time    0.5566

 eigenvalue-minimisations  :  3120
 total energy-change (2. order) :-0.4321253E-04  (-0.3252762E-05)
 number of electron      43.9999887 magnetization 
 augmentation part       21.0719979 magnetization 

 Free energy of the ion-electron system (eV)
  ---------------------------------------------------
  alpha Z        PSCENC =       180.27807918
  Ewald energy   TEWEN  =     -3780.36707451
  -Hartree energ DENC   =      -825.92665181
  -exchange      EXHF   =         0.00000000
  -V(xc)+E(xc)   XCENC  =       -44.45413996
  PAW double counting   =      4335.79156338    -4159.75786619
  entropy T*S    EENTRO =         0.00070415
  eigenvalues    EBANDS =       134.58508346
  atomic energy  EATOM  =      4149.03371350
  Solvation  Ediel_sol  =         0.00000000
  ---------------------------------------------------
  free energy    TOTEN  =       -10.81658880 eV

  energy without entropy =      -10.81729295  energy(sigma->0) =      -10.81682351


--------------------------------------------------------------------------------------------------------




 average (electrostatic) potential at core
  the test charge radii are     1.1249
  (the norm of the test charge is              1.0000)
       1 -71.8545       2 -71.8545       3 -71.8545       4 -71.8545
 
 
 
 E-fermi :   7.0416     XC(G=0): -11.6116     alpha+bet :-12.1623


 k-point     1 :       0.0000    0.0000    0.0000
  band No.  band energies     occupation 
      1       0.0462      2.00000
      2       1.2782      2.00000
      3       1.2782      2.00000
      4       1.2782      2.00000
      5       1.3834      2.00000
      6       1.3834      2.00000
      7       1.3834      2.00000
      8       2.6361      2.00000
      9       2.6361      2.00000
     10       2.6361      2.00000
     11       3.4990      2.00000
     12       3.4990      2.00000
     13       4.1366      2.00000
     14       4.1366      2.00000
     15       4.1366      2.00000
     16       4.3373      2.00000
     17       4.3373      2.00000
     18       4.3373      2.00000
     19       4.3373      2.00000
     20       4.3373      2.00000
     21       4.3373      2.00000
     22       8.7992     -0.00000
     23       8.7992     -0.00000
     24       8.7992     -0.00000
     25      13.0878      0.00000
     26      13.0878      0.00000
     27      13.0878      0.00000
     28      17.2530      0.00000
     29      17.2530      0.00000
     30      17.2530      0.00000
     31      17.2530      0.00000
     32      17.2530      0.00000
     33      17.2530      0.00000
     34      22.8706      0.00000
     35      23.0762      0.00000
     36      23.0762      0.00000
     37      23.0762      0.00000
     38      23.1236      0.00000
     39      23.1236      0.00000
     40      23.1236      0.00000
     41      25.8459      0.00000
     42      25.8459      0.00000
     43      25.8459      0.00000
     44      30.4299      0.00000
     45      30.9833      0.00000
     46      30.9833      0.00000
     47      30.9833      0.00000
     48      34.5085      0.00000

 k-point     2 :       0.1111    0.0000    0.0000
  band No.  band energies     occupation 
      1       0.1651      2.00000
      2       1.3232      2.00000
      3       1.3371      2.00000
      4       1.3371      2.00000
      5       1.4176      2.00000
      6       1.4362      2.00000
      7       1.4362      2.00000
      8       2.5941      2.00000
      9       2.6758      2.00000
     10       2.6758      2.00000
     11       3.4576      2.00000
     12       3.5174      2.00000
     13       4.0813      2.00000
     14       4.0813      2.00000
     15       4.1165      2.00000
     16       4.1511      2.00000
     17       4.1511      2.00000
     18       4.2693      2.00000
     19       4.2693      2.00000
     20       4.3374      2.00000
     21       4.3374      2.00000
     22       8.0043     -0.00000
     23       9.0880     -0.00000
     24       9.0880     -0.00000
     25      13.1068      0.00000
     26      13.1068      0.00000
     27      14.0754      0.00000
     28      16.8425      0.00000
     29      16.8425      0.00000
     30      16.8529      0.00000
     31      16.8529      0.00000
     32      17.4576      0.00000
     33      17.4576      0.00000
     34      22.8768      0.00000
     35      23.0659      0.00000
     36      23.1150      0.00000
     37      23.5759      0.00000
     38      23.5759      0.00000
     39      23.7629      0.00000
     40      23.7629      0.00000
     41      25.3738      0.00000
     42      25.4558      0.00000
     43      25.4558      0.00000
     44      30.9079      0.00000
     45      30.9079      0.00000
     46      31.0579      0.00000
     47      31.2104      0.00000
     48      33.2752      0.00000

 k-point     3 :       0.2222    0.0000    0.0000
  band No.  band energies     occupation 
      1       0.5105      2.00000
      2       1.4479      2.00000
      3       1.5001      2.00000
      4       1.5001      2.00000
      5       1.5173      2.00000
      6       1.5940      2.00000
      7       1.5940      2.00000
      8       2.4750      2.00000
      9       2.7934      2.00000
     10       2.7934      2.00000
     11       3.3495      2.00000
     12       3.5704      2.00000
     13       3.7052      2.00000
     14       3.7052      2.00000
     15       3.9266      2.00000
     16       3.9266      2.00000
     17       4.0587      2.00000
     18       4.0821      2.00000
     19       4.0821      2.00000
     20       4.3376      2.00000
     21       4.3376      2.00000
     22       6.5496      2.00000
     23       9.8388      0.00000
     24       9.8388      0.00000
     25      13.1672      0.00000
     26      13.1672      0.00000
     27      15.8564      0.00000
     28      15.8564      0.00000
     29      16.0421      0.00000
     30      16.0421      0.00000
     31      16.1079      0.00000
     32      18.0512      0.00000
     33      18.0512      0.00000
     34      22.8953      0.00000
     35      23.0611      0.00000
     36      23.0905      0.00000
     37      24.4137      0.00000
     38      24.4137      0.00000
     39      24.4812      0.00000
     40      24.6983      0.00000
     41      24.6983      0.00000
     42      25.4198      0.00000
     43      25.4198      0.00000
     44      30.0849      0.00000
     45      31.0541      0.00000
     46      31.0541      0.00000
     47      31.8829      0.00000
     48      33.4083      0.00000

 k-point     4 :       0.3333    0.0000    0.0000
  band No.  band energies     occupation 
      1       1.0302      2.00000
      2       1.6133      2.00000
      3       1.6729      2.00000
      4       1.7193      2.00000
      5       1.7193      2.00000
      6       1.8549      2.00000
      7       1.8549      2.00000
      8       2.2972      2.00000
      9       2.9824      2.00000
     10       2.9824      2.00000
     11       3.1745      2.00000
     12       3.1745      2.00000
     13       3.2402      2.00000
     14       3.6526      2.00000
     15       3.7157      2.00000
     16       3.7157      2.00000
     17       3.8160      2.00000
     18       3.8160      2.00000
     19       3.9710      2.00000
     20       4.3379      2.00000
     21       4.3379      2.00000
     22       5.1274      2.00000
     23      10.8680      0.00000
     24      10.8680      0.00000
     25      13.2708      0.00000
     26      13.2708      0.00000
     27      14.6280      0.00000
     28      14.6280      0.00000
     29      15.2852      0.00000
     30      15.2852      0.00000
     31      18.4889      0.00000
     32      18.9813      0.00000
     33      18.9813      0.00000
     34      22.9255      0.00000
     35      23.0266      0.00000
     36      23.0266      0.00000
     37      23.0536      0.00000
     38      23.1402      0.00000
     39      23.6249      0.00000
     40      26.1862      0.00000
     41      26.1862      0.00000
     42      27.3603      0.00000
     43      27.5258      0.00000
     44      27.5258      0.00000
     45      31.6506      0.00000
     46      31.6506      0.00000
     47      31.8036      0.00000
     48      31.8036      0.00000

 k-point     5 :       0.4444    0.0000    0.0000
  band No.  band energies     occupation 
      1       1.5432      2.00000
      2       1.7204      2.00000
      3       1.8696      2.00000
      4       1.8945      2.00000
      5       1.8945      2.00000
      6       2.0862      2.00000
      7       2.2142      2.00000
      8       2.2142      2.00000
      9       2.6613      2.00000
     10       2.6613      2.00000
     11       3.2307      2.00000
     12       3.2307      2.00000
     13       3.3310      2.00000
     14       3.5186      2.00000
     15       3.5186      2.00000
     16       3.5450      2.00000
     17       3.5450      2.00000
     18       3.7547      2.00000
     19       3.8653      2.00000
     20       3.9730      2.00000
     21       4.3380      2.00000
     22       4.3380      2.00000
     23      12.0569      0.00000
     24      12.0569      0.00000
     25      13.3318      0.00000
     26      13.3318      0.00000
     27      13.3801      0.00000
     28      13.3801      0.00000
     29      14.8165      0.00000
     30      14.8165      0.00000
     31      20.1782      0.00000
     32      20.1782      0.00000
     33      20.9334      0.00000
     34      21.5611      0.00000
     35      21.5611      0.00000
     36      22.7274      0.00000
     37      22.9652      0.00000
     38      23.0098      0.00000
     39      23.4893      0.00000
     40      24.8208      0.00000
     41      27.9032      0.00000
     42      27.9032      0.00000
     43      29.5784      0.00000
     44      29.5784      0.00000
     45      29.7942      0.00000
     46      29.7942      0.00000
     47      32.6528      0.00000
     48      32.6528      0.00000

 k-point     6 :       0.1111    0.1111    0.0000
  band No.  band energies     occupation 
      1       0.2812      2.00000
      2       1.3769      2.00000
      3       1.3830      2.00000
      4       1.3830      2.00000
      5       1.4692      2.00000
      6       1.4692      2.00000
      7       1.5042      2.00000
      8       2.5799      2.00000
      9       2.6899      2.00000
     10       2.7108      2.00000
     11       3.4473      2.00000
     12       3.5115      2.00000
     13       3.9973      2.00000
     14       3.9973      2.00000
     15       4.0298      2.00000
     16       4.0306      2.00000
     17       4.1461      2.00000
     18       4.1461      2.00000
     19       4.2691      2.00000
     20       4.2691      2.00000
     21       4.2898      2.00000
     22       8.2720     -0.00000
     23       8.2720     -0.00000
     24       9.3592     -0.00000
     25      13.1229      0.00000
     26      14.1128      0.00000
     27      14.1128      0.00000
     28      15.6226      0.00000
     29      17.0363      0.00000
     30      17.0363      0.00000
     31      17.0400      0.00000
     32      17.0400      0.00000
     33      17.6458      0.00000
     34      22.7744      0.00000
     35      23.0568      0.00000
     36      23.5805      0.00000
     37      23.5805      0.00000
     38      23.7680      0.00000
     39      23.7680      0.00000
     40      24.1857      0.00000
     41      25.0400      0.00000
     42      25.2663      0.00000
     43      26.2721      0.00000
     44      29.6565      0.00000
     45      30.9611      0.00000
     46      31.2534      0.00000
     47      32.5422      0.00000
     48      33.0341      0.00000

 k-point     7 :       0.2222    0.1111    0.0000
  band No.  band energies     occupation 
      1       0.6175      2.00000
      2       1.5035      2.00000
      3       1.5099      2.00000
      4       1.5480      2.00000
      5       1.5651      2.00000
      6       1.6232      2.00000
      7       1.6867      2.00000
      8       2.4791      2.00000
      9       2.7945      2.00000
     10       2.8092      2.00000
     11       3.3604      2.00000
     12       3.5688      2.00000
     13       3.5886      2.00000
     14       3.6432      2.00000
     15       3.7996      2.00000
     16       3.8854      2.00000
     17       3.9617      2.00000
     18       4.0809      2.00000
     19       4.0924      2.00000
     20       4.2665      2.00000
     21       4.2683      2.00000
     22       6.8162      2.00649
     23       8.9461     -0.00000
     24      10.0765      0.00000
     25      13.1484      0.00000
     26      14.2176      0.00000
     27      14.3932      0.00000
     28      16.0357      0.00000
     29      16.1333      0.00000
     30      16.2237      0.00000
     31      17.5593      0.00000
     32      17.5859      0.00000
     33      17.5945      0.00000
     34      22.4238      0.00000
     35      22.9247      0.00000
     36      23.5978      0.00000
     37      23.6228      0.00000
     38      23.8145      0.00000
     39      24.7245      0.00000
     40      24.7685      0.00000
     41      25.4284      0.00000
     42      26.0094      0.00000
     43      26.8081      0.00000
     44      29.0881      0.00000
     45      31.0387      0.00000
     46      31.1543      0.00000
     47      31.8717      0.00000
     48      33.5697      0.00000

 k-point     8 :       0.3333    0.1111    0.0000
  band No.  band energies     occupation 
      1       1.1213      2.00000
      2       1.6801      2.00000
      3       1.7087      2.00000
      4       1.7150      2.00000
      5       1.7704      2.00000
      6       1.8772      2.00000
      7       1.9421      2.00000
      8       2.3121      2.00000
      9       2.9226      2.00000
     10       2.9807      2.00000
     11       3.0852      2.00000
     12       3.1474      2.00000
     13       3.3116      2.00000
     14       3.5240      2.00000
     15       3.6762      2.00000
     16       3.6878      2.00000
     17       3.7416      2.00000
     18       3.8140      2.00000
     19       3.9895      2.00000
     20       4.2627      2.00000
     21       4.2668      2.00000
     22       5.4251      2.00000
     23       9.8323      0.00000
     24      11.0772      0.00000
     25      12.8198      0.00000
     26      13.6768      0.00000
     27      14.3075      0.00000
     28      14.8021      0.00000
     29      15.5848      0.00000
     30      16.8778      0.00000
     31      18.2330      0.00000
     32      18.4549      0.00000
     33      18.6688      0.00000
     34      21.7064      0.00000
     35      21.7166      0.00000
     36      23.6388      0.00000
     37      23.9934      0.00000
     38      24.2389      0.00000
     39      24.8378      0.00000
     40      25.0482      0.00000
     41      26.2293      0.00000
     42      27.4239      0.00000
     43      27.5609      0.00000
     44      28.8325      0.00000
     45      30.8265      0.00000
     46      31.5655      0.00000
     47      31.6495      0.00000
     48      31.8803      0.00000

 k-point     9 :       0.4444    0.1111    0.0000
  band No.  band energies     occupation 
      1       1.6202      2.00000
      2       1.7937      2.00000
      3       1.9038      2.00000
      4       1.9186      2.00000
      5       1.9455      2.00000
      6       2.1111      2.00000
      7       2.2260      2.00000
      8       2.2369      2.00000
      9       2.6144      2.00000
     10       2.6576      2.00000
     11       2.9839      2.00000
     12       3.2074      2.00000
     13       3.2280      2.00000
     14       3.5159      2.00000
     15       3.5302      2.00000
     16       3.5333      2.00000
     17       3.5547      2.00000
     18       3.8349      2.00000
     19       3.8427      2.00000
     20       4.2634      2.00000
     21       4.2651      2.00000
     22       4.3462      2.00000
     23      10.8158      0.00000
     24      11.8422      0.00000
     25      12.2464      0.00000
     26      13.5096      0.00000
     27      13.8042      0.00000
     28      14.1247      0.00000
     29      15.5799      0.00000
     30      16.1195      0.00000
     31      19.3731      0.00000
     32      19.5257      0.00000
     33      20.5207      0.00000
     34      20.6779      0.00000
     35      21.0102      0.00000
     36      23.2275      0.00000
     37      23.7256      0.00000
     38      23.9009      0.00000
     39      24.4688      0.00000
     40      25.5740      0.00000
     41      26.8013      0.00000
     42      27.9596      0.00000
     43      28.3097      0.00000
     44      29.8625      0.00000
     45      30.8464      0.00000
     46      30.9206      0.00000
     47      31.7574      0.00000
     48      32.5448      0.00000

 k-point    10 :       0.2222    0.2222    0.0000
  band No.  band energies     occupation 
      1       0.9241      2.00000
      2       1.5770      2.00000
      3       1.6820      2.00000
      4       1.6820      2.00000
      5       1.7077      2.00000
      6       1.7077      2.00000
      7       1.8884      2.00000
      8       2.4486      2.00000
      9       2.8443      2.00000
     10       2.8547      2.00000
     11       3.3240      2.00000
     12       3.3530      2.00000
     13       3.3530      2.00000
     14       3.4207      2.00000
     15       3.6491      2.00000
     16       3.7676      2.00000
     17       3.9627      2.00000
     18       3.9627      2.00000
     19       4.0775      2.00000
     20       4.0775      2.00000
     21       4.1513      2.00000
     22       7.4543     -0.00000
     23       7.4543     -0.00000
     24      10.7255      0.00000
     25      12.5903      0.00000
     26      13.5794      0.00000
     27      16.0096      0.00000
     28      16.0096      0.00000
     29      16.5496      0.00000
     30      16.5496      0.00000
     31      16.9265      0.00000
     32      16.9265      0.00000
     33      18.7581      0.00000
     34      21.5152      0.00000
     35      21.5184      0.00000
     36      22.9607      0.00000
     37      24.8050      0.00000
     38      24.8050      0.00000
     39      25.2497      0.00000
     40      25.4897      0.00000
     41      25.4897      0.00000
     42      27.4425      0.00000
     43      27.4917      0.00000
     44      28.6930      0.00000
     45      30.4136      0.00000
     46      30.9268      0.00000
     47      32.3332      0.00000
     48      32.9941      0.00000

 k-point    11 :       0.3333    0.2222    0.0000
  band No.  band energies     occupation 
      1       1.3743      2.00000
      2       1.7392      2.00000
      3       1.8389      2.00000
      4       1.8667      2.00000
      5       1.9160      2.00000
      6       1.9413      2.00000
      7       2.1326      2.00000
      8       2.3385      2.00000
      9       2.8707      2.00000
     10       2.8861      2.00000
     11       2.9956      2.00000
     12       3.0520      2.00000
     13       3.0756      2.00000
     14       3.3003      2.00000
     15       3.6032      2.00000
     16       3.7544      2.00000
     17       3.8089      2.00000
     18       3.8641      2.00000
     19       3.8794      2.00000
     20       4.0732      2.00000
     21       4.0922      2.00000
     22       6.0638      2.00000
     23       8.2715     -0.00000
     24      11.3685      0.00000
     25      11.6621      0.00000
     26      13.6993      0.00000
     27      15.3005      0.00000
     28      15.3145      0.00000
     29      17.0334      0.00000
     30      17.1063      0.00000
     31      17.3355      0.00000
     32      18.8370      0.00000
     33      18.8483      0.00000
     34      20.2380      0.00000
     35      20.4798      0.00000
     36      23.6847      0.00000
     37      24.9439      0.00000
     38      25.4395      0.00000
     39      25.6448      0.00000
     40      25.6997      0.00000
     41      26.3568      0.00000
     42      27.1758      0.00000
     43      28.3727      0.00000
     44      29.1857      0.00000
     45      30.7410      0.00000
     46      31.1991      0.00000
     47      31.3245      0.00000
     48      32.1126      0.00000

 k-point    12 :       0.4444    0.2222    0.0000
  band No.  band energies     occupation 
      1       1.8240      2.00000
      2       1.9671      2.00000
      3       1.9976      2.00000
      4       2.0024      2.00000
      5       2.0876      2.00000
      6       2.1778      2.00000
      7       2.2578      2.00000
      8       2.3304      2.00000
      9       2.5088      2.00000
     10       2.6400      2.00000
     11       2.7828      2.00000
     12       2.8262      2.00000
     13       3.2288      2.00000
     14       3.4694      2.00000
     15       3.4854      2.00000
     16       3.5116      2.00000
     17       3.5492      2.00000
     18       3.7075      2.00000
     19       4.0702      2.00000
     20       4.0731      2.00000
     21       4.2499      2.00000
     22       4.9614      2.00000
     23       9.1958     -0.00000
     24      10.2221      0.00000
     25      12.7838      0.00000
     26      14.0176      0.00000
     27      14.0489      0.00000
     28      14.5906      0.00000
     29      17.5346      0.00000
     30      18.0419      0.00000
     31      18.2091      0.00000
     32      18.3108      0.00000
     33      19.0834      0.00000
     34      19.3868      0.00000
     35      21.2172      0.00000
     36      23.5579      0.00000
     37      25.1364      0.00000
     38      25.3395      0.00000
     39      25.3420      0.00000
     40      26.1932      0.00000
     41      27.0231      0.00000
     42      27.1234      0.00000
     43      28.1230      0.00000
     44      30.0611      0.00000
     45      30.1152      0.00000
     46      31.1767      0.00000
     47      31.7658      0.00000
     48      32.0779      0.00000

 k-point    13 :       0.3333    0.3333    0.0000
  band No.  band energies     occupation 
      1       1.7210      2.00000
      2       1.8414      2.00000
      3       2.0382      2.00000
      4       2.0382      2.00000
      5       2.1276      2.00000
      6       2.1276      2.00000
      7       2.3297      2.00000
      8       2.3585      2.00000
      9       2.6610      2.00000
     10       2.6610      2.00000
     11       2.8611      2.00000
     12       2.8629      2.00000
     13       3.0792      2.00000
     14       3.2036      2.00000
     15       3.4734      2.00000
     16       3.6841      2.00000
     17       3.6841      2.00000
     18       3.8051      2.00000
     19       3.8051      2.00000
     20       3.9344      2.00000
     21       4.2463      2.00000
     22       6.8471      2.01902
     23       6.8471      2.01902
     24       9.9825      0.00000
     25      12.5312      0.00000
     26      13.9763      0.00000
     27      16.0044      0.00000
     28      16.0044      0.00000
     29      16.0641      0.00000
     30      16.0641      0.00000
     31      18.9265      0.00000
     32      19.2350      0.00000
     33      19.2350      0.00000
     34      19.2715      0.00000
     35      20.4425      0.00000
     36      22.9525      0.00000
     37      25.4195      0.00000
     38      26.3957      0.00000
     39      26.5553      0.00000
     40      26.5553      0.00000
     41      26.9128      0.00000
     42      26.9128      0.00000
     43      27.5534      0.00000
     44      29.5365      0.00000
     45      30.9647      0.00000
     46      30.9933      0.00000
     47      30.9933      0.00000
     48      32.4820      0.00000

 k-point    14 :       0.4444    0.3333    0.0000
  band No.  band energies     occupation 
      1       2.0210      2.00000
      2       2.0539      2.00000
      3       2.1524      2.00000
      4       2.2572      2.00000
      5       2.2602      2.00000
      6       2.2659      2.00000
      7       2.2983      2.00000
      8       2.4426      2.00000
      9       2.5072      2.00000
     10       2.5394      2.00000
     11       2.5900      2.00000
     12       2.7289      2.00000
     13       3.2609      2.00000
     14       3.2923      2.00000
     15       3.3807      2.00000
     16       3.4726      2.00000
     17       3.5133      2.00000
     18       3.5175      2.00000
     19       3.8118      2.00000
     20       3.8458      2.00000
     21       4.8250      2.00000
     22       5.6815      2.00000
     23       7.7447     -0.00000
     24       8.7787     -0.00000
     25      13.5979      0.00000
     26      14.4368      0.00000
     27      14.7946      0.00000
     28      15.1067      0.00000
     29      16.8137      0.00000
     30      17.0217      0.00000
     31      17.7862      0.00000
     32      18.1079      0.00000
     33      19.7988      0.00000
     34      20.4512      0.00000
     35      21.5854      0.00000
     36      23.8451      0.00000
     37      24.0671      0.00000
     38      25.9288      0.00000
     39      26.7634      0.00000
     40      26.7696      0.00000
     41      26.8231      0.00000
     42      26.8455      0.00000
     43      28.3602      0.00000
     44      30.3031      0.00000
     45      30.3371      0.00000
     46      30.6884      0.00000
     47      31.4457      0.00000
     48      32.2957      0.00000

 k-point    15 :       0.4444    0.4444    0.0000
  band No.  band energies     occupation 
      1       2.1064      2.00000
      2       2.1806      2.00000
      3       2.2452      2.00000
      4       2.2452      2.00000
      5       2.3185      2.00000
      6       2.3273      2.00000
      7       2.3273      2.00000
      8       2.4853      2.00000
      9       2.6168      2.00000
     10       2.6168      2.00000
     11       2.6792      2.00000
     12       2.7802      2.00000
     13       3.1647      2.00000
     14       3.2544      2.00000
     15       3.3066      2.00000
     16       3.3066      2.00000
     17       3.3639      2.00000
     18       3.5569      2.00000
     19       3.5569      2.00000
     20       3.6613      2.00000
     21       5.5668      2.00000
     22       6.5299      2.00000
     23       6.5299      2.00000
     24       7.5503     -0.00000
     25      14.6143      0.00000
     26      15.0113      0.00000
     27      15.7721      0.00000
     28      15.7721      0.00000
     29      15.7989      0.00000
     30      15.7989      0.00000
     31      16.6893      0.00000
     32      16.8914      0.00000
     33      22.1429      0.00000
     34      22.1429      0.00000
     35      22.5505      0.00000
     36      23.2336      0.00000
     37      24.0092      0.00000
     38      24.9629      0.00000
     39      25.0893      0.00000
     40      25.0893      0.00000
     41      28.0707      0.00000
     42      28.5172      0.00000
     43      28.5172      0.00000
     44      30.1068      0.00000
     45      31.1820      0.00000
     46      31.6783      0.00000
     47      31.9638      0.00000
     48      31.9867      0.00000

 k-point    16 :       0.1111    0.1111    0.1111
  band No.  band energies     occupation 
      1       0.3933      2.00000
      2       1.4188      2.00000
      3       1.4188      2.00000
      4       1.4188      2.00000
      5       1.5401      2.00000
      6       1.5401      2.00000
      7       1.5401      2.00000
      8       2.5770      2.00000
      9       2.7183      2.00000
     10       2.7183      2.00000
     11       3.4746      2.00000
     12       3.4746      2.00000
     13       3.9551      2.00000
     14       3.9551      2.00000
     15       3.9551      2.00000
     16       3.9690      2.00000
     17       3.9690      2.00000
     18       3.9690      2.00000
     19       4.2714      2.00000
     20       4.2714      2.00000
     21       4.2714      2.00000
     22       8.5178     -0.00000
     23       8.5178     -0.00000
     24       8.5178     -0.00000
     25      14.1338      0.00000
     26      14.1338      0.00000
     27      14.1338      0.00000
     28      15.8198      0.00000
     29      15.8198      0.00000
     30      15.8198      0.00000
     31      17.8399      0.00000
     32      17.8399      0.00000
     33      17.8399      0.00000
     34      22.3343      0.00000
     35      23.0450      0.00000
     36      23.0450      0.00000
     37      23.0450      0.00000
     38      23.8299      0.00000
     39      25.0662      0.00000
     40      25.0662      0.00000
     41      25.0662      0.00000
     42      25.8528      0.00000
     43      25.8528      0.00000
     44      29.5437      0.00000
     45      30.7056      0.00000
     46      30.7056      0.00000
     47      33.5072      0.00000
     48      33.8728      0.00000

 k-point    17 :       0.2222    0.1111    0.1111
  band No.  band energies     occupation 
      1       0.7160      2.00000
      2       1.5302      2.00000
      3       1.5403      2.00000
      4       1.5403      2.00000
      5       1.6489      2.00000
      6       1.7244      2.00000
      7       1.7244      2.00000
      8       2.5006      2.00000
      9       2.8037      2.00000
     10       2.8038      2.00000
     11       3.3907      2.00000
     12       3.5481      2.00000
     13       3.5481      2.00000
     14       3.5530      2.00000
     15       3.7446      2.00000
     16       3.8095      2.00000
     17       3.8587      2.00000
     18       3.8587      2.00000
     19       4.2095      2.00000
     20       4.2462      2.00000
     21       4.2462      2.00000
     22       7.0480      0.89182
     23       9.1519     -0.00000
     24       9.1519     -0.00000
     25      14.0007      0.00000
     26      14.0007      0.00000
     27      14.8131      0.00000
     28      14.8131      0.00000
     29      15.9164      0.00000
     30      16.5839      0.00000
     31      17.7271      0.00000
     32      17.7271      0.00000
     33      18.4061      0.00000
     34      21.3192      0.00000
     35      23.0235      0.00000
     36      23.4849      0.00000
     37      23.6215      0.00000
     38      23.6215      0.00000
     39      24.7458      0.00000
     40      25.1629      0.00000
     41      26.3801      0.00000
     42      26.8402      0.00000
     43      26.8402      0.00000
     44      28.6577      0.00000
     45      30.7040      0.00000
     46      31.0130      0.00000
     47      32.0959      0.00000
     48      33.6157      0.00000

 k-point    18 :       0.3333    0.1111    0.1111
  band No.  band energies     occupation 
      1       1.1925      2.00000
      2       1.6731      2.00000
      3       1.7438      2.00000
      4       1.7438      2.00000
      5       1.8227      2.00000
      6       1.9730      2.00000
      7       1.9730      2.00000
      8       2.3548      2.00000
      9       2.8979      2.00000
     10       2.9437      2.00000
     11       3.0732      2.00000
     12       3.0732      2.00000
     13       3.4038      2.00000
     14       3.4377      2.00000
     15       3.5921      2.00000
     16       3.6717      2.00000
     17       3.6814      2.00000
     18       3.6814      2.00000
     19       4.1034      2.00000
     20       4.2249      2.00000
     21       4.2249      2.00000
     22       5.6488      2.00000
     23      10.0046      0.00000
     24      10.0046      0.00000
     25      13.0732      0.00000
     26      13.0732      0.00000
     27      14.8153      0.00000
[...]
  band No.  band energies     occupation 
      1       1.5590      2.00000
      2       1.6619      2.00000
      3       1.7877      2.00000
      4       1.7918      2.00000
      5       2.3547      2.00000
      6       2.3617      2.00000
      7       2.5484      2.00000
      8       2.6730      2.00000
      9       2.8392      2.00000
     10       2.9206      2.00000
     11       3.0072      2.00000
     12       3.0663      2.00000
     13       3.1011      2.00000
     14       3.1466      2.00000
     15       3.1701      2.00000
     16       3.2214      2.00000
     17       3.8531      2.00000
     18       4.0545      2.00000
     19       4.0680      2.00000
     20       4.0776      2.00000
     21       4.8131      2.00000
     22       5.8907      2.00000
     23       8.0136     -0.00000
     24       8.8724     -0.00000
     25      10.6939      0.00000
     26      11.5311      0.00000
     27      13.5527      0.00000
     28      14.6142      0.00000
     29      18.2546      0.00000
     30      19.0574      0.00000
     31      20.0544      0.00000
     32      20.7271      0.00000
     33      20.7539      0.00000
     34      21.5931      0.00000
     35      21.7166      0.00000
     36      23.3691      0.00000
     37      23.7861      0.00000
     38      23.9604      0.00000
     39      24.5241      0.00000
     40      25.0391      0.00000
     41      28.9746      0.00000
     42      29.0565      0.00000
     43      29.1078      0.00000
     44      29.5522      0.00000
     45      29.7688      0.00000
     46      30.7622      0.00000
     47      31.8934      0.00000
     48      32.0384      0.00000

 k-point    31 :       0.4444    0.4444    0.2222
  band No.  band energies     occupation 
      1       1.5809      2.00000
      2       1.6616      2.00000
      3       1.6616      2.00000
      4       1.7037      2.00000
      5       2.4490      2.00000
      6       2.5046      2.00000
      7       2.5046      2.00000
      8       2.6154      2.00000
      9       2.8177      2.00000
     10       2.8942      2.00000
     11       2.8942      2.00000
     12       2.9308      2.00000
     13       3.3339      2.00000
     14       3.3339      2.00000
     15       3.3420      2.00000
     16       3.4679      2.00000
     17       3.7854      2.00000
     18       3.9549      2.00000
     19       3.9549      2.00000
     20       3.9716      2.00000
     21       5.6136      2.00000
     22       6.6900      2.00001
     23       6.6900      2.00001
     24       7.7056     -0.00000
     25      11.4002      0.00000
     26      12.3748      0.00000
     27      12.3748      0.00000
     28      13.4061      0.00000
     29      18.9149      0.00000
     30      19.7591      0.00000
     31      19.7591      0.00000
     32      20.6124      0.00000
     33      22.1872      0.00000
     34      22.1872      0.00000
     35      22.7965      0.00000
     36      22.9131      0.00000
     37      23.3830      0.00000
     38      24.2845      0.00000
     39      24.2845      0.00000
     40      24.7986      0.00000
     41      28.8138      0.00000
     42      28.9356      0.00000
     43      28.9356      0.00000
     44      29.1559      0.00000
     45      29.9981      0.00000
     46      30.3567      0.00000
     47      30.5920      0.00000
     48      30.5920      0.00000

 k-point    32 :       0.3333    0.3333    0.3333
  band No.  band energies     occupation 
      1       1.4052      2.00000
      2       1.6446      2.00000
      3       1.6446      2.00000
      4       1.6446      2.00000
      5       2.4376      2.00000
      6       2.4376      2.00000
      7       2.4376      2.00000
      8       2.7325      2.00000
      9       2.7325      2.00000
     10       2.9677      2.00000
     11       2.9677      2.00000
     12       2.9677      2.00000
     13       3.2327      2.00000
     14       3.2327      2.00000
     15       3.2327      2.00000
     16       3.8544      2.00000
     17       3.8544      2.00000
     18       4.0971      2.00000
     19       4.1871      2.00000
     20       4.1871      2.00000
     21       4.1871      2.00000
     22       7.6694     -0.00000
     23       7.6694     -0.00000
     24       7.6694     -0.00000
     25      11.3425      0.00000
     26      11.3425      0.00000
     27      11.3425      0.00000
     28      14.4398      0.00000
     29      19.8531      0.00000
     30      19.8531      0.00000
     31      19.8531      0.00000
     32      21.5475      0.00000
     33      21.5475      0.00000
     34      21.5475      0.00000
     35      22.7455      0.00000
     36      22.7455      0.00000
     37      22.7455      0.00000
     38      22.7484      0.00000
     39      24.8057      0.00000
     40      24.8057      0.00000
     41      28.7807      0.00000
     42      28.7807      0.00000
     43      29.8312      0.00000
     44      30.8068      0.00000
     45      30.8068      0.00000
     46      30.8080      0.00000
     47      30.8102      0.00000
     48      30.8102      0.00000

 k-point    33 :       0.4444    0.3333    0.3333
  band No.  band energies     occupation 
      1       1.4259      2.00000
      2       1.5147      2.00000
      3       1.5967      2.00000
      4       1.5967      2.00000
      5       2.4490      2.00000
      6       2.4490      2.00000
      7       2.5589      2.00000
      8       2.6636      2.00000
      9       2.7390      2.00000
     10       2.8204      2.00000
     11       2.8803      2.00000
     12       2.8803      2.00000
     13       3.4450      2.00000
     14       3.4478      2.00000
     15       3.4478      2.00000
     16       3.6741      2.00000
     17       4.0404      2.00000
     18       4.1412      2.00000
     19       4.1412      2.00000
     20       4.1569      2.00000
     21       5.0595      2.00000
     22       6.2677      2.00000
     23       8.1055     -0.00000
     24       8.1055     -0.00000
     25      10.4611      0.00000
     26      10.4611      0.00000
     27      12.1845      0.00000
     28      13.2222      0.00000
     29      20.3964      0.00000
     30      20.3964      0.00000
     31      21.1514      0.00000
     32      21.1514      0.00000
     33      21.7319      0.00000
     34      22.4101      0.00000
     35      22.4104      0.00000
     36      23.1264      0.00000
     37      23.5067      0.00000
     38      23.6295      0.00000
     39      23.6295      0.00000
     40      24.5374      0.00000
     41      28.7132      0.00000
     42      29.3403      0.00000
     43      29.3613      0.00000
     44      29.3613      0.00000
     45      29.8597      0.00000
     46      30.0344      0.00000
     47      30.7911      0.00000
     48      31.0812      0.00000

 k-point    34 :       0.4444    0.4444    0.3333
  band No.  band energies     occupation 
      1       1.3937      2.00000
      2       1.4552      2.00000
      3       1.4552      2.00000
      4       1.4835      2.00000
      5       2.5239      2.00000
      6       2.5574      2.00000
      7       2.5574      2.00000
      8       2.6414      2.00000
      9       2.6894      2.00000
     10       2.7471      2.00000
     11       2.7471      2.00000
     12       2.7645      2.00000
     13       3.7155      2.00000
     14       3.7284      2.00000
     15       3.7284      2.00000
     16       3.9376      2.00000
     17       3.9902      2.00000
     18       4.1120      2.00000
     19       4.1170      2.00000
     20       4.1170      2.00000
     21       5.8078      2.00000
     22       6.8931      2.05664
     23       6.8931      2.05664
     24       7.6501     -0.00000
     25      10.3814      0.00000
     26      11.0877      0.00000
     27      11.0877      0.00000
     28      12.0391      0.00000
     29      20.9007      0.00000
     30      21.5170      0.00000
     31      21.5170      0.00000
     32      22.0314      0.00000
     33      22.4302      0.00000
     34      22.4302      0.00000
     35      22.7880      0.00000
     36      23.1093      0.00000
     37      23.3645      0.00000
     38      23.7738      0.00000
     39      23.7738      0.00000
     40      24.4973      0.00000
     41      28.6141      0.00000
     42      28.9989      0.00000
     43      28.9989      0.00000
     44      29.0035      0.00000
     45      29.5420      0.00000
     46      29.6798      0.00000
     47      29.8446      0.00000
     48      29.8446      0.00000

 k-point    35 :       0.4444    0.4444    0.4444
  band No.  band energies     occupation 
      1       1.3169      2.00000
      2       1.3490      2.00000
      3       1.3490      2.00000
      4       1.3490      2.00000
      5       2.5941      2.00000
      6       2.5941      2.00000
      7       2.5941      2.00000
      8       2.6357      2.00000
      9       2.6357      2.00000
     10       2.6617      2.00000
     11       2.6617      2.00000
     12       2.6617      2.00000
     13       4.0067      2.00000
     14       4.0067      2.00000
     15       4.0067      2.00000
     16       4.1248      2.00000
     17       4.1248      2.00000
     18       4.1673      2.00000
     19       4.1673      2.00000
     20       4.1673      2.00000
     21       6.3342      2.00000
     22       7.0997      0.17731
     23       7.0997      0.17731
     24       7.0997      0.17731
     25      10.2996      0.00000
     26      10.2996      0.00000
     27      10.2996      0.00000
     28      10.9622      0.00000
     29      21.9863      0.00000
     30      21.9863      0.00000
     31      21.9863      0.00000
     32      22.1735      0.00000
     33      23.4280      0.00000
     34      23.4280      0.00000
     35      23.4280      0.00000
     36      23.5395      0.00000
     37      23.5395      0.00000
     38      23.5395      0.00000
     39      24.0381      0.00000
     40      24.0381      0.00000
     41      28.5668      0.00000
     42      28.5668      0.00000
     43      28.9145      0.00000
     44      28.9145      0.00000
     45      28.9145      0.00000
     46      28.9739      0.00000
     47      28.9739      0.00000
     48      28.9739      0.00000


--------------------------------------------------------------------------------------------------------


 soft charge-density along one line, spin component           1
         0         1         2         3         4         5         6         7         8         9
 total charge-density along one line
 
 pseudopotential strength for first ion, spin component:           1
 -4.678   0.000   0.000   0.000   0.000  -4.884   0.000   0.000
  0.000  -4.678   0.000   0.000  -0.000   0.000  -4.884   0.000
  0.000   0.000  -4.669   0.000   0.000   0.000   0.000  -4.875
  0.000   0.000   0.000  -4.678  -0.000   0.000   0.000   0.000
  0.000  -0.000   0.000  -0.000  -4.669   0.000  -0.000   0.000
 -4.884   0.000   0.000   0.000   0.000  -5.057   0.000   0.000
  0.000  -4.884   0.000   0.000  -0.000   0.000  -5.057   0.000
  0.000   0.000  -4.875   0.000   0.000   0.000   0.000  -5.048
  0.000   0.000   0.000  -4.884  -0.000   0.000   0.000   0.000
  0.000  -0.000  -0.000  -0.000  -4.875   0.000  -0.000   0.000
  0.000  -0.000  -0.000  -0.000   0.000   0.000  -0.000  -0.000
  0.000  -0.000  -0.000  -0.000   0.000   0.000  -0.000  -0.000
  0.000  -0.000   0.000   0.000   0.000   0.000  -0.000   0.000
  0.000  -0.000  -0.000   0.000  -0.000   0.000  -0.000  -0.000
 -0.000   0.000  -0.000  -0.000   0.000  -0.000   0.000  -0.000
  0.000  -0.000   0.000   0.000   0.000   0.000  -0.000   0.000
  0.000  -0.000  -0.000   0.000  -0.000   0.000  -0.000  -0.000
 -0.000   0.000  -0.000  -0.000   0.000  -0.000   0.000  -0.000
 total augmentation occupancy for first ion, spin component:           1
  3.173   0.000  -0.000  -0.000   0.000  -1.160   0.000   0.000   0.000   0.000  -0.000  -0.000   0.000   0.000   0.000  -0.000
  0.000   3.173   0.000  -0.000   0.000   0.000  -1.160   0.000  -0.000  -0.000  -0.000  -0.000  -0.000   0.000   0.000  -0.000
  0.000   0.000   3.193   0.000   0.000  -0.000  -0.000  -1.064  -0.000   0.000  -0.000   0.000  -0.000  -0.000   0.000   0.000
 -0.000   0.000   0.000   3.173  -0.000  -0.000  -0.000   0.000  -1.160  -0.000   0.000   0.000  -0.000   0.000  -0.000  -0.000
  0.000   0.000   0.000  -0.000   3.193   0.000  -0.000   0.000  -0.000  -1.064  -0.000  -0.000  -0.000   0.000   0.000   0.000
 -1.160   0.000  -0.000  -0.000  -0.000   1.092   0.000   0.000   0.000   0.000   0.000   0.000   0.000   0.000   0.000   0.000
  0.000  -1.160  -0.000  -0.000  -0.000  -0.000   1.092  -0.000  -0.000  -0.000   0.000   0.000  -0.000  -0.000  -0.000   0.000
  0.000   0.000  -1.064   0.000  -0.000   0.000  -0.000   0.903  -0.000   0.000   0.000   0.000   0.000   0.000   0.000   0.000
  0.000   0.000  -0.000  -1.160  -0.000   0.000  -0.000  -0.000   1.092  -0.000  -0.000   0.000   0.000  -0.000   0.000  -0.000
 -0.000  -0.000  -0.000  -0.000  -1.064   0.000  -0.000   0.000  -0.000   0.903  -0.000  -0.000   0.000  -0.000   0.000  -0.000
 -0.000  -0.000  -0.000   0.000  -0.000   0.000   0.000   0.000  -0.000   0.000   1.942  -0.340   0.000   0.000   0.000  -0.000
  0.000  -0.000  -0.000   0.000  -0.000   0.000   0.000   0.000   0.000   0.000  -0.340   0.075  -0.000   0.000   0.000   0.000
  0.000  -0.000  -0.000   0.000   0.000   0.000  -0.000   0.000   0.000   0.000   0.000   0.000   0.139  -0.000  -0.000  -0.008
 -0.000   0.000   0.000   0.000  -0.000   0.000   0.000   0.000  -0.000  -0.000   0.000   0.000  -0.000   0.139  -0.000  -0.000
  0.000   0.000   0.000   0.000  -0.000   0.000   0.000   0.000   0.000   0.000   0.000   0.000   0.000   0.000   0.139  -0.000
  0.000   0.000  -0.000  -0.000   0.000   0.000   0.000   0.000   0.000   0.000  -0.000   0.000  -0.008  -0.000   0.000   0.001
  0.000   0.000  -0.000  -0.000  -0.000  -0.000   0.000   0.000   0.000   0.000  -0.000   0.000   0.000  -0.008   0.000  -0.000
 -0.000   0.000   0.000   0.000  -0.000   0.000  -0.000   0.000  -0.000   0.000  -0.000   0.000  -0.000  -0.000  -0.008   0.000


------------------------ aborting loop because EDIFF is reached ----------------------------------------


    CHARGE:  cpu time    0.0128: real time    0.0128
    FORLOC:  cpu time    0.0003: real time    0.0003
    FORNL :  cpu time    0.0898: real time    0.0899
    STRESS:  cpu time    0.2974: real time    0.2975
    FORCOR:  cpu time    0.0060: real time    0.0060
    FORHAR:  cpu time    0.0009: real time    0.0009
    MIXING:  cpu time    0.0003: real time    0.0003
    OFIELD:  cpu time    0.0000: real time    0.0000

  FORCE on cell =-STRESS in cart. coord.  units (eV):
  Direction    XX          YY          ZZ          XY          YZ          ZX
  --------------------------------------------------------------------------------------
  Alpha Z   180.27808   180.27808   180.27808
  Ewald   -1260.12291 -1260.12291 -1260.12291    -0.00000     0.00000     0.00000
  Hartree   275.28300   275.28300   275.28300    -0.00000    -0.00000    -0.00000
  E(xc)    -231.94697  -231.94697  -231.94697    -0.00000    -0.00000    -0.00000
  Local     159.51992   159.51992   159.51992     0.00000     0.00000     0.00000
  n-local   -29.18950   -42.00717   -45.35711     0.07790     3.79583     1.56177
  augment   368.62551   368.62551   368.62551     0.00000     0.00000     0.00000
  Kinetic   552.16567   544.09024   538.76437    -3.67464     0.46940    -0.85511
  Fock        0.00000     0.00000     0.00000     0.00000     0.00000     0.00000
  -------------------------------------------------------------------------------------
  Total      -2.20787    -2.20787    -2.20787    -0.00000    -0.00000     0.00000
  in kB     -46.85902   -46.85902   -46.85902    -0.00000    -0.00000     0.00000
  external pressure =      -46.86 kB  Pullay stress =        0.00 kB


 VOLUME and BASIS-vectors are now :
 -----------------------------------------------------------------------------
  energy-cutoff  :      400.00
  volume of cell :       75.49
      direct lattice vectors                 reciprocal lattice vectors
     4.226333333  0.000000000  0.000000000     0.236611720  0.000000000  0.000000000
     0.000000000  4.226333333  0.000000000     0.000000000  0.236611720  0.000000000
     0.000000000  0.000000000  4.226333333     0.000000000  0.000000000  0.236611720

  length of vectors
     4.226333333  4.226333333  4.226333333     0.236611720  0.236611720  0.236611720


 FORCES acting on ions
    electron-ion (+dipol)            ewald-force                    non-local-force                 convergence-correction
 -----------------------------------------------------------------------------------------------
   -.334E-13 -.297E-13 -.388E-13   -.108E-13 0.630E-15 0.162E-14   -.662E-23 -.620E-23 0.000E+00   -.298E-14 -.267E-13 -.766E-13
   -.342E-13 0.389E-12 0.375E-12   -.102E-13 0.835E-14 0.370E-14   -.103E-24 0.827E-24 0.000E+00   -.741E-14 0.464E-13 0.502E-14
   0.383E-12 -.291E-13 -.375E-11   0.114E-13 -.667E-14 0.371E-14   -.662E-23 -.827E-24 0.000E+00   0.346E-14 -.385E-13 0.146E-12
   0.381E-12 -.229E-11 -.333E-11   0.120E-13 0.105E-14 -.107E-13   -.662E-23 -.538E-23 0.000E+00   0.837E-14 0.134E-12 -.175E-14
 -----------------------------------------------------------------------------------------------
   0.697E-12 -.196E-11 -.674E-11   0.243E-14 0.336E-14 -.165E-14   -.200E-22 -.116E-22 0.000E+00   0.143E-14 0.116E-12 0.725E-13
 
 
 POSITION                                       TOTAL-FORCE (eV/Angst)
 -----------------------------------------------------------------------------------
      0.00000      0.00000      0.00000         0.000000     -0.000000      0.000000
      0.00000      2.11317      2.11317        -0.000000      0.000000     -0.000000
      2.11317      0.00000      2.11317        -0.000000     -0.000000      0.000000
      2.11317      2.11317      0.00000         0.000000      0.000000     -0.000000
 -----------------------------------------------------------------------------------
    total drift:                                0.000000     -0.000000     -0.000000


--------------------------------------------------------------------------------------------------------



  FREE ENERGIE OF THE ION-ELECTRON SYSTEM (eV)
  ---------------------------------------------------
  free  energy   TOTEN  =       -10.81658880 eV

  energy  without entropy=      -10.81729295  energy(sigma->0) =      -10.81682351
 


--------------------------------------------------------------------------------------------------------


    POTLOK:  cpu time    0.0067: real time    0.0067


--------------------------------------------------------------------------------------------------------


     LOOP+:  cpu time    6.6340: real time    6.6650
    4ORBIT:  cpu time    0.0000: real time    0.0000

 total amount of memory used by VASP on root node    39815. kBytes
========================================================================

   base      :      30000. kBytes
   nonl-proj :       7104. kBytes
   fftplans  :        221. kBytes
   grid      :        789. kBytes
   one-center:         62. kBytes
   wavefun   :       1639. kBytes
 
  
  
 General timing and accounting informations for this job:
 ========================================================
  
                  Total CPU time used (sec):       26.079
                            User time (sec):       25.957
                          System time (sec):        0.122
                         Elapsed time (sec):       27.225
  
                   Maximum memory used (kb):       69784.
                   Average memory used (kb):           0.
  
                          Minor page faults:        15364
                          Major page faults:           11
                 Voluntary context switches:         1610
