<?xml version="1.0" encoding="ISO-8859-1"?>
<modeling>
 <generator>
  <i name="program" type="string">vasp </i>
  <i name="version" type="string">5.4.1  </i>
  <i name="subversion" type="string">05Feb16 (build Feb 08 2018 09:21:51) complex                          parallel </i>
  <i name="platform" type="string">LinuxIFC </i>
  <i name="date" type="string">2019 11 21 </i>
  <i name="time" type="string">15:54:16 </i>
 </generator>
 <incar>
  <i type="string" name="PREC">normal</i>
  <i name="ENCUT">    400.00000000</i>
  <i type="int" name="ISMEAR">     1</i>
  <i name="SIGMA">      0.10000000</i>
  <i type="logical" name="LWAVE"> F  </i>
  <i type="logical" name="LCHARG"> F  </i>
  <v type="int" name="KPOINT_BSE">    -1     0     0     0</v>
 </incar>
 <kpoints>
  <generation param="Monkhorst-Pack">
   <v type="int" name="divisions">       9        9        9 </v>
   <v name="usershift">      0.00000000       0.00000000       0.00000000 </v>
   <v name="genvec1">      0.11111111       0.00000000       0.00000000 </v>
   <v name="genvec2">      0.00000000       0.11111111       0.00000000 </v>
   <v name="genvec3">      0.00000000       0.00000000       0.11111111 </v>
   <v name="shift">      0.00000000       0.00000000       0.00000000 </v>
  </generation>
  <varray name="kpointlist" >
   <v>       0.00000000       0.00000000       0.00000000 </v>
   <v>       0.11111111       0.00000000       0.00000000 </v>
   <v>       0.22222222       0.00000000       0.00000000 </v>
   <v>       0.33333333       0.00000000       0.00000000 </v>
   <v>       0.44444444       0.00000000       0.00000000 </v>
   <v>       0.11111111       0.11111111       0.00000000 </v>
   <v>       0.22222222       0.11111111       0.00000000 </v>
   <v>       0.33333333       0.11111111       0.00000000 </v>
   <v>       0.44444444       0.11111111       0.00000000 </v>
   <v>       0.22222222       0.22222222       0.00000000 </v>
   <v>       0.33333333       0.22222222       0.00000000 </v>
   <v>       0.44444444       0.22222222       0.00000000 </v>
   <v>       0.33333333       0.33333333       0.00000000 </v>
   <v>       0.44444444       0.33333333       0.00000000 </v>
   <v>       0.44444444       0.44444444       0.00000000 </v>
   <v>       0.11111111       0.11111111       0.11111111 </v>
   <v>       0.22222222       0.11111111       0.11111111 </v>
   <v>       0.33333333       0.11111111       0.11111111 </v>
   <v>       0.44444444       0.11111111       0.11111111 </v>
   <v>       0.22222222       0.22222222       0.11111111 </v>
   <v>       0.33333333       0.22222222       0.11111111 </v>
   <v>       0.44444444       0.22222222       0.11111111 </v>
   <v>       0.33333333       0.33333333       0.11111111 </v>
   <v>       0.44444444       0.33333333       0.11111111 </v>
   <v>       0.44444444       0.44444444       0.11111111 </v>
   <v>       0.22222222       0.22222222       0.22222222 </v>
   <v>       0.33333333       0.22222222       0.22222222 </v>
   <v>       0.44444444       0.22222222       0.22222222 </v>
   <v>       0.33333333       0.33333333       0.22222222 </v>
   <v>       0.44444444       0.33333333       0.22222222 </v>
   <v>       0.44444444       0.44444444       0.22222222 </v>
   <v>       0.33333333       0.33333333       0.33333333 </v>
   <v>       0.44444444       0.33333333       0.33333333 </v>
   <v>       0.44444444       0.44444444       0.33333333 </v>
   <v>       0.44444444       0.44444444       0.44444444 </v>
  </varray>
  <varray name="weights" >
   <v>       0.00137174 </v>
   <v>       0.00823045 </v>
   <v>       0.00823045 </v>
   <v>       0.00823045 </v>
   <v>       0.00823045 </v>
   <v>       0.01646091 </v>
   <v>       0.03292181 </v>
   <v>       0.03292181 </v>
   <v>       0.03292181 </v>
   <v>       0.01646091 </v>
   <v>       0.03292181 </v>
   <v>       0.03292181 </v>
   <v>       0.01646091 </v>
   <v>       0.03292181 </v>
   <v>       0.01646091 </v>
   <v>       0.01097394 </v>
   <v>       0.03292181 </v>
   <v>       0.03292181 </v>
   <v>       0.03292181 </v>
   <v>       0.03292181 </v>
   <v>       0.06584362 </v>
   <v>       0.06584362 </v>
   <v>       0.03292181 </v>
   <v>       0.06584362 </v>
   <v>       0.03292181 </v>
   <v>       0.01097394 </v>
   <v>       0.03292181 </v>
   <v>       0.03292181 </v>
   <v>       0.03292181 </v>
   <v>       0.06584362 </v>
   <v>       0.03292181 </v>
   <v>       0.01097394 </v>
   <v>       0.03292181 </v>
   <v>       0.03292181 </v>
   <v>       0.01097394 </v>
  </varray>
 </kpoints>
 <parameters>
  <separator name="general" >
   <i type="string" name="SYSTEM">unknown system</i>
   <i type="logical" name="LCOMPAT"> F  </i>
  </separator>
  <separator name="electronic" >
   <i type="string" name="PREC">normal</i>
   <i name="ENMAX">    400.00000000</i>
   <i name="ENAUG">    412.49600000</i>
   <i name="EDIFF">      0.00010000</i>
   <i type="int" name="IALGO">    38</i>
   <i type="int" name="IWAVPR">    10</i>
   <i type="int" name="NBANDS">    48</i>
   <i name="NELECT">     44.00000000</i>
   <i type="int" name="TURBO">     0</i>
   <i type="int" name="IRESTART">     0</i>
   <i type="int" name="NREBOOT">     0</i>
   <i type="int" name="NMIN">     0</i>
   <i name="EREF">      0.00000000</i>
   <separator name="electronic smearing" >
    <i type="int" name="ISMEAR">     1</i>
    <i name="SIGMA">      0.10000000</i>
    <i name="KSPACING">      0.50000000</i>
    <i type="logical" name="KGAMMA"> T  </i>
   </separator>
   <separator name="electronic projectors" >
    <i type="logical" name="LREAL"> F  </i>
    <v name="ROPT">      0.00000000</v>
    <i type="int" name="LMAXPAW">  -100</i>
    <i type="int" name="LMAXMIX">     2</i>
    <i type="logical" name="NLSPLINE"> F  </i>
   </separator>
   <separator name="electronic startup" >
    <i type="int" name="ISTART">     0</i>
    <i type="int" name="ICHARG">     2</i>
    <i type="int" name="INIWAV">     1</i>
   </separator>
   <separator name="electronic spin" >
    <i type="int" name="ISPIN">     1</i>
    <i type="logical" name="LNONCOLLINEAR"> F  </i>
    <v name="MAGMOM">      1.00000000      1.00000000      1.00000000      1.00000000</v>
    <i name="NUPDOWN">     -1.00000000</i>
    <i type="logical" name="LSORBIT"> F  </i>
    <v name="SAXIS">      0.00000000      0.00000000      1.00000000</v>
    <i type="logical" name="LSPIRAL"> F  </i>
    <v name="QSPIRAL">      0.00000000      0.00000000      0.00000000</v>
    <i type="logical" name="LZEROZ"> F  </i>
   </separator>
   <separator name="electronic exchange-correlation" >
    <i type="logical" name="LASPH"> F  </i>
    <i type="logical" name="LMETAGGA"> F  </i>
   </separator>
   <separator name="electronic convergence" >
    <i type="int" name="NELM">    60</i>
    <i type="int" name="NELMDL">    -5</i>
    <i type="int" name="NELMIN">     2</i>
    <i name="ENINI">    400.00000000</i>
    <separator name="electronic convergence detail" >
     <i type="logical" name="LDIAG"> T  </i>
     <i type="logical" name="LSUBROT"> F  </i>
     <i name="WEIMIN">      0.00000000</i>
     <i name="EBREAK">      0.00000052</i>
     <i name="DEPER">      0.30000000</i>
     <i type="int" name="NRMM">     4</i>
     <i name="TIME">      0.40000000</i>
    </separator>
   </separator>
   <separator name="electronic mixer" >
    <i name="AMIX">      0.40000000</i>
    <i name="BMIX">      1.00000000</i>
    <i name="AMIN">      0.10000000</i>
    <i name="AMIX_MAG">      1.60000000</i>
    <i name="BMIX_MAG">      1.00000000</i>
    <separator name="electronic mixer details" >
     <i type="int" name="IMIX">     4</i>
     <i type="logical" name="MIXFIRST"> F  </i>
     <i type="int" name="MAXMIX">   -45</i>
     <i name="WC">    100.00000000</i>
     <i type="int" name="INIMIX">     1</i>
     <i type="int" name="MIXPRE">     1</i>
     <i type="int" name="MREMOVE">     5</i>
    </separator>
   </separator>
   <separator name="electronic dipolcorrection" >
    <i type="logical" name="LDIPOL"> F  </i>
    <i type="logical" name="LMONO"> F  </i>
    <i type="int" name="IDIPOL">     0</i>
    <i name="EPSILON">      1.00000000</i>
    <v name="DIPOL">   -100.00000000   -100.00000000   -100.00000000</v>
    <i name="EFIELD">      0.00000000</i>
   </separator>
  </separator>
  <separator name="grids" >
   <i type="int" name="NGX">    24</i>
   <i type="int" name="NGY">    24</i>
   <i type="int" name="NGZ">    24</i>
   <i type="int" name="NGXF">    48</i>
   <i type="int" name="NGYF">    48</i>
   <i type="int" name="NGZF">    48</i>
   <i type="logical" name="ADDGRID"> F  </i>
  </separator>
  <separator name="ionic" >
   <i type="int" name="NSW">     0</i>
   <i type="int" name="IBRION">    -1</i>
   <i type="int" name="ISIF">     2</i>
   <i name="PSTRESS">      0.00000000</i>
   <i name="EDIFFG">      0.00100000</i>
   <i type="int" name="NFREE">     0</i>
   <i name="POTIM">      0.50000000</i>
   <i name="SMASS">     -3.00000000</i>
   <i name="SCALEE">      1.00000000</i>
  </separator>
  <separator name="ionic md" >
   <i name="TEBEG">      0.00010000</i>
   <i name="TEEND">      0.00010000</i>
   <i type="int" name="NBLOCK">     1</i>
   <i type="int" name="KBLOCK">     1</i>
   <i type="int" name="NPACO">   256</i>
   <i name="APACO">     16.00000000</i>
  </separator>
  <separator name="symmetry" >
   <i type="int" name="ISYM">     2</i>
   <i name="SYMPREC">      0.00001000</i>
  </separator>
  <separator name="dos" >
   <i type="logical" name="LORBIT"> F  </i>
   <v name="RWIGS">     -1.00000000</v>
   <i type="int" name="NEDOS">   301</i>
   <i name="EMIN">     10.00000000</i>
   <i name="EMAX">    -10.00000000</i>
   <i name="EFERMI">      0.00000000</i>
  </separator>
  <separator name="writing" >
   <i type="int" name="NWRITE">     2</i>
   <i type="logical" name="LWAVE"> F  </i>
   <i type="logical" name="LCHARG"> F  </i>
   <i type="logical" name="LPARD"> F  </i>
   <i type="logical" name="LVTOT"> F  </i>
   <i type="logical" name="LVHAR"> F  </i>
   <i type="logical" name="LELF"> F  </i>
   <i type="logical" name="LOPTICS"> F  </i>
   <v name="STM">      0.00000000      0.00000000      0.00000000      0.00000000      0.00000000      0.00000000      0.00000000</v>
  </separator>
  <separator name="performance" >
   <i type="int" name="NPAR">    24</i>
   <i type="int" name="NSIM">     4</i>
   <i type="int" name="NBLK">    -1</i>
   <i type="logical" name="LPLANE"> T  </i>
   <i type="logical" name="LSCALAPACK"> F  </i>
   <i type="logical" name="LSCAAWARE"> F  </i>
   <i type="logical" name="LSCALU"> F  </i>
   <i type="logical" name="LASYNC"> F  </i>
   <i type="logical" name="LORBITALREAL"> F  </i>
  </separator>
  <separator name="miscellaneous" >
   <i type="int" name="IDIOT">     3</i>
   <i type="logical" name="LMUSIC"> F  </i>
   <v name="POMASS">    107.86800000</v>
   <v name="DARWINR">      0.00000000</v>
   <v name="DARWINV">      1.00000000</v>
   <i type="logical" name="LCORR"> T  </i>
  </separator>
  <i type="logical" name="GGA_COMPAT"> T  </i>
  <i type="logical" name="LBERRY"> F  </i>
  <i type="int" name="ICORELEVEL">     0</i>
  <i type="logical" name="LDAU"> F  </i>
  <i type="int" name="I_CONSTRAINED_M">     0</i>
  <separator name="electronic exchange-correlation" >
   <i type="string" name="GGA">--</i>
   <i type="int" name="VOSKOWN">     0</i>
   <i type="logical" name="LHFCALC"> F  </i>
   <i type="string" name="PRECFOCK"></i>
   <i type="logical" name="LSYMGRAD"> F  </i>
   <i type="logical" name="LHFONE"> F  </i>
   <i type="logical" name="LRHFCALC"> F  </i>
   <i type="logical" name="LTHOMAS"> F  </i>
   <i type="logical" name="LMODELHF"> F  </i>
   <i name="ENCUT4O">     -1.00000000</i>
   <i type="int" name="EXXOEP">     0</i>
   <i type="int" name="FOURORBIT">     0</i>
   <i name="AEXX">      0.00000000</i>
   <i name="HFALPHA">      0.00000000</i>
   <i name="MCALPHA">      0.00000000</i>
   <i name="ALDAX">      1.00000000</i>
   <i name="AGGAX">      1.00000000</i>
   <i name="ALDAC">      1.00000000</i>
   <i name="AGGAC">      1.00000000</i>
   <i type="int" name="NKREDX">     1</i>
   <i type="int" name="NKREDY">     1</i>
   <i type="int" name="NKREDZ">     1</i>
   <i type="logical" name="SHIFTRED"> F  </i>
   <i type="logical" name="ODDONLY"> F  </i>
   <i type="logical" name="EVENONLY"> F  </i>
   <i type="int" name="LMAXFOCK">     0</i>
   <i type="int" name="NMAXFOCKAE">     0</i>
   <i type="logical" name="LFOCKAEDFT"> F  </i>
   <i name="HFSCREEN">      0.00000000</i>
   <i name="HFSCREENC">      0.00000000</i>
   <i type="int" name="NBANDSGWLOW">     0</i>
  </separator>
  <separator name="vdW DFT" >
   <i type="logical" name="LUSE_VDW"> F  </i>
   <i name="Zab_VDW">     -0.84910000</i>
   <i name="PARAM1">      0.12340000</i>
   <i name="PARAM2">      1.00000000</i>
   <i name="PARAM3">      0.00000000</i>
  </separator>
  <separator name="model GW" >
   <i type="int" name="MODEL_GW">     0</i>
   <i name="MODEL_EPS0">     11.32354735</i>
   <i name="MODEL_ALPHA">      1.00000000</i>
  </separator>
  <separator name="linear response parameters" >
   <i type="logical" name="LEPSILON"> F  </i>
   <i type="logical" name="LRPA"> F  </i>
   <i type="logical" name="LNABLA"> F  </i>
   <i type="logical" name="LVEL"> F  </i>
   <i type="int" name="KINTER">     0</i>
   <i name="CSHIFT">      0.10000000</i>
   <i name="OMEGAMAX">     -1.00000000</i>
   <i name="DEG_THRESHOLD">      0.00200000</i>
  </separator>
  <separator name="orbital magnetization" >
   <i type="logical" name="NUCIND"> F  </i>
   <v name="MAGPOS">      0.00000000      0.00000000      0.00000000</v>
   <i type="logical" name="LNICSALL"> T  </i>
   <i type="logical" name="ORBITALMAG"> F  </i>
   <i type="logical" name="LMAGBLOCH"> F  </i>
   <i type="logical" name="LCHIMAG"> F  </i>
   <i type="logical" name="LGAUGE"> T  </i>
   <i type="int" name="MAGATOM">     0</i>
   <v name="MAGDIPOL">      0.00000000      0.00000000      0.00000000</v>
   <v name="AVECCONST">      0.00000000      0.00000000      0.00000000</v>
  </separator>
  <separator name="response functions" >
   <i type="logical" name="LADDER"> F  </i>
   <i type="logical" name="LFXC"> F  </i>
   <i type="logical" name="LHARTREE"> T  </i>
   <i type="int" name="IBSE">     0</i>
   <v type="int" name="KPOINT">    -1     0     0     0</v>
   <i type="logical" name="LTCTE"> F  </i>
   <i type="logical" name="LTETE"> F  </i>
   <i type="logical" name="LTRIPLET"> F  </i>
   <i type="logical" name="LFXCEPS"> F  </i>
   <i type="logical" name="LFXHEG"> F  </i>
   <i type="int" name="NATURALO">     0</i>
   <i type="logical" name="L2ORDER"> F  </i>
   <i type="logical" name="LUSEW"> F  </i>
   <i name="ENCUTGW">     -2.00000000</i>
   <i name="ENCUTGWSOFT">     -2.00000000</i>
   <i name="ENCUTLF">     -1.00000000</i>
   <i type="int" name="LMAXMP2">    -1</i>
   <i name="SCISSOR">      0.00000000</i>
   <i type="int" name="NOMEGA">     0</i>
   <i type="int" name="NOMEGAR">     0</i>
   <i type="int" name="NBANDSGW">    -1</i>
   <i type="int" name="NBANDSO">    -1</i>
   <i type="int" name="NBANDSV">    -1</i>
   <i type="int" name="NELM">     1</i>
   <i type="int" name="NELMHF">     1</i>
   <i type="int" name="DIM">     3</i>
   <i type="int" name="ANTIRES">     0</i>
   <i name="OMEGAMAX">    -30.00000000</i>
   <i name="OMEGAMIN">    -30.00000000</i>
   <i name="OMEGATL">   -200.00000000</i>
   <i type="int" name="OMEGAGRID">     0</i>
   <i name="CSHIFT">     -0.10000000</i>
   <i type="logical" name="SELFENERGY"> F  </i>
   <i type="logical" name="LSPECTRAL"> F  </i>
   <i type="logical" name="LSPECTRALGW"> F  </i>
   <i type="logical" name="LSINGLES"> F  </i>
   <i type="logical" name="LFERMIGW"> F  </i>
   <i type="logical" name="ODDONLYGW"> F  </i>
   <i type="logical" name="EVENONLYGW"> F  </i>
   <i type="int" name="NKREDLFX">     1</i>
   <i type="int" name="NKREDLFY">     1</i>
   <i type="int" name="NKREDLFZ">     1</i>
   <i type="int" name="MAXMEM">  1800</i>
   <i type="int" name="TELESCOPE">     0</i>
   <i type="int" name="TAUPAR">     1</i>
   <i type="int" name="OMEGAPAR">    -1</i>
   <i name="LAMBDA">      1.00000000</i>
  </separator>
  <separator name="External order field" >
   <i name="OFIELD_KAPPA">      0.00000000</i>
   <v name="OFIELD_K">      0.00000000      0.00000000      0.00000000</v>
   <i name="OFIELD_Q6_NEAR">      0.00000000</i>
   <i name="OFIELD_Q6_FAR">      0.00000000</i>
   <i name="OFIELD_A">      0.00000000</i>
  </separator>
 </parameters>
 <atominfo>
  <atoms>       4 </atoms>
  <types>       1 </types>
  <array name="atoms" >
   <dimension dim="1">ion</dimension>
   <field type="string">element</field>
   <field type="int">atomtype</field>
   <set>
    <rc><c>Ag</c><c>   1</c></rc>
    <rc><c>Ag</c><c>   1</c></rc>
    <rc><c>Ag</c><c>   1</c></rc>
    <rc><c>Ag</c><c>   1</c></rc>
   </set>
  </array>
  <array name="atomtypes" >
   <dimension dim="1">type</dimension>
   <field type="int">atomspertype</field>
   <field type="string">element</field>
   <field>mass</field>
   <field>valence</field>
   <field type="string">pseudopotential</field>
   <set>
    <rc><c>   4</c><c>Ag</c><c>    107.86800000</c><c>     11.00000000</c><c>  PAW_PBE Ag 02Apr2005                  </c></rc>
   </set>
  </array>
 </atominfo>
 <structure name="initialpos" >
  <crystal>
   <varray name="basis" >
    <v>       4.22633333       0.00000000       0.00000000 </v>
    <v>       0.00000000       4.22633333       0.00000000 </v>
    <v>       0.00000000       0.00000000       4.22633333 </v>
   </varray>
   <i name="volume">     75.49031566 </i>
   <varray name="rec_basis" >
    <v>       0.23661172       0.00000000       0.00000000 </v>
    <v>       0.00000000       0.23661172       0.00000000 </v>
    <v>       0.00000000       0.00000000       0.23661172 </v>
   </varray>
  </crystal>
  <varray name="positions" >
   <v>       0.00000000       0.00000000       0.00000000 </v>
   <v>       0.00000000       0.50000000       0.50000000 </v>
   <v>       0.50000000       0.00000000       0.50000000 </v>
   <v>       0.50000000       0.50000000       0.00000000 </v>
  </varray>
 </structure>
 <calculation>
  <scstep>
   <time name="dav">    0.52    0.52</time>
   <time name="total">    0.55    0.55</time>
   <energy>
    <i name="alphaZ">    180.27807918 </i>
    <i name="ewald">  -3780.36707451 </i>
    <i name="hartreedc">   -873.29400812 </i>
    <i name="XCdc">    -42.69895926 </i>
    <i name="pawpsdc">   4013.84859731 </i>
    <i name="pawaedc">  -3829.39709692 </i>
    <i name="eentropy">     -0.00167539 </i>
    <i name="bandstr">    373.91531022 </i>
    <i name="atom">   4149.03371350 </i>
    <i name="e_fr_energy">    191.31688600 </i>
    <i name="e_wo_entrp">    191.31856139 </i>
    <i name="e_0_energy">    191.31744447 </i>
   </energy>
  </scstep>
  <scstep>
   <time name="dav">    0.73    0.73</time>
   <time name="total">    0.74    0.74</time>
   <energy>
    <i name="e_fr_energy">     -8.72148238 </i>
    <i name="e_wo_entrp">     -8.71926583 </i>
    <i name="e_0_energy">     -8.72074353 </i>
   </energy>
  </scstep>
  <scstep>
   <time name="dav">    0.68    0.68</time>
   <time name="total">    0.68    0.68</time>
   <energy>
    <i name="e_fr_energy">    -11.69814034 </i>
    <i name="e_wo_entrp">    -11.69610555 </i>
    <i name="e_0_energy">    -11.69746207 </i>
   </energy>
  </scstep>
  <scstep>
   <time name="dav">    0.85    0.85</time>
   <time name="total">    0.85    0.85</time>
   <energy>
    <i name="e_fr_energy">    -11.70747903 </i>
    <i name="e_wo_entrp">    -11.70544583 </i>
    <i name="e_0_energy">    -11.70680130 </i>
   </energy>
  </scstep>
  <scstep>
   <time name="dav">    0.62    0.62</time>
   <time name="total">    0.64    0.64</time>
   <energy>
    <i name="e_fr_energy">    -11.70756956 </i>
    <i name="e_wo_entrp">    -11.70553638 </i>
    <i name="e_0_energy">    -11.70689183 </i>
   </energy>
  </scstep>
  <scstep>
   <time name="dav">    0.73    0.73</time>
   <time name="total">    0.75    0.75</time>
   <energy>
    <i name="e_fr_energy">    -10.84265760 </i>
    <i name="e_wo_entrp">    -10.84300098 </i>
    <i name="e_0_energy">    -10.84277206 </i>
   </energy>
  </scstep>
  <scstep>
   <time name="dav">    0.69    0.69</time>
   <time name="total">    0.71    0.72</time>
   <energy>
    <i name="e_fr_energy">    -10.82479686 </i>
    <i name="e_wo_entrp">    -10.82541844 </i>
    <i name="e_0_energy">    -10.82500406 </i>
   </energy>
  </scstep>
  <scstep>
   <time name="dav">    0.70    0.71</time>
   <time name="total">    0.73    0.73</time>
   <energy>
    <i name="e_fr_energy">    -10.81654558 </i>
    <i name="e_wo_entrp">    -10.81725454 </i>
    <i name="e_0_energy">    -10.81678190 </i>
   </energy>
  </scstep>
  <scstep>
   <time name="dav">    0.54    0.54</time>
   <time name="total">    0.55    0.56</time>
   <energy>
    <i name="alphaZ">    180.27807918 </i>
    <i name="ewald">  -3780.36707451 </i>
    <i name="hartreedc">   -825.92665181 </i>
    <i name="XCdc">    -44.45413996 </i>
    <i name="pawpsdc">   4335.79156338 </i>
    <i name="pawaedc">  -4159.75786619 </i>
    <i name="eentropy">      0.00070415 </i>
    <i name="bandstr">    134.58508346 </i>
    <i name="atom">   4149.03371350 </i>
    <i name="e_fr_energy">    -10.81658880 </i>
    <i name="e_wo_entrp">    -10.81729295 </i>
    <i name="e_0_energy">    -10.81682351 </i>
   </energy>
  </scstep>
  <structure>
   <crystal>
    <varray name="basis" >
     <v>       4.22633333       0.00000000       0.00000000 </v>
     <v>       0.00000000       4.22633333       0.00000000 </v>
     <v>       0.00000000       0.00000000       4.22633333 </v>
    </varray>
    <i name="volume">     75.49031566 </i>
    <varray name="rec_basis" >
     <v>       0.23661172       0.00000000       0.00000000 </v>
     <v>       0.00000000       0.23661172       0.00000000 </v>
     <v>       0.00000000       0.00000000       0.23661172 </v>
    </varray>
   </crystal>
   <varray name="positions" >
    <v>       0.00000000       0.00000000       0.00000000 </v>
    <v>       0.00000000       0.50000000       0.50000000 </v>
    <v>       0.50000000       0.00000000       0.50000000 </v>
    <v>       0.50000000       0.50000000       0.00000000 </v>
   </varray>
  </structure>
  <varray name="forces" >
   <v>       0.00000000      -0.00000000       0.00000000 </v>
   <v>      -0.00000000       0.00000000      -0.00000000 </v>
   <v>      -0.00000000      -0.00000000       0.00000000 </v>
   <v>       0.00000000       0.00000000      -0.00000000 </v>
  </varray>
  <varray name="stress" >
   <v>     -46.85901864      -0.00000000       0.00000000 </v>
   <v>      -0.00000000     -46.85901864      -0.00000000 </v>
   <v>      -0.00000000      -0.00000000     -46.85901864 </v>
  </varray>
  <energy>
   <i name="e_fr_energy">    -10.81658880 </i>
   <i name="e_wo_entrp">    -10.81682351 </i>
   <i name="e_0_energy">      0.00070415 </i>
  </energy>
  <time name="totalsc">    6.63    6.66</time>
  <eigenvalues>
   <array>
    <dimension dim="1">band</dimension>
    <dimension dim="2">kpoint</dimension>
    <dimension dim="3">spin</dimension>
    <field>eigene</field>
    <field>occ</field>
    <set>
     <set comment="spin 1">
      <set comment="kpoint 1">
       <r>    0.0462    1.0000 </r>
       <r>    1.2782    1.0000 </r>
       <r>    1.2782    1.0000 </r>
       <r>    1.2782    1.0000 </r>
       <r>    1.3834    1.0000 </r>
       <r>    1.3834    1.0000 </r>
       <r>    1.3834    1.0000 </r>
       <r>    2.6361    1.0000 </r>
       <r>    2.6361    1.0000 </r>
       <r>    2.6361    1.0000 </r>
       <r>    3.4990    1.0000 </r>
       <r>    3.4990    1.0000 </r>
       <r>    4.1366    1.0000 </r>
       <r>    4.1366    1.0000 </r>
       <r>    4.1366    1.0000 </r>
       <r>    4.3373    1.0000 </r>
       <r>    4.3373    1.0000 </r>
       <r>    4.3373    1.0000 </r>
       <r>    4.3373    1.0000 </r>
       <r>    4.3373    1.0000 </r>
       <r>    4.3373    1.0000 </r>
       <r>    8.7992   -0.0000 </r>
       <r>    8.7992   -0.0000 </r>
       <r>    8.7992   -0.0000 </r>
       <r>   13.0878    0.0000 </r>
       <r>   13.0878    0.0000 </r>
       <r>   13.0878    0.0000 </r>
       <r>   17.2530    0.0000 </r>
       <r>   17.2530    0.0000 </r>
       <r>   17.2530    0.0000 </r>
       <r>   17.2530    0.0000 </r>
       <r>   17.2530    0.0000 </r>
       <r>   17.2530    0.0000 </r>
       <r>   22.8706    0.0000 </r>
       <r>   23.0762    0.0000 </r>
       <r>   23.0762    0.0000 </r>
       <r>   23.0762    0.0000 </r>
       <r>   23.1236    0.0000 </r>
       <r>   23.1236    0.0000 </r>
       <r>   23.1236    0.0000 </r>
       <r>   25.8459    0.0000 </r>
       <r>   25.8459    0.0000 </r>
       <r>   25.8459    0.0000 </r>
       <r>   30.4299    0.0000 </r>
       <r>   30.9833    0.0000 </r>
       <r>   30.9833    0.0000 </r>
       <r>   30.9833    0.0000 </r>
       <r>   34.5085    0.0000 </r>
      </set>
      <set comment="kpoint 2">
       <r>    0.1651    1.0000 </r>
       <r>    1.3232    1.0000 </r>
       <r>    1.3371    1.0000 </r>
       <r>    1.3371    1.0000 </r>
       <r>    1.4176    1.0000 </r>
       <r>    1.4362    1.0000 </r>
       <r>    1.4362    1.0000 </r>
       <r>    2.5941    1.0000 </r>
       <r>    2.6758    1.0000 </r>
       <r>    2.6758    1.0000 </r>
       <r>    3.4576    1.0000 </r>
       <r>    3.5174    1.0000 </r>
       <r>    4.0813    1.0000 </r>
       <r>    4.0813    1.0000 </r>
       <r>    4.1165    1.0000 </r>
       <r>    4.1511    1.0000 </r>
       <r>    4.1511    1.0000 </r>
       <r>    4.2693    1.0000 </r>
       <r>    4.2693    1.0000 </r>
       <r>    4.3374    1.0000 </r>
       <r>    4.3374    1.0000 </r>
       <r>    8.0043   -0.0000 </r>
       <r>    9.0880   -0.0000 </r>
       <r>    9.0880   -0.0000 </r>
       <r>   13.1068    0.0000 </r>
       <r>   13.1068    0.0000 </r>
       <r>   14.0754    0.0000 </r>
       <r>   16.8425    0.0000 </r>
       <r>   16.8425    0.0000 </r>
       <r>   16.8529    0.0000 </r>
       <r>   16.8529    0.0000 </r>
       <r>   17.4576    0.0000 </r>
       <r>   17.4576    0.0000 </r>
       <r>   22.8768    0.0000 </r>
       <r>   23.0659    0.0000 </r>
       <r>   23.1150    0.0000 </r>
       <r>   23.5759    0.0000 </r>
       <r>   23.5759    0.0000 </r>
       <r>   23.7629    0.0000 </r>
       <r>   23.7629    0.0000 </r>
       <r>   25.3738    0.0000 </r>
       <r>   25.4558    0.0000 </r>
       <r>   25.4558    0.0000 </r>
       <r>   30.9079    0.0000 </r>
       <r>   30.9079    0.0000 </r>
       <r>   31.0579    0.0000 </r>
       <r>   31.2104    0.0000 </r>
       <r>   33.2752    0.0000 </r>
      </set>
      <set comment="kpoint 3">
       <r>    0.5105    1.0000 </r>
       <r>    1.4479    1.0000 </r>
       <r>    1.5001    1.0000 </r>
       <r>    1.5001    1.0000 </r>
       <r>    1.5173    1.0000 </r>
       <r>    1.5940    1.0000 </r>
       <r>    1.5940    1.0000 </r>
       <r>    2.4750    1.0000 </r>
       <r>    2.7934    1.0000 </r>
       <r>    2.7934    1.0000 </r>
       <r>    3.3495    1.0000 </r>
       <r>    3.5704    1.0000 </r>
       <r>    3.7052    1.0000 </r>
       <r>    3.7052    1.0000 </r>
       <r>    3.9266    1.0000 </r>
       <r>    3.9266    1.0000 </r>
       <r>    4.0587    1.0000 </r>
       <r>    4.0821    1.0000 </r>
       <r>    4.0821    1.0000 </r>
       <r>    4.3376    1.0000 </r>
       <r>    4.3376    1.0000 </r>
       <r>    6.5496    1.0000 </r>
       <r>    9.8388    0.0000 </r>
       <r>    9.8388    0.0000 </r>
       <r>   13.1672    0.0000 </r>
       <r>   13.1672    0.0000 </r>
       <r>   15.8564    0.0000 </r>
       <r>   15.8564    0.0000 </r>
       <r>   16.0421    0.0000 </r>
       <r>   16.0421    0.0000 </r>
       <r>   16.1079    0.0000 </r>
       <r>   18.0512    0.0000 </r>
       <r>   18.0512    0.0000 </r>
       <r>   22.8953    0.0000 </r>
       <r>   23.0611    0.0000 </r>
       <r>   23.0905    0.0000 </r>
       <r>   24.4137    0.0000 </r>
       <r>   24.4137    0.0000 </r>
       <r>   24.4812    0.0000 </r>
       <r>   24.6983    0.0000 </r>
       <r>   24.6983    0.0000 </r>
       <r>   25.4198    0.0000 </r>
       <r>   25.4198    0.0000 </r>
       <r>   30.0849    0.0000 </r>
       <r>   31.0541    0.0000 </r>
       <r>   31.0541    0.0000 </r>
       <r>   31.8829    0.0000 </r>
       <r>   33.4083    0.0000 </r>
      </set>
      <set comment="kpoint 4">
       <r>    1.0302    1.0000 </r>
       <r>    1.6133    1.0000 </r>
       <r>    1.6729    1.0000 </r>
       <r>    1.7193    1.0000 </r>
       <r>    1.7193    1.0000 </r>
       <r>    1.8549    1.0000 </r>
       <r>    1.8549    1.0000 </r>
       <r>    2.2972    1.0000 </r>
       <r>    2.9824    1.0000 </r>
       <r>    2.9824    1.0000 </r>
       <r>    3.1745    1.0000 </r>
       <r>    3.1745    1.0000 </r>
       <r>    3.2402    1.0000 </r>
       <r>    3.6526    1.0000 </r>
       <r>    3.7157    1.0000 </r>
       <r>    3.7157    1.0000 </r>
       <r>    3.8160    1.0000 </r>
       <r>    3.8160    1.0000 </r>
       <r>    3.9710    1.0000 </r>
       <r>    4.3379    1.0000 </r>
       <r>    4.3379    1.0000 </r>
       <r>    5.1274    1.0000 </r>
       <r>   10.8680    0.0000 </r>
       <r>   10.8680    0.0000 </r>
       <r>   13.2708    0.0000 </r>
       <r>   13.2708    0.0000 </r>
       <r>   14.6280    0.0000 </r>
       <r>   14.6280    0.0000 </r>
       <r>   15.2852    0.0000 </r>
       <r>   15.2852    0.0000 </r>
       <r>   18.4889    0.0000 </r>
       <r>   18.9813    0.0000 </r>
       <r>   18.9813    0.0000 </r>
       <r>   22.9255    0.0000 </r>
       <r>   23.0266    0.0000 </r>
       <r>   23.0266    0.0000 </r>
       <r>   23.0536    0.0000 </r>
       <r>   23.1402    0.0000 </r>
       <r>   23.6249    0.0000 </r>
       <r>   26.1862    0.0000 </r>
       <r>   26.1862    0.0000 </r>
       <r>   27.3603    0.0000 </r>
       <r>   27.5258    0.0000 </r>
       <r>   27.5258    0.0000 </r>
       <r>   31.6506    0.0000 </r>
       <r>   31.6506    0.0000 </r>
       <r>   31.8036    0.0000 </r>
       <r>   31.8036    0.0000 </r>
      </set>
      <set comment="kpoint 5">
       <r>    1.5432    1.0000 </r>
       <r>    1.7204    1.0000 </r>
       <r>    1.8696    1.0000 </r>
       <r>    1.8945    1.0000 </r>
       <r>    1.8945    1.0000 </r>
       <r>    2.0862    1.0000 </r>
       <r>    2.2142    1.0000 </r>
       <r>    2.2142    1.0000 </r>
       <r>    2.6613    1.0000 </r>
       <r>    2.6613    1.0000 </r>
       <r>    3.2307    1.0000 </r>
       <r>    3.2307    1.0000 </r>
       <r>    3.3310    1.0000 </r>
       <r>    3.5186    1.0000 </r>
       <r>    3.5186    1.0000 </r>
       <r>    3.5450    1.0000 </r>
       <r>    3.5450    1.0000 </r>
       <r>    3.7547    1.0000 </r>
       <r>    3.8653    1.0000 </r>
       <r>    3.9730    1.0000 </r>
       <r>    4.3380    1.0000 </r>
       <r>    4.3380    1.0000 </r>
       <r>   12.0569    0.0000 </r>
       <r>   12.0569    0.0000 </r>
       <r>   13.3318    0.0000 </r>
       <r>   13.3318    0.0000 </r>
       <r>   13.3801    0.0000 </r>
       <r>   13.3801    0.0000 </r>
       <r>   14.8165    0.0000 </r>
       <r>   14.8165    0.0000 </r>
       <r>   20.1782    0.0000 </r>
       <r>   20.1782    0.0000 </r>
       <r>   20.9334    0.0000 </r>
       <r>   21.5611    0.0000 </r>
       <r>   21.5611    0.0000 </r>
       <r>   22.7274    0.0000 </r>
       <r>   22.9652    0.0000 </r>
       <r>   23.0098    0.0000 </r>
       <r>   23.4893    0.0000 </r>
       <r>   24.8208    0.0000 </r>
       <r>   27.9032    0.0000 </r>
       <r>   27.9032    0.0000 </r>
       <r>   29.5784    0.0000 </r>
       <r>   29.5784    0.0000 </r>
       <r>   29.7942    0.0000 </r>
       <r>   29.7942    0.0000 </r>
       <r>   32.6528    0.0000 </r>
       <r>   32.6528    0.0000 </r>
      </set>
      <set comment="kpoint 6">
       <r>    0.2812    1.0000 </r>
       <r>    1.3769    1.0000 </r>
       <r>    1.3830    1.0000 </r>
       <r>    1.3830    1.0000 </r>
       <r>    1.4692    1.0000 </r>
       <r>    1.4692    1.0000 </r>
       <r>    1.5042    1.0000 </r>
       <r>    2.5799    1.0000 </r>
       <r>    2.6899    1.0000 </r>
       <r>    2.7108    1.0000 </r>
       <r>    3.4473    1.0000 </r>
       <r>    3.5115    1.0000 </r>
       <r>    3.9973    1.0000 </r>
       <r>    3.9973    1.0000 </r>
       <r>    4.0298    1.0000 </r>
       <r>    4.0306    1.0000 </r>
       <r>    4.1461    1.0000 </r>
       <r>    4.1461    1.0000 </r>
       <r>    4.2691    1.0000 </r>
       <r>    4.2691    1.0000 </r>
       <r>    4.2898    1.0000 </r>
       <r>    8.2720   -0.0000 </r>
       <r>    8.2720   -0.0000 </r>
       <r>    9.3592   -0.0000 </r>
       <r>   13.1229    0.0000 </r>
       <r>   14.1128    0.0000 </r>
       <r>   14.1128    0.0000 </r>
       <r>   15.6226    0.0000 </r>
       <r>   17.0363    0.0000 </r>
       <r>   17.0363    0.0000 </r>
       <r>   17.0400    0.0000 </r>
       <r>   17.0400    0.0000 </r>
       <r>   17.6458    0.0000 </r>
       <r>   22.7744    0.0000 </r>
       <r>   23.0568    0.0000 </r>
       <r>   23.5805    0.0000 </r>
       <r>   23.5805    0.0000 </r>
       <r>   23.7680    0.0000 </r>
       <r>   23.7680    0.0000 </r>
       <r>   24.1857    0.0000 </r>
       <r>   25.0400    0.0000 </r>
       <r>   25.2663    0.0000 </r>
       <r>   26.2721    0.0000 </r>
       <r>   29.6565    0.0000 </r>
       <r>   30.9611    0.0000 </r>
       <r>   31.2534    0.0000 </r>
       <r>   32.5422    0.0000 </r>
       <r>   33.0341    0.0000 </r>
      </set>
      <set comment="kpoint 7">
       <r>    0.6175    1.0000 </r>
       <r>    1.5035    1.0000 </r>
       <r>    1.5099    1.0000 </r>
       <r>    1.5480    1.0000 </r>
       <r>    1.5651    1.0000 </r>
       <r>    1.6232    1.0000 </r>
       <r>    1.6867    1.0000 </r>
       <r>    2.4791    1.0000 </r>
       <r>    2.7945    1.0000 </r>
       <r>    2.8092    1.0000 </r>
       <r>    3.3604    1.0000 </r>
       <r>    3.5688    1.0000 </r>
       <r>    3.5886    1.0000 </r>
       <r>    3.6432    1.0000 </r>
       <r>    3.7996    1.0000 </r>
       <r>    3.8854    1.0000 </r>
       <r>    3.9617    1.0000 </r>
       <r>    4.0809    1.0000 </r>
       <r>    4.0924    1.0000 </r>
       <r>    4.2665    1.0000 </r>
       <r>    4.2683    1.0000 </r>
       <r>    6.8162    1.0032 </r>
       <r>    8.9461   -0.0000 </r>
       <r>   10.0765    0.0000 </r>
       <r>   13.1484    0.0000 </r>
       <r>   14.2176    0.0000 </r>
       <r>   14.3932    0.0000 </r>
       <r>   16.0357    0.0000 </r>
       <r>   16.1333    0.0000 </r>
       <r>   16.2237    0.0000 </r>
       <r>   17.5593    0.0000 </r>
       <r>   17.5859    0.0000 </r>
       <r>   17.5945    0.0000 </r>
       <r>   22.4238    0.0000 </r>
       <r>   22.9247    0.0000 </r>
       <r>   23.5978    0.0000 </r>
       <r>   23.6228    0.0000 </r>
       <r>   23.8145    0.0000 </r>
       <r>   24.7245    0.0000 </r>
       <r>   24.7685    0.0000 </r>
       <r>   25.4284    0.0000 </r>
       <r>   26.0094    0.0000 </r>
       <r>   26.8081    0.0000 </r>
       <r>   29.0881    0.0000 </r>
       <r>   31.0387    0.0000 </r>
       <r>   31.1543    0.0000 </r>
       <r>   31.8717    0.0000 </r>
       <r>   33.5697    0.0000 </r>
      </set>
      <set comment="kpoint 8">
       <r>    1.1213    1.0000 </r>
       <r>    1.6801    1.0000 </r>
       <r>    1.7087    1.0000 </r>
       <r>    1.7150    1.0000 </r>
       <r>    1.7704    1.0000 </r>
       <r>    1.8772    1.0000 </r>
       <r>    1.9421    1.0000 </r>
       <r>    2.3121    1.0000 </r>
       <r>    2.9226    1.0000 </r>
       <r>    2.9807    1.0000 </r>
       <r>    3.0852    1.0000 </r>
       <r>    3.1474    1.0000 </r>
       <r>    3.3116    1.0000 </r>
       <r>    3.5240    1.0000 </r>
       <r>    3.6762    1.0000 </r>
       <r>    3.6878    1.0000 </r>
       <r>    3.7416    1.0000 </r>
       <r>    3.8140    1.0000 </r>
       <r>    3.9895    1.0000 </r>
       <r>    4.2627    1.0000 </r>
       <r>    4.2668    1.0000 </r>
       <r>    5.4251    1.0000 </r>
       <r>    9.8323    0.0000 </r>
       <r>   11.0772    0.0000 </r>
       <r>   12.8198    0.0000 </r>
       <r>   13.6768    0.0000 </r>
       <r>   14.3075    0.0000 </r>
       <r>   14.8021    0.0000 </r>
       <r>   15.5848    0.0000 </r>
       <r>   16.8778    0.0000 </r>
       <r>   18.2330    0.0000 </r>
       <r>   18.4549    0.0000 </r>
       <r>   18.6688    0.0000 </r>
       <r>   21.7064    0.0000 </r>
       <r>   21.7166    0.0000 </r>
       <r>   23.6388    0.0000 </r>
       <r>   23.9934    0.0000 </r>
       <r>   24.2389    0.0000 </r>
       <r>   24.8378    0.0000 </r>
       <r>   25.0482    0.0000 </r>
       <r>   26.2293    0.0000 </r>
       <r>   27.4239    0.0000 </r>
       <r>   27.5609    0.0000 </r>
       <r>   28.8325    0.0000 </r>
       <r>   30.8265    0.0000 </r>
       <r>   31.5655    0.0000 </r>
       <r>   31.6495    0.0000 </r>
       <r>   31.8803    0.0000 </r>
      </set>
      <set comment="kpoint 9">
       <r>    1.6202    1.0000 </r>
       <r>    1.7937    1.0000 </r>
       <r>    1.9038    1.0000 </r>
       <r>    1.9186    1.0000 </r>
       <r>    1.9455    1.0000 </r>
       <r>    2.1111    1.0000 </r>
       <r>    2.2260    1.0000 </r>
       <r>    2.2369    1.0000 </r>
       <r>    2.6144    1.0000 </r>
       <r>    2.6576    1.0000 </r>
       <r>    2.9839    1.0000 </r>
       <r>    3.2074    1.0000 </r>
       <r>    3.2280    1.0000 </r>
       <r>    3.5159    1.0000 </r>
       <r>    3.5302    1.0000 </r>
       <r>    3.5333    1.0000 </r>
       <r>    3.5547    1.0000 </r>
       <r>    3.8349    1.0000 </r>
       <r>    3.8427    1.0000 </r>
       <r>    4.2634    1.0000 </r>
       <r>    4.2651    1.0000 </r>
       <r>    4.3462    1.0000 </r>
       <r>   10.8158    0.0000 </r>
       <r>   11.8422    0.0000 </r>
       <r>   12.2464    0.0000 </r>
       <r>   13.5096    0.0000 </r>
       <r>   13.8042    0.0000 </r>
       <r>   14.1247    0.0000 </r>
       <r>   15.5799    0.0000 </r>
       <r>   16.1195    0.0000 </r>
       <r>   19.3731    0.0000 </r>
       <r>   19.5257    0.0000 </r>
       <r>   20.5207    0.0000 </r>
       <r>   20.6779    0.0000 </r>
       <r>   21.0102    0.0000 </r>
       <r>   23.2275    0.0000 </r>
       <r>   23.7256    0.0000 </r>
       <r>   23.9009    0.0000 </r>
       <r>   24.4688    0.0000 </r>
       <r>   25.5740    0.0000 </r>
       <r>   26.8013    0.0000 </r>
       <r>   27.9596    0.0000 </r>
       <r>   28.3097    0.0000 </r>
       <r>   29.8625    0.0000 </r>
       <r>   30.8464    0.0000 </r>
       <r>   30.9206    0.0000 </r>
       <r>   31.7574    0.0000 </r>
       <r>   32.5448    0.0000 </r>
      </set>
      <set comment="kpoint 10">
       <r>    0.9241    1.0000 </r>
       <r>    1.5770    1.0000 </r>
       <r>    1.6820    1.0000 </r>
       <r>    1.6820    1.0000 </r>
       <r>    1.7077    1.0000 </r>
       <r>    1.7077    1.0000 </r>
       <r>    1.8884    1.0000 </r>
       <r>    2.4486    1.0000 </r>
       <r>    2.8443    1.0000 </r>
       <r>    2.8547    1.0000 </r>
       <r>    3.3240    1.0000 </r>
       <r>    3.3530    1.0000 </r>
       <r>    3.3530    1.0000 </r>
       <r>    3.4207    1.0000 </r>
       <r>    3.6491    1.0000 </r>
       <r>    3.7676    1.0000 </r>
       <r>    3.9627    1.0000 </r>
       <r>    3.9627    1.0000 </r>
       <r>    4.0775    1.0000 </r>
       <r>    4.0775    1.0000 </r>
       <r>    4.1513    1.0000 </r>
       <r>    7.4543   -0.0000 </r>
       <r>    7.4543   -0.0000 </r>
       <r>   10.7255    0.0000 </r>
       <r>   12.5903    0.0000 </r>
       <r>   13.5794    0.0000 </r>
       <r>   16.0096    0.0000 </r>
       <r>   16.0096    0.0000 </r>
       <r>   16.5496    0.0000 </r>
       <r>   16.5496    0.0000 </r>
       <r>   16.9265    0.0000 </r>
       <r>   16.9265    0.0000 </r>
       <r>   18.7581    0.0000 </r>
       <r>   21.5152    0.0000 </r>
       <r>   21.5184    0.0000 </r>
       <r>   22.9607    0.0000 </r>
       <r>   24.8050    0.0000 </r>
       <r>   24.8050    0.0000 </r>
       <r>   25.2497    0.0000 </r>
       <r>   25.4897    0.0000 </r>
       <r>   25.4897    0.0000 </r>
       <r>   27.4425    0.0000 </r>
       <r>   27.4917    0.0000 </r>
       <r>   28.6930    0.0000 </r>
       <r>   30.4136    0.0000 </r>
       <r>   30.9268    0.0000 </r>
       <r>   32.3332    0.0000 </r>
       <r>   32.9941    0.0000 </r>
      </set>
      <set comment="kpoint 11">
       <r>    1.3743    1.0000 </r>
       <r>    1.7392    1.0000 </r>
       <r>    1.8389    1.0000 </r>
       <r>    1.8667    1.0000 </r>
       <r>    1.9160    1.0000 </r>
       <r>    1.9413    1.0000 </r>
       <r>    2.1326    1.0000 </r>
       <r>    2.3385    1.0000 </r>
       <r>    2.8707    1.0000 </r>
       <r>    2.8861    1.0000 </r>
       <r>    2.9956    1.0000 </r>
       <r>    3.0520    1.0000 </r>
       <r>    3.0756    1.0000 </r>
       <r>    3.3003    1.0000 </r>
       <r>    3.6032    1.0000 </r>
       <r>    3.7544    1.0000 </r>
       <r>    3.8089    1.0000 </r>
       <r>    3.8641    1.0000 </r>
       <r>    3.8794    1.0000 </r>
       <r>    4.0732    1.0000 </r>
       <r>    4.0922    1.0000 </r>
       <r>    6.0638    1.0000 </r>
       <r>    8.2715   -0.0000 </r>
       <r>   11.3685    0.0000 </r>
       <r>   11.6621    0.0000 </r>
       <r>   13.6993    0.0000 </r>
       <r>   15.3005    0.0000 </r>
       <r>   15.3145    0.0000 </r>
       <r>   17.0334    0.0000 </r>
       <r>   17.1063    0.0000 </r>
       <r>   17.3355    0.0000 </r>
       <r>   18.8370    0.0000 </r>
       <r>   18.8483    0.0000 </r>
       <r>   20.2380    0.0000 </r>
       <r>   20.4798    0.0000 </r>
       <r>   23.6847    0.0000 </r>
       <r>   24.9439    0.0000 </r>
       <r>   25.4395    0.0000 </r>
       <r>   25.6448    0.0000 </r>
       <r>   25.6997    0.0000 </r>
       <r>   26.3568    0.0000 </r>
       <r>   27.1758    0.0000 </r>
       <r>   28.3727    0.0000 </r>
       <r>   29.1857    0.0000 </r>
       <r>   30.7410    0.0000 </r>
       <r>   31.1991    0.0000 </r>
       <r>   31.3245    0.0000 </r>
       <r>   32.1126    0.0000 </r>
      </set>
      <set comment="kpoint 12">
       <r>    1.8240    1.0000 </r>
       <r>    1.9671    1.0000 </r>
       <r>    1.9976    1.0000 </r>
       <r>    2.0024    1.0000 </r>
       <r>    2.0876    1.0000 </r>
       <r>    2.1778    1.0000 </r>
       <r>    2.2578    1.0000 </r>
       <r>    2.3304    1.0000 </r>
       <r>    2.5088    1.0000 </r>
       <r>    2.6400    1.0000 </r>
       <r>    2.7828    1.0000 </r>
       <r>    2.8262    1.0000 </r>
       <r>    3.2288    1.0000 </r>
       <r>    3.4694    1.0000 </r>
       <r>    3.4854    1.0000 </r>
       <r>    3.5116    1.0000 </r>
       <r>    3.5492    1.0000 </r>
       <r>    3.7075    1.0000 </r>
       <r>    4.0702    1.0000 </r>
       <r>    4.0731    1.0000 </r>
       <r>    4.2499    1.0000 </r>
       <r>    4.9614    1.0000 </r>
       <r>    9.1958   -0.0000 </r>
       <r>   10.2221    0.0000 </r>
       <r>   12.7838    0.0000 </r>
       <r>   14.0176    0.0000 </r>
       <r>   14.0489    0.0000 </r>
       <r>   14.5906    0.0000 </r>
       <r>   17.5346    0.0000 </r>
       <r>   18.0419    0.0000 </r>
       <r>   18.2091    0.0000 </r>
       <r>   18.3108    0.0000 </r>
       <r>   19.0834    0.0000 </r>
       <r>   19.3868    0.0000 </r>
       <r>   21.2172    0.0000 </r>
       <r>   23.5579    0.0000 </r>
       <r>   25.1364    0.0000 </r>
       <r>   25.3395    0.0000 </r>
       <r>   25.3420    0.0000 </r>
       <r>   26.1932    0.0000 </r>
       <r>   27.0231    0.0000 </r>
       <r>   27.1234    0.0000 </r>
       <r>   28.1230    0.0000 </r>
       <r>   30.0611    0.0000 </r>
       <r>   30.1152    0.0000 </r>
       <r>   31.1767    0.0000 </r>
       <r>   31.7658    0.0000 </r>
       <r>   32.0779    0.0000 </r>
      </set>
      <set comment="kpoint 13">
       <r>    1.7210    1.0000 </r>
       <r>    1.8414    1.0000 </r>
       <r>    2.0382    1.0000 </r>
       <r>    2.0382    1.0000 </r>
       <r>    2.1276    1.0000 </r>
       <r>    2.1276    1.0000 </r>
       <r>    2.3297    1.0000 </r>
       <r>    2.3585    1.0000 </r>
       <r>    2.6610    1.0000 </r>
       <r>    2.6610    1.0000 </r>
       <r>    2.8611    1.0000 </r>
       <r>    2.8629    1.0000 </r>
       <r>    3.0792    1.0000 </r>
       <r>    3.2036    1.0000 </r>
       <r>    3.4734    1.0000 </r>
       <r>    3.6841    1.0000 </r>
       <r>    3.6841    1.0000 </r>
       <r>    3.8051    1.0000 </r>
       <r>    3.8051    1.0000 </r>
       <r>    3.9344    1.0000 </r>
       <r>    4.2463    1.0000 </r>
       <r>    6.8471    1.0095 </r>
       <r>    6.8471    1.0095 </r>
       <r>    9.9825    0.0000 </r>
       <r>   12.5312    0.0000 </r>
       <r>   13.9763    0.0000 </r>
       <r>   16.0044    0.0000 </r>
       <r>   16.0044    0.0000 </r>
       <r>   16.0641    0.0000 </r>
       <r>   16.0641    0.0000 </r>
       <r>   18.9265    0.0000 </r>
       <r>   19.2350    0.0000 </r>
       <r>   19.2350    0.0000 </r>
       <r>   19.2715    0.0000 </r>
       <r>   20.4425    0.0000 </r>
       <r>   22.9525    0.0000 </r>
       <r>   25.4195    0.0000 </r>
       <r>   26.3957    0.0000 </r>
       <r>   26.5553    0.0000 </r>
       <r>   26.5553    0.0000 </r>
       <r>   26.9128    0.0000 </r>
       <r>   26.9128    0.0000 </r>
       <r>   27.5534    0.0000 </r>
       <r>   29.5365    0.0000 </r>
       <r>   30.9647    0.0000 </r>
       <r>   30.9933    0.0000 </r>
       <r>   30.9933    0.0000 </r>
       <r>   32.4820    0.0000 </r>
      </set>
      <set comment="kpoint 14">
       <r>    2.0210    1.0000 </r>
       <r>    2.0539    1.0000 </r>
       <r>    2.1524    1.0000 </r>
       <r>    2.2572    1.0000 </r>
       <r>    2.2602    1.0000 </r>
       <r>    2.2659    1.0000 </r>
       <r>    2.2983    1.0000 </r>
       <r>    2.4426    1.0000 </r>
       <r>    2.5072    1.0000 </r>
       <r>    2.5394    1.0000 </r>
       <r>    2.5900    1.0000 </r>
       <r>    2.7289    1.0000 </r>
       <r>    3.2609    1.0000 </r>
       <r>    3.2923    1.0000 </r>
       <r>    3.3807    1.0000 </r>
       <r>    3.4726    1.0000 </r>
       <r>    3.5133    1.0000 </r>
       <r>    3.5175    1.0000 </r>
       <r>    3.8118    1.0000 </r>
       <r>    3.8458    1.0000 </r>
       <r>    4.8250    1.0000 </r>
       <r>    5.6815    1.0000 </r>
       <r>    7.7447   -0.0000 </r>
       <r>    8.7787   -0.0000 </r>
       <r>   13.5979    0.0000 </r>
       <r>   14.4368    0.0000 </r>
       <r>   14.7946    0.0000 </r>
       <r>   15.1067    0.0000 </r>
       <r>   16.8137    0.0000 </r>
       <r>   17.0217    0.0000 </r>
       <r>   17.7862    0.0000 </r>
       <r>   18.1079    0.0000 </r>
       <r>   19.7988    0.0000 </r>
       <r>   20.4512    0.0000 </r>
       <r>   21.5854    0.0000 </r>
       <r>   23.8451    0.0000 </r>
       <r>   24.0671    0.0000 </r>
       <r>   25.9288    0.0000 </r>
       <r>   26.7634    0.0000 </r>
       <r>   26.7696    0.0000 </r>
       <r>   26.8231    0.0000 </r>
       <r>   26.8455    0.0000 </r>
       <r>   28.3602    0.0000 </r>
       <r>   30.3031    0.0000 </r>
       <r>   30.3371    0.0000 </r>
       <r>   30.6884    0.0000 </r>
       <r>   31.4457    0.0000 </r>
       <r>   32.2957    0.0000 </r>
      </set>
      <set comment="kpoint 15">
       <r>    2.1064    1.0000 </r>
       <r>    2.1806    1.0000 </r>
       <r>    2.2452    1.0000 </r>
       <r>    2.2452    1.0000 </r>
       <r>    2.3185    1.0000 </r>
       <r>    2.3273    1.0000 </r>
       <r>    2.3273    1.0000 </r>
       <r>    2.4853    1.0000 </r>
       <r>    2.6168    1.0000 </r>
       <r>    2.6168    1.0000 </r>
       <r>    2.6792    1.0000 </r>
       <r>    2.7802    1.0000 </r>
       <r>    3.1647    1.0000 </r>
       <r>    3.2544    1.0000 </r>
       <r>    3.3066    1.0000 </r>
       <r>    3.3066    1.0000 </r>
       <r>    3.3639    1.0000 </r>
       <r>    3.5569    1.0000 </r>
       <r>    3.5569    1.0000 </r>
       <r>    3.6613    1.0000 </r>
       <r>    5.5668    1.0000 </r>
       <r>    6.5299    1.0000 </r>
       <r>    6.5299    1.0000 </r>
       <r>    7.5503   -0.0000 </r>
       <r>   14.6143    0.0000 </r>
       <r>   15.0113    0.0000 </r>
       <r>   15.7721    0.0000 </r>
       <r>   15.7721    0.0000 </r>
       <r>   15.7989    0.0000 </r>
       <r>   15.7989    0.0000 </r>
       <r>   16.6893    0.0000 </r>
       <r>   16.8914    0.0000 </r>
       <r>   22.1429    0.0000 </r>
       <r>   22.1429    0.0000 </r>
       <r>   22.5505    0.0000 </r>
       <r>   23.2336    0.0000 </r>
       <r>   24.0092    0.0000 </r>
       <r>   24.9629    0.0000 </r>
       <r>   25.0893    0.0000 </r>
       <r>   25.0893    0.0000 </r>
       <r>   28.0707    0.0000 </r>
       <r>   28.5172    0.0000 </r>
       <r>   28.5172    0.0000 </r>
       <r>   30.1068    0.0000 </r>
       <r>   31.1820    0.0000 </r>
       <r>   31.6783    0.0000 </r>
       <r>   31.9638    0.0000 </r>
       <r>   31.9867    0.0000 </r>
      </set>
      <set comment="kpoint 16">
       <r>    0.3933    1.0000 </r>
       <r>    1.4188    1.0000 </r>
       <r>    1.4188    1.0000 </r>
       <r>    1.4188    1.0000 </r>
       <r>    1.5401    1.0000 </r>
       <r>    1.5401    1.0000 </r>
       <r>    1.5401    1.0000 </r>
       <r>    2.5770    1.0000 </r>
       <r>    2.7183    1.0000 </r>
       <r>    2.7183    1.0000 </r>
       <r>    3.4746    1.0000 </r>
       <r>    3.4746    1.0000 </r>
       <r>    3.9551    1.0000 </r>
       <r>    3.9551    1.0000 </r>
       <r>    3.9551    1.0000 </r>
       <r>    3.9690    1.0000 </r>
       <r>    3.9690    1.0000 </r>
       <r>    3.9690    1.0000 </r>
       <r>    4.2714    1.0000 </r>
       <r>    4.2714    1.0000 </r>
       <r>    4.2714    1.0000 </r>
       <r>    8.5178   -0.0000 </r>
       <r>    8.5178   -0.0000 </r>
       <r>    8.5178   -0.0000 </r>
       <r>   14.1338    0.0000 </r>
       <r>   14.1338    0.0000 </r>
       <r>   14.1338    0.0000 </r>
       <r>   15.8198    0.0000 </r>
       <r>   15.8198    0.0000 </r>
       <r>   15.8198    0.0000 </r>
       <r>   17.8399    0.0000 </r>
       <r>   17.8399    0.0000 </r>
       <r>   17.8399    0.0000 </r>
       <r>   22.3343    0.0000 </r>
       <r>   23.0450    0.0000 </r>
       <r>   23.0450    0.0000 </r>
       <r>   23.0450    0.0000 </r>
       <r>   23.8299    0.0000 </r>
       <r>   25.0662    0.0000 </r>
       <r>   25.0662    0.0000 </r>
       <r>   25.0662    0.0000 </r>
       <r>   25.8528    0.0000 </r>
       <r>   25.8528    0.0000 </r>
       <r>   29.5437    0.0000 </r>
       <r>   30.7056    0.0000 </r>
       <r>   30.7056    0.0000 </r>
       <r>   33.5072    0.0000 </r>
       <r>   33.8728    0.0000 </r>
      </set>
      <set comment="kpoint 17">
       <r>    0.7160    1.0000 </r>
       <r>    1.5302    1.0000 </r>
       <r>    1.5403    1.0000 </r>
       <r>    1.5403    1.0000 </r>
       <r>    1.6489    1.0000 </r>
       <r>    1.7244    1.0000 </r>
       <r>    1.7244    1.0000 </r>
       <r>    2.5006    1.0000 </r>
       <r>    2.8037    1.0000 </r>
       <r>    2.8038    1.0000 </r>
       <r>    3.3907    1.0000 </r>
       <r>    3.5481    1.0000 </r>
       <r>    3.5481    1.0000 </r>
       <r>    3.5530    1.0000 </r>
       <r>    3.7446    1.0000 </r>
       <r>    3.8095    1.0000 </r>
       <r>    3.8587    1.0000 </r>
       <r>    3.8587    1.0000 </r>
       <r>    4.2095    1.0000 </r>
       <r>    4.2462    1.0000 </r>
       <r>    4.2462    1.0000 </r>
       <r>    7.0480    0.4459 </r>
       <r>    9.1519   -0.0000 </r>
       <r>    9.1519   -0.0000 </r>
       <r>   14.0007    0.0000 </r>
       <r>   14.0007    0.0000 </r>
       <r>   14.8131    0.0000 </r>
       <r>   14.8131    0.0000 </r>
       <r>   15.9164    0.0000 </r>
       <r>   16.5839    0.0000 </r>
       <r>   17.7271    0.0000 </r>
       <r>   17.7271    0.0000 </r>
       <r>   18.4061    0.0000 </r>
       <r>   21.3192    0.0000 </r>
       <r>   23.0235    0.0000 </r>
       <r>   23.4849    0.0000 </r>
       <r>   23.6215    0.0000 </r>
       <r>   23.6215    0.0000 </r>
       <r>   24.7458    0.0000 </r>
       <r>   25.1629    0.0000 </r>
       <r>   26.3801    0.0000 </r>
       <r>   26.8402    0.0000 </r>
       <r>   26.8402    0.0000 </r>
       <r>   28.6577    0.0000 </r>
       <r>   30.7040    0.0000 </r>
       <r>   31.0130    0.0000 </r>
       <r>   32.0959    0.0000 </r>
       <r>   33.6157    0.0000 </r>
      </set>
      <set comment="kpoint 18">
       <r>    1.1925    1.0000 </r>
       <r>    1.6731    1.0000 </r>
       <r>    1.7438    1.0000 </r>
       <r>    1.7438    1.0000 </r>
       <r>    1.8227    1.0000 </r>
       <r>    1.9730    1.0000 </r>
       <r>    1.9730    1.0000 </r>
       <r>    2.3548    1.0000 </r>
       <r>    2.8979    1.0000 </r>
       <r>    2.9437    1.0000 </r>
       <r>    3.0732    1.0000 </r>
       <r>    3.0732    1.0000 </r>
       <r>    3.4038    1.0000 </r>
       <r>    3.4377    1.0000 </r>
       <r>    3.5921    1.0000 </r>
       <r>    3.6717    1.0000 </r>
       <r>    3.6814    1.0000 </r>
       <r>    3.6814    1.0000 </r>
       <r>    4.1034    1.0000 </r>
       <r>    4.2249    1.0000 </r>
       <r>    4.2249    1.0000 </r>
       <r>    5.6488    1.0000 </r>
       <r>   10.0046    0.0000 </r>
       <r>   10.0046    0.0000 </r>
       <r>   13.0732    0.0000 </r>
       <r>   13.0732    0.0000 </r>
       <r>   14.8153    0.0000 </r>
       <r>   14.8153    0.0000 </r>
       <r>   16.9535    0.0000 </r>
       <r>   17.0232    0.0000 </r>
       <r>   17.0232    0.0000 </r>
       <r>   18.6691    0.0000 </r>
       <r>   19.3019    0.0000 </r>
       <r>   20.1690    0.0000 </r>
       <r>   23.0332    0.0000 </r>
       <r>   23.1933    0.0000 </r>
       <r>   23.3129    0.0000 </r>
       <r>   25.0416    0.0000 </r>
       <r>   25.0416    0.0000 </r>
       <r>   25.3790    0.0000 </r>
       <r>   25.7193    0.0000 </r>
       <r>   27.5783    0.0000 </r>
       <r>   28.7798    0.0000 </r>
       <r>   28.7798    0.0000 </r>
       <r>   30.8538    0.0000 </r>
       <r>   31.1889    0.0000 </r>
       <r>   31.7284    0.0000 </r>
       <r>   31.7284    0.0000 </r>
      </set>
      <set comment="kpoint 19">
       <r>    1.6491    1.0000 </r>
       <r>    1.7829    1.0000 </r>
       <r>    1.9635    1.0000 </r>
       <r>    1.9635    1.0000 </r>
       <r>    2.0134    1.0000 </r>
       <r>    2.1839    1.0000 </r>
       <r>    2.2197    1.0000 </r>
       <r>    2.2197    1.0000 </r>
       <r>    2.6509    1.0000 </r>
       <r>    2.6509    1.0000 </r>
       <r>    2.9097    1.0000 </r>
       <r>    3.1009    1.0000 </r>
       <r>    3.1323    1.0000 </r>
       <r>    3.3557    1.0000 </r>
       <r>    3.5209    1.0000 </r>
       <r>    3.5209    1.0000 </r>
       <r>    3.7657    1.0000 </r>
       <r>    3.8155    1.0000 </r>
       <r>    3.9658    1.0000 </r>
       <r>    4.2158    1.0000 </r>
       <r>    4.2158    1.0000 </r>
       <r>    4.5190    1.0000 </r>
       <r>   10.9665    0.0000 </r>
       <r>   10.9665    0.0000 </r>
       <r>   11.9971    0.0000 </r>
       <r>   11.9971    0.0000 </r>
       <r>   15.1592    0.0000 </r>
       <r>   15.1592    0.0000 </r>
       <r>   16.3208    0.0000 </r>
       <r>   16.3208    0.0000 </r>
       <r>   17.9433    0.0000 </r>
       <r>   19.0283    0.0000 </r>
       <r>   20.4688    0.0000 </r>
       <r>   21.0602    0.0000 </r>
       <r>   21.8366    0.0000 </r>
       <r>   22.7746    0.0000 </r>
       <r>   23.1604    0.0000 </r>
       <r>   24.0098    0.0000 </r>
       <r>   25.7867    0.0000 </r>
       <r>   26.4878    0.0000 </r>
       <r>   26.6455    0.0000 </r>
       <r>   26.6455    0.0000 </r>
       <r>   29.2502    0.0000 </r>
       <r>   29.2502    0.0000 </r>
       <r>   31.5255    0.0000 </r>
       <r>   31.5255    0.0000 </r>
       <r>   31.5934    0.0000 </r>
       <r>   32.0193    0.0000 </r>
      </set>
      <set comment="kpoint 20">
       <r>    0.9929    1.0000 </r>
       <r>    1.6029    1.0000 </r>
       <r>    1.6337    1.0000 </r>
       <r>    1.6337    1.0000 </r>
       <r>    1.8415    1.0000 </r>
       <r>    1.8415    1.0000 </r>
       <r>    1.9274    1.0000 </r>
       <r>    2.5187    1.0000 </r>
       <r>    2.8277    1.0000 </r>
       <r>    2.8407    1.0000 </r>
       <r>    3.3307    1.0000 </r>
       <r>    3.3307    1.0000 </r>
       <r>    3.3607    1.0000 </r>
       <r>    3.3894    1.0000 </r>
       <r>    3.6148    1.0000 </r>
       <r>    3.6739    1.0000 </r>
       <r>    3.7321    1.0000 </r>
       <r>    3.7321    1.0000 </r>
       <r>    4.1883    1.0000 </r>
       <r>    4.1923    1.0000 </r>
       <r>    4.1923    1.0000 </r>
       <r>    7.6315   -0.0000 </r>
       <r>    7.6315   -0.0000 </r>
       <r>    9.7028   -0.0000 </r>
       <r>   12.8038    0.0000 </r>
       <r>   14.7207    0.0000 </r>
       <r>   14.7704    0.0000 </r>
       <r>   14.7704    0.0000 </r>
       <r>   16.5812    0.0000 </r>
       <r>   16.5812    0.0000 </r>
       <r>   18.2167    0.0000 </r>
       <r>   18.2167    0.0000 </r>
       <r>   18.9233    0.0000 </r>
       <r>   19.9851    0.0000 </r>
       <r>   22.9383    0.0000 </r>
       <r>   22.9522    0.0000 </r>
       <r>   23.6365    0.0000 </r>
       <r>   23.6365    0.0000 </r>
       <r>   25.0696    0.0000 </r>
       <r>   26.9543    0.0000 </r>
       <r>   26.9543    0.0000 </r>
       <r>   26.9676    0.0000 </r>
       <r>   27.9533    0.0000 </r>
       <r>   28.7360    0.0000 </r>
       <r>   29.6337    0.0000 </r>
       <r>   31.3156    0.0000 </r>
       <r>   32.3927    0.0000 </r>
       <r>   33.0577    0.0000 </r>
      </set>
      <set comment="kpoint 21">
       <r>    1.3789    1.0000 </r>
       <r>    1.7452    1.0000 </r>
       <r>    1.7544    1.0000 </r>
       <r>    1.8239    1.0000 </r>
       <r>    2.0335    1.0000 </r>
       <r>    2.0773    1.0000 </r>
       <r>    2.1565    1.0000 </r>
       <r>    2.4665    1.0000 </r>
       <r>    2.8602    1.0000 </r>
       <r>    2.9067    1.0000 </r>
       <r>    2.9238    1.0000 </r>
       <r>    3.0229    1.0000 </r>
       <r>    3.0642    1.0000 </r>
       <r>    3.4305    1.0000 </r>
       <r>    3.5191    1.0000 </r>
       <r>    3.5280    1.0000 </r>
       <r>    3.6109    1.0000 </r>
       <r>    3.8245    1.0000 </r>
       <r>    4.0946    1.0000 </r>
       <r>    4.1263    1.0000 </r>
       <r>    4.1333    1.0000 </r>
       <r>    6.2050    1.0000 </r>
       <r>    8.4095   -0.0000 </r>
       <r>   10.4608    0.0000 </r>
       <r>   11.5291    0.0000 </r>
       <r>   13.5469    0.0000 </r>
       <r>   15.0505    0.0000 </r>
       <r>   15.5405    0.0000 </r>
       <r>   16.8028    0.0000 </r>
       <r>   17.5188    0.0000 </r>
       <r>   18.7165    0.0000 </r>
       <r>   18.8133    0.0000 </r>
       <r>   18.9652    0.0000 </r>
       <r>   19.0329    0.0000 </r>
       <r>   22.0393    0.0000 </r>
       <r>   23.6606    0.0000 </r>
       <r>   23.7267    0.0000 </r>
       <r>   24.5324    0.0000 </r>
       <r>   25.0357    0.0000 </r>
       <r>   26.4625    0.0000 </r>
       <r>   27.1896    0.0000 </r>
       <r>   27.8371    0.0000 </r>
       <r>   28.6549    0.0000 </r>
       <r>   29.4104    0.0000 </r>
       <r>   30.6814    0.0000 </r>
       <r>   31.4181    0.0000 </r>
       <r>   31.5824    0.0000 </r>
       <r>   31.9794    0.0000 </r>
      </set>
      <set comment="kpoint 22">
       <r>    1.7171    1.0000 </r>
       <r>    1.8180    1.0000 </r>
       <r>    1.9783    1.0000 </r>
       <r>    2.0704    1.0000 </r>
       <r>    2.1815    1.0000 </r>
       <r>    2.2520    1.0000 </r>
       <r>    2.2582    1.0000 </r>
       <r>    2.3887    1.0000 </r>
       <r>    2.6589    1.0000 </r>
       <r>    2.7344    1.0000 </r>
       <r>    2.7669    1.0000 </r>
       <r>    2.8196    1.0000 </r>
       <r>    3.0772    1.0000 </r>
       <r>    3.2839    1.0000 </r>
       <r>    3.4191    1.0000 </r>
       <r>    3.4603    1.0000 </r>
       <r>    3.6914    1.0000 </r>
       <r>    3.9343    1.0000 </r>
       <r>    4.0923    1.0000 </r>
       <r>    4.0948    1.0000 </r>
       <r>    4.2308    1.0000 </r>
       <r>    5.0333    1.0000 </r>
       <r>    9.3089   -0.0000 </r>
       <r>   10.3083    0.0000 </r>
       <r>   11.4406    0.0000 </r>
       <r>   12.4338    0.0000 </r>
       <r>   15.5968    0.0000 </r>
       <r>   16.3195    0.0000 </r>
       <r>   16.4742    0.0000 </r>
       <r>   17.5415    0.0000 </r>
       <r>   17.6499    0.0000 </r>
       <r>   18.3110    0.0000 </r>
       <r>   19.9314    0.0000 </r>
       <r>   20.9993    0.0000 </r>
       <r>   21.2602    0.0000 </r>
       <r>   23.3610    0.0000 </r>
       <r>   24.0028    0.0000 </r>
       <r>   24.7698    0.0000 </r>
       <r>   25.2196    0.0000 </r>
       <r>   26.1450    0.0000 </r>
       <r>   27.5656    0.0000 </r>
       <r>   27.9733    0.0000 </r>
       <r>   28.7452    0.0000 </r>
       <r>   29.7827    0.0000 </r>
       <r>   30.1342    0.0000 </r>
       <r>   31.2180    0.0000 </r>
       <r>   31.8420    0.0000 </r>
       <r>   32.2481    0.0000 </r>
      </set>
      <set comment="kpoint 23">
       <r>    1.6067    1.0000 </r>
       <r>    1.8315    1.0000 </r>
       <r>    1.8906    1.0000 </r>
       <r>    1.8906    1.0000 </r>
       <r>    2.2700    1.0000 </r>
       <r>    2.2700    1.0000 </r>
       <r>    2.3371    1.0000 </r>
       <r>    2.5573    1.0000 </r>
       <r>    2.7318    1.0000 </r>
       <r>    2.7318    1.0000 </r>
       <r>    2.8917    1.0000 </r>
       <r>    2.9186    1.0000 </r>
       <r>    2.9366    1.0000 </r>
       <r>    3.3644    1.0000 </r>
       <r>    3.3831    1.0000 </r>
       <r>    3.4445    1.0000 </r>
       <r>    3.4445    1.0000 </r>
       <r>    4.0042    1.0000 </r>
       <r>    4.0042    1.0000 </r>
       <r>    4.0144    1.0000 </r>
       <r>    4.2072    1.0000 </r>
       <r>    6.9448    1.0214 </r>
       <r>    6.9448    1.0214 </r>
       <r>   10.0337    0.0000 </r>
       <r>   11.2618    0.0000 </r>
       <r>   14.2489    0.0000 </r>
       <r>   14.2489    0.0000 </r>
       <r>   15.4775    0.0000 </r>
       <r>   17.3882    0.0000 </r>
       <r>   17.9553    0.0000 </r>
       <r>   17.9553    0.0000 </r>
       <r>   19.3012    0.0000 </r>
       <r>   19.3012    0.0000 </r>
       <r>   20.5643    0.0000 </r>
       <r>   20.8852    0.0000 </r>
       <r>   22.9048    0.0000 </r>
       <r>   24.7753    0.0000 </r>
       <r>   25.0797    0.0000 </r>
       <r>   25.0797    0.0000 </r>
       <r>   27.1948    0.0000 </r>
       <r>   27.3463    0.0000 </r>
       <r>   28.5088    0.0000 </r>
       <r>   28.5088    0.0000 </r>
       <r>   28.6510    0.0000 </r>
       <r>   31.1207    0.0000 </r>
       <r>   31.1207    0.0000 </r>
       <r>   32.0862    0.0000 </r>
       <r>   32.2347    0.0000 </r>
      </set>
      <set comment="kpoint 24">
       <r>    1.7949    1.0000 </r>
       <r>    1.8930    1.0000 </r>
       <r>    1.9680    1.0000 </r>
       <r>    2.0433    1.0000 </r>
       <r>    2.2934    1.0000 </r>
       <r>    2.3547    1.0000 </r>
       <r>    2.5203    1.0000 </r>
       <r>    2.5724    1.0000 </r>
       <r>    2.6146    1.0000 </r>
       <r>    2.7193    1.0000 </r>
       <r>    2.7734    1.0000 </r>
       <r>    2.8400    1.0000 </r>
       <r>    3.0482    1.0000 </r>
       <r>    3.2350    1.0000 </r>
       <r>    3.2689    1.0000 </r>
       <r>    3.3292    1.0000 </r>
       <r>    3.5572    1.0000 </r>
       <r>    3.8132    1.0000 </r>
       <r>    3.9308    1.0000 </r>
       <r>    3.9347    1.0000 </r>
       <r>    4.8116    1.0000 </r>
       <r>    5.7244    1.0000 </r>
       <r>    7.8218   -0.0000 </r>
       <r>    8.8473   -0.0000 </r>
       <r>   12.1082    0.0000 </r>
       <r>   13.1072    0.0000 </r>
       <r>   15.1428    0.0000 </r>
       <r>   16.1153    0.0000 </r>
       <r>   16.1948    0.0000 </r>
       <r>   16.9601    0.0000 </r>
       <r>   18.8177    0.0000 </r>
       <r>   19.8029    0.0000 </r>
       <r>   19.8609    0.0000 </r>
       <r>   20.5266    0.0000 </r>
       <r>   21.6122    0.0000 </r>
       <r>   23.7003    0.0000 </r>
       <r>   23.9822    0.0000 </r>
       <r>   25.2710    0.0000 </r>
       <r>   25.4455    0.0000 </r>
       <r>   25.8417    0.0000 </r>
       <r>   27.9587    0.0000 </r>
       <r>   28.3194    0.0000 </r>
       <r>   28.6455    0.0000 </r>
       <r>   29.7111    0.0000 </r>
       <r>   30.1561    0.0000 </r>
       <r>   30.7249    0.0000 </r>
       <r>   32.1559    0.0000 </r>
       <r>   32.5387    0.0000 </r>
      </set>
      <set comment="kpoint 25">
       <r>    1.8716    1.0000 </r>
       <r>    1.9536    1.0000 </r>
       <r>    1.9536    1.0000 </r>
       <r>    1.9654    1.0000 </r>
       <r>    2.4151    1.0000 </r>
       <r>    2.4467    1.0000 </r>
       <r>    2.4467    1.0000 </r>
       <r>    2.5390    1.0000 </r>
       <r>    2.8450    1.0000 </r>
       <r>    2.8450    1.0000 </r>
       <r>    2.9499    1.0000 </r>
       <r>    2.9741    1.0000 </r>
       <r>    3.0046    1.0000 </r>
       <r>    3.1300    1.0000 </r>
       <r>    3.1615    1.0000 </r>
       <r>    3.1615    1.0000 </r>
       <r>    3.5440    1.0000 </r>
       <r>    3.7278    1.0000 </r>
       <r>    3.7278    1.0000 </r>
       <r>    3.7832    1.0000 </r>
       <r>    5.5718    1.0000 </r>
       <r>    6.5687    1.0000 </r>
       <r>    6.5687    1.0000 </r>
       <r>    7.6001   -0.0000 </r>
       <r>   12.9611    0.0000 </r>
       <r>   13.9725    0.0000 </r>
       <r>   13.9725    0.0000 </r>
       <r>   15.0043    0.0000 </r>
       <r>   16.8309    0.0000 </r>
       <r>   17.7444    0.0000 </r>
       <r>   17.7444    0.0000 </r>
       <r>   18.7003    0.0000 </r>
       <r>   22.1502    0.0000 </r>
       <r>   22.1502    0.0000 </r>
       <r>   22.6113    0.0000 </r>
       <r>   23.1350    0.0000 </r>
       <r>   23.7958    0.0000 </r>
       <r>   24.8297    0.0000 </r>
       <r>   24.8297    0.0000 </r>
       <r>   24.9307    0.0000 </r>
       <r>   28.3201    0.0000 </r>
       <r>   28.6849    0.0000 </r>
       <r>   28.6849    0.0000 </r>
       <r>   30.0923    0.0000 </r>
       <r>   30.1546    0.0000 </r>
       <r>   31.2157    0.0000 </r>
       <r>   31.3339    0.0000 </r>
       <r>   31.3339    0.0000 </r>
      </set>
      <set comment="kpoint 26">
       <r>    1.1752    1.0000 </r>
       <r>    1.6626    1.0000 </r>
       <r>    1.6626    1.0000 </r>
       <r>    1.6626    1.0000 </r>
       <r>    2.0488    1.0000 </r>
       <r>    2.0488    1.0000 </r>
       <r>    2.0488    1.0000 </r>
       <r>    2.7097    1.0000 </r>
       <r>    2.8132    1.0000 </r>
       <r>    2.8132    1.0000 </r>
       <r>    3.2030    1.0000 </r>
       <r>    3.2030    1.0000 </r>
       <r>    3.2030    1.0000 </r>
       <r>    3.4790    1.0000 </r>
       <r>    3.4790    1.0000 </r>
       <r>    3.4790    1.0000 </r>
       <r>    3.5464    1.0000 </r>
       <r>    3.5464    1.0000 </r>
       <r>    4.2214    1.0000 </r>
       <r>    4.2214    1.0000 </r>
       <r>    4.2214    1.0000 </r>
       <r>    8.1087   -0.0000 </r>
       <r>    8.1087   -0.0000 </r>
       <r>    8.1087   -0.0000 </r>
       <r>   13.2847    0.0000 </r>
       <r>   13.2847    0.0000 </r>
       <r>   13.2847    0.0000 </r>
       <r>   16.8029    0.0000 </r>
       <r>   16.8029    0.0000 </r>
       <r>   16.8029    0.0000 </r>
       <r>   18.5345    0.0000 </r>
       <r>   19.4126    0.0000 </r>
       <r>   19.4126    0.0000 </r>
       <r>   19.4126    0.0000 </r>
       <r>   22.8927    0.0000 </r>
       <r>   22.8927    0.0000 </r>
       <r>   22.8927    0.0000 </r>
       <r>   23.4544    0.0000 </r>
       <r>   25.6161    0.0000 </r>
       <r>   25.6161    0.0000 </r>
       <r>   28.7899    0.0000 </r>
       <r>   28.8806    0.0000 </r>
       <r>   28.8806    0.0000 </r>
       <r>   28.8806    0.0000 </r>
       <r>   29.5836    0.0000 </r>
       <r>   29.5836    0.0000 </r>
       <r>   33.0213    0.0000 </r>
       <r>   33.0213    0.0000 </r>
      </set>
      <set comment="kpoint 27">
       <r>    1.4054    1.0000 </r>
       <r>    1.7147    1.0000 </r>
       <r>    1.7719    1.0000 </r>
       <r>    1.7719    1.0000 </r>
       <r>    2.2393    1.0000 </r>
       <r>    2.2393    1.0000 </r>
       <r>    2.2504    1.0000 </r>
       <r>    2.7478    1.0000 </r>
       <r>    2.8421    1.0000 </r>
       <r>    2.8982    1.0000 </r>
       <r>    2.9652    1.0000 </r>
       <r>    2.9652    1.0000 </r>
       <r>    3.0036    1.0000 </r>
       <r>    3.2662    1.0000 </r>
       <r>    3.3616    1.0000 </r>
       <r>    3.3616    1.0000 </r>
       <r>    3.6713    1.0000 </r>
       <r>    3.7393    1.0000 </r>
       <r>    4.1698    1.0000 </r>
       <r>    4.1698    1.0000 </r>
       <r>    4.1904    1.0000 </r>
       <r>    6.6117    1.0000 </r>
       <r>    8.7814   -0.0000 </r>
       <r>    8.7814   -0.0000 </r>
       <r>   11.9718    0.0000 </r>
       <r>   11.9718    0.0000 </r>
       <r>   14.0071    0.0000 </r>
       <r>   17.1932    0.0000 </r>
       <r>   17.1932    0.0000 </r>
       <r>   17.2019    0.0000 </r>
       <r>   19.1059    0.0000 </r>
       <r>   19.3435    0.0000 </r>
       <r>   19.3435    0.0000 </r>
       <r>   20.2066    0.0000 </r>
       <r>   22.8906    0.0000 </r>
       <r>   23.1041    0.0000 </r>
       <r>   23.6190    0.0000 </r>
       <r>   23.6190    0.0000 </r>
       <r>   24.0579    0.0000 </r>
       <r>   26.3811    0.0000 </r>
       <r>   27.7787    0.0000 </r>
       <r>   29.1504    0.0000 </r>
       <r>   30.0144    0.0000 </r>
       <r>   30.1208    0.0000 </r>
       <r>   30.4687    0.0000 </r>
       <r>   30.4687    0.0000 </r>
       <r>   31.7855    0.0000 </r>
       <r>   31.7856    0.0000 </r>
      </set>
      <set comment="kpoint 28">
       <r>    1.6040    1.0000 </r>
       <r>    1.7095    1.0000 </r>
       <r>    1.9256    1.0000 </r>
       <r>    1.9256    1.0000 </r>
       <r>    2.2435    1.0000 </r>
       <r>    2.2435    1.0000 </r>
       <r>    2.5032    1.0000 </r>
       <r>    2.7224    1.0000 </r>
       <r>    2.7881    1.0000 </r>
       <r>    2.8359    1.0000 </r>
       <r>    2.9004    1.0000 </r>
       <r>    2.9004    1.0000 </r>
       <r>    2.9299    1.0000 </r>
       <r>    3.0754    1.0000 </r>
       <r>    3.2666    1.0000 </r>
       <r>    3.2666    1.0000 </r>
       <r>    3.9301    1.0000 </r>
       <r>    4.0885    1.0000 </r>
       <r>    4.1125    1.0000 </r>
       <r>    4.1125    1.0000 </r>
       <r>    4.3107    1.0000 </r>
       <r>    5.3255    1.0000 </r>
       <r>    9.5167   -0.0000 </r>
       <r>    9.5167   -0.0000 </r>
       <r>   10.9283    0.0000 </r>
       <r>   10.9283    0.0000 </r>
       <r>   14.9242    0.0000 </r>
       <r>   15.9961    0.0000 </r>
       <r>   17.7343    0.0000 </r>
       <r>   17.7343    0.0000 </r>
       <r>   18.6323    0.0000 </r>
       <r>   18.6323    0.0000 </r>
       <r>   21.2751    0.0000 </r>
       <r>   21.3674    0.0000 </r>
       <r>   22.5775    0.0000 </r>
       <r>   22.6369    0.0000 </r>
       <r>   23.1174    0.0000 </r>
       <r>   24.4764    0.0000 </r>
       <r>   24.9046    0.0000 </r>
       <r>   24.9046    0.0000 </r>
       <r>   28.9567    0.0000 </r>
       <r>   29.3436    0.0000 </r>
       <r>   29.3436    0.0000 </r>
       <r>   29.4595    0.0000 </r>
       <r>   30.5494    0.0000 </r>
       <r>   30.6845    0.0000 </r>
       <r>   31.2117    0.0000 </r>
       <r>   31.4828    0.0000 </r>
      </set>
      <set comment="kpoint 29">
       <r>    1.4669    1.0000 </r>
       <r>    1.7431    1.0000 </r>
       <r>    1.7431    1.0000 </r>
       <r>    1.7688    1.0000 </r>
       <r>    2.3472    1.0000 </r>
       <r>    2.3856    1.0000 </r>
       <r>    2.3856    1.0000 </r>
       <r>    2.7508    1.0000 </r>
       <r>    2.8012    1.0000 </r>
       <r>    2.9356    1.0000 </r>
       <r>    2.9356    1.0000 </r>
       <r>    3.0541    1.0000 </r>
       <r>    3.1619    1.0000 </r>
       <r>    3.1823    1.0000 </r>
       <r>    3.1823    1.0000 </r>
       <r>    3.2583    1.0000 </r>
       <r>    3.6250    1.0000 </r>
       <r>    4.0957    1.0000 </r>
       <r>    4.1309    1.0000 </r>
       <r>    4.1553    1.0000 </r>
       <r>    4.1553    1.0000 </r>
       <r>    7.2317   -0.0109 </r>
       <r>    7.2317   -0.0109 </r>
       <r>    9.1995   -0.0000 </r>
       <r>   10.7647    0.0000 </r>
       <r>   12.6615    0.0000 </r>
       <r>   12.6615    0.0000 </r>
       <r>   15.8320    0.0000 </r>
       <r>   17.6317    0.0000 </r>
       <r>   19.4801    0.0000 </r>
       <r>   19.4801    0.0000 </r>
       <r>   19.9479    0.0000 </r>
       <r>   19.9479    0.0000 </r>
       <r>   20.9316    0.0000 </r>
       <r>   22.4507    0.0000 </r>
       <r>   22.7980    0.0000 </r>
       <r>   23.6535    0.0000 </r>
       <r>   23.6535    0.0000 </r>
       <r>   24.2166    0.0000 </r>
       <r>   26.2250    0.0000 </r>
       <r>   28.3349    0.0000 </r>
       <r>   28.4298    0.0000 </r>
       <r>   30.0715    0.0000 </r>
       <r>   30.0715    0.0000 </r>
       <r>   31.0033    0.0000 </r>
       <r>   31.4999    0.0000 </r>
       <r>   31.5944    0.0000 </r>
       <r>   31.7282    0.0000 </r>
      </set>
      <set comment="kpoint 30">
       <r>    1.5590    1.0000 </r>
       <r>    1.6619    1.0000 </r>
       <r>    1.7877    1.0000 </r>
       <r>    1.7918    1.0000 </r>
       <r>    2.3547    1.0000 </r>
       <r>    2.3617    1.0000 </r>
       <r>    2.5484    1.0000 </r>
       <r>    2.6730    1.0000 </r>
       <r>    2.8392    1.0000 </r>
       <r>    2.9206    1.0000 </r>
       <r>    3.0072    1.0000 </r>
       <r>    3.0663    1.0000 </r>
       <r>    3.1011    1.0000 </r>
       <r>    3.1466    1.0000 </r>
       <r>    3.1701    1.0000 </r>
       <r>    3.2214    1.0000 </r>
       <r>    3.8531    1.0000 </r>
       <r>    4.0545    1.0000 </r>
       <r>    4.0680    1.0000 </r>
       <r>    4.0776    1.0000 </r>
       <r>    4.8131    1.0000 </r>
       <r>    5.8907    1.0000 </r>
       <r>    8.0136   -0.0000 </r>
       <r>    8.8724   -0.0000 </r>
       <r>   10.6939    0.0000 </r>
       <r>   11.5311    0.0000 </r>
       <r>   13.5527    0.0000 </r>
       <r>   14.6142    0.0000 </r>
       <r>   18.2546    0.0000 </r>
       <r>   19.0574    0.0000 </r>
       <r>   20.0544    0.0000 </r>
       <r>   20.7271    0.0000 </r>
       <r>   20.7539    0.0000 </r>
       <r>   21.5931    0.0000 </r>
       <r>   21.7166    0.0000 </r>
       <r>   23.3691    0.0000 </r>
       <r>   23.7861    0.0000 </r>
       <r>   23.9604    0.0000 </r>
       <r>   24.5241    0.0000 </r>
       <r>   25.0391    0.0000 </r>
       <r>   28.9746    0.0000 </r>
       <r>   29.0565    0.0000 </r>
       <r>   29.1078    0.0000 </r>
       <r>   29.5522    0.0000 </r>
       <r>   29.7688    0.0000 </r>
       <r>   30.7622    0.0000 </r>
       <r>   31.8934    0.0000 </r>
       <r>   32.0384    0.0000 </r>
      </set>
      <set comment="kpoint 31">
       <r>    1.5809    1.0000 </r>
       <r>    1.6616    1.0000 </r>
       <r>    1.6616    1.0000 </r>
       <r>    1.7037    1.0000 </r>
       <r>    2.4490    1.0000 </r>
       <r>    2.5046    1.0000 </r>
       <r>    2.5046    1.0000 </r>
       <r>    2.6154    1.0000 </r>
       <r>    2.8177    1.0000 </r>
       <r>    2.8942    1.0000 </r>
       <r>    2.8942    1.0000 </r>
       <r>    2.9308    1.0000 </r>
       <r>    3.3339    1.0000 </r>
       <r>    3.3339    1.0000 </r>
       <r>    3.3420    1.0000 </r>
       <r>    3.4679    1.0000 </r>
       <r>    3.7854    1.0000 </r>
       <r>    3.9549    1.0000 </r>
       <r>    3.9549    1.0000 </r>
       <r>    3.9716    1.0000 </r>
       <r>    5.6136    1.0000 </r>
       <r>    6.6900    1.0000 </r>
       <r>    6.6900    1.0000 </r>
       <r>    7.7056   -0.0000 </r>
       <r>   11.4002    0.0000 </r>
       <r>   12.3748    0.0000 </r>
       <r>   12.3748    0.0000 </r>
       <r>   13.4061    0.0000 </r>
       <r>   18.9149    0.0000 </r>
       <r>   19.7591    0.0000 </r>
       <r>   19.7591    0.0000 </r>
       <r>   20.6124    0.0000 </r>
       <r>   22.1872    0.0000 </r>
       <r>   22.1872    0.0000 </r>
       <r>   22.7965    0.0000 </r>
       <r>   22.9131    0.0000 </r>
       <r>   23.3830    0.0000 </r>
       <r>   24.2845    0.0000 </r>
       <r>   24.2845    0.0000 </r>
       <r>   24.7986    0.0000 </r>
       <r>   28.8138    0.0000 </r>
       <r>   28.9356    0.0000 </r>
       <r>   28.9356    0.0000 </r>
       <r>   29.1559    0.0000 </r>
       <r>   29.9981    0.0000 </r>
       <r>   30.3567    0.0000 </r>
       <r>   30.5920    0.0000 </r>
       <r>   30.5920    0.0000 </r>
      </set>
      <set comment="kpoint 32">
       <r>    1.4052    1.0000 </r>
       <r>    1.6446    1.0000 </r>
       <r>    1.6446    1.0000 </r>
       <r>    1.6446    1.0000 </r>
       <r>    2.4376    1.0000 </r>
       <r>    2.4376    1.0000 </r>
       <r>    2.4376    1.0000 </r>
       <r>    2.7325    1.0000 </r>
       <r>    2.7325    1.0000 </r>
       <r>    2.9677    1.0000 </r>
       <r>    2.9677    1.0000 </r>
       <r>    2.9677    1.0000 </r>
       <r>    3.2327    1.0000 </r>
       <r>    3.2327    1.0000 </r>
       <r>    3.2327    1.0000 </r>
       <r>    3.8544    1.0000 </r>
       <r>    3.8544    1.0000 </r>
       <r>    4.0971    1.0000 </r>
       <r>    4.1871    1.0000 </r>
       <r>    4.1871    1.0000 </r>
       <r>    4.1871    1.0000 </r>
       <r>    7.6694   -0.0000 </r>
       <r>    7.6694   -0.0000 </r>
       <r>    7.6694   -0.0000 </r>
       <r>   11.3425    0.0000 </r>
       <r>   11.3425    0.0000 </r>
       <r>   11.3425    0.0000 </r>
       <r>   14.4398    0.0000 </r>
       <r>   19.8531    0.0000 </r>
       <r>   19.8531    0.0000 </r>
       <r>   19.8531    0.0000 </r>
       <r>   21.5475    0.0000 </r>
       <r>   21.5475    0.0000 </r>
       <r>   21.5475    0.0000 </r>
       <r>   22.7455    0.0000 </r>
       <r>   22.7455    0.0000 </r>
       <r>   22.7455    0.0000 </r>
       <r>   22.7484    0.0000 </r>
       <r>   24.8057    0.0000 </r>
       <r>   24.8057    0.0000 </r>
       <r>   28.7807    0.0000 </r>
       <r>   28.7807    0.0000 </r>
       <r>   29.8312    0.0000 </r>
       <r>   30.8068    0.0000 </r>
[...]
       <r>   29.3403    0.0000 </r>
       <r>   29.3613    0.0000 </r>
       <r>   29.3613    0.0000 </r>
       <r>   29.8597    0.0000 </r>
       <r>   30.0344    0.0000 </r>
       <r>   30.7911    0.0000 </r>
       <r>   31.0812    0.0000 </r>
      </set>
      <set comment="kpoint 34">
       <r>    1.3937    1.0000 </r>
       <r>    1.4552    1.0000 </r>
       <r>    1.4552    1.0000 </r>
       <r>    1.4835    1.0000 </r>
       <r>    2.5239    1.0000 </r>
       <r>    2.5574    1.0000 </r>
       <r>    2.5574    1.0000 </r>
       <r>    2.6414    1.0000 </r>
       <r>    2.6894    1.0000 </r>
       <r>    2.7471    1.0000 </r>
       <r>    2.7471    1.0000 </r>
       <r>    2.7645    1.0000 </r>
       <r>    3.7155    1.0000 </r>
       <r>    3.7284    1.0000 </r>
       <r>    3.7284    1.0000 </r>
       <r>    3.9376    1.0000 </r>
       <r>    3.9902    1.0000 </r>
       <r>    4.1120    1.0000 </r>
       <r>    4.1170    1.0000 </r>
       <r>    4.1170    1.0000 </r>
       <r>    5.8078    1.0000 </r>
       <r>    6.8931    1.0283 </r>
       <r>    6.8931    1.0283 </r>
       <r>    7.6501   -0.0000 </r>
       <r>   10.3814    0.0000 </r>
       <r>   11.0877    0.0000 </r>
       <r>   11.0877    0.0000 </r>
       <r>   12.0391    0.0000 </r>
       <r>   20.9007    0.0000 </r>
       <r>   21.5170    0.0000 </r>
       <r>   21.5170    0.0000 </r>
       <r>   22.0314    0.0000 </r>
       <r>   22.4302    0.0000 </r>
       <r>   22.4302    0.0000 </r>
       <r>   22.7880    0.0000 </r>
       <r>   23.1093    0.0000 </r>
       <r>   23.3645    0.0000 </r>
       <r>   23.7738    0.0000 </r>
       <r>   23.7738    0.0000 </r>
       <r>   24.4973    0.0000 </r>
       <r>   28.6141    0.0000 </r>
       <r>   28.9989    0.0000 </r>
       <r>   28.9989    0.0000 </r>
       <r>   29.0035    0.0000 </r>
       <r>   29.5420    0.0000 </r>
       <r>   29.6798    0.0000 </r>
       <r>   29.8446    0.0000 </r>
       <r>   29.8446    0.0000 </r>
      </set>
      <set comment="kpoint 35">
       <r>    1.3169    1.0000 </r>
       <r>    1.3490    1.0000 </r>
       <r>    1.3490    1.0000 </r>
       <r>    1.3490    1.0000 </r>
       <r>    2.5941    1.0000 </r>
       <r>    2.5941    1.0000 </r>
       <r>    2.5941    1.0000 </r>
       <r>    2.6357    1.0000 </r>
       <r>    2.6357    1.0000 </r>
       <r>    2.6617    1.0000 </r>
       <r>    2.6617    1.0000 </r>
       <r>    2.6617    1.0000 </r>
       <r>    4.0067    1.0000 </r>
       <r>    4.0067    1.0000 </r>
       <r>    4.0067    1.0000 </r>
       <r>    4.1248    1.0000 </r>
       <r>    4.1248    1.0000 </r>
       <r>    4.1673    1.0000 </r>
       <r>    4.1673    1.0000 </r>
       <r>    4.1673    1.0000 </r>
       <r>    6.3342    1.0000 </r>
       <r>    7.0997    0.0887 </r>
       <r>    7.0997    0.0887 </r>
       <r>    7.0997    0.0887 </r>
       <r>   10.2996    0.0000 </r>
       <r>   10.2996    0.0000 </r>
       <r>   10.2996    0.0000 </r>
       <r>   10.9622    0.0000 </r>
       <r>   21.9863    0.0000 </r>
       <r>   21.9863    0.0000 </r>
       <r>   21.9863    0.0000 </r>
       <r>   22.1735    0.0000 </r>
       <r>   23.4280    0.0000 </r>
       <r>   23.4280    0.0000 </r>
       <r>   23.4280    0.0000 </r>
       <r>   23.5395    0.0000 </r>
       <r>   23.5395    0.0000 </r>
       <r>   23.5395    0.0000 </r>
       <r>   24.0381    0.0000 </r>
       <r>   24.0381    0.0000 </r>
       <r>   28.5668    0.0000 </r>
       <r>   28.5668    0.0000 </r>
       <r>   28.9145    0.0000 </r>
       <r>   28.9145    0.0000 </r>
       <r>   28.9145    0.0000 </r>
       <r>   28.9739    0.0000 </r>
       <r>   28.9739    0.0000 </r>
       <r>   28.9739    0.0000 </r>
      </set>
     </set>
    </set>
   </array>
  </eigenvalues>
  <separator name="orbital magnetization" >
   <v name="MAGDIPOLOUT">      0.00000000      0.00000000      0.00000000</v>
  </separator>
  <dos>
   <i name="efermi">      7.04156024 </i>
   <total>
    <array>
     <dimension dim="1">gridpoints</dimension>
     <dimension dim="2">spin</dimension>
     <field>energy</field>
     <field>total</field>
     <field>integrated</field>
     <set>
      <set comment="spin 1">
       <r>    -1.6770     0.0000     0.0000 </r>
       <r>    -1.5506     0.0000     0.0000 </r>
       <r>    -1.4242     0.0000     0.0000 </r>
       <r>    -1.2979     0.0000     0.0000 </r>
       <r>    -1.1715     0.0000     0.0000 </r>
       <r>    -1.0452     0.0000     0.0000 </r>
       <r>    -0.9188     0.0000     0.0000 </r>
       <r>    -0.7924    -0.0000    -0.0000 </r>
       <r>    -0.6661    -0.0000    -0.0000 </r>
       <r>    -0.5397    -0.0000    -0.0000 </r>
       <r>    -0.4133    -0.0000    -0.0000 </r>
       <r>    -0.2870    -0.0000    -0.0000 </r>
       <r>    -0.1606    -0.0001    -0.0000 </r>
       <r>    -0.0343    -0.0007    -0.0001 </r>
       <r>     0.0921     0.0203     0.0024 </r>
       <r>     0.2185     0.1332     0.0193 </r>
       <r>     0.3448     0.2662     0.0529 </r>
       <r>     0.4712     0.1769     0.0753 </r>
       <r>     0.5975     0.2789     0.1105 </r>
       <r>     0.7239     0.6724     0.1955 </r>
       <r>     0.8503     0.2195     0.2232 </r>
       <r>     0.9766     0.4075     0.2747 </r>
       <r>     1.1030     0.6903     0.3619 </r>
       <r>     1.2294     0.7813     0.4606 </r>
       <r>     1.3557     1.8394     0.6931 </r>
       <r>     1.4821     6.9357     1.5695 </r>
       <r>     1.6084     9.9250     2.8236 </r>
       <r>     1.7348    15.5789     4.7922 </r>
       <r>     1.8612    16.3498     6.8582 </r>
       <r>     1.9875    13.8409     8.6072 </r>
       <r>     2.1139    10.1382     9.8883 </r>
       <r>     2.2403     9.8980    11.1390 </r>
       <r>     2.3666    13.7417    12.8754 </r>
       <r>     2.4930    11.0594    14.2729 </r>
       <r>     2.6193    13.0863    15.9265 </r>
       <r>     2.7457    14.6896    17.7827 </r>
       <r>     2.8721    19.5766    20.2565 </r>
       <r>     2.9984    17.7087    22.4942 </r>
       <r>     3.1248    12.8381    24.1164 </r>
       <r>     3.2512    12.2172    25.6602 </r>
       <r>     3.3775    14.0282    27.4329 </r>
       <r>     3.5039    15.5394    29.3964 </r>
       <r>     3.6302    14.8834    31.2771 </r>
       <r>     3.7566    12.8282    32.8981 </r>
       <r>     3.8830    13.1961    34.5656 </r>
       <r>     4.0093    12.2954    36.1193 </r>
       <r>     4.1357    19.1909    38.5443 </r>
       <r>     4.2621    17.0725    40.7016 </r>
       <r>     4.3884     5.8877    41.4456 </r>
       <r>     4.5148     0.1966    41.4704 </r>
       <r>     4.6411     0.2138    41.4974 </r>
       <r>     4.7675     0.4003    41.5480 </r>
       <r>     4.8939     2.1758    41.8230 </r>
       <r>     5.0202     1.0535    41.9561 </r>
       <r>     5.1466     1.2088    42.1088 </r>
       <r>     5.2729     0.0623    42.1167 </r>
       <r>     5.3993     0.5853    42.1906 </r>
       <r>     5.5257     0.5019    42.2541 </r>
       <r>     5.6520     1.5257    42.4469 </r>
       <r>     5.7784     1.7943    42.6736 </r>
       <r>     5.9048     1.1480    42.8187 </r>
       <r>     6.0311     0.5226    42.8847 </r>
       <r>     6.1575     0.5200    42.9504 </r>
       <r>     6.2838     1.2432    43.1075 </r>
       <r>     6.4102     0.3220    43.1482 </r>
       <r>     6.5366     0.6127    43.2256 </r>
       <r>     6.6629     1.8795    43.4631 </r>
       <r>     6.7893     0.9718    43.5859 </r>
       <r>     6.9157     1.8252    43.8166 </r>
       <r>     7.0420     1.4550    44.0004 </r>
       <r>     7.1684     0.7808    44.0991 </r>
       <r>     7.2947     0.8982    44.2126 </r>
       <r>     7.4211     0.1857    44.2360 </r>
       <r>     7.5475     0.5547    44.3061 </r>
       <r>     7.6738     2.2552    44.5911 </r>
       <r>     7.8002     1.8528    44.8252 </r>
       <r>     7.9266     0.7131    44.9153 </r>
       <r>     8.0529     1.1097    45.0556 </r>
       <r>     8.1793     1.5680    45.2537 </r>
       <r>     8.3056     0.8263    45.3581 </r>
       <r>     8.4320     0.9956    45.4839 </r>
       <r>     8.5584     0.7539    45.5792 </r>
       <r>     8.6847     0.0153    45.5811 </r>
       <r>     8.8111     1.5469    45.7766 </r>
       <r>     8.9374     2.4247    46.0830 </r>
       <r>     9.0638     0.3881    46.1320 </r>
       <r>     9.1902     1.4469    46.3149 </r>
       <r>     9.3165     1.5142    46.5062 </r>
       <r>     9.4429     0.6834    46.5926 </r>
       <r>     9.5693     0.8404    46.6988 </r>
       <r>     9.6956     0.3562    46.7438 </r>
       <r>     9.8220     0.6058    46.8203 </r>
       <r>     9.9483     0.6463    46.9020 </r>
       <r>    10.0747     1.7566    47.1240 </r>
       <r>    10.2011     0.5750    47.1966 </r>
       <r>    10.3274     1.4324    47.3776 </r>
       <r>    10.4538     1.9602    47.6253 </r>
       <r>    10.5802     1.1688    47.7730 </r>
       <r>    10.7065     0.7150    47.8633 </r>
       <r>    10.8329     1.4275    48.0437 </r>
       <r>    10.9592     1.7264    48.2619 </r>
       <r>    11.0856     1.8280    48.4929 </r>
       <r>    11.2120     0.7868    48.5923 </r>
       <r>    11.3383     0.7915    48.6923 </r>
       <r>    11.4647     2.0508    48.9515 </r>
       <r>    11.5911     2.1810    49.2271 </r>
       <r>    11.7174     0.5761    49.2998 </r>
       <r>    11.8438     0.2523    49.3317 </r>
       <r>    11.9701     1.1185    49.4731 </r>
       <r>    12.0965     2.4292    49.7800 </r>
       <r>    12.2229     1.2720    49.9408 </r>
       <r>    12.3492     0.7729    50.0384 </r>
       <r>    12.4756     1.6057    50.2413 </r>
       <r>    12.6020     0.6549    50.3241 </r>
       <r>    12.7283     1.0740    50.4598 </r>
       <r>    12.8547     1.3376    50.6288 </r>
       <r>    12.9810     0.4976    50.6917 </r>
       <r>    13.1074     1.9330    50.9359 </r>
       <r>    13.2338     2.2308    51.2178 </r>
       <r>    13.3601     1.1598    51.3644 </r>
       <r>    13.4865     0.9942    51.4900 </r>
       <r>    13.6128     2.7496    51.8375 </r>
       <r>    13.7392     1.3331    52.0059 </r>
       <r>    13.8656     0.4465    52.0623 </r>
       <r>    13.9919     1.7794    52.2872 </r>
       <r>    14.1183     3.1124    52.6805 </r>
       <r>    14.2447     1.7840    52.9059 </r>
       <r>    14.3710     1.3629    53.0781 </r>
       <r>    14.4974     0.8997    53.1918 </r>
       <r>    14.6237     1.3003    53.3561 </r>
       <r>    14.7501     1.9595    53.6037 </r>
       <r>    14.8765     3.7646    54.0794 </r>
       <r>    15.0028     1.1010    54.2185 </r>
       <r>    15.1292     2.3767    54.5189 </r>
       <r>    15.2556     1.8545    54.7532 </r>
       <r>    15.3819     0.9639    54.8750 </r>
       <r>    15.5083     0.7270    54.9669 </r>
       <r>    15.6346     2.7993    55.3206 </r>
       <r>    15.7610     0.8589    55.4291 </r>
       <r>    15.8874     1.8627    55.6645 </r>
       <r>    16.0137     1.7644    55.8875 </r>
       <r>    16.1401     3.3079    56.3055 </r>
       <r>    16.2665     2.3325    56.6002 </r>
       <r>    16.3928     1.8470    56.8336 </r>
       <r>    16.5192     1.1957    56.9847 </r>
       <r>    16.6455     1.9093    57.2259 </r>
       <r>    16.7719     0.8507    57.3334 </r>
       <r>    16.8983     3.2211    57.7405 </r>
       <r>    17.0246     3.6534    58.2021 </r>
       <r>    17.1510     2.5441    58.5236 </r>
       <r>    17.2773     1.3992    58.7004 </r>
       <r>    17.4037     0.7650    58.7971 </r>
       <r>    17.5301     1.9869    59.0481 </r>
       <r>    17.6564     3.8999    59.5409 </r>
       <r>    17.7828     3.6650    60.0040 </r>
       <r>    17.9092     1.4598    60.1885 </r>
       <r>    18.0355     1.5817    60.3884 </r>
       <r>    18.1619     1.1082    60.5284 </r>
       <r>    18.2882     3.1352    60.9246 </r>
       <r>    18.4146     1.9083    61.1657 </r>
       <r>    18.5410     0.7199    61.2567 </r>
       <r>    18.6673     1.6607    61.4665 </r>
       <r>    18.7937     3.1320    61.8623 </r>
       <r>    18.9201     3.1761    62.2636 </r>
       <r>    19.0464     3.4045    62.6938 </r>
       <r>    19.1728     2.0876    62.9576 </r>
       <r>    19.2991     1.5617    63.1550 </r>
       <r>    19.4255     3.1564    63.5538 </r>
       <r>    19.5519     1.6223    63.7588 </r>
       <r>    19.6782     0.1016    63.7717 </r>
       <r>    19.8046     1.8471    64.0051 </r>
       <r>    19.9310     3.3010    64.4222 </r>
       <r>    20.0573     2.2403    64.7053 </r>
       <r>    20.1837     1.1987    64.8568 </r>
       <r>    20.3100     1.0647    64.9913 </r>
       <r>    20.4364     1.3737    65.1649 </r>
       <r>    20.5628     3.1025    65.5569 </r>
       <r>    20.6891     1.6539    65.7659 </r>
       <r>    20.8155     1.9154    66.0079 </r>
       <r>    20.9419     1.4569    66.1920 </r>
       <r>    21.0682     2.0825    66.4552 </r>
       <r>    21.1946     1.4043    66.6326 </r>
       <r>    21.3209     2.2317    66.9146 </r>
       <r>    21.4473     0.8465    67.0216 </r>
       <r>    21.5737     2.6301    67.3540 </r>
       <r>    21.7000     3.3214    67.7737 </r>
       <r>    21.8264     1.8784    68.0110 </r>
       <r>    21.9527     0.3684    68.0576 </r>
       <r>    22.0791     1.7251    68.2755 </r>
       <r>    22.2055     2.4730    68.5880 </r>
       <r>    22.3318     0.6366    68.6685 </r>
       <r>    22.4582     2.3832    68.9696 </r>
       <r>    22.5846     1.5527    69.1658 </r>
       <r>    22.7109     1.3307    69.3340 </r>
       <r>    22.8373     2.7332    69.6794 </r>
       <r>    22.9636     4.0127    70.1864 </r>
       <r>    23.0900     4.1147    70.7063 </r>
       <r>    23.2164     3.6424    71.1666 </r>
       <r>    23.3427     2.0114    71.4208 </r>
       <r>    23.4691     3.1068    71.8134 </r>
       <r>    23.5955     4.1003    72.3315 </r>
       <r>    23.7218     8.9083    73.4572 </r>
       <r>    23.8482     5.0451    74.0947 </r>
       <r>    23.9745     2.8541    74.4553 </r>
       <r>    24.1009     3.8611    74.9432 </r>
       <r>    24.2273     1.0139    75.0713 </r>
       <r>    24.3536     1.4048    75.2488 </r>
       <r>    24.4800     1.5132    75.4400 </r>
       <r>    24.6064     3.0312    75.8231 </r>
       <r>    24.7327     1.2319    75.9787 </r>
       <r>    24.8591     4.8937    76.5971 </r>
       <r>    24.9854     2.9817    76.9739 </r>
       <r>    25.1118     5.7673    77.7027 </r>
       <r>    25.2382     2.7182    78.0461 </r>
       <r>    25.3645     2.6083    78.3757 </r>
       <r>    25.4909     3.3852    78.8035 </r>
       <r>    25.6172     1.3577    78.9751 </r>
       <r>    25.7436     1.4787    79.1619 </r>
       <r>    25.8700     1.7645    79.3849 </r>
       <r>    25.9963     1.0751    79.5207 </r>
       <r>    26.1227     0.6911    79.6081 </r>
       <r>    26.2491     2.1589    79.8809 </r>
       <r>    26.3754     1.5384    80.0753 </r>
       <r>    26.5018     2.1506    80.3470 </r>
       <r>    26.6281     1.1676    80.4945 </r>
       <r>    26.7545     1.2896    80.6575 </r>
       <r>    26.8809     3.3879    81.0856 </r>
       <r>    27.0072     2.2682    81.3722 </r>
       <r>    27.1336     1.1196    81.5137 </r>
       <r>    27.2600     1.9509    81.7602 </r>
       <r>    27.3863     0.6888    81.8473 </r>
       <r>    27.5127     1.3728    82.0207 </r>
       <r>    27.6390     2.2299    82.3025 </r>
       <r>    27.7654     0.3034    82.3408 </r>
       <r>    27.8918     1.4725    82.5269 </r>
       <r>    28.0181     2.9666    82.9018 </r>
       <r>    28.1445     0.8932    83.0146 </r>
       <r>    28.2709     0.5091    83.0790 </r>
       <r>    28.3972     3.0519    83.4646 </r>
       <r>    28.5236     1.6793    83.6768 </r>
       <r>    28.6499     3.2106    84.0825 </r>
       <r>    28.7763     5.3788    84.7622 </r>
       <r>    28.9027     3.0018    85.1415 </r>
       <r>    29.0290     4.5469    85.7160 </r>
       <r>    29.1554     3.4040    86.1462 </r>
       <r>    29.2817     1.9585    86.3937 </r>
       <r>    29.4081     2.9766    86.7698 </r>
       <r>    29.5345     2.1749    87.0446 </r>
       <r>    29.6608     2.5096    87.3617 </r>
       <r>    29.7872     3.0840    87.7514 </r>
       <r>    29.9136     2.8929    88.1170 </r>
       <r>    30.0399     1.7556    88.3388 </r>
       <r>    30.1663     5.0801    88.9808 </r>
       <r>    30.2926     1.4431    89.1631 </r>
       <r>    30.4190     1.3826    89.3378 </r>
       <r>    30.5454     1.3779    89.5119 </r>
       <r>    30.6717     2.3797    89.8127 </r>
       <r>    30.7981     5.1004    90.4572 </r>
       <r>    30.9245     3.0341    90.8406 </r>
       <r>    31.0508     2.8323    91.1984 </r>
       <r>    31.1772     3.5871    91.6517 </r>
       <r>    31.3035     3.9931    92.1563 </r>
       <r>    31.4299     2.3120    92.4484 </r>
       <r>    31.5563     3.1698    92.8490 </r>
       <r>    31.6826     3.2077    93.2543 </r>
       <r>    31.8090     3.6478    93.7153 </r>
       <r>    31.9354     3.5421    94.1629 </r>
       <r>    32.0617     3.2526    94.5739 </r>
       <r>    32.1881     2.9697    94.9491 </r>
       <r>    32.3144     2.0081    95.2029 </r>
       <r>    32.4408     0.8671    95.3124 </r>
       <r>    32.5672     1.6055    95.5153 </r>
       <r>    32.6935     0.7761    95.6134 </r>
       <r>    32.8199    -0.0052    95.6127 </r>
       <r>    32.9463     0.0296    95.6165 </r>
       <r>    33.0726     1.0687    95.7515 </r>
       <r>    33.1990     0.3255    95.7926 </r>
       <r>    33.3253     0.0802    95.8028 </r>
       <r>    33.4517     0.1179    95.8177 </r>
       <r>    33.5781     0.6053    95.8942 </r>
       <r>    33.7044     0.6626    95.9779 </r>
       <r>    33.8308     0.0131    95.9795 </r>
       <r>    33.9571     0.1402    95.9973 </r>
       <r>    34.0835     0.0009    95.9974 </r>
       <r>    34.2099    -0.0010    95.9973 </r>
       <r>    34.3362    -0.0004    95.9972 </r>
       <r>    34.4626     0.0037    95.9977 </r>
       <r>    34.5890     0.0182    96.0000 </r>
       <r>    34.7153     0.0003    96.0000 </r>
       <r>    34.8417    -0.0001    96.0000 </r>
       <r>    34.9680    -0.0000    96.0000 </r>
       <r>    35.0944    -0.0000    96.0000 </r>
       <r>    35.2208    -0.0000    96.0000 </r>
       <r>    35.3471     0.0000    96.0000 </r>
       <r>    35.4735     0.0000    96.0000 </r>
       <r>    35.5999     0.0000    96.0000 </r>
       <r>    35.7262     0.0000    96.0000 </r>
       <r>    35.8526     0.0000    96.0000 </r>
       <r>    35.9789     0.0000    96.0000 </r>
       <r>    36.1053     0.0000    96.0000 </r>
       <r>    36.2317     0.0000    96.0000 </r>
      </set>
     </set>
    </array>
   </total>
  </dos>
 </calculation>
 <structure name="finalpos" >
  <crystal>
   <varray name="basis" >
    <v>       4.22633333       0.00000000       0.00000000 </v>
    <v>       0.00000000       4.22633333       0.00000000 </v>
    <v>       0.00000000       0.00000000       4.22633333 </v>
   </varray>
   <i name="volume">     75.49031566 </i>
   <varray name="rec_basis" >
    <v>       0.23661172       0.00000000       0.00000000 </v>
    <v>       0.00000000       0.23661172       0.00000000 </v>
    <v>       0.00000000       0.00000000       0.23661172 </v>
   </varray>
  </crystal>
  <varray name="positions" >
   <v>       0.00000000       0.00000000       0.00000000 </v>
   <v>       0.00000000       0.50000000       0.50000000 </v>
   <v>       0.50000000       0.00000000       0.50000000 </v>
   <v>       0.50000000       0.50000000       0.00000000 </v>
  </varray>
 </structure>
</modeling>
