   4   4   0   0
  0.1545042E+02  0.3953667E-09  0.3953667E-09  0.3953667E-09  0.5000000E-15
  1.000000000000000E-004
  CAR 
 unknown system                          
     42.43044846     -0.59986193  301      9.84231371      1.00000000
     -0.600  0.0000E+00  0.0000E+00
     -0.456  0.0000E+00  0.0000E+00
     -0.313  0.0000E+00  0.0000E+00
     -0.170  0.0000E+00  0.0000E+00
     -0.026  0.0000E+00  0.0000E+00
      0.117  0.0000E+00  0.0000E+00
      0.261  0.0000E+00  0.0000E+00
      0.404  0.0000E+00  0.0000E+00
      0.548 -0.1798E-29 -0.2578E-30
      0.691 -0.2231E-20 -0.3200E-21
      0.834 -0.4155E-13 -0.5960E-14
      0.978 -0.1173E-07 -0.1682E-08
      1.121 -0.4274E-04 -0.6133E-05
      1.265 -0.5108E-03 -0.7940E-04
      1.408  0.1578E-01  0.2184E-02
      1.552  0.1083E+00  0.1771E-01
      1.695  0.2312E+00  0.5088E-01
      1.839  0.1620E+00  0.7411E-01
      1.982  0.1782E+00  0.9967E-01
      2.125  0.5766E+00  0.1824E+00
      2.269  0.2822E+00  0.2228E+00
      2.412  0.2106E+00  0.2531E+00
      2.556  0.6040E+00  0.3397E+00
      2.699  0.7580E+00  0.4484E+00
      2.843  0.8874E+00  0.5757E+00
      2.986  0.4548E+01  0.1228E+01
      3.129  0.6611E+01  0.2176E+01
      3.273  0.8797E+01  0.3438E+01
      3.416  0.1306E+02  0.5311E+01
      3.560  0.1138E+02  0.6943E+01
      3.703  0.1027E+02  0.8416E+01
      3.847  0.8696E+01  0.9663E+01
      3.990  0.4996E+01  0.1038E+02
      4.133  0.1021E+02  0.1184E+02
      4.277  0.8851E+01  0.1311E+02
      4.420  0.6823E+01  0.1409E+02
      4.564  0.9532E+01  0.1546E+02
      4.707  0.9551E+01  0.1683E+02
      4.851  0.1100E+02  0.1841E+02
      4.994  0.1517E+02  0.2058E+02
      5.138  0.1246E+02  0.2237E+02
      5.281  0.1011E+02  0.2382E+02
      5.424  0.8771E+01  0.2508E+02
      5.568  0.8008E+01  0.2623E+02
      5.711  0.1009E+02  0.2767E+02
      5.855  0.9617E+01  0.2905E+02
      5.998  0.1190E+02  0.3076E+02
      6.142  0.8999E+01  0.3205E+02
      6.285  0.8546E+01  0.3328E+02
      6.428  0.9308E+01  0.3461E+02
      6.572  0.8047E+01  0.3577E+02
      6.715  0.9287E+01  0.3710E+02
      6.859  0.1731E+02  0.3958E+02
      7.002  0.9865E+01  0.4100E+02
      7.146  0.3486E+01  0.4150E+02
      7.289  0.1411E-01  0.4150E+02
      7.432  0.1024E+01  0.4164E+02
      7.576  0.1922E+01  0.4192E+02
      7.719  0.1273E+01  0.4210E+02
      7.863  0.6124E-01  0.4211E+02
      8.006  0.8382E+00  0.4223E+02
      8.150  0.4100E-01  0.4224E+02
      8.293  0.1148E+01  0.4240E+02
      8.437  0.1049E+01  0.4255E+02
      8.580  0.1752E+01  0.4280E+02
      8.723  0.6203E+00  0.4289E+02
      8.867  0.5574E+00  0.4297E+02
      9.010  0.1176E+01  0.4314E+02
      9.154  0.1984E+00  0.4317E+02
      9.297 -0.9958E-01  0.4316E+02
      9.441  0.1500E+01  0.4337E+02
      9.584  0.3318E+01  0.4385E+02
      9.727 -0.3401E-01  0.4384E+02
      9.871  0.1384E+01  0.4404E+02
     10.014  0.3426E+00  0.4409E+02
     10.158  0.7074E+00  0.4419E+02
     10.301  0.7549E+00  0.4430E+02
     10.445  0.3740E+00  0.4435E+02
     10.588  0.1677E+01  0.4459E+02
     10.731  0.9581E+00  0.4473E+02
     10.875  0.1565E+01  0.4496E+02
     11.018  0.1863E+01  0.4522E+02
     11.162  0.6191E+00  0.4531E+02
     11.305  0.2367E+00  0.4535E+02
     11.449  0.9358E+00  0.4548E+02
     11.592  0.8189E+00  0.4560E+02
     11.735 -0.3770E-01  0.4559E+02
     11.879  0.1402E+01  0.4579E+02
     12.022  0.2155E+01  0.4610E+02
     12.166  0.7757E+00  0.4621E+02
     12.309  0.1230E+01  0.4639E+02
     12.453  0.2277E+00  0.4642E+02
     12.596  0.1230E+01  0.4660E+02
     12.740  0.8584E+00  0.4672E+02
     12.883  0.3609E+00  0.4677E+02
     13.026  0.4255E+00  0.4683E+02
     13.170  0.7056E+00  0.4694E+02
     13.313  0.1346E+01  0.4713E+02
     13.457  0.3214E+00  0.4718E+02
     13.600  0.5700E+00  0.4726E+02
     13.744  0.1090E+01  0.4741E+02
     13.887  0.7003E+00  0.4751E+02
     14.030  0.1756E+00  0.4754E+02
     14.174  0.4800E+00  0.4761E+02
     14.317  0.1917E+01  0.4788E+02
     14.461  0.1977E+01  0.4817E+02
     14.604  0.1129E+01  0.4833E+02
     14.748  0.6864E+00  0.4843E+02
     14.891  0.7878E+00  0.4854E+02
     15.034  0.1328E+01  0.4873E+02
     15.178  0.2564E+01  0.4910E+02
     15.321  0.1171E+01  0.4927E+02
     15.465  0.6585E+00  0.4936E+02
     15.608  0.6312E+00  0.4945E+02
     15.752  0.1725E+01  0.4970E+02
     15.895  0.1014E+01  0.4984E+02
     16.039  0.7607E+00  0.4995E+02
     16.182  0.1107E+01  0.5011E+02
     16.325  0.1436E+01  0.5032E+02
     16.469  0.9277E+00  0.5045E+02
     16.612  0.1262E+01  0.5063E+02
     16.756  0.2586E+00  0.5067E+02
     16.899  0.1274E+01  0.5085E+02
     17.043  0.1245E+01  0.5103E+02
     17.186  0.6954E+00  0.5113E+02
     17.329  0.8276E+00  0.5125E+02
     17.473  0.2790E+01  0.5165E+02
     17.616  0.1393E+01  0.5185E+02
     17.760  0.5705E+00  0.5193E+02
     17.903  0.1382E+01  0.5213E+02
     18.047  0.2288E+01  0.5246E+02
     18.190  0.1600E+01  0.5269E+02
     18.333  0.1055E+01  0.5284E+02
     18.477  0.1284E+01  0.5302E+02
     18.620  0.1921E+01  0.5330E+02
     18.764  0.2926E+01  0.5372E+02
     18.907  0.1610E+01  0.5395E+02
     19.051  0.1391E+01  0.5415E+02
     19.194  0.1593E+01  0.5438E+02
     19.338  0.2635E+01  0.5475E+02
     19.481  0.1179E+01  0.5492E+02
     19.624  0.1716E+01  0.5517E+02
     19.768  0.1738E+01  0.5542E+02
     19.911  0.9512E+00  0.5556E+02
     20.055  0.1546E+01  0.5578E+02
     20.198  0.2033E+01  0.5607E+02
     20.342  0.2112E+01  0.5637E+02
     20.485  0.1924E+01  0.5665E+02
     20.628  0.1904E+01  0.5692E+02
     20.772  0.1527E+01  0.5714E+02
     20.915  0.1439E+01  0.5735E+02
     21.059  0.2541E+01  0.5771E+02
     21.202  0.3385E+01  0.5820E+02
     21.346  0.2092E+01  0.5850E+02
     21.489  0.8458E+00  0.5862E+02
     21.632  0.3015E+01  0.5905E+02
     21.776  0.1934E+01  0.5933E+02
     21.919  0.2824E+01  0.5973E+02
     22.063  0.1825E+01  0.5999E+02
     22.206  0.1461E+01  0.6020E+02
     22.350  0.1745E+01  0.6045E+02
     22.493  0.1357E+01  0.6065E+02
     22.637  0.2877E+01  0.6106E+02
     22.780  0.1191E+01  0.6123E+02
     22.923  0.6682E+00  0.6133E+02
     23.067  0.1533E+01  0.6155E+02
     23.210  0.3390E+01  0.6203E+02
     23.354  0.3737E+01  0.6257E+02
     23.497  0.2375E+01  0.6291E+02
     23.641  0.8585E+00  0.6303E+02
     23.784  0.3223E+01  0.6350E+02
     23.927  0.1453E+01  0.6370E+02
     24.071  0.1027E+01  0.6385E+02
     24.214  0.1362E+01  0.6405E+02
     24.358  0.2123E+01  0.6435E+02
     24.501  0.2867E+01  0.6476E+02
     24.645  0.1965E+01  0.6505E+02
     24.788  0.6121E+00  0.6513E+02
     24.931  0.1130E+01  0.6530E+02
     25.075  0.3216E+01  0.6576E+02
     25.218  0.1737E+01  0.6601E+02
     25.362  0.2444E+01  0.6636E+02
     25.505  0.2523E+01  0.6672E+02
     25.649  0.2021E+01  0.6701E+02
     25.792  0.2926E+01  0.6743E+02
     25.935  0.1077E+01  0.6758E+02
     26.079  0.1548E+01  0.6780E+02
     26.222  0.2851E+01  0.6821E+02
     26.366  0.2678E+01  0.6860E+02
     26.509  0.7495E+00  0.6870E+02
     26.653  0.1986E+01  0.6899E+02
     26.796  0.1303E+01  0.6918E+02
     26.940  0.7529E+00  0.6928E+02
     27.083  0.1493E+01  0.6950E+02
     27.226  0.2458E+01  0.6985E+02
     27.370  0.1407E+01  0.7005E+02
     27.513  0.1472E+01  0.7026E+02
     27.657  0.2478E+01  0.7062E+02
     27.800  0.2217E+01  0.7094E+02
     27.944  0.2572E+01  0.7131E+02
     28.087  0.3812E+01  0.7185E+02
     28.230  0.4754E+01  0.7254E+02
     28.374  0.3423E+01  0.7303E+02
     28.517  0.3838E+01  0.7358E+02
     28.661  0.5110E+01  0.7431E+02
     28.804  0.2491E+01  0.7467E+02
     28.948  0.9680E+00  0.7481E+02
     29.091  0.3082E+01  0.7525E+02
     29.234  0.1781E+01  0.7550E+02
     29.378  0.1723E+01  0.7575E+02
     29.521  0.1326E+01  0.7594E+02
     29.665  0.4082E+01  0.7653E+02
     29.808  0.4544E+01  0.7718E+02
     29.952  0.3175E+01  0.7763E+02
     30.095  0.3408E+01  0.7812E+02
     30.239  0.1836E+01  0.7839E+02
     30.382  0.1600E+01  0.7861E+02
     30.525  0.1215E+01  0.7879E+02
     30.669  0.9761E+00  0.7893E+02
     30.812  0.1816E+01  0.7919E+02
     30.956  0.1969E+01  0.7947E+02
     31.099  0.2080E+01  0.7977E+02
     31.243  0.2301E+01  0.8010E+02
     31.386  0.1180E+01  0.8027E+02
     31.529  0.7888E+00  0.8038E+02
     31.673  0.5814E+00  0.8047E+02
     31.816  0.9152E+00  0.8060E+02
     31.960  0.2200E+01  0.8091E+02
     32.103  0.8273E+00  0.8103E+02
     32.247  0.4670E+00  0.8110E+02
     32.390  0.2035E+01  0.8139E+02
     32.533  0.1837E+01  0.8165E+02
     32.677  0.1184E+01  0.8182E+02
     32.820  0.1263E+01  0.8200E+02
     32.964  0.2580E+01  0.8237E+02
     33.107  0.1781E+01  0.8263E+02
     33.251  0.1193E+01  0.8280E+02
     33.394  0.2065E+01  0.8310E+02
     33.538  0.1956E+01  0.8338E+02
     33.681  0.2186E+01  0.8369E+02
     33.824  0.3196E+01  0.8415E+02
     33.968  0.8624E+00  0.8427E+02
     34.111  0.2515E+01  0.8463E+02
     34.255  0.3369E+01  0.8512E+02
     34.398  0.3069E+01  0.8556E+02
     34.542  0.3757E+01  0.8610E+02
     34.685  0.3677E+01  0.8662E+02
     34.828  0.3620E+01  0.8714E+02
     34.972  0.2192E+01  0.8746E+02
     35.115  0.3132E+01  0.8791E+02
     35.259  0.4228E+01  0.8851E+02
     35.402  0.3476E+01  0.8901E+02
     35.546  0.3477E+00  0.8906E+02
     35.689  0.6562E+00  0.8916E+02
     35.832  0.1879E+01  0.8943E+02
     35.976  0.1669E+01  0.8967E+02
     36.119  0.1540E+01  0.8989E+02
     36.263  0.2475E+01  0.9024E+02
     36.406  0.3173E+01  0.9070E+02
     36.550  0.3786E+01  0.9124E+02
     36.693  0.4017E+01  0.9182E+02
     36.837  0.5114E+01  0.9255E+02
     36.980  0.3590E+01  0.9306E+02
     37.123  0.3085E+01  0.9351E+02
     37.267  0.2166E+01  0.9382E+02
     37.410  0.3376E+01  0.9430E+02
     37.554  0.2646E+01  0.9468E+02
     37.697  0.9042E+00  0.9481E+02
     37.841  0.1182E+01  0.9498E+02
     37.984  0.1865E+01  0.9525E+02
     38.127  0.2017E+01  0.9554E+02
     38.271  0.9789E+00  0.9568E+02
     38.414  0.7596E-01  0.9569E+02
     38.558  0.3055E+00  0.9573E+02
     38.701  0.1189E+01  0.9590E+02
     38.845  0.1382E+00  0.9592E+02
     38.988  0.2589E-01  0.9593E+02
     39.131 -0.1978E-02  0.9593E+02
     39.275 -0.2816E-05  0.9593E+02
     39.418 -0.6541E-08  0.9593E+02
     39.562 -0.9805E-04  0.9593E+02
     39.705 -0.1227E-01  0.9592E+02
     39.849  0.2201E+00  0.9596E+02
     39.992  0.1903E+00  0.9598E+02
     40.135  0.9613E-01  0.9600E+02
     40.279  0.3482E-02  0.9600E+02
     40.422  0.1931E-02  0.9600E+02
     40.566  0.1712E-01  0.9600E+02
     40.709 -0.2164E-03  0.9600E+02
     40.853 -0.4265E-04  0.9600E+02
     40.996 -0.1173E-07  0.9600E+02
     41.140 -0.4155E-13  0.9600E+02
     41.283  0.0000E+00  0.9600E+02
     41.426  0.0000E+00  0.9600E+02
     41.570  0.0000E+00  0.9600E+02
     41.713  0.0000E+00  0.9600E+02
     41.857  0.0000E+00  0.9600E+02
     42.000  0.0000E+00  0.9600E+02
     42.144  0.0000E+00  0.9600E+02
     42.287  0.0000E+00  0.9600E+02
     42.430  0.0000E+00  0.9600E+02
