    4    4    1    1
  0.1545042E+02  0.3953667E-09  0.3953667E-09  0.3953667E-09  0.5000000E-15
  1.000000000000000E-004
  CAR 
 unknown system                          
     44     35     48
 
  0.0000000E+00  0.0000000E+00  0.0000000E+00  0.1371742E-02
    1        1.356061   1.000000
    2        2.736668   1.000000
    3        2.736668   1.000000
    4        2.736668   1.000000
    5        2.913832   1.000000
    6        2.913832   1.000000
    7        2.913832   1.000000
    8        4.684820   1.000000
    9        4.684820   1.000000
   10        4.684820   1.000000
   11        5.915995   1.000000
   12        5.915995   1.000000
   13        6.823384   1.000000
   14        6.823384   1.000000
   15        6.823384   1.000000
   16        7.106456   1.000000
   17        7.106456   1.000000
   18        7.106456   1.000000
   19        7.106456   1.000000
   20        7.106456   1.000000
   21        7.106456   1.000000
   22       11.392919  -0.000000
   23       11.392919  -0.000000
   24       11.392919  -0.000000
   25       17.434160   0.000000
   26       17.434160   0.000000
   27       17.434160   0.000000
   28       21.049721   0.000000
   29       21.049721   0.000000
   30       21.049721   0.000000
   31       21.049721   0.000000
   32       21.049721   0.000000
   33       21.049721   0.000000
   34       26.083900   0.000000
   35       28.300385   0.000000
   36       28.300385   0.000000
   37       28.300385   0.000000
   38       28.471136   0.000000
   39       28.471136   0.000000
   40       28.471136   0.000000
   41       30.247427   0.000000
   42       30.247427   0.000000
   43       30.247427   0.000000
   44       35.322338   0.000000
   45       37.192199   0.000000
   46       37.192199   0.000000
   47       37.192199   0.000000
   48       40.474525   0.000000
 
  0.1111111E+00  0.0000000E+00  0.0000000E+00  0.8230453E-02
    1        1.496075   1.000000
    2        2.798324   1.000000
    3        2.815881   1.000000
    4        2.815881   1.000000
    5        2.960770   1.000000
    6        2.986011   1.000000
    7        2.986011   1.000000
    8        4.623321   1.000000
    9        4.739803   1.000000
   10        4.739803   1.000000
   11        5.854112   1.000000
   12        5.941694   1.000000
   13        6.739962   1.000000
   14        6.739962   1.000000
   15        6.793996   1.000000
   16        6.805140   1.000000
   17        6.805140   1.000000
   18        7.005257   1.000000
   19        7.005257   1.000000
   20        7.106709   1.000000
   21        7.106709   1.000000
   22       10.611302  -0.000000
   23       11.804138  -0.000000
   24       11.804138  -0.000000
   25       17.438940   0.000000
   26       17.438940   0.000000
   27       18.409873   0.000000
   28       20.672953   0.000000
   29       20.672953   0.000000
   30       20.674569   0.000000
   31       20.674569   0.000000
   32       21.309969   0.000000
   33       21.309969   0.000000
   34       26.173593   0.000000
   35       28.251220   0.000000
   36       28.437716   0.000000
   37       28.678603   0.000000
   38       28.678603   0.000000
   39       29.190885   0.000000
   40       29.190885   0.000000
   41       29.685789   0.000000
   42       30.013311   0.000000
   43       30.013311   0.000000
   44       36.230803   0.000000
   45       36.742073   0.000000
   46       36.742073   0.000000
   47       37.382921   0.000000
   48       40.061819   0.000000
 
  0.2222222E+00  0.0000000E+00  0.0000000E+00  0.8230453E-02
    1        1.901030   1.000000
    2        2.968098   1.000000
    3        3.035190   1.000000
    4        3.035190   1.000000
    5        3.097434   1.000000
    6        3.201194   1.000000
    7        3.201194   1.000000
    8        4.449610   1.000000
    9        4.902163   1.000000
   10        4.902163   1.000000
   11        5.690482   1.000000
   12        6.016227   1.000000
   13        6.131147   1.000000
   14        6.131147   1.000000
   15        6.508077   1.000000
   16        6.508077   1.000000
   17        6.710642   1.000000
   18        6.729186   1.000000
   19        6.729186   1.000000
   20        7.107112   1.000000
   21        7.107112   1.000000
   22        9.056872   1.000000
   23       12.803963   0.000000
   24       12.803963   0.000000
   25       17.460157   0.000000
   26       17.460157   0.000000
   27       19.706120   0.000000
   28       19.706120   0.000000
   29       19.894768   0.000000
   30       19.894768   0.000000
   31       20.535187   0.000000
   32       22.057924   0.000000
   33       22.057924   0.000000
   34       26.422178   0.000000
   35       28.105060   0.000000
   36       28.393284   0.000000
   37       28.655899   0.000000
   38       29.223911   0.000000
   39       29.223911   0.000000
   40       29.670224   0.000000
   41       29.670224   0.000000
   42       30.980194   0.000000
   43       30.980194   0.000000
   44       36.280042   0.000000
   45       36.280042   0.000000
   46       36.863186   0.000000
   47       37.961373   0.000000
   48       38.681444   0.000000
 
  0.3333333E+00  0.0000000E+00  0.0000000E+00  0.8230453E-02
    1        2.506086   1.000000
    2        3.191742   1.000000
    3        3.312696   1.000000
    4        3.331235   1.000000
    5        3.331235   1.000000
    6        3.556734   1.000000
    7        3.556734   1.000000
    8        4.192587   1.000000
    9        5.164298   1.000000
   10        5.164298   1.000000
   11        5.372477   1.000000
   12        5.372477   1.000000
   13        5.510079   1.000000
   14        6.131869   1.000000
   15        6.194470   1.000000
   16        6.194470   1.000000
   17        6.343223   1.000000
   18        6.343223   1.000000
   19        6.585230   1.000000
   20        7.107287   1.000000
   21        7.107287   1.000000
   22        7.477673   1.000000
   23       14.091915   0.000000
   24       14.091915   0.000000
   25       17.511391   0.000000
   26       17.511391   0.000000
   27       18.416471   0.000000
   28       18.416471   0.000000
   29       19.164591   0.000000
   30       19.164591   0.000000
   31       23.005299   0.000000
   32       23.210694   0.000000
   33       23.210694   0.000000
   34       26.776588   0.000000
   35       27.688257   0.000000
   36       27.866878   0.000000
   37       27.889795   0.000000
   38       27.889795   0.000000
   39       28.518686   0.000000
   40       31.061002   0.000000
   41       31.061002   0.000000
   42       33.288355   0.000000
   43       33.288355   0.000000
   44       33.966147   0.000000
   45       36.519156   0.000000
   46       36.519156   0.000000
   47       36.688390   0.000000
   48       36.688390   0.000000
 
  0.4444444E+00  0.0000000E+00  0.0000000E+00  0.8230453E-02
    1        3.106204   1.000000
    2        3.329375   1.000000
    3        3.568806   1.000000
    4        3.568806   1.000000
    5        3.586593   1.000000
    6        3.891655   1.000000
    7        4.046987   1.000000
    8        4.046987   1.000000
    9        4.660211   1.000000
   10        4.660211   1.000000
   11        5.511430   1.000000
   12        5.511430   1.000000
   13        5.547465   1.000000
   14        5.917650   1.000000
   15        5.917650   1.000000
   16        5.944131   1.000000
   17        5.944131   1.000000
   18        6.204103   1.000000
   19        6.276695   1.000000
   20        6.433964   1.000000
   21        7.107595   1.000000
   22        7.107595   1.000000
   23       15.514641   0.000000
   24       15.514641   0.000000
   25       16.983208   0.000000
   26       16.983208   0.000000
   27       17.579218   0.000000
   28       17.579218   0.000000
   29       18.719561   0.000000
   30       18.719561   0.000000
   31       24.660582   0.000000
   32       24.660582   0.000000
   33       25.275834   0.000000
   34       26.279419   0.000000
   35       26.279419   0.000000
   36       26.739428   0.000000
   37       27.171168   0.000000
   38       27.547919   0.000000
   39       29.236064   0.000000
   40       31.154656   0.000000
   41       32.735898   0.000000
   42       32.735898   0.000000
   43       34.637146   0.000000
   44       34.637146   0.000000
   45       35.499670   0.000000
   46       35.499670   0.000000
   47       37.440815   0.000000
   48       37.440815   0.000000
 
  0.1111111E+00  0.1111111E+00  0.0000000E+00  0.1646091E-01
    1        1.632464   1.000000
    2        2.874583   1.000000
    3        2.878451   1.000000
    4        2.878451   1.000000
    5        3.031116   1.000000
    6        3.031116   1.000000
    7        3.073285   1.000000
    8        4.600113   1.000000
    9        4.759277   1.000000
   10        4.787382   1.000000
   11        5.838159   1.000000
   12        5.931622   1.000000
   13        6.598048   1.000000
   14        6.598048   1.000000
   15        6.612395   1.000000
   16        6.663034   1.000000
   17        6.814174   1.000000
   18        6.814174   1.000000
   19        7.004837   1.000000
   20        7.004837   1.000000
   21        7.036976   1.000000
   22       11.004564  -0.000000
   23       11.004564  -0.000000
   24       12.177246  -0.000000
   25       17.440518   0.000000
   26       18.435042   0.000000
   27       18.435042   0.000000
   28       19.383493   0.000000
   29       20.909227   0.000000
   30       20.909227   0.000000
   31       20.921461   0.000000
   32       20.921461   0.000000
   33       21.549585   0.000000
   34       26.208204   0.000000
   35       28.203031   0.000000
   36       28.580189   0.000000
   37       28.644969   0.000000
   38       28.644969   0.000000
   39       29.174260   0.000000
   40       29.174260   0.000000
   41       29.842729   0.000000
   42       30.427766   0.000000
   43       30.769283   0.000000
   44       35.184770   0.000000
   45       36.856820   0.000000
   46       37.093751   0.000000
   47       37.826686   0.000000
   48       39.846427   0.000000
 
  0.2222222E+00  0.1111111E+00  0.0000000E+00  0.3292181E-01
    1        2.026256   1.000000
    2        3.051293   1.000000
    3        3.052128   1.000000
    4        3.100631   1.000000
    5        3.162825   1.000000
    6        3.241189   1.000000
    7        3.314682   1.000000
    8        4.452346   1.000000
    9        4.903944   1.000000
   10        4.921607   1.000000
   11        5.705848   1.000000
   12        5.968595   1.000000
   13        6.011017   1.000000
   14        6.036896   1.000000
   15        6.295322   1.000000
   16        6.447585   1.000000
   17        6.550754   1.000000
   18        6.727533   1.000000
   19        6.741489   1.000000
   20        7.002372   1.000000
   21        7.003845   1.000000
   22        9.458954   1.000000
   23       11.923866  -0.000000
   24       13.116104   0.000000
   25       17.395264   0.000000
   26       18.115565   0.000000
   27       18.506148   0.000000
   28       19.936144   0.000000
   29       20.106915   0.000000
   30       20.564207   0.000000
   31       21.577609   0.000000
   32       21.579649   0.000000
   33       21.630165   0.000000
   34       26.250869   0.000000
   35       27.320053   0.000000
   36       28.548393   0.000000
   37       28.631449   0.000000
   38       29.187278   0.000000
   39       29.306895   0.000000
   40       29.666430   0.000000
   41       30.627766   0.000000
   42       30.957748   0.000000
   43       32.336805   0.000000
   44       34.495750   0.000000
   45       36.510444   0.000000
   46       37.617262   0.000000
   47       37.746715   0.000000
   48       38.573351   0.000000
 
  0.3333333E+00  0.1111111E+00  0.0000000E+00  0.3292181E-01
    1        2.613601   1.000000
    2        3.280586   1.000000
    3        3.331229   1.000000
    4        3.369867   1.000000
    5        3.401425   1.000000
    6        3.587588   1.000000
    7        3.661042   1.000000
    8        4.211418   1.000000
    9        5.077294   1.000000
   10        5.162146   1.000000
   11        5.247985   1.000000
   12        5.333358   1.000000
   13        5.609098   1.000000
   14        5.881539   1.000000
   15        6.155098   1.000000
   16        6.160215   1.000000
   17        6.228675   1.000000
   18        6.340166   1.000000
   19        6.588187   1.000000
   20        6.996561   1.000000
   21        7.001935   1.000000
   22        7.944819   1.000000
   23       13.053238   0.000000
   24       14.359435   0.000000
   25       16.607377   0.000000
   26       17.729338   0.000000
   27       18.525483   0.000000
   28       18.637701   0.000000
   29       19.511018   0.000000
   30       20.952896   0.000000
   31       22.554222   0.000000
   32       22.701279   0.000000
   33       23.069262   0.000000
   34       26.057182   0.000000
   35       26.136008   0.000000
   36       28.405011   0.000000
   37       28.592724   0.000000
   38       29.333735   0.000000
   39       29.416230   0.000000
   40       29.950345   0.000000
   41       31.084693   0.000000
   42       33.032897   0.000000
   43       33.976533   0.000000
   44       34.557640   0.000000
   45       35.906616   0.000000
   46       36.670558   0.000000
   47       36.772829   0.000000
   48       36.777788   0.000000
 
  0.4444444E+00  0.1111111E+00  0.0000000E+00  0.3292181E-01
    1        3.201231   1.000000
    2        3.424623   1.000000
    3        3.609068   1.000000
    4        3.632958   1.000000
    5        3.639853   1.000000
    6        3.924939   1.000000
    7        4.063402   1.000000
    8        4.070030   1.000000
    9        4.592869   1.000000
   10        4.654739   1.000000
   11        5.144394   1.000000
   12        5.423221   1.000000
   13        5.507987   1.000000
   14        5.858324   1.000000
   15        5.914109   1.000000
   16        5.928543   1.000000
   17        5.957817   1.000000
   18        6.324912   1.000000
   19        6.373360   1.000000
   20        6.830590   1.000000
   21        6.997224   1.000000
   22        6.999495   1.000000
   23       14.241997   0.000000
   24       15.430340   0.000000
   25       15.754202   0.000000
   26       17.207762   0.000000
   27       17.907081   0.000000
   28       18.237836   0.000000
   29       19.610894   0.000000
   30       20.189875   0.000000
   31       23.752095   0.000000
   32       23.987739   0.000000
   33       24.967983   0.000000
   34       25.248034   0.000000
   35       25.503570   0.000000
   36       27.598516   0.000000
   37       28.229943   0.000000
   38       28.257952   0.000000
   39       30.183153   0.000000
   40       31.671965   0.000000
   41       31.833618   0.000000
   42       32.782892   0.000000
   43       33.336637   0.000000
   44       34.705527   0.000000
   45       36.599710   0.000000
   46       36.736271   0.000000
   47       36.767288   0.000000
   48       37.500046   0.000000
 
  0.2222222E+00  0.2222222E+00  0.0000000E+00  0.1646091E-01
    1        2.385003   1.000000
    2        3.161274   1.000000
    3        3.283040   1.000000
    4        3.283040   1.000000
    5        3.357347   1.000000
    6        3.357347   1.000000
    7        3.579457   1.000000
    8        4.402676   1.000000
    9        4.973806   1.000000
   10        4.977229   1.000000
   11        5.630247   1.000000
   12        5.630248   1.000000
   13        5.653297   1.000000
   14        5.713274   1.000000
   15        6.113379   1.000000
   16        6.274984   1.000000
   17        6.544250   1.000000
   18        6.544250   1.000000
   19        6.723048   1.000000
   20        6.723048   1.000000
   21        6.835218   1.000000
   22       10.326877  -0.000000
   23       10.326877  -0.000000
   24       13.942702   0.000000
   25       16.280207   0.000000
   26       17.682012   0.000000
   27       20.307909   0.000000
   28       20.307909   0.000000
   29       20.586750   0.000000
   30       20.586750   0.000000
   31       21.007268   0.000000
   32       21.007268   0.000000
   33       22.944805   0.000000
   34       25.751493   0.000000
   35       25.886220   0.000000
   36       27.822484   0.000000
   37       29.482090   0.000000
   38       29.658265   0.000000
   39       29.658265   0.000000
   40       30.966167   0.000000
   41       30.966167   0.000000
   42       32.196189   0.000000
   43       32.375389   0.000000
   44       34.375476   0.000000
   45       36.856805   0.000000
   46       37.199416   0.000000
   47       37.426435   0.000000
   48       38.170176   0.000000
 
  0.3333333E+00  0.2222222E+00  0.0000000E+00  0.3292181E-01
    1        2.914184   1.000000
    2        3.386856   1.000000
    3        3.530919   1.000000
    4        3.538883   1.000000
    5        3.600645   1.000000
    6        3.676096   1.000000
    7        3.905975   1.000000
    8        4.242558   1.000000
    9        4.969157   1.000000
   10        4.993268   1.000000
   11        5.184233   1.000000
   12        5.197052   1.000000
   13        5.235552   1.000000
   14        5.602541   1.000000
   15        6.034275   1.000000
   16        6.240153   1.000000
   17        6.333426   1.000000
   18        6.391327   1.000000
   19        6.411815   1.000000
   20        6.717340   1.000000
   21        6.748102   1.000000
   22        8.803073   1.000000
   23       11.350817  -0.000000
   24       14.865464   0.000000
   25       15.091840   0.000000
   26       17.829191   0.000000
   27       19.261869   0.000000
   28       19.420554   0.000000
   29       21.269218   0.000000
   30       21.315278   0.000000
   31       21.556560   0.000000
   32       23.153760   0.000000
   33       23.276138   0.000000
   34       24.603047   0.000000
   35       24.947208   0.000000
   36       28.411400   0.000000
   37       29.617318   0.000000
   38       29.653821   0.000000
   39       30.213986   0.000000
   40       31.152645   0.000000
   41       31.202034   0.000000
   42       32.505529   0.000000
   43       33.712161   0.000000
   44       35.300209   0.000000
   45       36.605649   0.000000
   46       36.808516   0.000000
   47       36.883229   0.000000
   48       37.027684   0.000000
 
  0.4444444E+00  0.2222222E+00  0.0000000E+00  0.3292181E-01
    1        3.456333   1.000000
    2        3.690906   1.000000
    3        3.695869   1.000000
    4        3.766754   1.000000
    5        3.841099   1.000000
    6        4.013698   1.000000
    7        4.107776   1.000000
    8        4.175380   1.000000
    9        4.439444   1.000000
   10        4.629998   1.000000
   11        4.868709   1.000000
   12        4.902540   1.000000
   13        5.510282   1.000000
   14        5.809190   1.000000
   15        5.861748   1.000000
   16        5.908833   1.000000
   17        5.947869   1.000000
   18        6.146881   1.000000
   19        6.713529   1.000000
   20        6.718757   1.000000
   21        6.845923   1.000000
   22        7.611464   1.000000
   23       12.440999  -0.000000
   24       13.597758   0.000000
   25       16.422309   0.000000
   26       17.839436   0.000000
   27       18.144980   0.000000
   28       18.666429   0.000000
   29       21.812996   0.000000
   30       22.332347   0.000000
   31       22.526100   0.000000
   32       22.710040   0.000000
   33       23.431830   0.000000
   34       23.892860   0.000000
   35       25.733452   0.000000
   36       28.055046   0.000000
   37       29.658970   0.000000
   38       29.661918   0.000000
   39       30.066942   0.000000
   40       31.865269   0.000000
   41       31.919421   0.000000
   42       32.914085   0.000000
   43       33.317634   0.000000
   44       34.899728   0.000000
   45       35.073109   0.000000
   46       36.319891   0.000000
   47       37.383142   0.000000
   48       38.031024   0.000000
 
  0.3333333E+00  0.3333333E+00  0.0000000E+00  0.1646091E-01
    1        3.336245   1.000000
    2        3.535285   1.000000
    3        3.810519   1.000000
    4        3.810519   1.000000
    5        3.885380   1.000000
    6        3.885380   1.000000
    7        4.202766   1.000000
    8        4.223457   1.000000
    9        4.658877   1.000000
   10        4.658877   1.000000
   11        4.931629   1.000000
   12        4.957946   1.000000
   13        5.302236   1.000000
   14        5.473753   1.000000
   15        5.848055   1.000000
   16        6.127728   1.000000
   17        6.127728   1.000000
   18        6.329079   1.000000
   19        6.329079   1.000000
   20        6.520579   1.000000
   21        6.861842   1.000000
   22        9.768673   0.971944
   23        9.768673   0.971944
   24       13.313556   0.000000
   25       16.149031   0.000000
   26       18.088227   0.000000
   27       20.140521   0.000000
   28       20.140521   0.000000
   29       20.192989   0.000000
   30       20.192989   0.000000
   31       23.244887   0.000000
   32       23.662848   0.000000
   33       23.662848   0.000000
   34       23.760497   0.000000
   35       25.013762   0.000000
   36       27.458501   0.000000
   37       29.801760   0.000000
   38       30.529866   0.000000
   39       31.245246   0.000000
   40       31.245246   0.000000
   41       32.070497   0.000000
   42       32.070497   0.000000
   43       32.906988   0.000000
   44       35.732627   0.000000
   45       36.625734   0.000000
   46       36.837989   0.000000
   47       36.837990   0.000000
   48       37.356708   0.000000
 
  0.4444444E+00  0.3333333E+00  0.0000000E+00  0.3292181E-01
    1        3.763399   1.000000
    2        3.786397   1.000000
    3        3.969914   1.000000
    4        4.046274   1.000000
    5        4.105704   1.000000
    6        4.122234   1.000000
    7        4.164400   1.000000
    8        4.313054   1.000000
    9        4.396246   1.000000
   10        4.515153   1.000000
   11        4.561072   1.000000
   12        4.767906   1.000000
   13        5.557127   1.000000
   14        5.574097   1.000000
   15        5.712866   1.000000
   16        5.832271   1.000000
   17        5.873744   1.000000
   18        5.919081   1.000000
   19        6.340431   1.000000
   20        6.391570   1.000000
   21        7.533711   1.000000
   22        8.481820   1.000000
   23       10.815350  -0.000000
   24       11.977730  -0.000000
   25       17.408769   0.000000
   26       18.531060   0.000000
   27       18.781310   0.000000
   28       19.205002   0.000000
   29       21.019743   0.000000
   30       21.318217   0.000000
   31       22.055914   0.000000
   32       22.534214   0.000000
   33       24.260422   0.000000
   34       25.005066   0.000000
   35       26.078343   0.000000
   36       28.247429   0.000000
   37       28.634134   0.000000
   38       30.682171   0.000000
   39       31.111174   0.000000
   40       31.289779   0.000000
   41       31.954121   0.000000
   42       32.247711   0.000000
   43       33.074849   0.000000
   44       35.128083   0.000000
   45       36.277507   0.000000
   46       36.631946   0.000000
   47       36.878601   0.000000
   48       37.928073   0.000000
 
  0.4444444E+00  0.4444444E+00  0.0000000E+00  0.1646091E-01
    1        3.908151   1.000000
    2        3.968969   1.000000
    3        4.086836   1.000000
    4        4.086836   1.000000
    5        4.197200   1.000000
    6        4.205953   1.000000
    7        4.205953   1.000000
    8        4.419009   1.000000
    9        4.543900   1.000000
   10        4.543900   1.000000
   11        4.615080   1.000000
   12        4.776366   1.000000
   13        5.412377   1.000000
   14        5.536249   1.000000
   15        5.594929   1.000000
   16        5.594929   1.000000
   17        5.704001   1.000000
   18        5.977342   1.000000
   19        5.977342   1.000000
   20        6.127782   1.000000
   21        8.386198   1.000000
   22        9.461928   1.000001
   23        9.461928   1.000001
   24       10.607461  -0.000000
   25       18.605752   0.000000
   26       19.119100   0.000000
   27       19.930037   0.000000
   28       19.930037   0.000000
   29       19.942800   0.000000
   30       19.942800   0.000000
   31       20.891616   0.000000
   32       21.200925   0.000000
   33       26.641098   0.000000
   34       26.641098   0.000000
   35       27.456554   0.000000
   36       27.543199   0.000000
   37       28.155776   0.000000
   38       29.944235   0.000000
   39       29.944235   0.000000
   40       30.344742   0.000000
   41       32.385962   0.000000
   42       33.050428   0.000000
   43       33.050428   0.000000
   44       34.685903   0.000000
   45       36.569804   0.000000
   46       36.834873   0.000000
   47       37.175707   0.000000
   48       37.175707   0.000000
 
  0.1111111E+00  0.1111111E+00  0.1111111E+00  0.1097394E-01
    1        1.763758   1.000000
    2        2.933423   1.000000
    3        2.933423   1.000000
    4        2.933423   1.000000
    5        3.120896   1.000000
    6        3.120896   1.000000
    7        3.120896   1.000000
    8        4.590789   1.000000
    9        4.798786   1.000000
   10        4.798786   1.000000
   11        5.876874   1.000000
   12        5.876874   1.000000
   13        6.498525   1.000000
   14        6.498525   1.000000
   15        6.498525   1.000000
   16        6.572832   1.000000
   17        6.572832   1.000000
   18        6.572832   1.000000
   19        7.011894   1.000000
   20        7.011894   1.000000
   21        7.011894   1.000000
   22       11.350270  -0.000000
   23       11.350270  -0.000000
   24       11.350270  -0.000000
   25       18.438042   0.000000
   26       18.438042   0.000000
   27       18.438042   0.000000
   28       19.632625   0.000000
   29       19.632625   0.000000
   30       19.632625   0.000000
   31       21.792722   0.000000
   32       21.792722   0.000000
   33       21.792722   0.000000
   34       26.113648   0.000000
   35       27.859524   0.000000
   36       28.155046   0.000000
   37       28.155046   0.000000
   38       28.155046   0.000000
   39       30.433350   0.000000
   40       30.433350   0.000000
   41       30.433350   0.000000
   42       30.524237   0.000000
   43       30.524237   0.000000
   44       34.872790   0.000000
   45       36.434719   0.000000
   46       36.434719   0.000000
   47       38.803884   0.000000
   48       39.838745   0.000000
 
  0.2222222E+00  0.1111111E+00  0.1111111E+00  0.3292181E-01
    1        2.140949   1.000000
    2        3.090734   1.000000
    3        3.104934   1.000000
    4        3.104934   1.000000
    5        3.264383   1.000000
    6        3.363801   1.000000
    7        3.363801   1.000000
    8        4.475646   1.000000
    9        4.913763   1.000000
   10        4.916585   1.000000
   11        5.747873   1.000000
   12        5.903409   1.000000
   13        5.903409   1.000000
   14        5.987329   1.000000
   15        6.183143   1.000000
   16        6.338747   1.000000
   17        6.401910   1.000000
   18        6.401910   1.000000
   19        6.923965   1.000000
   20        6.973647   1.000000
   21        6.973647   1.000000
   22        9.781672   0.922875
   23       12.195178  -0.000000
   24       12.195178  -0.000000
   25       18.007798   0.000000
   26       18.007798   0.000000
   27       18.816093   0.000000
   28       18.816093   0.000000
   29       20.090070   0.000000
   30       20.760210   0.000000
   31       21.783264   0.000000
   32       21.783264   0.000000
   33       22.497495   0.000000
   34       25.591934   0.000000
   35       27.198734   0.000000
   36       28.035631   0.000000
   37       28.593988   0.000000
   38       28.593988   0.000000
   39       29.677677   0.000000
   40       30.491137   0.000000
   41       30.972058   0.000000
   42       32.345768   0.000000
   43       32.345768   0.000000
   44       34.115234   0.000000
   45       35.839826   0.000000
   46       36.676424   0.000000
   47       38.605988   0.000000
   48       38.606024   0.000000
 
  0.3333333E+00  0.1111111E+00  0.1111111E+00  0.3292181E-01
    1        2.697517   1.000000
    2        3.290640   1.000000
    3        3.382641   1.000000
    4        3.382641   1.000000
    5        3.495838   1.000000
    6        3.700585   1.000000
    7        3.700585   1.000000
    8        4.262687   1.000000
    9        5.040874   1.000000
   10        5.110969   1.000000
   11        5.229961   1.000000
   12        5.229961   1.000000
   13        5.731739   1.000000
   14        5.732510   1.000000
   15        6.025008   1.000000
   16        6.142677   1.000000
   17        6.142677   1.000000
   18        6.155515   1.000000
   19        6.771789   1.000000
   20        6.941140   1.000000
   21        6.941140   1.000000
   22        8.240699   1.000000
   23       13.266494   0.000000
   24       13.266494   0.000000
   25       16.812783   0.000000
   26       16.812783   0.000000
   27       18.978280   0.000000
   28       18.978280   0.000000
   29       21.115591   0.000000
   30       21.115591   0.000000
   31       21.122973   0.000000
   32       23.130140   0.000000
   33       23.599426   0.000000
   34       24.587302   0.000000
   35       27.023293   0.000000
   36       27.918361   0.000000
   37       28.266324   0.000000
   38       29.906279   0.000000
   39       29.906279   0.000000
   40       30.186254   0.000000
   41       30.717031   0.000000
   42       33.709792   0.000000
   43       34.354294   0.000000
   44       34.354294   0.000000
   45       36.027804   0.000000
   46       36.307259   0.000000
   47       36.878874   0.000000
   48       36.878874   0.000000
 
  0.4444444E+00  0.1111111E+00  0.1111111E+00  0.3292181E-01
    1        3.242909   1.000000
    2        3.429695   1.000000