       N       E                     dE             d eps       ncg     rms          rms(c)
DAV:   1     0.197584697201E+03    0.19758E+03   -0.18672E+04  3360   0.747E+02
DAV:   2    -0.837727942999E+01   -0.20596E+03   -0.19444E+03  4512   0.190E+02
DAV:   3    -0.115032651065E+02   -0.31260E+01   -0.31241E+01  3840   0.250E+01
DAV:   4    -0.115125091661E+02   -0.92441E-02   -0.92438E-02  4848   0.144E+00
DAV:   5    -0.115125875357E+02   -0.78370E-04   -0.78369E-04  3744   0.130E-01    0.138E+01
DAV:   6    -0.104565541750E+02    0.10560E+01   -0.23268E+00  4368   0.875E+00    0.845E+00
DAV:   7    -0.103980963843E+02    0.58458E-01   -0.63729E-02  4056   0.144E+00    0.422E+00
DAV:   8    -0.103838777243E+02    0.14219E-01   -0.37234E-03  4368   0.257E-01    0.257E-01
DAV:   9    -0.103838867652E+02   -0.90409E-05   -0.25198E-05  3216   0.226E-02
   1 F= -.10383887E+02 E0= -.10383277E+02  d E =-.182850E-02
