 vasp.5.4.1 05Feb16 (build Feb 08 2018 09:21:51) complex                        
  
 executed on             LinuxIFC date 2019.11.21  15:54:11
 running on   24 total cores
 distrk:  each k-point on   24 cores,    1 groups
 distr:  one band on NCORES_PER_BAND=   1 cores,   24 groups


--------------------------------------------------------------------------------------------------------


 INCAR:
 POTCAR:    PAW_PBE Ag 02Apr2005                  

 ----------------------------------------------------------------------------- 
|                                                                             |
|           W    W    AA    RRRRR   N    N  II  N    N   GGGG   !!!           |
|           W    W   A  A   R    R  NN   N  II  NN   N  G    G  !!!           |
|           W    W  A    A  R    R  N N  N  II  N N  N  G       !!!           |
|           W WW W  AAAAAA  RRRRR   N  N N  II  N  N N  G  GGG   !            |
|           WW  WW  A    A  R   R   N   NN  II  N   NN  G    G                |
|           W    W  A    A  R    R  N    N  II  N    N   GGGG   !!!           |
|                                                                             |
|      For optimal performance we recommend to set                            |
|        NCORE= 4 - approx SQRT( number of cores)                             |
|      NCORE specifies how many cores store one orbital (NPAR=cpu/NCORE).     |
|      This setting can  greatly improve the performance of VASP for DFT.     |
|      The default, NPAR=number of cores might be grossly inefficient         |
|      on modern multi-core architectures or massively parallel machines.     |
|      Do your own testing !!!!                                               |
|      Unfortunately you need to use the default for GW and RPA calculations. |
|      (for HF NCORE is supported but not extensively tested yet)             |
|                                                                             |
 ----------------------------------------------------------------------------- 

 POTCAR:    PAW_PBE Ag 02Apr2005                  
   VRHFIN =Ag : s1 d10                                                          
   LEXCH  = PE                                                                  
   EATOM  =  1037.2675 eV,   76.2370 Ry                                         
                                                                                
   TITEL  = PAW_PBE Ag 02Apr2005                                                
   LULTRA =        F    use ultrasoft PP ?                                      
   IUNSCR =        1    unscreen: 0-lin 1-nonlin 2-no                           
   RPACOR =    2.000    partial core radius                                     
   POMASS =  107.868; ZVAL   =   11.000    mass and valenz                      
   RCORE  =    2.500    outmost cutoff radius                                   
   RWIGS  =    2.840; RWIGS  =    1.503    wigner-seitz radius (au A)           
   ENMAX  =  249.844; ENMIN  =  187.383 eV                                      
   ICORE  =        3    local potential                                         
   LCOR   =        T    correct aug charges                                     
   LPAW   =        T    paw PP                                                  
   EAUG   =  412.496                                                            
   DEXC   =    0.000                                                            
   RMAX   =    2.560    core radius for proj-oper                               
   RAUG   =    1.300    factor for augmentation sphere                          
   RDEP   =    2.576    radius for radial grids                                 
   RDEPT  =    2.072    core radius for aug-charge                              
                                                                                
   Atomic configuration                                                         
   12 entries                                                                   
     n  l   j            E        occ.                                          
     1  0  0.50    -25324.9161   2.0000                                         
     2  0  0.50     -3728.5341   2.0000                                         
     2  1  1.50     -3344.0404   6.0000                                         
     3  0  0.50      -683.5581   2.0000                                         
     3  1  1.50      -557.3225   6.0000                                         
     3  2  2.50      -358.3853  10.0000                                         
     4  0  0.50       -95.0341   2.0000                                         
     4  1  1.50       -58.5511   6.0000                                         
     4  2  2.50        -7.4440  10.0000                                         
     5  0  0.50        -4.4045   1.0000                                         
     5  1  0.50        -1.3606   0.0000                                         
     4  3  2.50        -1.3606   0.0000                                         
   Description                                                                  
     l       E           TYP  RCUT    TYP  RCUT                                 
     2     -7.4439781     23  2.400                                             
     2     -8.8045607     23  2.400                                             
     0     -4.4044681     23  2.400                                             
     0      1.9520038     23  2.400                                             
     1     -1.3605826     23  2.500                                             
     1     27.2116520     23  2.500                                             
     3     -4.0817478     23  2.400                                             
  local pseudopotential read in
  partial core-charges read in
  partial kinetic energy density read in
  atomic valenz-charges read in
  non local Contribution for L=           2  read in
    real space projection operators read in
  non local Contribution for L=           2  read in
    real space projection operators read in
  non local Contribution for L=           0  read in
    real space projection operators read in
  non local Contribution for L=           0  read in
    real space projection operators read in
  non local Contribution for L=           1  read in
    real space projection operators read in
  non local Contribution for L=           1  read in
    real space projection operators read in
    PAW grid and wavefunctions read in
 
   number of l-projection  operators is LMAX  =           6
   number of lm-projection operators is LMMAX =          18
 
  PAW_PBE Ag 02Apr2005                  :
 energy of atom  1       EATOM=-1037.2675
 kinetic energy error for atom=    0.0091 (will be added to EATOM!!)
 
 
 POSCAR: Ag                                      
  positions in cartesian coordinates
  No initial velocities read in
 exchange correlation table for  LEXCH =        8
   RHO(1)=    0.500       N(1)  =     2000
   RHO(2)=  100.500       N(2)  =     4000
 


--------------------------------------------------------------------------------------------------------


 ion  position               nearest neighbor table
   1  0.000  0.000  0.000-   2 2.80   3 2.80   4 2.80   2 2.80   3 2.80   2 2.80   4 2.80   2 2.80
                             3 2.80   4 2.80   3 2.80   4 2.80
   2  0.000  0.500  0.500-   1 2.80   3 2.80   4 2.80   1 2.80   4 2.80   1 2.80   3 2.80   1 2.80
                             3 2.80   4 2.80   4 2.80   3 2.80
   3  0.500  0.000  0.500-   1 2.80   2 2.80   4 2.80   1 2.80   4 2.80   2 2.80   4 2.80   4 2.80
                             1 2.80   2 2.80   1 2.80   2 2.80
   4  0.500  0.500  0.000-   1 2.80   2 2.80   3 2.80   2 2.80   3 2.80   1 2.80   3 2.80   3 2.80
                             1 2.80   2 2.80   2 2.80   1 2.80
 
  LATTYP: Found a simple cubic cell.
 ALAT       =     3.9536666667
  
  Lattice vectors:
  
 A1 = (   3.9536666667,   0.0000000000,   0.0000000000)
 A2 = (   0.0000000000,   3.9536666667,   0.0000000000)
 A3 = (   0.0000000000,   0.0000000000,   3.9536666667)


Analysis of symmetry for initial positions (statically):
=====================================================================
 Subroutine PRICEL returns following result:
 
  LATTYP: Found a face centered cubic cell.
 ALAT       =     3.9536666667
  
  Lattice vectors:
  
 A1 = (   1.9768333333,   1.9768333333,   0.0000000000)
 A2 = (   1.9768333333,   0.0000000000,  -1.9768333333)
 A3 = (   0.0000000000,   1.9768333333,  -1.9768333333)
 
   4 primitive cells build up your supercell.
 

 Routine SETGRP: Setting up the symmetry group for a 
 simple cubic supercell.


 Subroutine GETGRP returns: Found 48 space group operations
 (whereof 48 operations were pure point group operations)
 out of a pool of 48 trial point group operations.


The static configuration has the point symmetry O_h .


Analysis of symmetry for dynamics (positions and initial velocities):
=====================================================================
 Subroutine PRICEL returns following result:
 
  LATTYP: Found a face centered cubic cell.
 ALAT       =     3.9536666667
  
  Lattice vectors:
  
 A1 = (   1.9768333333,   1.9768333333,   0.0000000000)
 A2 = (   1.9768333333,   0.0000000000,  -1.9768333333)
 A3 = (   0.0000000000,   1.9768333333,  -1.9768333333)
 
   4 primitive cells build up your supercell.
 

 Routine SETGRP: Setting up the symmetry group for a 
 simple cubic supercell.


 Subroutine GETGRP returns: Found 48 space group operations
 (whereof 48 operations were pure point group operations)
 out of a pool of 48 trial point group operations.


The dynamic configuration has the point symmetry O_h .


 Subroutine INISYM returns: Found 48 space group operations
 (whereof 48 operations are pure point group operations),
 and found     4 'primitive' translations

 
 
 KPOINTS: KPOINTS created by Atomic Simulation Env

Automatic generation of k-mesh.
Space group operators:
 irot       det(A)        alpha          n_x          n_y          n_z        tau_x        tau_y        tau_z
    1     1.000000     0.000001     1.000000     0.000000     0.000000     0.000000     0.000000     0.000000
    2    -1.000000     0.000001     1.000000     0.000000     0.000000     0.000000     0.000000     0.000000
    3     1.000000   120.000000    -0.577350    -0.577350    -0.577350     0.000000     0.000000     0.000000
    4    -1.000000   120.000000    -0.577350    -0.577350    -0.577350     0.000000     0.000000     0.000000
    5     1.000000   120.000000     0.577350     0.577350     0.577350     0.000000     0.000000     0.000000
    6    -1.000000   120.000000     0.577350     0.577350     0.577350     0.000000     0.000000     0.000000
    7     1.000000    90.000000     0.000000     0.000000    -1.000000     0.000000     0.000000     0.000000
    8    -1.000000    90.000000     0.000000     0.000000    -1.000000     0.000000     0.000000     0.000000
    9     1.000000   180.000000     0.000000     0.707107     0.707107     0.000000     0.000000     0.000000
   10    -1.000000   180.000000     0.000000     0.707107     0.707107     0.000000     0.000000     0.000000
   11     1.000000    90.000000     0.000000     1.000000     0.000000     0.000000     0.000000     0.000000
   12    -1.000000    90.000000     0.000000     1.000000     0.000000     0.000000     0.000000     0.000000
   13     1.000000   180.000000     0.000000     0.000000     1.000000     0.000000     0.000000     0.000000
   14    -1.000000   180.000000     0.000000     0.000000     1.000000     0.000000     0.000000     0.000000
   15     1.000000   120.000000    -0.577350     0.577350     0.577350     0.000000     0.000000     0.000000
   16    -1.000000   120.000000    -0.577350     0.577350     0.577350     0.000000     0.000000     0.000000
   17     1.000000   120.000000    -0.577350     0.577350    -0.577350     0.000000     0.000000     0.000000
   18    -1.000000   120.000000    -0.577350     0.577350    -0.577350     0.000000     0.000000     0.000000
   19     1.000000    90.000000     0.000000     0.000000     1.000000     0.000000     0.000000     0.000000
   20    -1.000000    90.000000     0.000000     0.000000     1.000000     0.000000     0.000000     0.000000
   21     1.000000    90.000000    -1.000000     0.000000     0.000000     0.000000     0.000000     0.000000
   22    -1.000000    90.000000    -1.000000     0.000000     0.000000     0.000000     0.000000     0.000000
   23     1.000000   180.000000     0.707107     0.000000     0.707107     0.000000     0.000000     0.000000
   24    -1.000000   180.000000     0.707107     0.000000     0.707107     0.000000     0.000000     0.000000
   25     1.000000   120.000000     0.577350    -0.577350     0.577350     0.000000     0.000000     0.000000
   26    -1.000000   120.000000     0.577350    -0.577350     0.577350     0.000000     0.000000     0.000000
   27     1.000000   120.000000    -0.577350    -0.577350     0.577350     0.000000     0.000000     0.000000
   28    -1.000000   120.000000    -0.577350    -0.577350     0.577350     0.000000     0.000000     0.000000
   29     1.000000   180.000000     1.000000     0.000000     0.000000     0.000000     0.000000     0.000000
   30    -1.000000   180.000000     1.000000     0.000000     0.000000     0.000000     0.000000     0.000000
   31     1.000000    90.000000     0.000000    -1.000000     0.000000     0.000000     0.000000     0.000000
   32    -1.000000    90.000000     0.000000    -1.000000     0.000000     0.000000     0.000000     0.000000
   33     1.000000   180.000000     0.707107     0.707107     0.000000     0.000000     0.000000     0.000000
   34    -1.000000   180.000000     0.707107     0.707107     0.000000     0.000000     0.000000     0.000000
   35     1.000000    90.000000     1.000000     0.000000     0.000000     0.000000     0.000000     0.000000
   36    -1.000000    90.000000     1.000000     0.000000     0.000000     0.000000     0.000000     0.000000
   37     1.000000   120.000000     0.577350    -0.577350    -0.577350     0.000000     0.000000     0.000000
   38    -1.000000   120.000000     0.577350    -0.577350    -0.577350     0.000000     0.000000     0.000000
   39     1.000000   180.000000     0.000000     1.000000     0.000000     0.000000     0.000000     0.000000
   40    -1.000000   180.000000     0.000000     1.000000     0.000000     0.000000     0.000000     0.000000
   41     1.000000   120.000000     0.577350     0.577350    -0.577350     0.000000     0.000000     0.000000
   42    -1.000000   120.000000     0.577350     0.577350    -0.577350     0.000000     0.000000     0.000000
   43     1.000000   180.000000     0.000000    -0.707107     0.707107     0.000000     0.000000     0.000000
   44    -1.000000   180.000000     0.000000    -0.707107     0.707107     0.000000     0.000000     0.000000
   45     1.000000   180.000000     0.707107    -0.707107     0.000000     0.000000     0.000000     0.000000
   46    -1.000000   180.000000     0.707107    -0.707107     0.000000     0.000000     0.000000     0.000000
   47     1.000000   180.000000     0.707107     0.000000    -0.707107     0.000000     0.000000     0.000000
   48    -1.000000   180.000000     0.707107     0.000000    -0.707107     0.000000     0.000000     0.000000
 
 Subroutine IBZKPT returns following result:
 ===========================================
 
 Found     35 irreducible k-points:
 
 Following reciprocal coordinates:
            Coordinates               Weight
  0.000000  0.000000  0.000000      1.000000
  0.111111  0.000000  0.000000      6.000000
  0.222222  0.000000  0.000000      6.000000
  0.333333  0.000000  0.000000      6.000000
  0.444444  0.000000  0.000000      6.000000
  0.111111  0.111111  0.000000     12.000000
  0.222222  0.111111  0.000000     24.000000
  0.333333  0.111111  0.000000     24.000000
  0.444444  0.111111  0.000000     24.000000
  0.222222  0.222222  0.000000     12.000000
  0.333333  0.222222  0.000000     24.000000
  0.444444  0.222222  0.000000     24.000000
  0.333333  0.333333  0.000000     12.000000
  0.444444  0.333333  0.000000     24.000000
  0.444444  0.444444  0.000000     12.000000
  0.111111  0.111111  0.111111      8.000000
  0.222222  0.111111  0.111111     24.000000
  0.333333  0.111111  0.111111     24.000000
  0.444444  0.111111  0.111111     24.000000
  0.222222  0.222222  0.111111     24.000000
  0.333333  0.222222  0.111111     48.000000
  0.444444  0.222222  0.111111     48.000000
  0.333333  0.333333  0.111111     24.000000
  0.444444  0.333333  0.111111     48.000000
  0.444444  0.444444  0.111111     24.000000
  0.222222  0.222222  0.222222      8.000000
  0.333333  0.222222  0.222222     24.000000
  0.444444  0.222222  0.222222     24.000000
  0.333333  0.333333  0.222222     24.000000
  0.444444  0.333333  0.222222     48.000000
  0.444444  0.444444  0.222222     24.000000
  0.333333  0.333333  0.333333      8.000000
  0.444444  0.333333  0.333333     24.000000
  0.444444  0.444444  0.333333     24.000000
  0.444444  0.444444  0.444444      8.000000
 
 Following cartesian coordinates:
            Coordinates               Weight
  0.000000  0.000000  0.000000      1.000000
  0.028103  0.000000  0.000000      6.000000
  0.056207  0.000000  0.000000      6.000000
  0.084310  0.000000  0.000000      6.000000
  0.112413  0.000000  0.000000      6.000000
  0.028103  0.028103  0.000000     12.000000
  0.056207  0.028103  0.000000     24.000000
  0.084310  0.028103  0.000000     24.000000
  0.112413  0.028103  0.000000     24.000000
  0.056207  0.056207  0.000000     12.000000
  0.084310  0.056207  0.000000     24.000000
  0.112413  0.056207  0.000000     24.000000
  0.084310  0.084310  0.000000     12.000000
  0.112413  0.084310  0.000000     24.000000
  0.112413  0.112413  0.000000     12.000000
  0.028103  0.028103  0.028103      8.000000
  0.056207  0.028103  0.028103     24.000000
  0.084310  0.028103  0.028103     24.000000
  0.112413  0.028103  0.028103     24.000000
  0.056207  0.056207  0.028103     24.000000
  0.084310  0.056207  0.028103     48.000000
  0.112413  0.056207  0.028103     48.000000
  0.084310  0.084310  0.028103     24.000000
  0.112413  0.084310  0.028103     48.000000
  0.112413  0.112413  0.028103     24.000000
  0.056207  0.056207  0.056207      8.000000
  0.084310  0.056207  0.056207     24.000000
  0.112413  0.056207  0.056207     24.000000
  0.084310  0.084310  0.056207     24.000000
  0.112413  0.084310  0.056207     48.000000
  0.112413  0.112413  0.056207     24.000000
  0.084310  0.084310  0.084310      8.000000
  0.112413  0.084310  0.084310     24.000000
  0.112413  0.112413  0.084310     24.000000
  0.112413  0.112413  0.112413      8.000000
 


--------------------------------------------------------------------------------------------------------




 Dimension of arrays:
   k-points           NKPTS =     35   k-points in BZ     NKDIM =     35   number of bands    NBANDS=     48
   number of dos      NEDOS =    301   number of ions     NIONS =      4
   non local maximal  LDIM  =      6   non local SUM 2l+1 LMDIM =     18
   total plane-waves  NPLWV =   8000
   max r-space proj   IRMAX =      1   max aug-charges    IRDMAX=   6563
   dimension x,y,z NGX =    20 NGY =   20 NGZ =   20
   dimension x,y,z NGXF=    40 NGYF=   40 NGZF=   40
   support grid    NGXF=    40 NGYF=   40 NGZF=   40
   ions per type =               4
 NGX,Y,Z   is equivalent  to a cutoff of   8.41,  8.41,  8.41 a.u.
 NGXF,Y,Z  is equivalent  to a cutoff of  16.82, 16.82, 16.82 a.u.


 I would recommend the setting:
   dimension x,y,z NGX =    19 NGY =   19 NGZ =   19
 SYSTEM =  unknown system                          
 POSCAR =  Ag                                      

 Startparameter for this run:
   NWRITE =      2    write-flag & timer
   PREC   = normal    normal or accurate (medium, high low for compatibility)
   ISTART =      0    job   : 0-new  1-cont  2-samecut
   ICHARG =      2    charge: 1-file 2-atom 10-const
   ISPIN  =      1    spin polarized calculation?
   LNONCOLLINEAR =      F non collinear calculations
   LSORBIT =      F    spin-orbit coupling
   INIWAV =      1    electr: 0-lowe 1-rand  2-diag
   LASPH  =      F    aspherical Exc in radial PAW
   METAGGA=      F    non-selfconsistent MetaGGA calc.

 Electronic Relaxation 1
   ENCUT  =  400.0 eV  29.40 Ry    5.42 a.u.   6.45  6.45  6.45*2*pi/ulx,y,z
   ENINI  =  400.0     initial cutoff
   ENAUG  =  412.5 eV  augmentation charge cutoff
   NELM   =     60;   NELMIN=  2; NELMDL= -5     # of ELM steps 
   EDIFF  = 0.1E-03   stopping-criterion for ELM
   LREAL  =      F    real-space projection
   NLSPLINE    = F    spline interpolate recip. space projectors
   LCOMPAT=      F    compatible to vasp.4.4
   GGA_COMPAT  = T    GGA compatible to vasp.4.4-vasp.4.6
   LMAXPAW     = -100 max onsite density
   LMAXMIX     =    2 max onsite mixed and CHGCAR
   VOSKOWN=      0    Vosko Wilk Nusair interpolation
   ROPT   =    0.00000
 Ionic relaxation
   EDIFFG = 0.1E-02   stopping-criterion for IOM
   NSW    =      0    number of steps for IOM
   NBLOCK =      1;   KBLOCK =      1    inner block; outer block 
   IBRION =     -1    ionic relax: 0-MD 1-quasi-New 2-CG
   NFREE  =      0    steps in history (QN), initial steepest desc. (CG)
   ISIF   =      2    stress and relaxation
   IWAVPR =     10    prediction:  0-non 1-charg 2-wave 3-comb
   ISYM   =      2    0-nonsym 1-usesym 2-fastsym
   LCORR  =      T    Harris-Foulkes like correction to forces

   POTIM  = 0.5000    time-step for ionic-motion
   TEIN   =    0.0    initial temperature
   TEBEG  =    0.0;   TEEND  =   0.0 temperature during run
   SMASS  =  -3.00    Nose mass-parameter (am)
   estimated Nose-frequenzy (Omega)   =  0.10E-29 period in steps =****** mass=  -0.357E-27a.u.
   SCALEE = 1.0000    scale energy and forces
   NPACO  =    256;   APACO  = 16.0  distance and # of slots for P.C.
   PSTRESS=    0.0 pullay stress

  Mass of Ions in am
   POMASS = 107.87
  Ionic Valenz
   ZVAL   =  11.00
  Atomic Wigner-Seitz radii
   RWIGS  =  -1.00
  virtual crystal weights 
   VCA    =   1.00
   NELECT =      44.0000    total number of electrons
   NUPDOWN=      -1.0000    fix difference up-down

 DOS related values:
   EMIN   =  10.00;   EMAX   =-10.00  energy-range for DOS
   EFERMI =   0.00
   ISMEAR =     1;   SIGMA  =   0.10  broadening in eV -4-tet -1-fermi 0-gaus

 Electronic relaxation 2 (details)
   IALGO  =     38    algorithm
   LDIAG  =      T    sub-space diagonalisation (order eigenvalues)
   LSUBROT=      F    optimize rotation matrix (better conditioning)
   TURBO    =      0    0=normal 1=particle mesh
   IRESTART =      0    0=no restart 2=restart with 2 vectors
   NREBOOT  =      0    no. of reboots
   NMIN     =      0    reboot dimension
   EREF     =   0.00    reference energy to select bands
   IMIX   =      4    mixing-type and parameters
     AMIX     =   0.40;   BMIX     =  1.00
     AMIX_MAG =   1.60;   BMIX_MAG =  1.00
     AMIN     =   0.10
     WC   =   100.;   INIMIX=   1;  MIXPRE=   1;  MAXMIX= -45

 Intra band minimization:
   WEIMIN = 0.0000     energy-eigenvalue tresh-hold
   EBREAK =  0.52E-06  absolut break condition
   DEPER  =   0.30     relativ break condition  

   TIME   =   0.40     timestep for ELM

  volume/ion in A,a.u.               =      15.45       104.26
  Fermi-wavevector in a.u.,A,eV,Ry     =   1.461815  2.762429 29.074322  2.136902
  Thomas-Fermi vector in A             =   2.578102
 
 Write flags
   LWAVE  =      F    write WAVECAR
   LCHARG =      F    write CHGCAR
   LVTOT  =      F    write LOCPOT, total local potential
   LVHAR  =      F    write LOCPOT, Hartree potential only
   LELF   =      F    write electronic localiz. function (ELF)
   LORBIT =      0    0 simple, 1 ext, 2 COOP (PROOUT)


 Dipole corrections
   LMONO  =      F    monopole corrections only (constant potential shift)
   LDIPOL =      F    correct potential (dipole corrections)
   IDIPOL =      0    1-x, 2-y, 3-z, 4-all directions 
   EPSILON=  1.0000000 bulk dielectric constant

 Exchange correlation treatment:
   GGA     =    --    GGA type
   LEXCH   =     8    internal setting for exchange type
   VOSKOWN=      0    Vosko Wilk Nusair interpolation
   LHFCALC =     F    Hartree Fock is set to
   LHFONE  =     F    Hartree Fock one center treatment
   AEXX    =    0.0000 exact exchange contribution

 Linear response parameters
   LEPSILON=     F    determine dielectric tensor
   LRPA    =     F    only Hartree local field effects (RPA)
   LNABLA  =     F    use nabla operator in PAW spheres
   LVEL    =     F    velocity operator in full k-point grid
   LINTERFAST=   F  fast interpolation
   KINTER  =     0    interpolate to denser k-point grid
   CSHIFT  =0.1000    complex shift for real part using Kramers Kronig
   OMEGAMAX=  -1.0    maximum frequency
   DEG_THRESHOLD= 0.2000000E-02 threshold for treating states as degnerate
   RTIME   =    0.100 relaxation time in fs

 Orbital magnetization related:
   ORBITALMAG=     F  switch on orbital magnetization
   LCHIMAG   =     F  perturbation theory with respect to B field
   DQ        =  0.001000  dq finite difference perturbation B field



--------------------------------------------------------------------------------------------------------


 Static calculation
 charge density and potential will be updated during run
 non-spin polarized calculation
 Variant of blocked Davidson
 Davidson routine will perform the subspace rotation
 perform sub-space diagonalisation
    after iterative eigenvector-optimisation
 modified Broyden-mixing scheme, WC =      100.0
 initial mixing is a Kerker type mixing with AMIX =  0.4000 and BMIX =      1.0000
 Hartree-type preconditioning will be used
 using additional bands           26
 reciprocal scheme for non local part
 use partial core corrections
 calculate Harris-corrections to forces 
   (improved forces if not selfconsistent)
 use gradient corrections 
 use of overlap-Matrix (Vanderbilt PP)
 Methfessel and Paxton  Order N= 1 SIGMA  =   0.10


--------------------------------------------------------------------------------------------------------


  energy-cutoff  :      400.00
  volume of cell :       61.80
      direct lattice vectors                 reciprocal lattice vectors
     3.953666667  0.000000000  0.000000000     0.252929770  0.000000000  0.000000000
     0.000000000  3.953666667  0.000000000     0.000000000  0.252929770  0.000000000
     0.000000000  0.000000000  3.953666667     0.000000000  0.000000000  0.252929770

  length of vectors
     3.953666667  3.953666667  3.953666667     0.252929770  0.252929770  0.252929770


 
 k-points in units of 2pi/SCALE and weight: KPOINTS created by Atomic Simulation Env
   0.00000000  0.00000000  0.00000000       0.001
   0.02810331  0.00000000  0.00000000       0.008
   0.05620662  0.00000000  0.00000000       0.008
   0.08430992  0.00000000  0.00000000       0.008
   0.11241323  0.00000000  0.00000000       0.008
   0.02810331  0.02810331  0.00000000       0.016
   0.05620662  0.02810331  0.00000000       0.033
   0.08430992  0.02810331  0.00000000       0.033
   0.11241323  0.02810331  0.00000000       0.033
   0.05620662  0.05620662  0.00000000       0.016
   0.08430992  0.05620662  0.00000000       0.033
   0.11241323  0.05620662  0.00000000       0.033
   0.08430992  0.08430992  0.00000000       0.016
   0.11241323  0.08430992  0.00000000       0.033
   0.11241323  0.11241323  0.00000000       0.016
   0.02810331  0.02810331  0.02810331       0.011
   0.05620662  0.02810331  0.02810331       0.033
   0.08430992  0.02810331  0.02810331       0.033
   0.11241323  0.02810331  0.02810331       0.033
   0.05620662  0.05620662  0.02810331       0.033
   0.08430992  0.05620662  0.02810331       0.066
   0.11241323  0.05620662  0.02810331       0.066
   0.08430992  0.08430992  0.02810331       0.033
   0.11241323  0.08430992  0.02810331       0.066
   0.11241323  0.11241323  0.02810331       0.033
   0.05620662  0.05620662  0.05620662       0.011
   0.08430992  0.05620662  0.05620662       0.033
   0.11241323  0.05620662  0.05620662       0.033
   0.08430992  0.08430992  0.05620662       0.033
   0.11241323  0.08430992  0.05620662       0.066
   0.11241323  0.11241323  0.05620662       0.033
   0.08430992  0.08430992  0.08430992       0.011
   0.11241323  0.08430992  0.08430992       0.033
   0.11241323  0.11241323  0.08430992       0.033
   0.11241323  0.11241323  0.11241323       0.011
 
 k-points in reciprocal lattice and weights: KPOINTS created by Atomic Simulation Env
   0.00000000  0.00000000  0.00000000       0.001
   0.11111111  0.00000000  0.00000000       0.008
   0.22222222  0.00000000  0.00000000       0.008
   0.33333333  0.00000000  0.00000000       0.008
   0.44444444  0.00000000  0.00000000       0.008
   0.11111111  0.11111111  0.00000000       0.016
   0.22222222  0.11111111  0.00000000       0.033
   0.33333333  0.11111111  0.00000000       0.033
   0.44444444  0.11111111  0.00000000       0.033
   0.22222222  0.22222222  0.00000000       0.016
   0.33333333  0.22222222  0.00000000       0.033
   0.44444444  0.22222222  0.00000000       0.033
   0.33333333  0.33333333  0.00000000       0.016
   0.44444444  0.33333333  0.00000000       0.033
   0.44444444  0.44444444  0.00000000       0.016
   0.11111111  0.11111111  0.11111111       0.011
   0.22222222  0.11111111  0.11111111       0.033
   0.33333333  0.11111111  0.11111111       0.033
   0.44444444  0.11111111  0.11111111       0.033
   0.22222222  0.22222222  0.11111111       0.033
   0.33333333  0.22222222  0.11111111       0.066
   0.44444444  0.22222222  0.11111111       0.066
   0.33333333  0.33333333  0.11111111       0.033
   0.44444444  0.33333333  0.11111111       0.066
   0.44444444  0.44444444  0.11111111       0.033
   0.22222222  0.22222222  0.22222222       0.011
   0.33333333  0.22222222  0.22222222       0.033
   0.44444444  0.22222222  0.22222222       0.033
   0.33333333  0.33333333  0.22222222       0.033
   0.44444444  0.33333333  0.22222222       0.066
   0.44444444  0.44444444  0.22222222       0.033
   0.33333333  0.33333333  0.33333333       0.011
   0.44444444  0.33333333  0.33333333       0.033
   0.44444444  0.44444444  0.33333333       0.033
   0.44444444  0.44444444  0.44444444       0.011
 
 position of ions in fractional coordinates (direct lattice) 
   0.00000000  0.00000000  0.00000000
   0.00000000  0.50000000  0.50000000
   0.50000000  0.00000000  0.50000000
   0.50000000  0.50000000  0.00000000
 
 position of ions in cartesian coordinates  (Angst):
   0.00000000  0.00000000  0.00000000
   0.00000000  1.97683333  1.97683333
   1.97683333  0.00000000  1.97683333
   1.97683333  1.97683333  0.00000000
 


--------------------------------------------------------------------------------------------------------


 k-point  1 :   0.0000 0.0000 0.0000  plane waves:    1141
 k-point  2 :   0.1111 0.0000 0.0000  plane waves:    1129
 k-point  3 :   0.2222 0.0000 0.0000  plane waves:    1125
 k-point  4 :   0.3333 0.0000 0.0000  plane waves:    1133
 k-point  5 :   0.4444 0.0000 0.0000  plane waves:    1133
 k-point  6 :   0.1111 0.1111 0.0000  plane waves:    1127
 k-point  7 :   0.2222 0.1111 0.0000  plane waves:    1126
 k-point  8 :   0.3333 0.1111 0.0000  plane waves:    1129
 k-point  9 :   0.4444 0.1111 0.0000  plane waves:    1127
 k-point 10 :   0.2222 0.2222 0.0000  plane waves:    1129
 k-point 11 :   0.3333 0.2222 0.0000  plane waves:    1127
 k-point 12 :   0.4444 0.2222 0.0000  plane waves:    1122
 k-point 13 :   0.3333 0.3333 0.0000  plane waves:    1139
 k-point 14 :   0.4444 0.3333 0.0000  plane waves:    1120
 k-point 15 :   0.4444 0.4444 0.0000  plane waves:    1116
 k-point 16 :   0.1111 0.1111 0.1111  plane waves:    1108
 k-point 17 :   0.2222 0.1111 0.1111  plane waves:    1128
 k-point 18 :   0.3333 0.1111 0.1111  plane waves:    1130
 k-point 19 :   0.4444 0.1111 0.1111  plane waves:    1139
 k-point 20 :   0.2222 0.2222 0.1111  plane waves:    1128
 k-point 21 :   0.3333 0.2222 0.1111  plane waves:    1124
 k-point 22 :   0.4444 0.2222 0.1111  plane waves:    1123
 k-point 23 :   0.3333 0.3333 0.1111  plane waves:    1123
 k-point 24 :   0.4444 0.3333 0.1111  plane waves:    1122
 k-point 25 :   0.4444 0.4444 0.1111  plane waves:    1120
 k-point 26 :   0.2222 0.2222 0.2222  plane waves:    1120
 k-point 27 :   0.3333 0.2222 0.2222  plane waves:    1126
 k-point 28 :   0.4444 0.2222 0.2222  plane waves:    1126
 k-point 29 :   0.3333 0.3333 0.2222  plane waves:    1117
 k-point 30 :   0.4444 0.3333 0.2222  plane waves:    1114
 k-point 31 :   0.4444 0.4444 0.2222  plane waves:    1123
 k-point 32 :   0.3333 0.3333 0.3333  plane waves:    1118
 k-point 33 :   0.4444 0.3333 0.3333  plane waves:    1113
 k-point 34 :   0.4444 0.4444 0.3333  plane waves:    1105
 k-point 35 :   0.4444 0.4444 0.4444  plane waves:    1082

 maximum and minimum number of plane-waves per node :      1141     1082

 maximum number of plane-waves:      1141
 maximum index in each direction: 
   IXMAX=    6   IYMAX=    6   IZMAX=    6
   IXMIN=   -6   IYMIN=   -6   IZMIN=   -6

 WARNING: aliasing errors must be expected set NGX to  26 to avoid them
 WARNING: aliasing errors must be expected set NGY to  26 to avoid them
 WARNING: aliasing errors must be expected set NGZ to  26 to avoid them
 aliasing errors are usually negligible using standard VASP settings
 and one can safely disregard these warnings

 serial   3D FFT for wavefunctions
 parallel 3D FFT for charge:
    minimum data exchange during FFTs selected (reduces bandwidth)


 total amount of memory used by VASP on root node    37943. kBytes
========================================================================

   base      :      30000. kBytes
   nonl-proj :       5879. kBytes
   fftplans  :        147. kBytes
   grid      :        485. kBytes
   one-center:         62. kBytes
   wavefun   :       1370. kBytes
 
     INWAV:  cpu time    0.0000: real time    0.0000
 Broyden mixing: mesh for mixing (old mesh)
   NGX = 13   NGY = 13   NGZ = 13
  (NGX  = 40   NGY  = 40   NGZ  = 40)
  gives a total of   2197 points

 initial charge density was supplied:
 charge density of overlapping atoms calculated
 number of electron      44.0000000 magnetization 
 keeping initial charge density in first step


--------------------------------------------------------------------------------------------------------


 Maximum index for augmentation-charges          405 (set IRDMAX)


--------------------------------------------------------------------------------------------------------


 First call to EWALD:  gamma=   0.448
 Maximum number of real-space cells 3x 3x 3
 Maximum number of reciprocal cells 3x 3x 3

 FEWALD executed in parallel
    FEWALD:  cpu time    0.0027: real time    0.0027


----------------------------------------- Iteration    1(   1)  ---------------------------------------


    POTLOK:  cpu time    0.1486: real time    0.1486
    SETDIJ:  cpu time    0.0028: real time    0.0028
     EDDAV:  cpu time    0.5276: real time    0.5277
       DOS:  cpu time    0.0008: real time    0.0008
    --------------------------------------------
      LOOP:  cpu time    0.6815: real time    0.6821

 eigenvalue-minimisations  :  3360
 total energy-change (2. order) : 0.1975847E+03  (-0.1867184E+04)
 number of electron      44.0000000 magnetization 
 augmentation part       44.0000000 magnetization 

 Free energy of the ion-electron system (eV)
  ---------------------------------------------------
  alpha Z        PSCENC =       220.20846516
  Ewald energy   TEWEN  =     -4041.08204516
  -Hartree energ DENC   =      -749.69322514
  -exchange      EXHF   =         0.00000000
  -V(xc)+E(xc)   XCENC  =       -40.46598327
  PAW double counting   =      4013.84859731    -3829.39709692
  entropy T*S    EENTRO =         0.00049791
  eigenvalues    EBANDS =       475.13177381
  atomic energy  EATOM  =      4149.03371350
  Solvation  Ediel_sol  =         0.00000000
  ---------------------------------------------------
  free energy    TOTEN  =       197.58469720 eV

  energy without entropy =      197.58419929  energy(sigma->0) =      197.58453123


--------------------------------------------------------------------------------------------------------




----------------------------------------- Iteration    1(   2)  ---------------------------------------


     EDDAV:  cpu time    0.7031: real time    0.7039
       DOS:  cpu time    0.0007: real time    0.0007
    --------------------------------------------
      LOOP:  cpu time    0.7050: real time    0.7188

 eigenvalue-minimisations  :  4512
 total energy-change (2. order) :-0.2059620E+03  (-0.1944393E+03)
 number of electron      44.0000000 magnetization 
 augmentation part       44.0000000 magnetization 

 Free energy of the ion-electron system (eV)
  ---------------------------------------------------
  alpha Z        PSCENC =       220.20846516
  Ewald energy   TEWEN  =     -4041.08204516
  -Hartree energ DENC   =      -749.69322514
  -exchange      EXHF   =         0.00000000
  -V(xc)+E(xc)   XCENC  =       -40.46598327
  PAW double counting   =      4013.84859731    -3829.39709692
  entropy T*S    EENTRO =        -0.00112321
  eigenvalues    EBANDS =       269.17141830
  atomic energy  EATOM  =      4149.03371350
  Solvation  Ediel_sol  =         0.00000000
  ---------------------------------------------------
  free energy    TOTEN  =        -8.37727943 eV

  energy without entropy =       -8.37615622  energy(sigma->0) =       -8.37690503


--------------------------------------------------------------------------------------------------------




----------------------------------------- Iteration    1(   3)  ---------------------------------------


     EDDAV:  cpu time    0.5625: real time    0.5630
       DOS:  cpu time    0.0007: real time    0.0007
    --------------------------------------------
      LOOP:  cpu time    0.5641: real time    0.5791

 eigenvalue-minimisations  :  3840
 total energy-change (2. order) :-0.3125986E+01  (-0.3124116E+01)
 number of electron      44.0000000 magnetization 
 augmentation part       44.0000000 magnetization 

 Free energy of the ion-electron system (eV)
  ---------------------------------------------------
  alpha Z        PSCENC =       220.20846516
  Ewald energy   TEWEN  =     -4041.08204516
  -Hartree energ DENC   =      -749.69322514
  -exchange      EXHF   =         0.00000000
  -V(xc)+E(xc)   XCENC  =       -40.46598327
  PAW double counting   =      4013.84859731    -3829.39709692
  entropy T*S    EENTRO =        -0.00155390
  eigenvalues    EBANDS =       266.04586332
  atomic energy  EATOM  =      4149.03371350
  Solvation  Ediel_sol  =         0.00000000
  ---------------------------------------------------
  free energy    TOTEN  =       -11.50326511 eV

  energy without entropy =      -11.50171121  energy(sigma->0) =      -11.50274714


--------------------------------------------------------------------------------------------------------




----------------------------------------- Iteration    1(   4)  ---------------------------------------


     EDDAV:  cpu time    0.7800: real time    0.7817
       DOS:  cpu time    0.0014: real time    0.0014
    --------------------------------------------
      LOOP:  cpu time    0.7823: real time    0.7859

 eigenvalue-minimisations  :  4848
 total energy-change (2. order) :-0.9244060E-02  (-0.9243822E-02)
 number of electron      44.0000000 magnetization 
 augmentation part       44.0000000 magnetization 

 Free energy of the ion-electron system (eV)
  ---------------------------------------------------
  alpha Z        PSCENC =       220.20846516
  Ewald energy   TEWEN  =     -4041.08204516
  -Hartree energ DENC   =      -749.69322514
  -exchange      EXHF   =         0.00000000
  -V(xc)+E(xc)   XCENC  =       -40.46598327
  PAW double counting   =      4013.84859731    -3829.39709692
  entropy T*S    EENTRO =        -0.00155445
  eigenvalues    EBANDS =       266.03661980
  atomic energy  EATOM  =      4149.03371350
  Solvation  Ediel_sol  =         0.00000000
  ---------------------------------------------------
  free energy    TOTEN  =       -11.51250917 eV

  energy without entropy =      -11.51095472  energy(sigma->0) =      -11.51199102


--------------------------------------------------------------------------------------------------------




----------------------------------------- Iteration    1(   5)  ---------------------------------------


     EDDAV:  cpu time    0.5395: real time    0.5408
       DOS:  cpu time    0.0007: real time    0.0007
    CHARGE:  cpu time    0.0109: real time    0.0109
    MIXING:  cpu time    0.0005: real time    0.0005
    --------------------------------------------
      LOOP:  cpu time    0.5524: real time    0.5579

 eigenvalue-minimisations  :  3744
 total energy-change (2. order) :-0.7836965E-04  (-0.7836932E-04)
 number of electron      44.0000203 magnetization 
 augmentation part       20.1854653 magnetization 

 Broyden mixing:
  rms(total) = 0.13804E+01    rms(broyden)= 0.13804E+01
  rms(prec ) = 0.20241E+01
  weight for this iteration     100.00

 Free energy of the ion-electron system (eV)
  ---------------------------------------------------
  alpha Z        PSCENC =       220.20846516
  Ewald energy   TEWEN  =     -4041.08204516
  -Hartree energ DENC   =      -749.69322514
  -exchange      EXHF   =         0.00000000
  -V(xc)+E(xc)   XCENC  =       -40.46598327
  PAW double counting   =      4013.84859731    -3829.39709692
  entropy T*S    EENTRO =        -0.00155445
  eigenvalues    EBANDS =       266.03654144
  atomic energy  EATOM  =      4149.03371350
  Solvation  Ediel_sol  =         0.00000000
  ---------------------------------------------------
  free energy    TOTEN  =       -11.51258754 eV

  energy without entropy =      -11.51103308  energy(sigma->0) =      -11.51206938


--------------------------------------------------------------------------------------------------------




----------------------------------------- Iteration    1(   6)  ---------------------------------------


    POTLOK:  cpu time    0.0031: real time    0.0031
    SETDIJ:  cpu time    0.0022: real time    0.0023
     EDDAV:  cpu time    0.6780: real time    0.6796
       DOS:  cpu time    0.0007: real time    0.0007
    CHARGE:  cpu time    0.0089: real time    0.0089
    MIXING:  cpu time    0.0004: real time    0.0004
    --------------------------------------------
      LOOP:  cpu time    0.6943: real time    0.7011

 eigenvalue-minimisations  :  4368
 total energy-change (2. order) : 0.1056033E+01  (-0.2326836E+00)
 number of electron      44.0000208 magnetization 
 augmentation part       20.8188829 magnetization 

 Broyden mixing:
  rms(total) = 0.84474E+00    rms(broyden)= 0.84473E+00
  rms(prec ) = 0.89571E+00
  weight for this iteration     100.00

 eigenvalues of (default mixing * dielectric matrix)
  average eigenvalue GAMMA=   1.7090
  1.7090

 Free energy of the ion-electron system (eV)
  ---------------------------------------------------
  alpha Z        PSCENC =       220.20846516
  Ewald energy   TEWEN  =     -4041.08204516
  -Hartree energ DENC   =      -710.46764464
  -exchange      EXHF   =         0.00000000
  -V(xc)+E(xc)   XCENC  =       -41.86097975
  PAW double counting   =      4277.50414900    -4098.41599250
  entropy T*S    EENTRO =        -0.00156507
  eigenvalues    EBANDS =       234.62534528
  atomic energy  EATOM  =      4149.03371350
  Solvation  Ediel_sol  =         0.00000000
  ---------------------------------------------------
  free energy    TOTEN  =       -10.45655417 eV

  energy without entropy =      -10.45498911  energy(sigma->0) =      -10.45603249


--------------------------------------------------------------------------------------------------------




----------------------------------------- Iteration    1(   7)  ---------------------------------------


    POTLOK:  cpu time    0.0050: real time    0.0050
    SETDIJ:  cpu time    0.0022: real time    0.0022
     EDDAV:  cpu time    0.6079: real time    0.6096
       DOS:  cpu time    0.0017: real time    0.0017
    CHARGE:  cpu time    0.0096: real time    0.0101
    MIXING:  cpu time    0.0003: real time    0.0003
    --------------------------------------------
      LOOP:  cpu time    0.6277: real time    0.6316

 eigenvalue-minimisations  :  4056
 total energy-change (2. order) : 0.5845779E-01  (-0.6372917E-02)
 number of electron      44.0000209 magnetization 
 augmentation part       20.9141156 magnetization 

 Broyden mixing:
  rms(total) = 0.42190E+00    rms(broyden)= 0.42190E+00
  rms(prec ) = 0.42798E+00
  weight for this iteration     100.00

 eigenvalues of (default mixing * dielectric matrix)
  average eigenvalue GAMMA=   1.8706
  1.1220  2.6192

 Free energy of the ion-electron system (eV)
  ---------------------------------------------------
  alpha Z        PSCENC =       220.20846516
  Ewald energy   TEWEN  =     -4041.08204516
  -Hartree energ DENC   =      -700.40756455
  -exchange      EXHF   =         0.00000000
  -V(xc)+E(xc)   XCENC  =       -42.22373780
  PAW double counting   =      4485.55701043    -4310.89744014
  entropy T*S    EENTRO =        -0.00183420
  eigenvalues    EBANDS =       229.41533637
  atomic energy  EATOM  =      4149.03371350
  Solvation  Ediel_sol  =         0.00000000
  ---------------------------------------------------
  free energy    TOTEN  =       -10.39809638 eV

  energy without entropy =      -10.39626218  energy(sigma->0) =      -10.39748498


--------------------------------------------------------------------------------------------------------




----------------------------------------- Iteration    1(   8)  ---------------------------------------


    POTLOK:  cpu time    0.0048: real time    0.0048
    SETDIJ:  cpu time    0.0021: real time    0.0021
     EDDAV:  cpu time    0.7313: real time    0.7336
       DOS:  cpu time    0.0024: real time    0.0024
    CHARGE:  cpu time    0.0110: real time    0.0113
    MIXING:  cpu time    0.0002: real time    0.0002
    --------------------------------------------
      LOOP:  cpu time    0.7529: real time    0.7611

 eigenvalue-minimisations  :  4368
 total energy-change (2. order) : 0.1421866E-01  (-0.3723449E-03)
 number of electron      44.0000209 magnetization 
 augmentation part       20.9088967 magnetization 

 Broyden mixing:
  rms(total) = 0.25687E-01    rms(broyden)= 0.25686E-01
  rms(prec ) = 0.26019E-01
  weight for this iteration     100.00

 eigenvalues of (default mixing * dielectric matrix)
  average eigenvalue GAMMA=   1.5063
  2.5181  1.1249  0.8760

 Free energy of the ion-electron system (eV)
  ---------------------------------------------------
  alpha Z        PSCENC =       220.20846516
  Ewald energy   TEWEN  =     -4041.08204516
  -Hartree energ DENC   =      -696.02206930
  -exchange      EXHF   =         0.00000000
  -V(xc)+E(xc)   XCENC  =       -42.38727778
  PAW double counting   =      4667.97503449    -4497.35151478
  entropy T*S    EENTRO =        -0.00182733
  eigenvalues    EBANDS =       229.24364347
  atomic energy  EATOM  =      4149.03371350
  Solvation  Ediel_sol  =         0.00000000
  ---------------------------------------------------
  free energy    TOTEN  =       -10.38387772 eV

  energy without entropy =      -10.38205040  energy(sigma->0) =      -10.38326861


--------------------------------------------------------------------------------------------------------




----------------------------------------- Iteration    1(   9)  ---------------------------------------


    POTLOK:  cpu time    0.0236: real time    0.0237
    SETDIJ:  cpu time    0.0021: real time    0.0021
     EDDAV:  cpu time    0.5137: real time    0.5142
       DOS:  cpu time    0.0007: real time    0.0007
    --------------------------------------------
      LOOP:  cpu time    0.5411: real time    0.5431

 eigenvalue-minimisations  :  3216
 total energy-change (2. order) :-0.9040945E-05  (-0.2519832E-05)
 number of electron      44.0000209 magnetization 
 augmentation part       20.9088967 magnetization 

 Free energy of the ion-electron system (eV)
  ---------------------------------------------------
  alpha Z        PSCENC =       220.20846516
  Ewald energy   TEWEN  =     -4041.08204516
  -Hartree energ DENC   =      -696.28457749
  -exchange      EXHF   =         0.00000000
  -V(xc)+E(xc)   XCENC  =       -42.37810223
  PAW double counting   =      4659.91510780    -4489.01771955
  entropy T*S    EENTRO =        -0.00182850
  eigenvalues    EBANDS =       229.22309970
  atomic energy  EATOM  =      4149.03371350
  Solvation  Ediel_sol  =         0.00000000
  ---------------------------------------------------
  free energy    TOTEN  =       -10.38388677 eV

  energy without entropy =      -10.38205827  energy(sigma->0) =      -10.38327727


--------------------------------------------------------------------------------------------------------




 average (electrostatic) potential at core
  the test charge radii are     1.1249
  (the norm of the test charge is              1.0000)
       1 -69.5812       2 -69.5812       3 -69.5812       4 -69.5812
 
 
 
 E-fermi :   9.8423     XC(G=0): -12.8082     alpha+bet :-14.8562


 k-point     1 :       0.0000    0.0000    0.0000
  band No.  band energies     occupation 
      1       1.3561      2.00000
      2       2.7367      2.00000
      3       2.7367      2.00000
      4       2.7367      2.00000
      5       2.9138      2.00000
      6       2.9138      2.00000
      7       2.9138      2.00000
      8       4.6848      2.00000
      9       4.6848      2.00000
     10       4.6848      2.00000
     11       5.9160      2.00000
     12       5.9160      2.00000
     13       6.8234      2.00000
     14       6.8234      2.00000
     15       6.8234      2.00000
     16       7.1065      2.00000
     17       7.1065      2.00000
     18       7.1065      2.00000
     19       7.1065      2.00000
     20       7.1065      2.00000
     21       7.1065      2.00000
     22      11.3929     -0.00000
     23      11.3929     -0.00000
     24      11.3929     -0.00000
     25      17.4342      0.00000
     26      17.4342      0.00000
     27      17.4342      0.00000
     28      21.0497      0.00000
     29      21.0497      0.00000
     30      21.0497      0.00000
     31      21.0497      0.00000
     32      21.0497      0.00000
     33      21.0497      0.00000
     34      26.0839      0.00000
     35      28.3004      0.00000
     36      28.3004      0.00000
     37      28.3004      0.00000
     38      28.4711      0.00000
     39      28.4711      0.00000
     40      28.4711      0.00000
     41      30.2474      0.00000
     42      30.2474      0.00000
     43      30.2474      0.00000
     44      35.3223      0.00000
     45      37.1922      0.00000
     46      37.1922      0.00000
     47      37.1922      0.00000
     48      40.4745      0.00000

 k-point     2 :       0.1111    0.0000    0.0000
  band No.  band energies     occupation 
      1       1.4961      2.00000
      2       2.7983      2.00000
      3       2.8159      2.00000
      4       2.8159      2.00000
      5       2.9608      2.00000
      6       2.9860      2.00000
      7       2.9860      2.00000
      8       4.6233      2.00000
      9       4.7398      2.00000
     10       4.7398      2.00000
     11       5.8541      2.00000
     12       5.9417      2.00000
     13       6.7400      2.00000
     14       6.7400      2.00000
     15       6.7940      2.00000
     16       6.8051      2.00000
     17       6.8051      2.00000
     18       7.0053      2.00000
     19       7.0053      2.00000
     20       7.1067      2.00000
     21       7.1067      2.00000
     22      10.6113     -0.00000
     23      11.8041     -0.00000
     24      11.8041     -0.00000
     25      17.4389      0.00000
     26      17.4389      0.00000
     27      18.4099      0.00000
     28      20.6730      0.00000
     29      20.6730      0.00000
     30      20.6746      0.00000
     31      20.6746      0.00000
     32      21.3100      0.00000
     33      21.3100      0.00000
     34      26.1736      0.00000
     35      28.2512      0.00000
     36      28.4377      0.00000
     37      28.6786      0.00000
     38      28.6786      0.00000
     39      29.1909      0.00000
     40      29.1909      0.00000
     41      29.6858      0.00000
     42      30.0133      0.00000
     43      30.0133      0.00000
     44      36.2308      0.00000
     45      36.7421      0.00000
     46      36.7421      0.00000
     47      37.3829      0.00000
     48      40.0618      0.00000

 k-point     3 :       0.2222    0.0000    0.0000
  band No.  band energies     occupation 
      1       1.9010      2.00000
      2       2.9681      2.00000
      3       3.0352      2.00000
      4       3.0352      2.00000
      5       3.0974      2.00000
      6       3.2012      2.00000
      7       3.2012      2.00000
      8       4.4496      2.00000
      9       4.9022      2.00000
     10       4.9022      2.00000
     11       5.6905      2.00000
     12       6.0162      2.00000
     13       6.1311      2.00000
     14       6.1311      2.00000
     15       6.5081      2.00000
     16       6.5081      2.00000
     17       6.7106      2.00000
     18       6.7292      2.00000
     19       6.7292      2.00000
     20       7.1071      2.00000
     21       7.1071      2.00000
     22       9.0569      2.00000
     23      12.8040      0.00000
     24      12.8040      0.00000
     25      17.4602      0.00000
     26      17.4602      0.00000
     27      19.7061      0.00000
     28      19.7061      0.00000
     29      19.8948      0.00000
     30      19.8948      0.00000
     31      20.5352      0.00000
     32      22.0579      0.00000
     33      22.0579      0.00000
     34      26.4222      0.00000
     35      28.1051      0.00000
     36      28.3933      0.00000
     37      28.6559      0.00000
     38      29.2239      0.00000
     39      29.2239      0.00000
     40      29.6702      0.00000
     41      29.6702      0.00000
     42      30.9802      0.00000
     43      30.9802      0.00000
     44      36.2800      0.00000
     45      36.2800      0.00000
     46      36.8632      0.00000
     47      37.9614      0.00000
     48      38.6814      0.00000

 k-point     4 :       0.3333    0.0000    0.0000
  band No.  band energies     occupation 
      1       2.5061      2.00000
      2       3.1917      2.00000
      3       3.3127      2.00000
      4       3.3312      2.00000
      5       3.3312      2.00000
      6       3.5567      2.00000
      7       3.5567      2.00000
      8       4.1926      2.00000
      9       5.1643      2.00000
     10       5.1643      2.00000
     11       5.3725      2.00000
     12       5.3725      2.00000
     13       5.5101      2.00000
     14       6.1319      2.00000
     15       6.1945      2.00000
     16       6.1945      2.00000
     17       6.3432      2.00000
     18       6.3432      2.00000
     19       6.5852      2.00000
     20       7.1073      2.00000
     21       7.1073      2.00000
     22       7.4777      2.00000
     23      14.0919      0.00000
     24      14.0919      0.00000
     25      17.5114      0.00000
     26      17.5114      0.00000
     27      18.4165      0.00000
     28      18.4165      0.00000
     29      19.1646      0.00000
     30      19.1646      0.00000
     31      23.0053      0.00000
     32      23.2107      0.00000
     33      23.2107      0.00000
     34      26.7766      0.00000
     35      27.6883      0.00000
     36      27.8669      0.00000
     37      27.8898      0.00000
     38      27.8898      0.00000
     39      28.5187      0.00000
     40      31.0610      0.00000
     41      31.0610      0.00000
     42      33.2884      0.00000
     43      33.2884      0.00000
     44      33.9661      0.00000
     45      36.5192      0.00000
     46      36.5192      0.00000
     47      36.6884      0.00000
     48      36.6884      0.00000

 k-point     5 :       0.4444    0.0000    0.0000
  band No.  band energies     occupation 
      1       3.1062      2.00000
      2       3.3294      2.00000
      3       3.5688      2.00000
      4       3.5688      2.00000
      5       3.5866      2.00000
      6       3.8917      2.00000
      7       4.0470      2.00000
      8       4.0470      2.00000
      9       4.6602      2.00000
     10       4.6602      2.00000
     11       5.5114      2.00000
     12       5.5114      2.00000
     13       5.5475      2.00000
     14       5.9176      2.00000
     15       5.9176      2.00000
     16       5.9441      2.00000
     17       5.9441      2.00000
     18       6.2041      2.00000
     19       6.2767      2.00000
     20       6.4340      2.00000
     21       7.1076      2.00000
     22       7.1076      2.00000
     23      15.5146      0.00000
     24      15.5146      0.00000
     25      16.9832      0.00000
     26      16.9832      0.00000
     27      17.5792      0.00000
     28      17.5792      0.00000
     29      18.7196      0.00000
     30      18.7196      0.00000
     31      24.6606      0.00000
     32      24.6606      0.00000
     33      25.2758      0.00000
     34      26.2794      0.00000
     35      26.2794      0.00000
     36      26.7394      0.00000
     37      27.1712      0.00000
     38      27.5479      0.00000
     39      29.2361      0.00000
     40      31.1547      0.00000
     41      32.7359      0.00000
     42      32.7359      0.00000
     43      34.6371      0.00000
     44      34.6371      0.00000
     45      35.4997      0.00000
     46      35.4997      0.00000
     47      37.4408      0.00000
     48      37.4408      0.00000

 k-point     6 :       0.1111    0.1111    0.0000
  band No.  band energies     occupation 
      1       1.6325      2.00000
      2       2.8746      2.00000
      3       2.8785      2.00000
      4       2.8785      2.00000
      5       3.0311      2.00000
      6       3.0311      2.00000
      7       3.0733      2.00000
      8       4.6001      2.00000
      9       4.7593      2.00000
     10       4.7874      2.00000
     11       5.8382      2.00000
     12       5.9316      2.00000
     13       6.5980      2.00000
     14       6.5980      2.00000
     15       6.6124      2.00000
     16       6.6630      2.00000
     17       6.8142      2.00000
     18       6.8142      2.00000
     19       7.0048      2.00000
     20       7.0048      2.00000
     21       7.0370      2.00000
     22      11.0046     -0.00000
     23      11.0046     -0.00000
     24      12.1772     -0.00000
     25      17.4405      0.00000
     26      18.4350      0.00000
     27      18.4350      0.00000
     28      19.3835      0.00000
     29      20.9092      0.00000
     30      20.9092      0.00000
     31      20.9215      0.00000
     32      20.9215      0.00000
     33      21.5496      0.00000
     34      26.2082      0.00000
     35      28.2030      0.00000
     36      28.5802      0.00000
     37      28.6450      0.00000
     38      28.6450      0.00000
     39      29.1743      0.00000
     40      29.1743      0.00000
     41      29.8427      0.00000
     42      30.4278      0.00000
     43      30.7693      0.00000
     44      35.1848      0.00000
     45      36.8568      0.00000
     46      37.0938      0.00000
     47      37.8267      0.00000
     48      39.8464      0.00000

 k-point     7 :       0.2222    0.1111    0.0000
  band No.  band energies     occupation 
      1       2.0263      2.00000
      2       3.0513      2.00000
      3       3.0521      2.00000
      4       3.1006      2.00000
      5       3.1628      2.00000
      6       3.2412      2.00000
      7       3.3147      2.00000
      8       4.4523      2.00000
      9       4.9039      2.00000
     10       4.9216      2.00000
     11       5.7058      2.00000
     12       5.9686      2.00000
     13       6.0110      2.00000
     14       6.0369      2.00000
     15       6.2953      2.00000
     16       6.4476      2.00000
     17       6.5508      2.00000
     18       6.7275      2.00000
     19       6.7415      2.00000
     20       7.0024      2.00000
     21       7.0038      2.00000
     22       9.4590      2.00000
     23      11.9239     -0.00000
     24      13.1161      0.00000
     25      17.3953      0.00000
     26      18.1156      0.00000
     27      18.5061      0.00000
     28      19.9361      0.00000
     29      20.1069      0.00000
     30      20.5642      0.00000
     31      21.5776      0.00000
     32      21.5796      0.00000
     33      21.6302      0.00000
     34      26.2509      0.00000
     35      27.3201      0.00000
     36      28.5484      0.00000
     37      28.6314      0.00000
     38      29.1873      0.00000
     39      29.3069      0.00000
     40      29.6664      0.00000
     41      30.6278      0.00000
     42      30.9577      0.00000
     43      32.3368      0.00000
     44      34.4958      0.00000
     45      36.5104      0.00000
     46      37.6173      0.00000
     47      37.7467      0.00000
     48      38.5734      0.00000

 k-point     8 :       0.3333    0.1111    0.0000
  band No.  band energies     occupation 
      1       2.6136      2.00000
      2       3.2806      2.00000
      3       3.3312      2.00000
      4       3.3699      2.00000
      5       3.4014      2.00000
      6       3.5876      2.00000
      7       3.6610      2.00000
      8       4.2114      2.00000
      9       5.0773      2.00000
     10       5.1621      2.00000
     11       5.2480      2.00000
     12       5.3334      2.00000
     13       5.6091      2.00000
     14       5.8815      2.00000
     15       6.1551      2.00000
     16       6.1602      2.00000
     17       6.2287      2.00000
     18       6.3402      2.00000
     19       6.5882      2.00000
     20       6.9966      2.00000
     21       7.0019      2.00000
     22       7.9448      2.00000
     23      13.0532      0.00000
     24      14.3594      0.00000
     25      16.6074      0.00000
     26      17.7293      0.00000
     27      18.5255      0.00000
     28      18.6377      0.00000
     29      19.5110      0.00000
     30      20.9529      0.00000
     31      22.5542      0.00000
     32      22.7013      0.00000
     33      23.0693      0.00000
     34      26.0572      0.00000
     35      26.1360      0.00000
     36      28.4050      0.00000
     37      28.5927      0.00000
     38      29.3337      0.00000
     39      29.4162      0.00000
     40      29.9503      0.00000
     41      31.0847      0.00000
     42      33.0329      0.00000
     43      33.9765      0.00000
     44      34.5576      0.00000
     45      35.9066      0.00000
     46      36.6706      0.00000
     47      36.7728      0.00000
     48      36.7778      0.00000

 k-point     9 :       0.4444    0.1111    0.0000
  band No.  band energies     occupation 
      1       3.2012      2.00000
      2       3.4246      2.00000
      3       3.6091      2.00000
      4       3.6330      2.00000
      5       3.6399      2.00000
      6       3.9249      2.00000
      7       4.0634      2.00000
      8       4.0700      2.00000
      9       4.5929      2.00000
     10       4.6547      2.00000
     11       5.1444      2.00000
     12       5.4232      2.00000
     13       5.5080      2.00000
     14       5.8583      2.00000
     15       5.9141      2.00000
     16       5.9285      2.00000
     17       5.9578      2.00000
     18       6.3249      2.00000
     19       6.3734      2.00000
     20       6.8306      2.00000
     21       6.9972      2.00000
     22       6.9995      2.00000
     23      14.2420      0.00000
     24      15.4303      0.00000
     25      15.7542      0.00000
     26      17.2078      0.00000
     27      17.9071      0.00000
     28      18.2378      0.00000
     29      19.6109      0.00000
     30      20.1899      0.00000
     31      23.7521      0.00000
     32      23.9877      0.00000
     33      24.9680      0.00000
     34      25.2480      0.00000
     35      25.5036      0.00000
     36      27.5985      0.00000
     37      28.2299      0.00000
     38      28.2580      0.00000
     39      30.1832      0.00000
     40      31.6720      0.00000
     41      31.8336      0.00000
     42      32.7829      0.00000
     43      33.3366      0.00000
     44      34.7055      0.00000
     45      36.5997      0.00000
     46      36.7363      0.00000
     47      36.7673      0.00000
     48      37.5000      0.00000

 k-point    10 :       0.2222    0.2222    0.0000
  band No.  band energies     occupation 
      1       2.3850      2.00000
      2       3.1613      2.00000
      3       3.2830      2.00000
      4       3.2830      2.00000
      5       3.3573      2.00000
      6       3.3573      2.00000
      7       3.5795      2.00000
      8       4.4027      2.00000
      9       4.9738      2.00000
     10       4.9772      2.00000
     11       5.6302      2.00000
     12       5.6302      2.00000
     13       5.6533      2.00000
     14       5.7133      2.00000
     15       6.1134      2.00000
     16       6.2750      2.00000
     17       6.5443      2.00000
     18       6.5443      2.00000
     19       6.7230      2.00000
     20       6.7230      2.00000
     21       6.8352      2.00000
     22      10.3269     -0.00000
     23      10.3269     -0.00000
     24      13.9427      0.00000
     25      16.2802      0.00000
     26      17.6820      0.00000
     27      20.3079      0.00000
     28      20.3079      0.00000
     29      20.5867      0.00000
     30      20.5867      0.00000
     31      21.0073      0.00000
     32      21.0073      0.00000
     33      22.9448      0.00000
     34      25.7515      0.00000
     35      25.8862      0.00000
     36      27.8225      0.00000
     37      29.4821      0.00000
     38      29.6583      0.00000
     39      29.6583      0.00000
     40      30.9662      0.00000
     41      30.9662      0.00000
     42      32.1962      0.00000
     43      32.3754      0.00000
     44      34.3755      0.00000
     45      36.8568      0.00000
     46      37.1994      0.00000
     47      37.4264      0.00000
     48      38.1702      0.00000

 k-point    11 :       0.3333    0.2222    0.0000
  band No.  band energies     occupation 
      1       2.9142      2.00000
      2       3.3869      2.00000
      3       3.5309      2.00000
      4       3.5389      2.00000
      5       3.6006      2.00000
      6       3.6761      2.00000
      7       3.9060      2.00000
      8       4.2426      2.00000
      9       4.9692      2.00000
     10       4.9933      2.00000
     11       5.1842      2.00000
     12       5.1971      2.00000
     13       5.2356      2.00000
     14       5.6025      2.00000
     15       6.0343      2.00000
     16       6.2402      2.00000
     17       6.3334      2.00000
     18       6.3913      2.00000
     19       6.4118      2.00000
     20       6.7173      2.00000
     21       6.7481      2.00000
     22       8.8031      2.00000
     23      11.3508     -0.00000
     24      14.8655      0.00000
     25      15.0918      0.00000
     26      17.8292      0.00000
     27      19.2619      0.00000
     28      19.4206      0.00000
     29      21.2692      0.00000
     30      21.3153      0.00000
     31      21.5566      0.00000
     32      23.1538      0.00000
     33      23.2761      0.00000
     34      24.6030      0.00000
     35      24.9472      0.00000
     36      28.4114      0.00000
     37      29.6173      0.00000
     38      29.6538      0.00000
     39      30.2140      0.00000
     40      31.1526      0.00000
     41      31.2020      0.00000
     42      32.5055      0.00000
     43      33.7122      0.00000
     44      35.3002      0.00000
     45      36.6056      0.00000
     46      36.8085      0.00000
     47      36.8832      0.00000
     48      37.0277      0.00000

 k-point    12 :       0.4444    0.2222    0.0000
  band No.  band energies     occupation 
      1       3.4563      2.00000
      2       3.6909      2.00000
      3       3.6959      2.00000
      4       3.7668      2.00000
      5       3.8411      2.00000
      6       4.0137      2.00000
      7       4.1078      2.00000
      8       4.1754      2.00000
      9       4.4394      2.00000
     10       4.6300      2.00000
     11       4.8687      2.00000
     12       4.9025      2.00000
     13       5.5103      2.00000
     14       5.8092      2.00000
     15       5.8617      2.00000
     16       5.9088      2.00000
     17       5.9479      2.00000
     18       6.1469      2.00000
     19       6.7135      2.00000
     20       6.7188      2.00000
     21       6.8459      2.00000
     22       7.6115      2.00000
     23      12.4410     -0.00000
     24      13.5978      0.00000
     25      16.4223      0.00000
     26      17.8394      0.00000
     27      18.1450      0.00000
     28      18.6664      0.00000
     29      21.8130      0.00000
     30      22.3323      0.00000
     31      22.5261      0.00000
     32      22.7100      0.00000
     33      23.4318      0.00000
     34      23.8929      0.00000
     35      25.7335      0.00000
     36      28.0550      0.00000
     37      29.6590      0.00000
     38      29.6619      0.00000
     39      30.0669      0.00000
     40      31.8653      0.00000
     41      31.9194      0.00000
     42      32.9141      0.00000
     43      33.3176      0.00000
     44      34.8997      0.00000
     45      35.0731      0.00000
     46      36.3199      0.00000
     47      37.3831      0.00000
     48      38.0310      0.00000

 k-point    13 :       0.3333    0.3333    0.0000
  band No.  band energies     occupation 
      1       3.3362      2.00000
      2       3.5353      2.00000
      3       3.8105      2.00000
      4       3.8105      2.00000
      5       3.8854      2.00000
      6       3.8854      2.00000
      7       4.2028      2.00000
      8       4.2235      2.00000
      9       4.6589      2.00000
     10       4.6589      2.00000
     11       4.9316      2.00000
     12       4.9579      2.00000
     13       5.3022      2.00000
     14       5.4738      2.00000
     15       5.8481      2.00000
     16       6.1277      2.00000
     17       6.1277      2.00000
     18       6.3291      2.00000
     19       6.3291      2.00000
     20       6.5206      2.00000
     21       6.8618      2.00000
     22       9.7687      1.94389
     23       9.7687      1.94389
     24      13.3136      0.00000
     25      16.1490      0.00000
     26      18.0882      0.00000
     27      20.1405      0.00000
     28      20.1405      0.00000
     29      20.1930      0.00000
     30      20.1930      0.00000
     31      23.2449      0.00000
     32      23.6628      0.00000
     33      23.6628      0.00000
     34      23.7605      0.00000
     35      25.0138      0.00000
     36      27.4585      0.00000
     37      29.8018      0.00000
     38      30.5299      0.00000
     39      31.2452      0.00000
     40      31.2452      0.00000
     41      32.0705      0.00000
     42      32.0705      0.00000
     43      32.9070      0.00000
     44      35.7326      0.00000
     45      36.6257      0.00000
     46      36.8380      0.00000
     47      36.8380      0.00000
     48      37.3567      0.00000

 k-point    14 :       0.4444    0.3333    0.0000
  band No.  band energies     occupation 
      1       3.7634      2.00000
      2       3.7864      2.00000
      3       3.9699      2.00000
      4       4.0463      2.00000
      5       4.1057      2.00000
      6       4.1222      2.00000
      7       4.1644      2.00000
      8       4.3131      2.00000
      9       4.3962      2.00000
     10       4.5152      2.00000
     11       4.5611      2.00000
     12       4.7679      2.00000
     13       5.5571      2.00000
     14       5.5741      2.00000
     15       5.7129      2.00000
     16       5.8323      2.00000
     17       5.8737      2.00000
     18       5.9191      2.00000
     19       6.3404      2.00000
     20       6.3916      2.00000
     21       7.5337      2.00000
     22       8.4818      2.00000
     23      10.8154     -0.00000
     24      11.9777     -0.00000
     25      17.4088      0.00000
     26      18.5311      0.00000
     27      18.7813      0.00000
     28      19.2050      0.00000
     29      21.0197      0.00000
     30      21.3182      0.00000
     31      22.0559      0.00000
     32      22.5342      0.00000
     33      24.2604      0.00000
     34      25.0051      0.00000
     35      26.0783      0.00000
     36      28.2474      0.00000
     37      28.6341      0.00000
     38      30.6822      0.00000
     39      31.1112      0.00000
     40      31.2898      0.00000
     41      31.9541      0.00000
     42      32.2477      0.00000
     43      33.0748      0.00000
     44      35.1281      0.00000
     45      36.2775      0.00000
     46      36.6319      0.00000
     47      36.8786      0.00000
     48      37.9281      0.00000

 k-point    15 :       0.4444    0.4444    0.0000
  band No.  band energies     occupation 
      1       3.9082      2.00000
      2       3.9690      2.00000
      3       4.0868      2.00000
      4       4.0868      2.00000
      5       4.1972      2.00000
      6       4.2060      2.00000
      7       4.2060      2.00000
      8       4.4190      2.00000
      9       4.5439      2.00000
     10       4.5439      2.00000
     11       4.6151      2.00000
     12       4.7764      2.00000
     13       5.4124      2.00000
     14       5.5362      2.00000
     15       5.5949      2.00000
     16       5.5949      2.00000
     17       5.7040      2.00000
     18       5.9773      2.00000
     19       5.9773      2.00000
     20       6.1278      2.00000
     21       8.3862      2.00000
     22       9.4619      2.00000
     23       9.4619      2.00000
     24      10.6075     -0.00000
     25      18.6058      0.00000
     26      19.1191      0.00000
     27      19.9300      0.00000
     28      19.9300      0.00000
     29      19.9428      0.00000
     30      19.9428      0.00000
     31      20.8916      0.00000
     32      21.2009      0.00000
     33      26.6411      0.00000
     34      26.6411      0.00000
     35      27.4566      0.00000
     36      27.5432      0.00000
     37      28.1558      0.00000
     38      29.9442      0.00000
     39      29.9442      0.00000
     40      30.3447      0.00000
     41      32.3860      0.00000
     42      33.0504      0.00000
     43      33.0504      0.00000
     44      34.6859      0.00000
     45      36.5698      0.00000
     46      36.8349      0.00000
     47      37.1757      0.00000
     48      37.1757      0.00000

 k-point    16 :       0.1111    0.1111    0.1111
  band No.  band energies     occupation 
      1       1.7638      2.00000
      2       2.9334      2.00000
      3       2.9334      2.00000
      4       2.9334      2.00000
      5       3.1209      2.00000
      6       3.1209      2.00000
      7       3.1209      2.00000
      8       4.5908      2.00000
      9       4.7988      2.00000
     10       4.7988      2.00000
     11       5.8769      2.00000
     12       5.8769      2.00000
     13       6.4985      2.00000
     14       6.4985      2.00000
     15       6.4985      2.00000
     16       6.5728      2.00000
     17       6.5728      2.00000
     18       6.5728      2.00000
     19       7.0119      2.00000
     20       7.0119      2.00000
     21       7.0119      2.00000
     22      11.3503     -0.00000
     23      11.3503     -0.00000
     24      11.3503     -0.00000
     25      18.4380      0.00000
     26      18.4380      0.00000
     27      18.4380      0.00000
     28      19.6326      0.00000
     29      19.6326      0.00000
     30      19.6326      0.00000
     31      21.7927      0.00000
     32      21.7927      0.00000
     33      21.7927      0.00000
     34      26.1136      0.00000
     35      27.8595      0.00000
     36      28.1550      0.00000
     37      28.1550      0.00000
     38      28.1550      0.00000
     39      30.4334      0.00000
     40      30.4334      0.00000
     41      30.4334      0.00000
     42      30.5242      0.00000
     43      30.5242      0.00000
     44      34.8728      0.00000
     45      36.4347      0.00000
     46      36.4347      0.00000
     47      38.8039      0.00000
     48      39.8387      0.00000

 k-point    17 :       0.2222    0.1111    0.1111
  band No.  band energies     occupation 
      1       2.1409      2.00000
      2       3.0907      2.00000
      3       3.1049      2.00000
      4       3.1049      2.00000
      5       3.2644      2.00000
      6       3.3638      2.00000
      7       3.3638      2.00000
      8       4.4756      2.00000
      9       4.9138      2.00000
     10       4.9166      2.00000
     11       5.7479      2.00000
     12       5.9034      2.00000
     13       5.9034      2.00000
     14       5.9873      2.00000
     15       6.1831      2.00000
     16       6.3387      2.00000
     17       6.4019      2.00000
     18       6.4019      2.00000
     19       6.9240      2.00000
     20       6.9736      2.00000
     21       6.9736      2.00000
     22       9.7817      1.84575
     23      12.1952     -0.00000
     24      12.1952     -0.00000
     25      18.0078      0.00000
     26      18.0078      0.00000
     27      18.8161      0.00000
     28      18.8161      0.00000
     29      20.0901      0.00000
     30      20.7602      0.00000
     31      21.7833      0.00000
     32      21.7833      0.00000
     33      22.4975      0.00000
     34      25.5919      0.00000
     35      27.1987      0.00000
     36      28.0356      0.00000
     37      28.5940      0.00000
     38      28.5940      0.00000
     39      29.6777      0.00000
     40      30.4911      0.00000
     41      30.9721      0.00000
     42      32.3458      0.00000
     43      32.3458      0.00000
     44      34.1152      0.00000
     45      35.8398      0.00000
     46      36.6764      0.00000
     47      38.6060      0.00000
     48      38.6060      0.00000

 k-point    18 :       0.3333    0.1111    0.1111
  band No.  band energies     occupation 
      1       2.6975      2.00000
      2       3.2906      2.00000
      3       3.3826      2.00000
      4       3.3826      2.00000
      5       3.4958      2.00000
      6       3.7006      2.00000
      7       3.7006      2.00000
      8       4.2627      2.00000
      9       5.0409      2.00000
     10       5.1110      2.00000
     11       5.2300      2.00000
     12       5.2300      2.00000
     13       5.7317      2.00000
     14       5.7325      2.00000
     15       6.0250      2.00000
     16       6.1427      2.00000
     17       6.1427      2.00000
     18       6.1555      2.00000
     19       6.7718      2.00000
     20       6.9411      2.00000
     21       6.9411      2.00000
     22       8.2407      2.00000
     23      13.2665      0.00000
     24      13.2665      0.00000
     25      16.8128      0.00000
     26      16.8128      0.00000
     27      18.9783      0.00000
[...]
  band No.  band energies     occupation 
      1       3.1568      2.00000
      2       3.2931      2.00000
      3       3.4639      2.00000
      4       3.4710      2.00000
      5       4.2398      2.00000
      6       4.2553      2.00000
      7       4.5273      2.00000
      8       4.7214      2.00000
      9       4.9581      2.00000
     10       5.0394      2.00000
     11       5.1518      2.00000
     12       5.2498      2.00000
     13       5.2722      2.00000
     14       5.3010      2.00000
     15       5.3466      2.00000
     16       5.3680      2.00000
     17       6.3797      2.00000
     18       6.6883      2.00000
     19       6.7152      2.00000
     20       6.7273      2.00000
     21       7.3846      2.00000
     22       8.5841      2.00000
     23      10.9662     -0.00000
     24      11.8316     -0.00000
     25      14.4671      0.00000
     26      15.2997      0.00000
     27      17.5149      0.00000
     28      18.7013      0.00000
     29      22.5627      0.00000
     30      23.4082      0.00000
     31      24.4738      0.00000
     32      24.9972      0.00000
     33      25.2461      0.00000
     34      25.6795      0.00000
     35      26.1987      0.00000
     36      27.8108      0.00000
     37      28.1874      0.00000
     38      28.7323      0.00000
     39      28.9626      0.00000
     40      30.2701      0.00000
     41      34.0649      0.00000
     42      34.3637      0.00000
     43      34.4012      0.00000
     44      34.8005      0.00000
     45      35.0357      0.00000
     46      36.1396      0.00000
     47      37.2864      0.00000
     48      37.4141      0.00000

 k-point    31 :       0.4444    0.4444    0.2222
  band No.  band energies     occupation 
      1       3.1875      2.00000
      2       3.2949      2.00000
      3       3.2949      2.00000
      4       3.3525      2.00000
      5       4.3851      2.00000
      6       4.4713      2.00000
      7       4.4713      2.00000
      8       4.6374      2.00000
      9       4.9283      2.00000
     10       5.0312      2.00000
     11       5.0312      2.00000
     12       5.0838      2.00000
     13       5.5395      2.00000
     14       5.5395      2.00000
     15       5.5576      2.00000
     16       5.6852      2.00000
     17       6.3059      2.00000
     18       6.5443      2.00000
     19       6.5443      2.00000
     20       6.5753      2.00000
     21       8.2760      2.00000
     22       9.4751      2.00000
     23       9.4751      2.00000
     24      10.5831     -0.00000
     25      15.1997      0.00000
     26      16.2455      0.00000
     27      16.2455      0.00000
     28      17.3851      0.00000
     29      23.2177      0.00000
     30      24.0676      0.00000
     31      24.0676      0.00000
     32      24.8467      0.00000
     33      26.5097      0.00000
     34      26.5097      0.00000
     35      26.9609      0.00000
     36      27.5051      0.00000
     37      27.7206      0.00000
     38      29.0056      0.00000
     39      29.0056      0.00000
     40      30.0088      0.00000
     41      33.7757      0.00000
     42      34.1946      0.00000
     43      34.1946      0.00000
     44      34.7023      0.00000
     45      35.1266      0.00000
     46      35.7916      0.00000
     47      35.9387      0.00000
     48      35.9387      0.00000

 k-point    32 :       0.3333    0.3333    0.3333
  band No.  band energies     occupation 
      1       2.9577      2.00000
      2       3.2722      2.00000
      3       3.2722      2.00000
      4       3.2722      2.00000
      5       4.3619      2.00000
      6       4.3619      2.00000
      7       4.3619      2.00000
      8       4.8123      2.00000
      9       4.8123      2.00000
     10       5.1369      2.00000
     11       5.1369      2.00000
     12       5.1369      2.00000
     13       5.4216      2.00000
     14       5.4216      2.00000
     15       5.4216      2.00000
     16       6.2107      2.00000
     17       6.4078      2.00000
     18       6.4078      2.00000
     19       6.8918      2.00000
     20       6.8918      2.00000
     21       6.8918      2.00000
     22      10.5079     -0.00000
     23      10.5079     -0.00000
     24      10.5079     -0.00000
     25      15.1148      0.00000
     26      15.1148      0.00000
     27      15.1148      0.00000
     28      18.5255      0.00000
     29      24.1197      0.00000
     30      24.1197      0.00000
     31      24.1197      0.00000
     32      26.1446      0.00000
     33      26.2354      0.00000
     34      26.2354      0.00000
     35      26.2354      0.00000
     36      27.0809      0.00000
     37      27.0809      0.00000
     38      27.0809      0.00000
     39      30.0624      0.00000
     40      30.0624      0.00000
     41      33.9521      0.00000
     42      33.9521      0.00000
     43      35.1764      0.00000
     44      36.0767      0.00000
     45      36.0767      0.00000
     46      36.0785      0.00000
     47      36.2561      0.00000
     48      36.2561      0.00000

 k-point    33 :       0.4444    0.3333    0.3333
  band No.  band energies     occupation 
      1       2.9840      2.00000
      2       3.0999      2.00000
      3       3.2093      2.00000
      4       3.2093      2.00000
      5       4.3886      2.00000
      6       4.3886      2.00000
      7       4.5517      2.00000
      8       4.7113      2.00000
      9       4.8201      2.00000
     10       4.9320      2.00000
     11       5.0132      2.00000
     12       5.0132      2.00000
     13       5.7110      2.00000
     14       5.7229      2.00000
     15       5.7229      2.00000
     16       6.0352      2.00000
     17       6.6782      2.00000
     18       6.8234      2.00000
     19       6.8234      2.00000
     20       6.8483      2.00000
     21       7.4580      2.00000
     22       8.8820      2.00000
     23      10.8478     -0.00000
     24      10.8478     -0.00000
     25      14.2799      0.00000
     26      14.2799      0.00000
     27      16.0551      0.00000
     28      17.2005      0.00000
     29      24.5200      0.00000
     30      24.5200      0.00000
     31      25.4324      0.00000
     32      25.7664      0.00000
     33      25.7664      0.00000
     34      25.8288      0.00000
     35      27.2241      0.00000
     36      27.9931      0.00000
     37      28.0654      0.00000
     38      28.0654      0.00000
     39      28.5089      0.00000
     40      29.6871      0.00000
     41      34.1192      0.00000
     42      34.5751      0.00000
     43      34.8335      0.00000
     44      34.8335      0.00000
     45      35.3081      0.00000
     46      35.3625      0.00000
     47      36.4417      0.00000
     48      36.4523      0.00000

 k-point    34 :       0.4444    0.4444    0.3333
  band No.  band energies     occupation 
      1       2.9415      2.00000
      2       3.0218      2.00000
      3       3.0218      2.00000
      4       3.0593      2.00000
      5       4.5034      2.00000
      6       4.5541      2.00000
      7       4.5541      2.00000
      8       4.6798      2.00000
      9       4.7493      2.00000
     10       4.8287      2.00000
     11       4.8287      2.00000
     12       4.8523      2.00000
     13       6.1093      2.00000
     14       6.1304      2.00000
     15       6.1304      2.00000
     16       6.4387      2.00000
     17       6.6037      2.00000
     18       6.7812      2.00000
     19       6.7857      2.00000
     20       6.7857      2.00000
     21       8.2404      2.00000
     22       9.4765      2.00000
     23       9.4765      2.00000
     24      10.2521     -0.00000
     25      14.2307      0.00000
     26      14.9218      0.00000
     27      14.9218      0.00000
     28      15.9317      0.00000
     29      24.8796      0.00000
     30      25.2296      0.00000
     31      25.2296      0.00000
     32      25.5269      0.00000
     33      27.0881      0.00000
     34      27.1341      0.00000
     35      27.1341      0.00000
     36      27.9823      0.00000
     37      28.1391      0.00000
     38      28.5524      0.00000
     39      28.5524      0.00000
     40      29.5338      0.00000
     41      34.1936      0.00000
     42      34.3532      0.00000
     43      34.5412      0.00000
     44      34.5412      0.00000
     45      35.0707      0.00000
     46      35.1244      0.00000
     47      35.2720      0.00000
     48      35.2720      0.00000

 k-point    35 :       0.4444    0.4444    0.4444
  band No.  band energies     occupation 
      1       2.8399      2.00000
      2       2.8818      2.00000
      3       2.8818      2.00000
      4       2.8818      2.00000
      5       4.6119      2.00000
      6       4.6119      2.00000
      7       4.6119      2.00000
      8       4.6743      2.00000
      9       4.6743      2.00000
     10       4.7100      2.00000
     11       4.7100      2.00000
     12       4.7100      2.00000
     13       6.5797      2.00000
     14       6.5797      2.00000
     15       6.5797      2.00000
     16       6.8008      2.00000
     17       6.8008      2.00000
     18       6.8629      2.00000
     19       6.8629      2.00000
     20       6.8629      2.00000
     21       8.6080      2.00000
     22       9.4681      2.00000
     23       9.4681      2.00000
     24       9.4681      2.00000
     25      14.1760      0.00000
     26      14.1760      0.00000
     27      14.1760      0.00000
     28      14.8244      0.00000
     29      25.3253      0.00000
     30      25.3253      0.00000
     31      25.3253      0.00000
     32      25.4291      0.00000
     33      28.2774      0.00000
     34      28.2774      0.00000
     35      28.2774      0.00000
     36      28.3946      0.00000
     37      28.3946      0.00000
     38      28.3946      0.00000
     39      28.9426      0.00000
     40      28.9426      0.00000
     41      34.1695      0.00000
     42      34.1695      0.00000
     43      34.4990      0.00000
     44      34.4990      0.00000
     45      34.4990      0.00000
     46      34.5797      0.00000
     47      34.5797      0.00000
     48      34.5797      0.00000


--------------------------------------------------------------------------------------------------------


 soft charge-density along one line, spin component           1
         0         1         2         3         4         5         6         7         8         9
 total charge-density along one line
 
 pseudopotential strength for first ion, spin component:           1
 -3.424   0.000   0.000  -0.000  -0.000  -3.682   0.000   0.000
  0.000  -3.424   0.000  -0.000   0.000   0.000  -3.682   0.000
  0.000   0.000  -3.412   0.000  -0.000   0.000   0.000  -3.670
 -0.000  -0.000   0.000  -3.424   0.000  -0.000  -0.000   0.000
 -0.000   0.000  -0.000   0.000  -3.412  -0.000   0.000  -0.000
 -3.682   0.000   0.000  -0.000  -0.000  -3.903   0.000   0.000
  0.000  -3.682   0.000  -0.000   0.000   0.000  -3.903   0.000
  0.000   0.000  -3.670   0.000  -0.000   0.000   0.000  -3.892
 -0.000  -0.000   0.000  -3.682   0.000  -0.000  -0.000   0.000
 -0.000   0.000  -0.000   0.000  -3.670  -0.000   0.000  -0.000
  0.000   0.000   0.000  -0.000  -0.000   0.000   0.000   0.000
  0.000   0.000   0.000  -0.000   0.000   0.000   0.000   0.000
 -0.000   0.000   0.000  -0.000   0.000   0.000   0.000   0.000
 -0.000  -0.000   0.000   0.000   0.000  -0.000  -0.000   0.000
  0.000  -0.000  -0.000   0.000  -0.000   0.000  -0.000  -0.000
 -0.000   0.000   0.000  -0.000   0.000  -0.000   0.000   0.000
 -0.000  -0.000   0.000  -0.000   0.000  -0.000  -0.000   0.000
  0.000  -0.000  -0.000   0.000  -0.000   0.000  -0.000   0.000
 total augmentation occupancy for first ion, spin component:           1
  3.918  -0.000  -0.000  -0.000  -0.000  -2.018  -0.000   0.000  -0.000  -0.000  -0.000  -0.000   0.000   0.000   0.000   0.000
  0.000   3.918   0.000   0.000   0.000   0.000  -2.018   0.000   0.000  -0.000  -0.000  -0.000  -0.000   0.000  -0.000   0.000
 -0.000   0.000   3.888   0.000  -0.000  -0.000   0.000  -1.826   0.000   0.000  -0.000   0.000   0.000   0.000   0.000   0.000
  0.000   0.000   0.000   3.918   0.000   0.000  -0.000   0.000  -2.018   0.000  -0.000   0.000   0.000  -0.000  -0.000  -0.000
  0.000  -0.000   0.000   0.000   3.888  -0.000   0.000   0.000  -0.000  -1.826  -0.000  -0.000  -0.000  -0.000   0.000   0.000
 -2.018   0.000  -0.000   0.000   0.000   2.059  -0.000   0.000  -0.000   0.000  -0.000  -0.000   0.000   0.000   0.000  -0.000
 -0.000  -2.018   0.000  -0.000  -0.000   0.000   2.059  -0.000  -0.000   0.000   0.000  -0.000  -0.000  -0.000   0.000   0.000
 -0.000   0.000  -1.826   0.000  -0.000  -0.000  -0.000   1.729  -0.000  -0.000  -0.000  -0.000  -0.000   0.000   0.000  -0.000
 -0.000   0.000   0.000  -2.018   0.000  -0.000  -0.000  -0.000   2.059  -0.000   0.000   0.000   0.000   0.000   0.000  -0.000
 -0.000  -0.000   0.000   0.000  -1.826   0.000   0.000   0.000  -0.000   1.729   0.000   0.000   0.000   0.000  -0.000   0.000
 -0.000   0.000   0.000  -0.000  -0.000  -0.000  -0.000  -0.000   0.000   0.000   2.488  -0.497   0.000  -0.000   0.000  -0.000
 -0.000  -0.000  -0.000  -0.000  -0.000  -0.000  -0.000  -0.000   0.000   0.000  -0.497   0.122   0.000   0.000   0.000   0.000
 -0.000  -0.000   0.000   0.000   0.000   0.000  -0.000   0.000   0.000   0.000   0.000  -0.000   0.215  -0.000  -0.000  -0.013
  0.000   0.000  -0.000   0.000  -0.000   0.000  -0.000   0.000   0.000   0.000   0.000  -0.000  -0.000   0.215  -0.000   0.000
 -0.000  -0.000  -0.000  -0.000   0.000   0.000   0.000  -0.000   0.000   0.000  -0.000  -0.000  -0.000  -0.000   0.215  -0.000
  0.000   0.000   0.000   0.000   0.000  -0.000   0.000   0.000   0.000   0.000   0.000  -0.000  -0.013   0.000  -0.000   0.001
 -0.000   0.000   0.000   0.000   0.000   0.000  -0.000   0.000   0.000   0.000  -0.000   0.000  -0.000  -0.013  -0.000   0.000
  0.000   0.000   0.000   0.000  -0.000   0.000   0.000   0.000   0.000   0.000   0.000   0.000  -0.000   0.000  -0.013   0.000


------------------------ aborting loop because EDIFF is reached ----------------------------------------


    CHARGE:  cpu time    0.0089: real time    0.0090
    FORLOC:  cpu time    0.0001: real time    0.0001
    FORNL :  cpu time    0.0719: real time    0.0720
    STRESS:  cpu time    0.2261: real time    0.2267
    FORCOR:  cpu time    0.0037: real time    0.0037
    FORHAR:  cpu time    0.0008: real time    0.0008
    MIXING:  cpu time    0.0003: real time    0.0003
    OFIELD:  cpu time    0.0000: real time    0.0000

  FORCE on cell =-STRESS in cart. coord.  units (eV):
  Direction    XX          YY          ZZ          XY          YZ          ZX
  --------------------------------------------------------------------------------------
  Alpha Z   220.20847   220.20847   220.20847
  Ewald   -1347.02794 -1347.02794 -1347.02794    -0.00000     0.00000    -0.00000
  Hartree   232.08621   232.08621   232.08621    -0.00000    -0.00000    -0.00000
  E(xc)    -233.85460  -233.85460  -233.85460    -0.00000    -0.00000    -0.00000
  Local     241.07435   241.07435   241.07435     0.00000    -0.00000     0.00000
  n-local    -9.33047   -24.85258   -28.54064     0.84175     4.40576     1.77151
  augment   367.77918   367.77918   367.77918     0.00000    -0.00000     0.00000
  Kinetic   555.69781   547.05477   541.16753    -4.25926    -0.30633    -1.57345
  Fock        0.00000     0.00000     0.00000     0.00000     0.00000     0.00000
  -------------------------------------------------------------------------------------
  Total       7.33115     7.33115     7.33115    -0.00000    -0.00000     0.00000
  in kB     190.05632   190.05632   190.05632    -0.00000    -0.00000     0.00000
  external pressure =      190.06 kB  Pullay stress =        0.00 kB


 VOLUME and BASIS-vectors are now :
 -----------------------------------------------------------------------------
  energy-cutoff  :      400.00
  volume of cell :       61.80
      direct lattice vectors                 reciprocal lattice vectors
     3.953666667  0.000000000  0.000000000     0.252929770  0.000000000  0.000000000
     0.000000000  3.953666667  0.000000000     0.000000000  0.252929770  0.000000000
     0.000000000  0.000000000  3.953666667     0.000000000  0.000000000  0.252929770

  length of vectors
     3.953666667  3.953666667  3.953666667     0.252929770  0.252929770  0.252929770


 FORCES acting on ions
    electron-ion (+dipol)            ewald-force                    non-local-force                 convergence-correction
 -----------------------------------------------------------------------------------------------
   0.340E-13 0.537E-13 -.273E-15   -.355E-14 -.972E-14 -.758E-14   -.331E-23 -.750E-23 0.414E-24   0.150E-13 -.907E-14 0.845E-14
   0.347E-13 -.940E-13 -.149E-12   -.282E-14 0.126E-13 0.422E-14   -.414E-24 0.000E+00 0.000E+00   0.131E-13 0.316E-13 0.452E-14
   -.926E-13 0.579E-13 0.745E-12   0.286E-14 -.134E-13 0.421E-14   -.827E-24 -.331E-23 0.000E+00   -.657E-14 -.477E-14 -.439E-13
   -.941E-13 -.449E-13 -.613E-12   0.360E-14 0.889E-14 -.282E-14   -.124E-23 0.165E-23 0.000E+00   -.114E-13 0.375E-13 0.331E-13
 -----------------------------------------------------------------------------------------------
   -.118E-12 -.273E-13 -.176E-13   0.932E-16 -.166E-14 -.198E-14   -.579E-23 -.915E-23 0.414E-24   0.101E-13 0.553E-13 0.212E-14
 
 
 POSITION                                       TOTAL-FORCE (eV/Angst)
 -----------------------------------------------------------------------------------
      0.00000      0.00000      0.00000         0.000000      0.000000      0.000000
      0.00000      1.97683      1.97683        -0.000000     -0.000000     -0.000000
      1.97683      0.00000      1.97683        -0.000000      0.000000     -0.000000
      1.97683      1.97683      0.00000         0.000000      0.000000      0.000000
 -----------------------------------------------------------------------------------
    total drift:                               -0.000000      0.000000     -0.000000


--------------------------------------------------------------------------------------------------------



  FREE ENERGIE OF THE ION-ELECTRON SYSTEM (eV)
  ---------------------------------------------------
  free  energy   TOTEN  =       -10.38388677 eV

  energy  without entropy=      -10.38205827  energy(sigma->0) =      -10.38327727
 


--------------------------------------------------------------------------------------------------------


    POTLOK:  cpu time    0.0052: real time    0.0052


--------------------------------------------------------------------------------------------------------


     LOOP+:  cpu time    6.2337: real time    6.3089
    4ORBIT:  cpu time    0.0000: real time    0.0000

 total amount of memory used by VASP on root node    37943. kBytes
========================================================================

   base      :      30000. kBytes
   nonl-proj :       5879. kBytes
   fftplans  :        147. kBytes
   grid      :        485. kBytes
   one-center:         62. kBytes
   wavefun   :       1370. kBytes
 
  
  
 General timing and accounting informations for this job:
 ========================================================
  
                  Total CPU time used (sec):       26.076
                            User time (sec):       25.953
                          System time (sec):        0.123
                         Elapsed time (sec):       26.769
  
                   Maximum memory used (kb):       68892.
                   Average memory used (kb):           0.
  
                          Minor page faults:        15758
                          Major page faults:           10
                 Voluntary context switches:         1389
