<?xml version="1.0" encoding="ISO-8859-1"?>
<modeling>
 <generator>
  <i name="program" type="string">vasp </i>
  <i name="version" type="string">5.4.1  </i>
  <i name="subversion" type="string">05Feb16 (build Feb 08 2018 09:21:51) complex                          parallel </i>
  <i name="platform" type="string">LinuxIFC </i>
  <i name="date" type="string">2019 11 21 </i>
  <i name="time" type="string">15:54:11 </i>
 </generator>
 <incar>
  <i type="string" name="PREC">normal</i>
  <i name="ENCUT">    400.00000000</i>
  <i type="int" name="ISMEAR">     1</i>
  <i name="SIGMA">      0.10000000</i>
  <i type="logical" name="LWAVE"> F  </i>
  <i type="logical" name="LCHARG"> F  </i>
  <v type="int" name="KPOINT_BSE">    -1     0     0     0</v>
 </incar>
 <kpoints>
  <generation param="Monkhorst-Pack">
   <v type="int" name="divisions">       9        9        9 </v>
   <v name="usershift">      0.00000000       0.00000000       0.00000000 </v>
   <v name="genvec1">      0.11111111       0.00000000       0.00000000 </v>
   <v name="genvec2">      0.00000000       0.11111111       0.00000000 </v>
   <v name="genvec3">      0.00000000       0.00000000       0.11111111 </v>
   <v name="shift">      0.00000000       0.00000000       0.00000000 </v>
  </generation>
  <varray name="kpointlist" >
   <v>       0.00000000       0.00000000       0.00000000 </v>
   <v>       0.11111111       0.00000000       0.00000000 </v>
   <v>       0.22222222       0.00000000       0.00000000 </v>
   <v>       0.33333333       0.00000000       0.00000000 </v>
   <v>       0.44444444       0.00000000       0.00000000 </v>
   <v>       0.11111111       0.11111111       0.00000000 </v>
   <v>       0.22222222       0.11111111       0.00000000 </v>
   <v>       0.33333333       0.11111111       0.00000000 </v>
   <v>       0.44444444       0.11111111       0.00000000 </v>
   <v>       0.22222222       0.22222222       0.00000000 </v>
   <v>       0.33333333       0.22222222       0.00000000 </v>
   <v>       0.44444444       0.22222222       0.00000000 </v>
   <v>       0.33333333       0.33333333       0.00000000 </v>
   <v>       0.44444444       0.33333333       0.00000000 </v>
   <v>       0.44444444       0.44444444       0.00000000 </v>
   <v>       0.11111111       0.11111111       0.11111111 </v>
   <v>       0.22222222       0.11111111       0.11111111 </v>
   <v>       0.33333333       0.11111111       0.11111111 </v>
   <v>       0.44444444       0.11111111       0.11111111 </v>
   <v>       0.22222222       0.22222222       0.11111111 </v>
   <v>       0.33333333       0.22222222       0.11111111 </v>
   <v>       0.44444444       0.22222222       0.11111111 </v>
   <v>       0.33333333       0.33333333       0.11111111 </v>
   <v>       0.44444444       0.33333333       0.11111111 </v>
   <v>       0.44444444       0.44444444       0.11111111 </v>
   <v>       0.22222222       0.22222222       0.22222222 </v>
   <v>       0.33333333       0.22222222       0.22222222 </v>
   <v>       0.44444444       0.22222222       0.22222222 </v>
   <v>       0.33333333       0.33333333       0.22222222 </v>
   <v>       0.44444444       0.33333333       0.22222222 </v>
   <v>       0.44444444       0.44444444       0.22222222 </v>
   <v>       0.33333333       0.33333333       0.33333333 </v>
   <v>       0.44444444       0.33333333       0.33333333 </v>
   <v>       0.44444444       0.44444444       0.33333333 </v>
   <v>       0.44444444       0.44444444       0.44444444 </v>
  </varray>
  <varray name="weights" >
   <v>       0.00137174 </v>
   <v>       0.00823045 </v>
   <v>       0.00823045 </v>
   <v>       0.00823045 </v>
   <v>       0.00823045 </v>
   <v>       0.01646091 </v>
   <v>       0.03292181 </v>
   <v>       0.03292181 </v>
   <v>       0.03292181 </v>
   <v>       0.01646091 </v>
   <v>       0.03292181 </v>
   <v>       0.03292181 </v>
   <v>       0.01646091 </v>
   <v>       0.03292181 </v>
   <v>       0.01646091 </v>
   <v>       0.01097394 </v>
   <v>       0.03292181 </v>
   <v>       0.03292181 </v>
   <v>       0.03292181 </v>
   <v>       0.03292181 </v>
   <v>       0.06584362 </v>
   <v>       0.06584362 </v>
   <v>       0.03292181 </v>
   <v>       0.06584362 </v>
   <v>       0.03292181 </v>
   <v>       0.01097394 </v>
   <v>       0.03292181 </v>
   <v>       0.03292181 </v>
   <v>       0.03292181 </v>
   <v>       0.06584362 </v>
   <v>       0.03292181 </v>
   <v>       0.01097394 </v>
   <v>       0.03292181 </v>
   <v>       0.03292181 </v>
   <v>       0.01097394 </v>
  </varray>
 </kpoints>
 <parameters>
  <separator name="general" >
   <i type="string" name="SYSTEM">unknown system</i>
   <i type="logical" name="LCOMPAT"> F  </i>
  </separator>
  <separator name="electronic" >
   <i type="string" name="PREC">normal</i>
   <i name="ENMAX">    400.00000000</i>
   <i name="ENAUG">    412.49600000</i>
   <i name="EDIFF">      0.00010000</i>
   <i type="int" name="IALGO">    38</i>
   <i type="int" name="IWAVPR">    10</i>
   <i type="int" name="NBANDS">    48</i>
   <i name="NELECT">     44.00000000</i>
   <i type="int" name="TURBO">     0</i>
   <i type="int" name="IRESTART">     0</i>
   <i type="int" name="NREBOOT">     0</i>
   <i type="int" name="NMIN">     0</i>
   <i name="EREF">      0.00000000</i>
   <separator name="electronic smearing" >
    <i type="int" name="ISMEAR">     1</i>
    <i name="SIGMA">      0.10000000</i>
    <i name="KSPACING">      0.50000000</i>
    <i type="logical" name="KGAMMA"> T  </i>
   </separator>
   <separator name="electronic projectors" >
    <i type="logical" name="LREAL"> F  </i>
    <v name="ROPT">      0.00000000</v>
    <i type="int" name="LMAXPAW">  -100</i>
    <i type="int" name="LMAXMIX">     2</i>
    <i type="logical" name="NLSPLINE"> F  </i>
   </separator>
   <separator name="electronic startup" >
    <i type="int" name="ISTART">     0</i>
    <i type="int" name="ICHARG">     2</i>
    <i type="int" name="INIWAV">     1</i>
   </separator>
   <separator name="electronic spin" >
    <i type="int" name="ISPIN">     1</i>
    <i type="logical" name="LNONCOLLINEAR"> F  </i>
    <v name="MAGMOM">      1.00000000      1.00000000      1.00000000      1.00000000</v>
    <i name="NUPDOWN">     -1.00000000</i>
    <i type="logical" name="LSORBIT"> F  </i>
    <v name="SAXIS">      0.00000000      0.00000000      1.00000000</v>
    <i type="logical" name="LSPIRAL"> F  </i>
    <v name="QSPIRAL">      0.00000000      0.00000000      0.00000000</v>
    <i type="logical" name="LZEROZ"> F  </i>
   </separator>
   <separator name="electronic exchange-correlation" >
    <i type="logical" name="LASPH"> F  </i>
    <i type="logical" name="LMETAGGA"> F  </i>
   </separator>
   <separator name="electronic convergence" >
    <i type="int" name="NELM">    60</i>
    <i type="int" name="NELMDL">    -5</i>
    <i type="int" name="NELMIN">     2</i>
    <i name="ENINI">    400.00000000</i>
    <separator name="electronic convergence detail" >
     <i type="logical" name="LDIAG"> T  </i>
     <i type="logical" name="LSUBROT"> F  </i>
     <i name="WEIMIN">      0.00000000</i>
     <i name="EBREAK">      0.00000052</i>
     <i name="DEPER">      0.30000000</i>
     <i type="int" name="NRMM">     4</i>
     <i name="TIME">      0.40000000</i>
    </separator>
   </separator>
   <separator name="electronic mixer" >
    <i name="AMIX">      0.40000000</i>
    <i name="BMIX">      1.00000000</i>
    <i name="AMIN">      0.10000000</i>
    <i name="AMIX_MAG">      1.60000000</i>
    <i name="BMIX_MAG">      1.00000000</i>
    <separator name="electronic mixer details" >
     <i type="int" name="IMIX">     4</i>
     <i type="logical" name="MIXFIRST"> F  </i>
     <i type="int" name="MAXMIX">   -45</i>
     <i name="WC">    100.00000000</i>
     <i type="int" name="INIMIX">     1</i>
     <i type="int" name="MIXPRE">     1</i>
     <i type="int" name="MREMOVE">     5</i>
    </separator>
   </separator>
   <separator name="electronic dipolcorrection" >
    <i type="logical" name="LDIPOL"> F  </i>
    <i type="logical" name="LMONO"> F  </i>
    <i type="int" name="IDIPOL">     0</i>
    <i name="EPSILON">      1.00000000</i>
    <v name="DIPOL">   -100.00000000   -100.00000000   -100.00000000</v>
    <i name="EFIELD">      0.00000000</i>
   </separator>
  </separator>
  <separator name="grids" >
   <i type="int" name="NGX">    20</i>
   <i type="int" name="NGY">    20</i>
   <i type="int" name="NGZ">    20</i>
   <i type="int" name="NGXF">    40</i>
   <i type="int" name="NGYF">    40</i>
   <i type="int" name="NGZF">    40</i>
   <i type="logical" name="ADDGRID"> F  </i>
  </separator>
  <separator name="ionic" >
   <i type="int" name="NSW">     0</i>
   <i type="int" name="IBRION">    -1</i>
   <i type="int" name="ISIF">     2</i>
   <i name="PSTRESS">      0.00000000</i>
   <i name="EDIFFG">      0.00100000</i>
   <i type="int" name="NFREE">     0</i>
   <i name="POTIM">      0.50000000</i>
   <i name="SMASS">     -3.00000000</i>
   <i name="SCALEE">      1.00000000</i>
  </separator>
  <separator name="ionic md" >
   <i name="TEBEG">      0.00010000</i>
   <i name="TEEND">      0.00010000</i>
   <i type="int" name="NBLOCK">     1</i>
   <i type="int" name="KBLOCK">     1</i>
   <i type="int" name="NPACO">   256</i>
   <i name="APACO">     16.00000000</i>
  </separator>
  <separator name="symmetry" >
   <i type="int" name="ISYM">     2</i>
   <i name="SYMPREC">      0.00001000</i>
  </separator>
  <separator name="dos" >
   <i type="logical" name="LORBIT"> F  </i>
   <v name="RWIGS">     -1.00000000</v>
   <i type="int" name="NEDOS">   301</i>
   <i name="EMIN">     10.00000000</i>
   <i name="EMAX">    -10.00000000</i>
   <i name="EFERMI">      0.00000000</i>
  </separator>
  <separator name="writing" >
   <i type="int" name="NWRITE">     2</i>
   <i type="logical" name="LWAVE"> F  </i>
   <i type="logical" name="LCHARG"> F  </i>
   <i type="logical" name="LPARD"> F  </i>
   <i type="logical" name="LVTOT"> F  </i>
   <i type="logical" name="LVHAR"> F  </i>
   <i type="logical" name="LELF"> F  </i>
   <i type="logical" name="LOPTICS"> F  </i>
   <v name="STM">      0.00000000      0.00000000      0.00000000      0.00000000      0.00000000      0.00000000      0.00000000</v>
  </separator>
  <separator name="performance" >
   <i type="int" name="NPAR">    24</i>
   <i type="int" name="NSIM">     4</i>
   <i type="int" name="NBLK">    -1</i>
   <i type="logical" name="LPLANE"> T  </i>
   <i type="logical" name="LSCALAPACK"> F  </i>
   <i type="logical" name="LSCAAWARE"> F  </i>
   <i type="logical" name="LSCALU"> F  </i>
   <i type="logical" name="LASYNC"> F  </i>
   <i type="logical" name="LORBITALREAL"> F  </i>
  </separator>
  <separator name="miscellaneous" >
   <i type="int" name="IDIOT">     3</i>
   <i type="logical" name="LMUSIC"> F  </i>
   <v name="POMASS">    107.86800000</v>
   <v name="DARWINR">      0.00000000</v>
   <v name="DARWINV">      1.00000000</v>
   <i type="logical" name="LCORR"> T  </i>
  </separator>
  <i type="logical" name="GGA_COMPAT"> T  </i>
  <i type="logical" name="LBERRY"> F  </i>
  <i type="int" name="ICORELEVEL">     0</i>
  <i type="logical" name="LDAU"> F  </i>
  <i type="int" name="I_CONSTRAINED_M">     0</i>
  <separator name="electronic exchange-correlation" >
   <i type="string" name="GGA">--</i>
   <i type="int" name="VOSKOWN">     0</i>
   <i type="logical" name="LHFCALC"> F  </i>
   <i type="string" name="PRECFOCK"></i>
   <i type="logical" name="LSYMGRAD"> F  </i>
   <i type="logical" name="LHFONE"> F  </i>
   <i type="logical" name="LRHFCALC"> F  </i>
   <i type="logical" name="LTHOMAS"> F  </i>
   <i type="logical" name="LMODELHF"> F  </i>
   <i name="ENCUT4O">     -1.00000000</i>
   <i type="int" name="EXXOEP">     0</i>
   <i type="int" name="FOURORBIT">     0</i>
   <i name="AEXX">      0.00000000</i>
   <i name="HFALPHA">      0.00000000</i>
   <i name="MCALPHA">      0.00000000</i>
   <i name="ALDAX">      1.00000000</i>
   <i name="AGGAX">      1.00000000</i>
   <i name="ALDAC">      1.00000000</i>
   <i name="AGGAC">      1.00000000</i>
   <i type="int" name="NKREDX">     1</i>
   <i type="int" name="NKREDY">     1</i>
   <i type="int" name="NKREDZ">     1</i>
   <i type="logical" name="SHIFTRED"> F  </i>
   <i type="logical" name="ODDONLY"> F  </i>
   <i type="logical" name="EVENONLY"> F  </i>
   <i type="int" name="LMAXFOCK">     0</i>
   <i type="int" name="NMAXFOCKAE">     0</i>
   <i type="logical" name="LFOCKAEDFT"> F  </i>
   <i name="HFSCREEN">      0.00000000</i>
   <i name="HFSCREENC">      0.00000000</i>
   <i type="int" name="NBANDSGWLOW">     0</i>
  </separator>
  <separator name="vdW DFT" >
   <i type="logical" name="LUSE_VDW"> F  </i>
   <i name="Zab_VDW">     -0.84910000</i>
   <i name="PARAM1">      0.12340000</i>
   <i name="PARAM2">      1.00000000</i>
   <i name="PARAM3">      0.00000000</i>
  </separator>
  <separator name="model GW" >
   <i type="int" name="MODEL_GW">     0</i>
   <i name="MODEL_EPS0">      9.27024928</i>
   <i name="MODEL_ALPHA">      1.00000000</i>
  </separator>
  <separator name="linear response parameters" >
   <i type="logical" name="LEPSILON"> F  </i>
   <i type="logical" name="LRPA"> F  </i>
   <i type="logical" name="LNABLA"> F  </i>
   <i type="logical" name="LVEL"> F  </i>
   <i type="int" name="KINTER">     0</i>
   <i name="CSHIFT">      0.10000000</i>
   <i name="OMEGAMAX">     -1.00000000</i>
   <i name="DEG_THRESHOLD">      0.00200000</i>
  </separator>
  <separator name="orbital magnetization" >
   <i type="logical" name="NUCIND"> F  </i>
   <v name="MAGPOS">      0.00000000      0.00000000      0.00000000</v>
   <i type="logical" name="LNICSALL"> T  </i>
   <i type="logical" name="ORBITALMAG"> F  </i>
   <i type="logical" name="LMAGBLOCH"> F  </i>
   <i type="logical" name="LCHIMAG"> F  </i>
   <i type="logical" name="LGAUGE"> T  </i>
   <i type="int" name="MAGATOM">     0</i>
   <v name="MAGDIPOL">      0.00000000      0.00000000      0.00000000</v>
   <v name="AVECCONST">      0.00000000      0.00000000      0.00000000</v>
  </separator>
  <separator name="response functions" >
   <i type="logical" name="LADDER"> F  </i>
   <i type="logical" name="LFXC"> F  </i>
   <i type="logical" name="LHARTREE"> T  </i>
   <i type="int" name="IBSE">     0</i>
   <v type="int" name="KPOINT">    -1     0     0     0</v>
   <i type="logical" name="LTCTE"> F  </i>
   <i type="logical" name="LTETE"> F  </i>
   <i type="logical" name="LTRIPLET"> F  </i>
   <i type="logical" name="LFXCEPS"> F  </i>
   <i type="logical" name="LFXHEG"> F  </i>
   <i type="int" name="NATURALO">     0</i>
   <i type="logical" name="L2ORDER"> F  </i>
   <i type="logical" name="LUSEW"> F  </i>
   <i name="ENCUTGW">     -2.00000000</i>
   <i name="ENCUTGWSOFT">     -2.00000000</i>
   <i name="ENCUTLF">     -1.00000000</i>
   <i type="int" name="LMAXMP2">    -1</i>
   <i name="SCISSOR">      0.00000000</i>
   <i type="int" name="NOMEGA">     0</i>
   <i type="int" name="NOMEGAR">     0</i>
   <i type="int" name="NBANDSGW">    -1</i>
   <i type="int" name="NBANDSO">    -1</i>
   <i type="int" name="NBANDSV">    -1</i>
   <i type="int" name="NELM">     1</i>
   <i type="int" name="NELMHF">     1</i>
   <i type="int" name="DIM">     3</i>
   <i type="int" name="ANTIRES">     0</i>
   <i name="OMEGAMAX">    -30.00000000</i>
   <i name="OMEGAMIN">    -30.00000000</i>
   <i name="OMEGATL">   -200.00000000</i>
   <i type="int" name="OMEGAGRID">     0</i>
   <i name="CSHIFT">     -0.10000000</i>
   <i type="logical" name="SELFENERGY"> F  </i>
   <i type="logical" name="LSPECTRAL"> F  </i>
   <i type="logical" name="LSPECTRALGW"> F  </i>
   <i type="logical" name="LSINGLES"> F  </i>
   <i type="logical" name="LFERMIGW"> F  </i>
   <i type="logical" name="ODDONLYGW"> F  </i>
   <i type="logical" name="EVENONLYGW"> F  </i>
   <i type="int" name="NKREDLFX">     1</i>
   <i type="int" name="NKREDLFY">     1</i>
   <i type="int" name="NKREDLFZ">     1</i>
   <i type="int" name="MAXMEM">  1800</i>
   <i type="int" name="TELESCOPE">     0</i>
   <i type="int" name="TAUPAR">     1</i>
   <i type="int" name="OMEGAPAR">    -1</i>
   <i name="LAMBDA">      1.00000000</i>
  </separator>
  <separator name="External order field" >
   <i name="OFIELD_KAPPA">      0.00000000</i>
   <v name="OFIELD_K">      0.00000000      0.00000000      0.00000000</v>
   <i name="OFIELD_Q6_NEAR">      0.00000000</i>
   <i name="OFIELD_Q6_FAR">      0.00000000</i>
   <i name="OFIELD_A">      0.00000000</i>
  </separator>
 </parameters>
 <atominfo>
  <atoms>       4 </atoms>
  <types>       1 </types>
  <array name="atoms" >
   <dimension dim="1">ion</dimension>
   <field type="string">element</field>
   <field type="int">atomtype</field>
   <set>
    <rc><c>Ag</c><c>   1</c></rc>
    <rc><c>Ag</c><c>   1</c></rc>
    <rc><c>Ag</c><c>   1</c></rc>
    <rc><c>Ag</c><c>   1</c></rc>
   </set>
  </array>
  <array name="atomtypes" >
   <dimension dim="1">type</dimension>
   <field type="int">atomspertype</field>
   <field type="string">element</field>
   <field>mass</field>
   <field>valence</field>
   <field type="string">pseudopotential</field>
   <set>
    <rc><c>   4</c><c>Ag</c><c>    107.86800000</c><c>     11.00000000</c><c>  PAW_PBE Ag 02Apr2005                  </c></rc>
   </set>
  </array>
 </atominfo>
 <structure name="initialpos" >
  <crystal>
   <varray name="basis" >
    <v>       3.95366667       0.00000000       0.00000000 </v>
    <v>       0.00000000       3.95366667       0.00000000 </v>
    <v>       0.00000000       0.00000000       3.95366667 </v>
   </varray>
   <i name="volume">     61.80166187 </i>
   <varray name="rec_basis" >
    <v>       0.25292977       0.00000000       0.00000000 </v>
    <v>       0.00000000       0.25292977       0.00000000 </v>
    <v>       0.00000000       0.00000000       0.25292977 </v>
   </varray>
  </crystal>
  <varray name="positions" >
   <v>       0.00000000       0.00000000       0.00000000 </v>
   <v>       0.00000000       0.50000000       0.50000000 </v>
   <v>       0.50000000       0.00000000       0.50000000 </v>
   <v>       0.50000000       0.50000000       0.00000000 </v>
  </varray>
 </structure>
 <calculation>
  <scstep>
   <time name="dav">    0.53    0.53</time>
   <time name="total">    0.68    0.68</time>
   <energy>
    <i name="alphaZ">    220.20846516 </i>
    <i name="ewald">  -4041.08204516 </i>
    <i name="hartreedc">   -749.69322514 </i>
    <i name="XCdc">    -40.46598327 </i>
    <i name="pawpsdc">   4013.84859731 </i>
    <i name="pawaedc">  -3829.39709692 </i>
    <i name="eentropy">      0.00049791 </i>
    <i name="bandstr">    475.13177381 </i>
    <i name="atom">   4149.03371350 </i>
    <i name="e_fr_energy">    197.58469720 </i>
    <i name="e_wo_entrp">    197.58419929 </i>
    <i name="e_0_energy">    197.58453123 </i>
   </energy>
  </scstep>
  <scstep>
   <time name="dav">    0.70    0.70</time>
   <time name="total">    0.71    0.72</time>
   <energy>
    <i name="e_fr_energy">     -8.37727943 </i>
    <i name="e_wo_entrp">     -8.37615622 </i>
    <i name="e_0_energy">     -8.37690503 </i>
   </energy>
  </scstep>
  <scstep>
   <time name="dav">    0.56    0.56</time>
   <time name="total">    0.56    0.58</time>
   <energy>
    <i name="e_fr_energy">    -11.50326511 </i>
    <i name="e_wo_entrp">    -11.50171121 </i>
    <i name="e_0_energy">    -11.50274714 </i>
   </energy>
  </scstep>
  <scstep>
   <time name="dav">    0.78    0.78</time>
   <time name="total">    0.78    0.79</time>
   <energy>
    <i name="e_fr_energy">    -11.51250917 </i>
    <i name="e_wo_entrp">    -11.51095472 </i>
    <i name="e_0_energy">    -11.51199102 </i>
   </energy>
  </scstep>
  <scstep>
   <time name="dav">    0.54    0.54</time>
   <time name="total">    0.55    0.56</time>
   <energy>
    <i name="e_fr_energy">    -11.51258754 </i>
    <i name="e_wo_entrp">    -11.51103308 </i>
    <i name="e_0_energy">    -11.51206938 </i>
   </energy>
  </scstep>
  <scstep>
   <time name="dav">    0.68    0.68</time>
   <time name="total">    0.69    0.70</time>
   <energy>
    <i name="e_fr_energy">    -10.45655417 </i>
    <i name="e_wo_entrp">    -10.45498911 </i>
    <i name="e_0_energy">    -10.45603249 </i>
   </energy>
  </scstep>
  <scstep>
   <time name="dav">    0.61    0.61</time>
   <time name="total">    0.63    0.63</time>
   <energy>
    <i name="e_fr_energy">    -10.39809638 </i>
    <i name="e_wo_entrp">    -10.39626218 </i>
    <i name="e_0_energy">    -10.39748498 </i>
   </energy>
  </scstep>
  <scstep>
   <time name="dav">    0.73    0.73</time>
   <time name="total">    0.75    0.76</time>
   <energy>
    <i name="e_fr_energy">    -10.38387772 </i>
    <i name="e_wo_entrp">    -10.38205040 </i>
    <i name="e_0_energy">    -10.38326861 </i>
   </energy>
  </scstep>
  <scstep>
   <time name="dav">    0.51    0.51</time>
   <time name="total">    0.54    0.54</time>
   <energy>
    <i name="alphaZ">    220.20846516 </i>
    <i name="ewald">  -4041.08204516 </i>
    <i name="hartreedc">   -696.28457749 </i>
    <i name="XCdc">    -42.37810223 </i>
    <i name="pawpsdc">   4659.91510780 </i>
    <i name="pawaedc">  -4489.01771955 </i>
    <i name="eentropy">     -0.00182850 </i>
    <i name="bandstr">    229.22309970 </i>
    <i name="atom">   4149.03371350 </i>
    <i name="e_fr_energy">    -10.38388677 </i>
    <i name="e_wo_entrp">    -10.38205827 </i>
    <i name="e_0_energy">    -10.38327727 </i>
   </energy>
  </scstep>
  <structure>
   <crystal>
    <varray name="basis" >
     <v>       3.95366667       0.00000000       0.00000000 </v>
     <v>       0.00000000       3.95366667       0.00000000 </v>
     <v>       0.00000000       0.00000000       3.95366667 </v>
    </varray>
    <i name="volume">     61.80166187 </i>
    <varray name="rec_basis" >
     <v>       0.25292977       0.00000000       0.00000000 </v>
     <v>       0.00000000       0.25292977       0.00000000 </v>
     <v>       0.00000000       0.00000000       0.25292977 </v>
    </varray>
   </crystal>
   <varray name="positions" >
    <v>       0.00000000       0.00000000       0.00000000 </v>
    <v>       0.00000000       0.50000000       0.50000000 </v>
    <v>       0.50000000       0.00000000       0.50000000 </v>
    <v>       0.50000000       0.50000000       0.00000000 </v>
   </varray>
  </structure>
  <varray name="forces" >
   <v>       0.00000000       0.00000000       0.00000000 </v>
   <v>      -0.00000000      -0.00000000      -0.00000000 </v>
   <v>      -0.00000000       0.00000000      -0.00000000 </v>
   <v>       0.00000000       0.00000000       0.00000000 </v>
  </varray>
  <varray name="stress" >
   <v>     190.05631760       0.00000000       0.00000000 </v>
   <v>      -0.00000000     190.05631760       0.00000000 </v>
   <v>       0.00000000      -0.00000000     190.05631760 </v>
  </varray>
  <energy>
   <i name="e_fr_energy">    -10.38388677 </i>
   <i name="e_wo_entrp">    -10.38327727 </i>
   <i name="e_0_energy">     -0.00182850 </i>
  </energy>
  <time name="totalsc">    6.23    6.31</time>
  <eigenvalues>
   <array>
    <dimension dim="1">band</dimension>
    <dimension dim="2">kpoint</dimension>
    <dimension dim="3">spin</dimension>
    <field>eigene</field>
    <field>occ</field>
    <set>
     <set comment="spin 1">
      <set comment="kpoint 1">
       <r>    1.3561    1.0000 </r>
       <r>    2.7367    1.0000 </r>
       <r>    2.7367    1.0000 </r>
       <r>    2.7367    1.0000 </r>
       <r>    2.9138    1.0000 </r>
       <r>    2.9138    1.0000 </r>
       <r>    2.9138    1.0000 </r>
       <r>    4.6848    1.0000 </r>
       <r>    4.6848    1.0000 </r>
       <r>    4.6848    1.0000 </r>
       <r>    5.9160    1.0000 </r>
       <r>    5.9160    1.0000 </r>
       <r>    6.8234    1.0000 </r>
       <r>    6.8234    1.0000 </r>
       <r>    6.8234    1.0000 </r>
       <r>    7.1065    1.0000 </r>
       <r>    7.1065    1.0000 </r>
       <r>    7.1065    1.0000 </r>
       <r>    7.1065    1.0000 </r>
       <r>    7.1065    1.0000 </r>
       <r>    7.1065    1.0000 </r>
       <r>   11.3929   -0.0000 </r>
       <r>   11.3929   -0.0000 </r>
       <r>   11.3929   -0.0000 </r>
       <r>   17.4342    0.0000 </r>
       <r>   17.4342    0.0000 </r>
       <r>   17.4342    0.0000 </r>
       <r>   21.0497    0.0000 </r>
       <r>   21.0497    0.0000 </r>
       <r>   21.0497    0.0000 </r>
       <r>   21.0497    0.0000 </r>
       <r>   21.0497    0.0000 </r>
       <r>   21.0497    0.0000 </r>
       <r>   26.0839    0.0000 </r>
       <r>   28.3004    0.0000 </r>
       <r>   28.3004    0.0000 </r>
       <r>   28.3004    0.0000 </r>
       <r>   28.4711    0.0000 </r>
       <r>   28.4711    0.0000 </r>
       <r>   28.4711    0.0000 </r>
       <r>   30.2474    0.0000 </r>
       <r>   30.2474    0.0000 </r>
       <r>   30.2474    0.0000 </r>
       <r>   35.3223    0.0000 </r>
       <r>   37.1922    0.0000 </r>
       <r>   37.1922    0.0000 </r>
       <r>   37.1922    0.0000 </r>
       <r>   40.4745    0.0000 </r>
      </set>
      <set comment="kpoint 2">
       <r>    1.4961    1.0000 </r>
       <r>    2.7983    1.0000 </r>
       <r>    2.8159    1.0000 </r>
       <r>    2.8159    1.0000 </r>
       <r>    2.9608    1.0000 </r>
       <r>    2.9860    1.0000 </r>
       <r>    2.9860    1.0000 </r>
       <r>    4.6233    1.0000 </r>
       <r>    4.7398    1.0000 </r>
       <r>    4.7398    1.0000 </r>
       <r>    5.8541    1.0000 </r>
       <r>    5.9417    1.0000 </r>
       <r>    6.7400    1.0000 </r>
       <r>    6.7400    1.0000 </r>
       <r>    6.7940    1.0000 </r>
       <r>    6.8051    1.0000 </r>
       <r>    6.8051    1.0000 </r>
       <r>    7.0053    1.0000 </r>
       <r>    7.0053    1.0000 </r>
       <r>    7.1067    1.0000 </r>
       <r>    7.1067    1.0000 </r>
       <r>   10.6113   -0.0000 </r>
       <r>   11.8041   -0.0000 </r>
       <r>   11.8041   -0.0000 </r>
       <r>   17.4389    0.0000 </r>
       <r>   17.4389    0.0000 </r>
       <r>   18.4099    0.0000 </r>
       <r>   20.6730    0.0000 </r>
       <r>   20.6730    0.0000 </r>
       <r>   20.6746    0.0000 </r>
       <r>   20.6746    0.0000 </r>
       <r>   21.3100    0.0000 </r>
       <r>   21.3100    0.0000 </r>
       <r>   26.1736    0.0000 </r>
       <r>   28.2512    0.0000 </r>
       <r>   28.4377    0.0000 </r>
       <r>   28.6786    0.0000 </r>
       <r>   28.6786    0.0000 </r>
       <r>   29.1909    0.0000 </r>
       <r>   29.1909    0.0000 </r>
       <r>   29.6858    0.0000 </r>
       <r>   30.0133    0.0000 </r>
       <r>   30.0133    0.0000 </r>
       <r>   36.2308    0.0000 </r>
       <r>   36.7421    0.0000 </r>
       <r>   36.7421    0.0000 </r>
       <r>   37.3829    0.0000 </r>
       <r>   40.0618    0.0000 </r>
      </set>
      <set comment="kpoint 3">
       <r>    1.9010    1.0000 </r>
       <r>    2.9681    1.0000 </r>
       <r>    3.0352    1.0000 </r>
       <r>    3.0352    1.0000 </r>
       <r>    3.0974    1.0000 </r>
       <r>    3.2012    1.0000 </r>
       <r>    3.2012    1.0000 </r>
       <r>    4.4496    1.0000 </r>
       <r>    4.9022    1.0000 </r>
       <r>    4.9022    1.0000 </r>
       <r>    5.6905    1.0000 </r>
       <r>    6.0162    1.0000 </r>
       <r>    6.1311    1.0000 </r>
       <r>    6.1311    1.0000 </r>
       <r>    6.5081    1.0000 </r>
       <r>    6.5081    1.0000 </r>
       <r>    6.7106    1.0000 </r>
       <r>    6.7292    1.0000 </r>
       <r>    6.7292    1.0000 </r>
       <r>    7.1071    1.0000 </r>
       <r>    7.1071    1.0000 </r>
       <r>    9.0569    1.0000 </r>
       <r>   12.8040    0.0000 </r>
       <r>   12.8040    0.0000 </r>
       <r>   17.4602    0.0000 </r>
       <r>   17.4602    0.0000 </r>
       <r>   19.7061    0.0000 </r>
       <r>   19.7061    0.0000 </r>
       <r>   19.8948    0.0000 </r>
       <r>   19.8948    0.0000 </r>
       <r>   20.5352    0.0000 </r>
       <r>   22.0579    0.0000 </r>
       <r>   22.0579    0.0000 </r>
       <r>   26.4222    0.0000 </r>
       <r>   28.1051    0.0000 </r>
       <r>   28.3933    0.0000 </r>
       <r>   28.6559    0.0000 </r>
       <r>   29.2239    0.0000 </r>
       <r>   29.2239    0.0000 </r>
       <r>   29.6702    0.0000 </r>
       <r>   29.6702    0.0000 </r>
       <r>   30.9802    0.0000 </r>
       <r>   30.9802    0.0000 </r>
       <r>   36.2800    0.0000 </r>
       <r>   36.2800    0.0000 </r>
       <r>   36.8632    0.0000 </r>
       <r>   37.9614    0.0000 </r>
       <r>   38.6814    0.0000 </r>
      </set>
      <set comment="kpoint 4">
       <r>    2.5061    1.0000 </r>
       <r>    3.1917    1.0000 </r>
       <r>    3.3127    1.0000 </r>
       <r>    3.3312    1.0000 </r>
       <r>    3.3312    1.0000 </r>
       <r>    3.5567    1.0000 </r>
       <r>    3.5567    1.0000 </r>
       <r>    4.1926    1.0000 </r>
       <r>    5.1643    1.0000 </r>
       <r>    5.1643    1.0000 </r>
       <r>    5.3725    1.0000 </r>
       <r>    5.3725    1.0000 </r>
       <r>    5.5101    1.0000 </r>
       <r>    6.1319    1.0000 </r>
       <r>    6.1945    1.0000 </r>
       <r>    6.1945    1.0000 </r>
       <r>    6.3432    1.0000 </r>
       <r>    6.3432    1.0000 </r>
       <r>    6.5852    1.0000 </r>
       <r>    7.1073    1.0000 </r>
       <r>    7.1073    1.0000 </r>
       <r>    7.4777    1.0000 </r>
       <r>   14.0919    0.0000 </r>
       <r>   14.0919    0.0000 </r>
       <r>   17.5114    0.0000 </r>
       <r>   17.5114    0.0000 </r>
       <r>   18.4165    0.0000 </r>
       <r>   18.4165    0.0000 </r>
       <r>   19.1646    0.0000 </r>
       <r>   19.1646    0.0000 </r>
       <r>   23.0053    0.0000 </r>
       <r>   23.2107    0.0000 </r>
       <r>   23.2107    0.0000 </r>
       <r>   26.7766    0.0000 </r>
       <r>   27.6883    0.0000 </r>
       <r>   27.8669    0.0000 </r>
       <r>   27.8898    0.0000 </r>
       <r>   27.8898    0.0000 </r>
       <r>   28.5187    0.0000 </r>
       <r>   31.0610    0.0000 </r>
       <r>   31.0610    0.0000 </r>
       <r>   33.2884    0.0000 </r>
       <r>   33.2884    0.0000 </r>
       <r>   33.9661    0.0000 </r>
       <r>   36.5192    0.0000 </r>
       <r>   36.5192    0.0000 </r>
       <r>   36.6884    0.0000 </r>
       <r>   36.6884    0.0000 </r>
      </set>
      <set comment="kpoint 5">
       <r>    3.1062    1.0000 </r>
       <r>    3.3294    1.0000 </r>
       <r>    3.5688    1.0000 </r>
       <r>    3.5688    1.0000 </r>
       <r>    3.5866    1.0000 </r>
       <r>    3.8917    1.0000 </r>
       <r>    4.0470    1.0000 </r>
       <r>    4.0470    1.0000 </r>
       <r>    4.6602    1.0000 </r>
       <r>    4.6602    1.0000 </r>
       <r>    5.5114    1.0000 </r>
       <r>    5.5114    1.0000 </r>
       <r>    5.5475    1.0000 </r>
       <r>    5.9176    1.0000 </r>
       <r>    5.9176    1.0000 </r>
       <r>    5.9441    1.0000 </r>
       <r>    5.9441    1.0000 </r>
       <r>    6.2041    1.0000 </r>
       <r>    6.2767    1.0000 </r>
       <r>    6.4340    1.0000 </r>
       <r>    7.1076    1.0000 </r>
       <r>    7.1076    1.0000 </r>
       <r>   15.5146    0.0000 </r>
       <r>   15.5146    0.0000 </r>
       <r>   16.9832    0.0000 </r>
       <r>   16.9832    0.0000 </r>
       <r>   17.5792    0.0000 </r>
       <r>   17.5792    0.0000 </r>
       <r>   18.7196    0.0000 </r>
       <r>   18.7196    0.0000 </r>
       <r>   24.6606    0.0000 </r>
       <r>   24.6606    0.0000 </r>
       <r>   25.2758    0.0000 </r>
       <r>   26.2794    0.0000 </r>
       <r>   26.2794    0.0000 </r>
       <r>   26.7394    0.0000 </r>
       <r>   27.1712    0.0000 </r>
       <r>   27.5479    0.0000 </r>
       <r>   29.2361    0.0000 </r>
       <r>   31.1547    0.0000 </r>
       <r>   32.7359    0.0000 </r>
       <r>   32.7359    0.0000 </r>
       <r>   34.6371    0.0000 </r>
       <r>   34.6371    0.0000 </r>
       <r>   35.4997    0.0000 </r>
       <r>   35.4997    0.0000 </r>
       <r>   37.4408    0.0000 </r>
       <r>   37.4408    0.0000 </r>
      </set>
      <set comment="kpoint 6">
       <r>    1.6325    1.0000 </r>
       <r>    2.8746    1.0000 </r>
       <r>    2.8785    1.0000 </r>
       <r>    2.8785    1.0000 </r>
       <r>    3.0311    1.0000 </r>
       <r>    3.0311    1.0000 </r>
       <r>    3.0733    1.0000 </r>
       <r>    4.6001    1.0000 </r>
       <r>    4.7593    1.0000 </r>
       <r>    4.7874    1.0000 </r>
       <r>    5.8382    1.0000 </r>
       <r>    5.9316    1.0000 </r>
       <r>    6.5980    1.0000 </r>
       <r>    6.5980    1.0000 </r>
       <r>    6.6124    1.0000 </r>
       <r>    6.6630    1.0000 </r>
       <r>    6.8142    1.0000 </r>
       <r>    6.8142    1.0000 </r>
       <r>    7.0048    1.0000 </r>
       <r>    7.0048    1.0000 </r>
       <r>    7.0370    1.0000 </r>
       <r>   11.0046   -0.0000 </r>
       <r>   11.0046   -0.0000 </r>
       <r>   12.1772   -0.0000 </r>
       <r>   17.4405    0.0000 </r>
       <r>   18.4350    0.0000 </r>
       <r>   18.4350    0.0000 </r>
       <r>   19.3835    0.0000 </r>
       <r>   20.9092    0.0000 </r>
       <r>   20.9092    0.0000 </r>
       <r>   20.9215    0.0000 </r>
       <r>   20.9215    0.0000 </r>
       <r>   21.5496    0.0000 </r>
       <r>   26.2082    0.0000 </r>
       <r>   28.2030    0.0000 </r>
       <r>   28.5802    0.0000 </r>
       <r>   28.6450    0.0000 </r>
       <r>   28.6450    0.0000 </r>
       <r>   29.1743    0.0000 </r>
       <r>   29.1743    0.0000 </r>
       <r>   29.8427    0.0000 </r>
       <r>   30.4278    0.0000 </r>
       <r>   30.7693    0.0000 </r>
       <r>   35.1848    0.0000 </r>
       <r>   36.8568    0.0000 </r>
       <r>   37.0938    0.0000 </r>
       <r>   37.8267    0.0000 </r>
       <r>   39.8464    0.0000 </r>
      </set>
      <set comment="kpoint 7">
       <r>    2.0263    1.0000 </r>
       <r>    3.0513    1.0000 </r>
       <r>    3.0521    1.0000 </r>
       <r>    3.1006    1.0000 </r>
       <r>    3.1628    1.0000 </r>
       <r>    3.2412    1.0000 </r>
       <r>    3.3147    1.0000 </r>
       <r>    4.4523    1.0000 </r>
       <r>    4.9039    1.0000 </r>
       <r>    4.9216    1.0000 </r>
       <r>    5.7058    1.0000 </r>
       <r>    5.9686    1.0000 </r>
       <r>    6.0110    1.0000 </r>
       <r>    6.0369    1.0000 </r>
       <r>    6.2953    1.0000 </r>
       <r>    6.4476    1.0000 </r>
       <r>    6.5508    1.0000 </r>
       <r>    6.7275    1.0000 </r>
       <r>    6.7415    1.0000 </r>
       <r>    7.0024    1.0000 </r>
       <r>    7.0038    1.0000 </r>
       <r>    9.4590    1.0000 </r>
       <r>   11.9239   -0.0000 </r>
       <r>   13.1161    0.0000 </r>
       <r>   17.3953    0.0000 </r>
       <r>   18.1156    0.0000 </r>
       <r>   18.5061    0.0000 </r>
       <r>   19.9361    0.0000 </r>
       <r>   20.1069    0.0000 </r>
       <r>   20.5642    0.0000 </r>
       <r>   21.5776    0.0000 </r>
       <r>   21.5796    0.0000 </r>
       <r>   21.6302    0.0000 </r>
       <r>   26.2509    0.0000 </r>
       <r>   27.3201    0.0000 </r>
       <r>   28.5484    0.0000 </r>
       <r>   28.6314    0.0000 </r>
       <r>   29.1873    0.0000 </r>
       <r>   29.3069    0.0000 </r>
       <r>   29.6664    0.0000 </r>
       <r>   30.6278    0.0000 </r>
       <r>   30.9577    0.0000 </r>
       <r>   32.3368    0.0000 </r>
       <r>   34.4958    0.0000 </r>
       <r>   36.5104    0.0000 </r>
       <r>   37.6173    0.0000 </r>
       <r>   37.7467    0.0000 </r>
       <r>   38.5734    0.0000 </r>
      </set>
      <set comment="kpoint 8">
       <r>    2.6136    1.0000 </r>
       <r>    3.2806    1.0000 </r>
       <r>    3.3312    1.0000 </r>
       <r>    3.3699    1.0000 </r>
       <r>    3.4014    1.0000 </r>
       <r>    3.5876    1.0000 </r>
       <r>    3.6610    1.0000 </r>
       <r>    4.2114    1.0000 </r>
       <r>    5.0773    1.0000 </r>
       <r>    5.1621    1.0000 </r>
       <r>    5.2480    1.0000 </r>
       <r>    5.3334    1.0000 </r>
       <r>    5.6091    1.0000 </r>
       <r>    5.8815    1.0000 </r>
       <r>    6.1551    1.0000 </r>
       <r>    6.1602    1.0000 </r>
       <r>    6.2287    1.0000 </r>
       <r>    6.3402    1.0000 </r>
       <r>    6.5882    1.0000 </r>
       <r>    6.9966    1.0000 </r>
       <r>    7.0019    1.0000 </r>
       <r>    7.9448    1.0000 </r>
       <r>   13.0532    0.0000 </r>
       <r>   14.3594    0.0000 </r>
       <r>   16.6074    0.0000 </r>
       <r>   17.7293    0.0000 </r>
       <r>   18.5255    0.0000 </r>
       <r>   18.6377    0.0000 </r>
       <r>   19.5110    0.0000 </r>
       <r>   20.9529    0.0000 </r>
       <r>   22.5542    0.0000 </r>
       <r>   22.7013    0.0000 </r>
       <r>   23.0693    0.0000 </r>
       <r>   26.0572    0.0000 </r>
       <r>   26.1360    0.0000 </r>
       <r>   28.4050    0.0000 </r>
       <r>   28.5927    0.0000 </r>
       <r>   29.3337    0.0000 </r>
       <r>   29.4162    0.0000 </r>
       <r>   29.9503    0.0000 </r>
       <r>   31.0847    0.0000 </r>
       <r>   33.0329    0.0000 </r>
       <r>   33.9765    0.0000 </r>
       <r>   34.5576    0.0000 </r>
       <r>   35.9066    0.0000 </r>
       <r>   36.6706    0.0000 </r>
       <r>   36.7728    0.0000 </r>
       <r>   36.7778    0.0000 </r>
      </set>
      <set comment="kpoint 9">
       <r>    3.2012    1.0000 </r>
       <r>    3.4246    1.0000 </r>
       <r>    3.6091    1.0000 </r>
       <r>    3.6330    1.0000 </r>
       <r>    3.6399    1.0000 </r>
       <r>    3.9249    1.0000 </r>
       <r>    4.0634    1.0000 </r>
       <r>    4.0700    1.0000 </r>
       <r>    4.5929    1.0000 </r>
       <r>    4.6547    1.0000 </r>
       <r>    5.1444    1.0000 </r>
       <r>    5.4232    1.0000 </r>
       <r>    5.5080    1.0000 </r>
       <r>    5.8583    1.0000 </r>
       <r>    5.9141    1.0000 </r>
       <r>    5.9285    1.0000 </r>
       <r>    5.9578    1.0000 </r>
       <r>    6.3249    1.0000 </r>
       <r>    6.3734    1.0000 </r>
       <r>    6.8306    1.0000 </r>
       <r>    6.9972    1.0000 </r>
       <r>    6.9995    1.0000 </r>
       <r>   14.2420    0.0000 </r>
       <r>   15.4303    0.0000 </r>
       <r>   15.7542    0.0000 </r>
       <r>   17.2078    0.0000 </r>
       <r>   17.9071    0.0000 </r>
       <r>   18.2378    0.0000 </r>
       <r>   19.6109    0.0000 </r>
       <r>   20.1899    0.0000 </r>
       <r>   23.7521    0.0000 </r>
       <r>   23.9877    0.0000 </r>
       <r>   24.9680    0.0000 </r>
       <r>   25.2480    0.0000 </r>
       <r>   25.5036    0.0000 </r>
       <r>   27.5985    0.0000 </r>
       <r>   28.2299    0.0000 </r>
       <r>   28.2580    0.0000 </r>
       <r>   30.1832    0.0000 </r>
       <r>   31.6720    0.0000 </r>
       <r>   31.8336    0.0000 </r>
       <r>   32.7829    0.0000 </r>
       <r>   33.3366    0.0000 </r>
       <r>   34.7055    0.0000 </r>
       <r>   36.5997    0.0000 </r>
       <r>   36.7363    0.0000 </r>
       <r>   36.7673    0.0000 </r>
       <r>   37.5000    0.0000 </r>
      </set>
      <set comment="kpoint 10">
       <r>    2.3850    1.0000 </r>
       <r>    3.1613    1.0000 </r>
       <r>    3.2830    1.0000 </r>
       <r>    3.2830    1.0000 </r>
       <r>    3.3573    1.0000 </r>
       <r>    3.3573    1.0000 </r>
       <r>    3.5795    1.0000 </r>
       <r>    4.4027    1.0000 </r>
       <r>    4.9738    1.0000 </r>
       <r>    4.9772    1.0000 </r>
       <r>    5.6302    1.0000 </r>
       <r>    5.6302    1.0000 </r>
       <r>    5.6533    1.0000 </r>
       <r>    5.7133    1.0000 </r>
       <r>    6.1134    1.0000 </r>
       <r>    6.2750    1.0000 </r>
       <r>    6.5443    1.0000 </r>
       <r>    6.5443    1.0000 </r>
       <r>    6.7230    1.0000 </r>
       <r>    6.7230    1.0000 </r>
       <r>    6.8352    1.0000 </r>
       <r>   10.3269   -0.0000 </r>
       <r>   10.3269   -0.0000 </r>
       <r>   13.9427    0.0000 </r>
       <r>   16.2802    0.0000 </r>
       <r>   17.6820    0.0000 </r>
       <r>   20.3079    0.0000 </r>
       <r>   20.3079    0.0000 </r>
       <r>   20.5867    0.0000 </r>
       <r>   20.5867    0.0000 </r>
       <r>   21.0073    0.0000 </r>
       <r>   21.0073    0.0000 </r>
       <r>   22.9448    0.0000 </r>
       <r>   25.7515    0.0000 </r>
       <r>   25.8862    0.0000 </r>
       <r>   27.8225    0.0000 </r>
       <r>   29.4821    0.0000 </r>
       <r>   29.6583    0.0000 </r>
       <r>   29.6583    0.0000 </r>
       <r>   30.9662    0.0000 </r>
       <r>   30.9662    0.0000 </r>
       <r>   32.1962    0.0000 </r>
       <r>   32.3754    0.0000 </r>
       <r>   34.3755    0.0000 </r>
       <r>   36.8568    0.0000 </r>
       <r>   37.1994    0.0000 </r>
       <r>   37.4264    0.0000 </r>
       <r>   38.1702    0.0000 </r>
      </set>
      <set comment="kpoint 11">
       <r>    2.9142    1.0000 </r>
       <r>    3.3869    1.0000 </r>
       <r>    3.5309    1.0000 </r>
       <r>    3.5389    1.0000 </r>
       <r>    3.6006    1.0000 </r>
       <r>    3.6761    1.0000 </r>
       <r>    3.9060    1.0000 </r>
       <r>    4.2426    1.0000 </r>
       <r>    4.9692    1.0000 </r>
       <r>    4.9933    1.0000 </r>
       <r>    5.1842    1.0000 </r>
       <r>    5.1971    1.0000 </r>
       <r>    5.2356    1.0000 </r>
       <r>    5.6025    1.0000 </r>
       <r>    6.0343    1.0000 </r>
       <r>    6.2402    1.0000 </r>
       <r>    6.3334    1.0000 </r>
       <r>    6.3913    1.0000 </r>
       <r>    6.4118    1.0000 </r>
       <r>    6.7173    1.0000 </r>
       <r>    6.7481    1.0000 </r>
       <r>    8.8031    1.0000 </r>
       <r>   11.3508   -0.0000 </r>
       <r>   14.8655    0.0000 </r>
       <r>   15.0918    0.0000 </r>
       <r>   17.8292    0.0000 </r>
       <r>   19.2619    0.0000 </r>
       <r>   19.4206    0.0000 </r>
       <r>   21.2692    0.0000 </r>
       <r>   21.3153    0.0000 </r>
       <r>   21.5566    0.0000 </r>
       <r>   23.1538    0.0000 </r>
       <r>   23.2761    0.0000 </r>
       <r>   24.6030    0.0000 </r>
       <r>   24.9472    0.0000 </r>
       <r>   28.4114    0.0000 </r>
       <r>   29.6173    0.0000 </r>
       <r>   29.6538    0.0000 </r>
       <r>   30.2140    0.0000 </r>
       <r>   31.1526    0.0000 </r>
       <r>   31.2020    0.0000 </r>
       <r>   32.5055    0.0000 </r>
       <r>   33.7122    0.0000 </r>
       <r>   35.3002    0.0000 </r>
       <r>   36.6056    0.0000 </r>
       <r>   36.8085    0.0000 </r>
       <r>   36.8832    0.0000 </r>
       <r>   37.0277    0.0000 </r>
      </set>
      <set comment="kpoint 12">
       <r>    3.4563    1.0000 </r>
       <r>    3.6909    1.0000 </r>
       <r>    3.6959    1.0000 </r>
       <r>    3.7668    1.0000 </r>
       <r>    3.8411    1.0000 </r>
       <r>    4.0137    1.0000 </r>
       <r>    4.1078    1.0000 </r>
       <r>    4.1754    1.0000 </r>
       <r>    4.4394    1.0000 </r>
       <r>    4.6300    1.0000 </r>
       <r>    4.8687    1.0000 </r>
       <r>    4.9025    1.0000 </r>
       <r>    5.5103    1.0000 </r>
       <r>    5.8092    1.0000 </r>
       <r>    5.8617    1.0000 </r>
       <r>    5.9088    1.0000 </r>
       <r>    5.9479    1.0000 </r>
       <r>    6.1469    1.0000 </r>
       <r>    6.7135    1.0000 </r>
       <r>    6.7188    1.0000 </r>
       <r>    6.8459    1.0000 </r>
       <r>    7.6115    1.0000 </r>
       <r>   12.4410   -0.0000 </r>
       <r>   13.5978    0.0000 </r>
       <r>   16.4223    0.0000 </r>
       <r>   17.8394    0.0000 </r>
       <r>   18.1450    0.0000 </r>
       <r>   18.6664    0.0000 </r>
       <r>   21.8130    0.0000 </r>
       <r>   22.3323    0.0000 </r>
       <r>   22.5261    0.0000 </r>
       <r>   22.7100    0.0000 </r>
       <r>   23.4318    0.0000 </r>
       <r>   23.8929    0.0000 </r>
       <r>   25.7335    0.0000 </r>
       <r>   28.0550    0.0000 </r>
       <r>   29.6590    0.0000 </r>
       <r>   29.6619    0.0000 </r>
       <r>   30.0669    0.0000 </r>
       <r>   31.8653    0.0000 </r>
       <r>   31.9194    0.0000 </r>
       <r>   32.9141    0.0000 </r>
       <r>   33.3176    0.0000 </r>
       <r>   34.8997    0.0000 </r>
       <r>   35.0731    0.0000 </r>
       <r>   36.3199    0.0000 </r>
       <r>   37.3831    0.0000 </r>
       <r>   38.0310    0.0000 </r>
      </set>
      <set comment="kpoint 13">
       <r>    3.3362    1.0000 </r>
       <r>    3.5353    1.0000 </r>
       <r>    3.8105    1.0000 </r>
       <r>    3.8105    1.0000 </r>
       <r>    3.8854    1.0000 </r>
       <r>    3.8854    1.0000 </r>
       <r>    4.2028    1.0000 </r>
       <r>    4.2235    1.0000 </r>
       <r>    4.6589    1.0000 </r>
       <r>    4.6589    1.0000 </r>
       <r>    4.9316    1.0000 </r>
       <r>    4.9579    1.0000 </r>
       <r>    5.3022    1.0000 </r>
       <r>    5.4738    1.0000 </r>
       <r>    5.8481    1.0000 </r>
       <r>    6.1277    1.0000 </r>
       <r>    6.1277    1.0000 </r>
       <r>    6.3291    1.0000 </r>
       <r>    6.3291    1.0000 </r>
       <r>    6.5206    1.0000 </r>
       <r>    6.8618    1.0000 </r>
       <r>    9.7687    0.9719 </r>
       <r>    9.7687    0.9719 </r>
       <r>   13.3136    0.0000 </r>
       <r>   16.1490    0.0000 </r>
       <r>   18.0882    0.0000 </r>
       <r>   20.1405    0.0000 </r>
       <r>   20.1405    0.0000 </r>
       <r>   20.1930    0.0000 </r>
       <r>   20.1930    0.0000 </r>
       <r>   23.2449    0.0000 </r>
       <r>   23.6628    0.0000 </r>
       <r>   23.6628    0.0000 </r>
       <r>   23.7605    0.0000 </r>
       <r>   25.0138    0.0000 </r>
       <r>   27.4585    0.0000 </r>
       <r>   29.8018    0.0000 </r>
       <r>   30.5299    0.0000 </r>
       <r>   31.2452    0.0000 </r>
       <r>   31.2452    0.0000 </r>
       <r>   32.0705    0.0000 </r>
       <r>   32.0705    0.0000 </r>
       <r>   32.9070    0.0000 </r>
       <r>   35.7326    0.0000 </r>
       <r>   36.6257    0.0000 </r>
       <r>   36.8380    0.0000 </r>
       <r>   36.8380    0.0000 </r>
       <r>   37.3567    0.0000 </r>
      </set>
      <set comment="kpoint 14">
       <r>    3.7634    1.0000 </r>
       <r>    3.7864    1.0000 </r>
       <r>    3.9699    1.0000 </r>
       <r>    4.0463    1.0000 </r>
       <r>    4.1057    1.0000 </r>
       <r>    4.1222    1.0000 </r>
       <r>    4.1644    1.0000 </r>
       <r>    4.3131    1.0000 </r>
       <r>    4.3962    1.0000 </r>
       <r>    4.5152    1.0000 </r>
       <r>    4.5611    1.0000 </r>
       <r>    4.7679    1.0000 </r>
       <r>    5.5571    1.0000 </r>
       <r>    5.5741    1.0000 </r>
       <r>    5.7129    1.0000 </r>
       <r>    5.8323    1.0000 </r>
       <r>    5.8737    1.0000 </r>
       <r>    5.9191    1.0000 </r>
       <r>    6.3404    1.0000 </r>
       <r>    6.3916    1.0000 </r>
       <r>    7.5337    1.0000 </r>
       <r>    8.4818    1.0000 </r>
       <r>   10.8154   -0.0000 </r>
       <r>   11.9777   -0.0000 </r>
       <r>   17.4088    0.0000 </r>
       <r>   18.5311    0.0000 </r>
       <r>   18.7813    0.0000 </r>
       <r>   19.2050    0.0000 </r>
       <r>   21.0197    0.0000 </r>
       <r>   21.3182    0.0000 </r>
       <r>   22.0559    0.0000 </r>
       <r>   22.5342    0.0000 </r>
       <r>   24.2604    0.0000 </r>
       <r>   25.0051    0.0000 </r>
       <r>   26.0783    0.0000 </r>
       <r>   28.2474    0.0000 </r>
       <r>   28.6341    0.0000 </r>
       <r>   30.6822    0.0000 </r>
       <r>   31.1112    0.0000 </r>
       <r>   31.2898    0.0000 </r>
       <r>   31.9541    0.0000 </r>
       <r>   32.2477    0.0000 </r>
       <r>   33.0748    0.0000 </r>
       <r>   35.1281    0.0000 </r>
       <r>   36.2775    0.0000 </r>
       <r>   36.6319    0.0000 </r>
       <r>   36.8786    0.0000 </r>
       <r>   37.9281    0.0000 </r>
      </set>
      <set comment="kpoint 15">
       <r>    3.9082    1.0000 </r>
       <r>    3.9690    1.0000 </r>
       <r>    4.0868    1.0000 </r>
       <r>    4.0868    1.0000 </r>
       <r>    4.1972    1.0000 </r>
       <r>    4.2060    1.0000 </r>
       <r>    4.2060    1.0000 </r>
       <r>    4.4190    1.0000 </r>
       <r>    4.5439    1.0000 </r>
       <r>    4.5439    1.0000 </r>
       <r>    4.6151    1.0000 </r>
       <r>    4.7764    1.0000 </r>
       <r>    5.4124    1.0000 </r>
       <r>    5.5362    1.0000 </r>
       <r>    5.5949    1.0000 </r>
       <r>    5.5949    1.0000 </r>
       <r>    5.7040    1.0000 </r>
       <r>    5.9773    1.0000 </r>
       <r>    5.9773    1.0000 </r>
       <r>    6.1278    1.0000 </r>
       <r>    8.3862    1.0000 </r>
       <r>    9.4619    1.0000 </r>
       <r>    9.4619    1.0000 </r>
       <r>   10.6075   -0.0000 </r>
       <r>   18.6058    0.0000 </r>
       <r>   19.1191    0.0000 </r>
       <r>   19.9300    0.0000 </r>
       <r>   19.9300    0.0000 </r>
       <r>   19.9428    0.0000 </r>
       <r>   19.9428    0.0000 </r>
       <r>   20.8916    0.0000 </r>
       <r>   21.2009    0.0000 </r>
       <r>   26.6411    0.0000 </r>
       <r>   26.6411    0.0000 </r>
       <r>   27.4566    0.0000 </r>
       <r>   27.5432    0.0000 </r>
       <r>   28.1558    0.0000 </r>
       <r>   29.9442    0.0000 </r>
       <r>   29.9442    0.0000 </r>
       <r>   30.3447    0.0000 </r>
       <r>   32.3860    0.0000 </r>
       <r>   33.0504    0.0000 </r>
       <r>   33.0504    0.0000 </r>
       <r>   34.6859    0.0000 </r>
       <r>   36.5698    0.0000 </r>
       <r>   36.8349    0.0000 </r>
       <r>   37.1757    0.0000 </r>
       <r>   37.1757    0.0000 </r>
      </set>
      <set comment="kpoint 16">
       <r>    1.7638    1.0000 </r>
       <r>    2.9334    1.0000 </r>
       <r>    2.9334    1.0000 </r>
       <r>    2.9334    1.0000 </r>
       <r>    3.1209    1.0000 </r>
       <r>    3.1209    1.0000 </r>
       <r>    3.1209    1.0000 </r>
       <r>    4.5908    1.0000 </r>
       <r>    4.7988    1.0000 </r>
       <r>    4.7988    1.0000 </r>
       <r>    5.8769    1.0000 </r>
       <r>    5.8769    1.0000 </r>
       <r>    6.4985    1.0000 </r>
       <r>    6.4985    1.0000 </r>
       <r>    6.4985    1.0000 </r>
       <r>    6.5728    1.0000 </r>
       <r>    6.5728    1.0000 </r>
       <r>    6.5728    1.0000 </r>
       <r>    7.0119    1.0000 </r>
       <r>    7.0119    1.0000 </r>
       <r>    7.0119    1.0000 </r>
       <r>   11.3503   -0.0000 </r>
       <r>   11.3503   -0.0000 </r>
       <r>   11.3503   -0.0000 </r>
       <r>   18.4380    0.0000 </r>
       <r>   18.4380    0.0000 </r>
       <r>   18.4380    0.0000 </r>
       <r>   19.6326    0.0000 </r>
       <r>   19.6326    0.0000 </r>
       <r>   19.6326    0.0000 </r>
       <r>   21.7927    0.0000 </r>
       <r>   21.7927    0.0000 </r>
       <r>   21.7927    0.0000 </r>
       <r>   26.1136    0.0000 </r>
       <r>   27.8595    0.0000 </r>
       <r>   28.1550    0.0000 </r>
       <r>   28.1550    0.0000 </r>
       <r>   28.1550    0.0000 </r>
       <r>   30.4334    0.0000 </r>
       <r>   30.4334    0.0000 </r>
       <r>   30.4334    0.0000 </r>
       <r>   30.5242    0.0000 </r>
       <r>   30.5242    0.0000 </r>
       <r>   34.8728    0.0000 </r>
       <r>   36.4347    0.0000 </r>
       <r>   36.4347    0.0000 </r>
       <r>   38.8039    0.0000 </r>
       <r>   39.8387    0.0000 </r>
      </set>
      <set comment="kpoint 17">
       <r>    2.1409    1.0000 </r>
       <r>    3.0907    1.0000 </r>
       <r>    3.1049    1.0000 </r>
       <r>    3.1049    1.0000 </r>
       <r>    3.2644    1.0000 </r>
       <r>    3.3638    1.0000 </r>
       <r>    3.3638    1.0000 </r>
       <r>    4.4756    1.0000 </r>
       <r>    4.9138    1.0000 </r>
       <r>    4.9166    1.0000 </r>
       <r>    5.7479    1.0000 </r>
       <r>    5.9034    1.0000 </r>
       <r>    5.9034    1.0000 </r>
       <r>    5.9873    1.0000 </r>
       <r>    6.1831    1.0000 </r>
       <r>    6.3387    1.0000 </r>
       <r>    6.4019    1.0000 </r>
       <r>    6.4019    1.0000 </r>
       <r>    6.9240    1.0000 </r>
       <r>    6.9736    1.0000 </r>
       <r>    6.9736    1.0000 </r>
       <r>    9.7817    0.9229 </r>
       <r>   12.1952   -0.0000 </r>
       <r>   12.1952   -0.0000 </r>
       <r>   18.0078    0.0000 </r>
       <r>   18.0078    0.0000 </r>
       <r>   18.8161    0.0000 </r>
       <r>   18.8161    0.0000 </r>
       <r>   20.0901    0.0000 </r>
       <r>   20.7602    0.0000 </r>
       <r>   21.7833    0.0000 </r>
       <r>   21.7833    0.0000 </r>
       <r>   22.4975    0.0000 </r>
       <r>   25.5919    0.0000 </r>
       <r>   27.1987    0.0000 </r>
       <r>   28.0356    0.0000 </r>
       <r>   28.5940    0.0000 </r>
       <r>   28.5940    0.0000 </r>
       <r>   29.6777    0.0000 </r>
       <r>   30.4911    0.0000 </r>
       <r>   30.9721    0.0000 </r>
       <r>   32.3458    0.0000 </r>
       <r>   32.3458    0.0000 </r>
       <r>   34.1152    0.0000 </r>
       <r>   35.8398    0.0000 </r>
       <r>   36.6764    0.0000 </r>
       <r>   38.6060    0.0000 </r>
       <r>   38.6060    0.0000 </r>
      </set>
      <set comment="kpoint 18">
       <r>    2.6975    1.0000 </r>
       <r>    3.2906    1.0000 </r>
       <r>    3.3826    1.0000 </r>
       <r>    3.3826    1.0000 </r>
       <r>    3.4958    1.0000 </r>
       <r>    3.7006    1.0000 </r>
       <r>    3.7006    1.0000 </r>
       <r>    4.2627    1.0000 </r>
       <r>    5.0409    1.0000 </r>
       <r>    5.1110    1.0000 </r>
       <r>    5.2300    1.0000 </r>
       <r>    5.2300    1.0000 </r>
       <r>    5.7317    1.0000 </r>
       <r>    5.7325    1.0000 </r>
       <r>    6.0250    1.0000 </r>
       <r>    6.1427    1.0000 </r>
       <r>    6.1427    1.0000 </r>
       <r>    6.1555    1.0000 </r>
       <r>    6.7718    1.0000 </r>
       <r>    6.9411    1.0000 </r>
       <r>    6.9411    1.0000 </r>
       <r>    8.2407    1.0000 </r>
       <r>   13.2665    0.0000 </r>
       <r>   13.2665    0.0000 </r>
       <r>   16.8128    0.0000 </r>
       <r>   16.8128    0.0000 </r>
       <r>   18.9783    0.0000 </r>
       <r>   18.9783    0.0000 </r>
       <r>   21.1156    0.0000 </r>
       <r>   21.1156    0.0000 </r>
       <r>   21.1230    0.0000 </r>
       <r>   23.1301    0.0000 </r>
       <r>   23.5994    0.0000 </r>
       <r>   24.5873    0.0000 </r>
       <r>   27.0233    0.0000 </r>
       <r>   27.9184    0.0000 </r>
       <r>   28.2663    0.0000 </r>
       <r>   29.9063    0.0000 </r>
       <r>   29.9063    0.0000 </r>
       <r>   30.1863    0.0000 </r>
       <r>   30.7170    0.0000 </r>
       <r>   33.7098    0.0000 </r>
       <r>   34.3543    0.0000 </r>
       <r>   34.3543    0.0000 </r>
       <r>   36.0278    0.0000 </r>
       <r>   36.3073    0.0000 </r>
       <r>   36.8789    0.0000 </r>
       <r>   36.8789    0.0000 </r>
      </set>
      <set comment="kpoint 19">
       <r>    3.2429    1.0000 </r>
       <r>    3.4297    1.0000 </r>
       <r>    3.6731    1.0000 </r>
       <r>    3.6731    1.0000 </r>
       <r>    3.7592    1.0000 </r>
       <r>    4.0113    1.0000 </r>
       <r>    4.0467    1.0000 </r>
       <r>    4.0467    1.0000 </r>
       <r>    4.6427    1.0000 </r>
       <r>    4.6427    1.0000 </r>
       <r>    5.0420    1.0000 </r>
       <r>    5.2663    1.0000 </r>
       <r>    5.3739    1.0000 </r>
       <r>    5.6885    1.0000 </r>
       <r>    5.9107    1.0000 </r>
       <r>    5.9107    1.0000 </r>
       <r>    6.1459    1.0000 </r>
       <r>    6.3598    1.0000 </r>
       <r>    6.5746    1.0000 </r>
       <r>    6.9271    1.0000 </r>
       <r>    6.9271    1.0000 </r>
       <r>    6.9926    1.0000 </r>
       <r>   14.3988    0.0000 </r>
       <r>   14.3988    0.0000 </r>
       <r>   15.6361    0.0000 </r>
       <r>   15.6361    0.0000 </r>
       <r>   19.3475    0.0000 </r>
       <r>   19.3475    0.0000 </r>
       <r>   20.3773    0.0000 </r>
       <r>   20.3773    0.0000 </r>
       <r>   22.2581    0.0000 </r>
       <r>   23.4385    0.0000 </r>
       <r>   25.0102    0.0000 </r>
       <r>   25.4492    0.0000 </r>
       <r>   26.6195    0.0000 </r>
       <r>   26.7781    0.0000 </r>
       <r>   27.9683    0.0000 </r>
       <r>   28.7754    0.0000 </r>
       <r>   31.3040    0.0000 </r>
       <r>   31.4468    0.0000 </r>
       <r>   31.4468    0.0000 </r>
       <r>   32.4590    0.0000 </r>
       <r>   34.2073    0.0000 </r>
       <r>   34.2073    0.0000 </r>
       <r>   36.6654    0.0000 </r>
       <r>   36.8280    0.0000 </r>
       <r>   37.4710    0.0000 </r>
       <r>   37.4710    0.0000 </r>
      </set>
      <set comment="kpoint 20">
       <r>    2.4642    1.0000 </r>
       <r>    3.1993    1.0000 </r>
       <r>    3.2394    1.0000 </r>
       <r>    3.2394    1.0000 </r>
       <r>    3.5176    1.0000 </r>
       <r>    3.5176    1.0000 </r>
       <r>    3.6309    1.0000 </r>
       <r>    4.4840    1.0000 </r>
       <r>    4.9505    1.0000 </r>
       <r>    4.9593    1.0000 </r>
       <r>    5.5924    1.0000 </r>
       <r>    5.5924    1.0000 </r>
       <r>    5.6265    1.0000 </r>
       <r>    5.7463    1.0000 </r>
       <r>    6.0657    1.0000 </r>
       <r>    6.1399    1.0000 </r>
       <r>    6.2130    1.0000 </r>
       <r>    6.2130    1.0000 </r>
       <r>    6.8906    1.0000 </r>
       <r>    6.8959    1.0000 </r>
       <r>    6.8959    1.0000 </r>
       <r>   10.5480   -0.0000 </r>
       <r>   10.5480   -0.0000 </r>
       <r>   12.8949    0.0000 </r>
       <r>   16.4853    0.0000 </r>
       <r>   18.6973    0.0000 </r>
       <r>   18.6973    0.0000 </r>
       <r>   18.8887    0.0000 </r>
       <r>   20.9043    0.0000 </r>
       <r>   20.9043    0.0000 </r>
       <r>   22.3774    0.0000 </r>
       <r>   22.3774    0.0000 </r>
       <r>   23.1426    0.0000 </r>
       <r>   24.3657    0.0000 </r>
       <r>   26.8419    0.0000 </r>
       <r>   27.7569    0.0000 </r>
       <r>   28.5167    0.0000 </r>
       <r>   28.5167    0.0000 </r>
       <r>   29.7680    0.0000 </r>
       <r>   31.9529    0.0000 </r>
       <r>   32.4171    0.0000 </r>
       <r>   32.4171    0.0000 </r>
       <r>   32.8316    0.0000 </r>
       <r>   34.4014    0.0000 </r>
       <r>   35.2842    0.0000 </r>
       <r>   36.3786    0.0000 </r>
       <r>   38.2154    0.0000 </r>
       <r>   38.2175    0.0000 </r>
      </set>
      <set comment="kpoint 21">
       <r>    2.9212    1.0000 </r>
       <r>    3.3966    1.0000 </r>
       <r>    3.4105    1.0000 </r>
       <r>    3.5013    1.0000 </r>
       <r>    3.7740    1.0000 </r>
       <r>    3.8367    1.0000 </r>
       <r>    3.9380    1.0000 </r>
       <r>    4.3941    1.0000 </r>
       <r>    4.9768    1.0000 </r>
       <r>    4.9969    1.0000 </r>
       <r>    5.0827    1.0000 </r>
       <r>    5.1560    1.0000 </r>
       <r>    5.2145    1.0000 </r>
       <r>    5.7816    1.0000 </r>
       <r>    5.9084    1.0000 </r>
       <r>    5.9257    1.0000 </r>
       <r>    6.0359    1.0000 </r>
       <r>    6.3386    1.0000 </r>
       <r>    6.7496    1.0000 </r>
       <r>    6.7990    1.0000 </r>
       <r>    6.8068    1.0000 </r>
       <r>    8.9582    1.0000 </r>
       <r>   11.5053   -0.0000 </r>
       <r>   13.7752    0.0000 </r>
       <r>   15.1322    0.0000 </r>
       <r>   17.3714    0.0000 </r>
       <r>   19.2120    0.0000 </r>
       <r>   19.5999    0.0000 </r>
       <r>   21.1758    0.0000 </r>
       <r>   21.6375    0.0000 </r>
       <r>   23.0893    0.0000 </r>
       <r>   23.2784    0.0000 </r>
       <r>   23.2971    0.0000 </r>
       <r>   23.3485    0.0000 </r>
       <r>   26.2810    0.0000 </r>
       <r>   28.3399    0.0000 </r>
       <r>   28.5090    0.0000 </r>
       <r>   29.0323    0.0000 </r>
       <r>   29.8079    0.0000 </r>
       <r>   31.1123    0.0000 </r>
       <r>   32.6484    0.0000 </r>
       <r>   33.4160    0.0000 </r>
       <r>   33.9769    0.0000 </r>
       <r>   34.6725    0.0000 </r>
       <r>   36.2478    0.0000 </r>
       <r>   37.0121    0.0000 </r>
       <r>   37.0246    0.0000 </r>
       <r>   37.3010    0.0000 </r>
      </set>
      <set comment="kpoint 22">
       <r>    3.3429    1.0000 </r>
       <r>    3.4903    1.0000 </r>
       <r>    3.7165    1.0000 </r>
       <r>    3.8319    1.0000 </r>
       <r>    3.9919    1.0000 </r>
       <r>    4.0650    1.0000 </r>
       <r>    4.0816    1.0000 </r>
       <r>    4.2597    1.0000 </r>
       <r>    4.6450    1.0000 </r>
       <r>    4.7520    1.0000 </r>
       <r>    4.8476    1.0000 </r>
       <r>    4.8898    1.0000 </r>
       <r>    5.2934    1.0000 </r>
       <r>    5.5791    1.0000 </r>
       <r>    5.7677    1.0000 </r>
       <r>    5.8224    1.0000 </r>
       <r>    6.1278    1.0000 </r>
       <r>    6.5032    1.0000 </r>
       <r>    6.7477    1.0000 </r>
       <r>    6.7505    1.0000 </r>
       <r>    6.7976    1.0000 </r>
       <r>    7.6580    1.0000 </r>
       <r>   12.5456   -0.0000 </r>
       <r>   13.6165    0.0000 </r>
       <r>   15.1008    0.0000 </r>
       <r>   16.1695    0.0000 </r>
       <r>   19.7612    0.0000 </r>
       <r>   20.5367    0.0000 </r>
       <r>   20.6777    0.0000 </r>
       <r>   21.8544    0.0000 </r>
       <r>   21.8997    0.0000 </r>
       <r>   22.6241    0.0000 </r>
       <r>   24.3863    0.0000 </r>
       <r>   25.4562    0.0000 </r>
       <r>   25.7309    0.0000 </r>
       <r>   27.6961    0.0000 </r>
       <r>   28.7738    0.0000 </r>
       <r>   29.6453    0.0000 </r>
       <r>   29.8666    0.0000 </r>
       <r>   30.8005    0.0000 </r>
       <r>   33.1212    0.0000 </r>
       <r>   33.7451    0.0000 </r>
       <r>   33.7471    0.0000 </r>
       <r>   34.7618    0.0000 </r>
       <r>   35.1313    0.0000 </r>
       <r>   36.3724    0.0000 </r>
       <r>   37.1431    0.0000 </r>
       <r>   38.0174    0.0000 </r>
      </set>
      <set comment="kpoint 23">
       <r>    3.2068    1.0000 </r>
       <r>    3.5237    1.0000 </r>
       <r>    3.5976    1.0000 </r>
       <r>    3.5976    1.0000 </r>
       <r>    4.0989    1.0000 </r>
       <r>    4.0989    1.0000 </r>
       <r>    4.1802    1.0000 </r>
       <r>    4.5073    1.0000 </r>
       <r>    4.7526    1.0000 </r>
       <r>    4.7526    1.0000 </r>
       <r>    4.9746    1.0000 </r>
       <r>    5.0062    1.0000 </r>
       <r>    5.0999    1.0000 </r>
       <r>    5.6940    1.0000 </r>
       <r>    5.7306    1.0000 </r>
       <r>    5.7953    1.0000 </r>
       <r>    5.7953    1.0000 </r>
       <r>    6.6137    1.0000 </r>
       <r>    6.6137    1.0000 </r>
       <r>    6.6369    1.0000 </r>
       <r>    6.8029    1.0000 </r>
       <r>    9.8585    0.3654 </r>
       <r>    9.8585    0.3654 </r>
       <r>   13.2732    0.0000 </r>
       <r>   14.9309    0.0000 </r>
       <r>   18.2070    0.0000 </r>
       <r>   18.2070    0.0000 </r>
       <r>   19.6337    0.0000 </r>
       <r>   21.6914    0.0000 </r>
       <r>   22.2716    0.0000 </r>
       <r>   22.2716    0.0000 </r>
       <r>   23.7095    0.0000 </r>
       <r>   23.7095    0.0000 </r>
       <r>   25.1451    0.0000 </r>
       <r>   25.2582    0.0000 </r>
       <r>   27.3544    0.0000 </r>
       <r>   29.0674    0.0000 </r>
       <r>   29.7733    0.0000 </r>
       <r>   29.7733    0.0000 </r>
       <r>   31.6393    0.0000 </r>
       <r>   32.9082    0.0000 </r>
       <r>   33.6578    0.0000 </r>
       <r>   33.6578    0.0000 </r>
       <r>   34.1046    0.0000 </r>
       <r>   36.9930    0.0000 </r>
       <r>   36.9930    0.0000 </r>
       <r>   37.1440    0.0000 </r>
       <r>   37.3117    0.0000 </r>
      </set>
      <set comment="kpoint 24">
       <r>    3.4580    1.0000 </r>
       <r>    3.5975    1.0000 </r>
       <r>    3.7130    1.0000 </r>
       <r>    3.8079    1.0000 </r>
       <r>    4.1510    1.0000 </r>
       <r>    4.2179    1.0000 </r>
       <r>    4.4485    1.0000 </r>
       <r>    4.5336    1.0000 </r>
       <r>    4.5896    1.0000 </r>
       <r>    4.7122    1.0000 </r>
       <r>    4.7994    1.0000 </r>
       <r>    4.8811    1.0000 </r>
       <r>    5.2400    1.0000 </r>
       <r>    5.4987    1.0000 </r>
       <r>    5.5560    1.0000 </r>
       <r>    5.6316    1.0000 </r>
       <r>    5.9583    1.0000 </r>
       <r>    6.3254    1.0000 </r>
       <r>    6.5108    1.0000 </r>
       <r>    6.5200    1.0000 </r>
       <r>    7.4898    1.0000 </r>
       <r>    8.4957    1.0000 </r>
       <r>   10.8695   -0.0000 </r>
       <r>   12.0060   -0.0000 </r>
       <r>   15.8676    0.0000 </r>
       <r>   16.9695    0.0000 </r>
       <r>   19.2381    0.0000 </r>
       <r>   20.2933    0.0000 </r>
       <r>   20.4075    0.0000 </r>
       <r>   21.1962    0.0000 </r>
       <r>   23.1986    0.0000 </r>
       <r>   24.2174    0.0000 </r>
       <r>   24.3013    0.0000 </r>
       <r>   25.0616    0.0000 </r>
       <r>   26.0608    0.0000 </r>
       <r>   27.9810    0.0000 </r>
       <r>   28.4868    0.0000 </r>
       <r>   30.0196    0.0000 </r>
       <r>   30.0388    0.0000 </r>
       <r>   30.8342    0.0000 </r>
       <r>   32.8903    0.0000 </r>
       <r>   33.3512    0.0000 </r>
       <r>   33.6151    0.0000 </r>
       <r>   35.1167    0.0000 </r>
       <r>   35.2256    0.0000 </r>
       <r>   36.4845    0.0000 </r>
       <r>   37.8469    0.0000 </r>
       <r>   37.9874    0.0000 </r>
      </set>
      <set comment="kpoint 25">
       <r>    3.5692    1.0000 </r>
       <r>    3.6847    1.0000 </r>
       <r>    3.6847    1.0000 </r>
       <r>    3.7077    1.0000 </r>
       <r>    4.3226    1.0000 </r>
       <r>    4.3849    1.0000 </r>
       <r>    4.3849    1.0000 </r>
       <r>    4.5205    1.0000 </r>
       <r>    4.8648    1.0000 </r>
       <r>    4.8648    1.0000 </r>
       <r>    5.0019    1.0000 </r>
       <r>    5.0046    1.0000 </r>
       <r>    5.1893    1.0000 </r>
       <r>    5.3624    1.0000 </r>
       <r>    5.3861    1.0000 </r>
       <r>    5.3861    1.0000 </r>
       <r>    5.9585    1.0000 </r>
       <r>    6.2163    1.0000 </r>
       <r>    6.2163    1.0000 </r>
       <r>    6.3021    1.0000 </r>
       <r>    8.3554    1.0000 </r>
       <r>    9.4665    1.0000 </r>
       <r>    9.4665    1.0000 </r>
       <r>   10.6196   -0.0000 </r>
       <r>   16.8410    0.0000 </r>
       <r>   17.9632    0.0000 </r>
       <r>   17.9632    0.0000 </r>
       <r>   19.1117    0.0000 </r>
       <r>   21.0552    0.0000 </r>
       <r>   22.0419    0.0000 </r>
       <r>   22.0419    0.0000 </r>
       <r>   23.0638    0.0000 </r>
       <r>   26.5796    0.0000 </r>
       <r>   26.5796    0.0000 </r>
       <r>   27.2868    0.0000 </r>
       <r>   27.5844    0.0000 </r>
       <r>   27.8630    0.0000 </r>
       <r>   29.6005    0.0000 </r>
       <r>   29.6005    0.0000 </r>
       <r>   30.2693    0.0000 </r>
       <r>   32.8467    0.0000 </r>
       <r>   33.4763    0.0000 </r>
       <r>   33.4763    0.0000 </r>
       <r>   34.8446    0.0000 </r>
       <r>   35.6968    0.0000 </r>
       <r>   36.4995    0.0000 </r>
       <r>   36.6798    0.0000 </r>
       <r>   36.6798    0.0000 </r>
      </set>
      <set comment="kpoint 26">
       <r>    2.6772    1.0000 </r>
       <r>    3.2863    1.0000 </r>
       <r>    3.2863    1.0000 </r>
       <r>    3.2863    1.0000 </r>
       <r>    3.7940    1.0000 </r>
       <r>    3.7940    1.0000 </r>
       <r>    3.7940    1.0000 </r>
       <r>    4.6896    1.0000 </r>
       <r>    4.9292    1.0000 </r>
       <r>    4.9292    1.0000 </r>
       <r>    5.4004    1.0000 </r>
       <r>    5.4004    1.0000 </r>
       <r>    5.4004    1.0000 </r>
       <r>    5.8609    1.0000 </r>
       <r>    5.8609    1.0000 </r>
       <r>    5.8609    1.0000 </r>
       <r>    5.9696    1.0000 </r>
       <r>    5.9696    1.0000 </r>
       <r>    6.9413    1.0000 </r>
       <r>    6.9413    1.0000 </r>
       <r>    6.9413    1.0000 </r>
       <r>   11.1270   -0.0000 </r>
       <r>   11.1270   -0.0000 </r>
       <r>   11.1270   -0.0000 </r>
       <r>   17.0641    0.0000 </r>
       <r>   17.0641    0.0000 </r>
       <r>   17.0641    0.0000 </r>
       <r>   21.1172    0.0000 </r>
       <r>   21.1172    0.0000 </r>
       <r>   21.1172    0.0000 </r>
       <r>   22.8882    0.0000 </r>
       <r>   23.7285    0.0000 </r>
       <r>   23.7285    0.0000 </r>
       <r>   23.7285    0.0000 </r>
       <r>   26.9858    0.0000 </r>
       <r>   27.6065    0.0000 </r>
       <r>   27.6065    0.0000 </r>
       <r>   27.6065    0.0000 </r>
       <r>   30.8939    0.0000 </r>
       <r>   30.8939    0.0000 </r>
       <r>   33.6860    0.0000 </r>
       <r>   34.5227    0.0000 </r>
       <r>   34.5227    0.0000 </r>
       <r>   34.5227    0.0000 </r>
       <r>   34.6111    0.0000 </r>
       <r>   34.6111    0.0000 </r>
       <r>   38.0679    0.0000 </r>
       <r>   38.0679    0.0000 </r>
      </set>
      <set comment="kpoint 27">
       <r>    2.9564    1.0000 </r>
       <r>    3.3603    1.0000 </r>
       <r>    3.4394    1.0000 </r>
       <r>    3.4394    1.0000 </r>
       <r>    4.0549    1.0000 </r>
       <r>    4.0549    1.0000 </r>
       <r>    4.0708    1.0000 </r>
       <r>    4.7762    1.0000 </r>
       <r>    4.9601    1.0000 </r>
       <r>    4.9682    1.0000 </r>
       <r>    5.0731    1.0000 </r>
       <r>    5.0731    1.0000 </r>
       <r>    5.1188    1.0000 </r>
       <r>    5.5592    1.0000 </r>
       <r>    5.6857    1.0000 </r>
       <r>    5.6857    1.0000 </r>
       <r>    6.0861    1.0000 </r>
       <r>    6.2458    1.0000 </r>
       <r>    6.8639    1.0000 </r>
       <r>    6.8639    1.0000 </r>
       <r>    6.8973    1.0000 </r>
       <r>    9.4207    1.0000 </r>
       <r>   11.8958   -0.0000 </r>
       <r>   11.8958   -0.0000 </r>
       <r>   15.6677    0.0000 </r>
       <r>   15.6677    0.0000 </r>
       <r>   17.9322    0.0000 </r>
       <r>   21.4926    0.0000 </r>
       <r>   21.5057    0.0000 </r>
       <r>   21.5057    0.0000 </r>
       <r>   23.5036    0.0000 </r>
       <r>   23.7204    0.0000 </r>
       <r>   23.7204    0.0000 </r>
       <r>   24.6799    0.0000 </r>
       <r>   26.7189    0.0000 </r>
       <r>   27.5267    0.0000 </r>
       <r>   28.1942    0.0000 </r>
       <r>   28.1942    0.0000 </r>
       <r>   29.2235    0.0000 </r>
       <r>   31.8607    0.0000 </r>
       <r>   32.6242    0.0000 </r>
       <r>   34.8101    0.0000 </r>
       <r>   34.9000    0.0000 </r>
       <r>   35.3562    0.0000 </r>
       <r>   35.7836    0.0000 </r>
       <r>   35.7836    0.0000 </r>
       <r>   37.3836    0.0000 </r>
       <r>   37.5496    0.0000 </r>
      </set>
      <set comment="kpoint 28">
       <r>    3.2102    1.0000 </r>
       <r>    3.3524    1.0000 </r>
       <r>    3.6501    1.0000 </r>
       <r>    3.6501    1.0000 </r>
       <r>    4.0729    1.0000 </r>
       <r>    4.0729    1.0000 </r>
       <r>    4.4236    1.0000 </r>
       <r>    4.7635    1.0000 </r>
       <r>    4.7891    1.0000 </r>
       <r>    4.8867    1.0000 </r>
       <r>    4.9717    1.0000 </r>
       <r>    4.9717    1.0000 </r>
       <r>    5.0891    1.0000 </r>
       <r>    5.2914    1.0000 </r>
       <r>    5.5505    1.0000 </r>
       <r>    5.5505    1.0000 </r>
       <r>    6.5203    1.0000 </r>
       <r>    6.7497    1.0000 </r>
       <r>    6.7786    1.0000 </r>
       <r>    6.7786    1.0000 </r>
       <r>    6.7841    1.0000 </r>
       <r>    7.9430    1.0000 </r>
       <r>   12.6307    0.0000 </r>
       <r>   12.6307    0.0000 </r>
       <r>   14.6445    0.0000 </r>
       <r>   14.6445    0.0000 </r>
       <r>   18.9981    0.0000 </r>
       <r>   20.1949    0.0000 </r>
       <r>   22.1028    0.0000 </r>
       <r>   22.1028    0.0000 </r>
       <r>   22.9195    0.0000 </r>
       <r>   22.9195    0.0000 </r>
       <r>   25.5060    0.0000 </r>
       <r>   25.9577    0.0000 </r>
       <r>   26.3614    0.0000 </r>
       <r>   27.5039    0.0000 </r>
       <r>   27.9745    0.0000 </r>
       <r>   29.3967    0.0000 </r>
       <r>   29.3967    0.0000 </r>
       <r>   29.6814    0.0000 </r>
       <r>   34.2442    0.0000 </r>
       <r>   34.5345    0.0000 </r>
       <r>   34.5345    0.0000 </r>
       <r>   35.1348    0.0000 </r>
       <r>   35.6166    0.0000 </r>
       <r>   36.1039    0.0000 </r>
       <r>   36.5058    0.0000 </r>
       <r>   36.5659    0.0000 </r>
      </set>
      <set comment="kpoint 29">
       <r>    3.0363    1.0000 </r>
       <r>    3.4020    1.0000 </r>
       <r>    3.4020    1.0000 </r>
       <r>    3.4396    1.0000 </r>
       <r>    4.2126    1.0000 </r>
       <r>    4.2731    1.0000 </r>
       <r>    4.2731    1.0000 </r>
       <r>    4.8344    1.0000 </r>
       <r>    4.9093    1.0000 </r>
       <r>    5.0275    1.0000 </r>
       <r>    5.0275    1.0000 </r>
       <r>    5.1839    1.0000 </r>
       <r>    5.3237    1.0000 </r>
       <r>    5.4088    1.0000 </r>
       <r>    5.4235    1.0000 </r>
       <r>    5.4235    1.0000 </r>
       <r>    6.0768    1.0000 </r>
       <r>    6.6325    1.0000 </r>
       <r>    6.8078    1.0000 </r>
       <r>    6.8422    1.0000 </r>
       <r>    6.8422    1.0000 </r>
       <r>   10.1217   -0.0003 </r>
       <r>   10.1217   -0.0003 </r>
       <r>   12.2264   -0.0000 </r>
       <r>   14.4933    0.0000 </r>
       <r>   16.4871    0.0000 </r>
       <r>   16.4871    0.0000 </r>
       <r>   20.0271    0.0000 </r>
       <r>   21.9257    0.0000 </r>
       <r>   23.8225    0.0000 </r>
       <r>   23.8225    0.0000 </r>
       <r>   24.4479    0.0000 </r>
       <r>   24.4479    0.0000 </r>
       <r>   25.5466    0.0000 </r>
       <r>   26.2604    0.0000 </r>
       <r>   27.1289    0.0000 </r>
       <r>   28.1861    0.0000 </r>
       <r>   28.1861    0.0000 </r>
       <r>   29.0522    0.0000 </r>
       <r>   31.8056    0.0000 </r>
       <r>   33.1530    0.0000 </r>
       <r>   33.5281    0.0000 </r>
       <r>   35.3374    0.0000 </r>
       <r>   35.3374    0.0000 </r>
       <r>   36.2263    0.0000 </r>
       <r>   36.7606    0.0000 </r>
       <r>   36.7863    0.0000 </r>
       <r>   37.7006    0.0000 </r>
      </set>
      <set comment="kpoint 30">
       <r>    3.1568    1.0000 </r>
       <r>    3.2931    1.0000 </r>
       <r>    3.4639    1.0000 </r>
       <r>    3.4710    1.0000 </r>
       <r>    4.2398    1.0000 </r>
       <r>    4.2553    1.0000 </r>
       <r>    4.5273    1.0000 </r>
       <r>    4.7214    1.0000 </r>
       <r>    4.9581    1.0000 </r>
       <r>    5.0394    1.0000 </r>
       <r>    5.1518    1.0000 </r>
       <r>    5.2498    1.0000 </r>
       <r>    5.2722    1.0000 </r>
       <r>    5.3010    1.0000 </r>
       <r>    5.3466    1.0000 </r>
       <r>    5.3680    1.0000 </r>
       <r>    6.3797    1.0000 </r>
       <r>    6.6883    1.0000 </r>
       <r>    6.7152    1.0000 </r>
       <r>    6.7273    1.0000 </r>
       <r>    7.3846    1.0000 </r>
       <r>    8.5841    1.0000 </r>
       <r>   10.9662   -0.0000 </r>
       <r>   11.8316   -0.0000 </r>
       <r>   14.4671    0.0000 </r>
       <r>   15.2997    0.0000 </r>
       <r>   17.5149    0.0000 </r>
       <r>   18.7013    0.0000 </r>
       <r>   22.5627    0.0000 </r>
       <r>   23.4082    0.0000 </r>
       <r>   24.4738    0.0000 </r>
       <r>   24.9972    0.0000 </r>
       <r>   25.2461    0.0000 </r>
       <r>   25.6795    0.0000 </r>
       <r>   26.1987    0.0000 </r>
       <r>   27.8108    0.0000 </r>
       <r>   28.1874    0.0000 </r>
       <r>   28.7323    0.0000 </r>
       <r>   28.9626    0.0000 </r>
       <r>   30.2701    0.0000 </r>
       <r>   34.0649    0.0000 </r>
       <r>   34.3637    0.0000 </r>
       <r>   34.4012    0.0000 </r>
       <r>   34.8005    0.0000 </r>
       <r>   35.0357    0.0000 </r>
       <r>   36.1396    0.0000 </r>
       <r>   37.2864    0.0000 </r>
       <r>   37.4141    0.0000 </r>
      </set>
      <set comment="kpoint 31">
       <r>    3.1875    1.0000 </r>
       <r>    3.2949    1.0000 </r>
       <r>    3.2949    1.0000 </r>
       <r>    3.3525    1.0000 </r>
       <r>    4.3851    1.0000 </r>
       <r>    4.4713    1.0000 </r>
       <r>    4.4713    1.0000 </r>
       <r>    4.6374    1.0000 </r>
       <r>    4.9283    1.0000 </r>
       <r>    5.0312    1.0000 </r>
       <r>    5.0312    1.0000 </r>
       <r>    5.0838    1.0000 </r>
       <r>    5.5395    1.0000 </r>
       <r>    5.5395    1.0000 </r>
       <r>    5.5576    1.0000 </r>
       <r>    5.6852    1.0000 </r>
       <r>    6.3059    1.0000 </r>
       <r>    6.5443    1.0000 </r>
       <r>    6.5443    1.0000 </r>
       <r>    6.5753    1.0000 </r>
       <r>    8.2760    1.0000 </r>
       <r>    9.4751    1.0000 </r>
       <r>    9.4751    1.0000 </r>
       <r>   10.5831   -0.0000 </r>
       <r>   15.1997    0.0000 </r>
       <r>   16.2455    0.0000 </r>
       <r>   16.2455    0.0000 </r>
       <r>   17.3851    0.0000 </r>
       <r>   23.2177    0.0000 </r>
       <r>   24.0676    0.0000 </r>
       <r>   24.0676    0.0000 </r>
       <r>   24.8467    0.0000 </r>
       <r>   26.5097    0.0000 </r>
       <r>   26.5097    0.0000 </r>
       <r>   26.9609    0.0000 </r>
       <r>   27.5051    0.0000 </r>
       <r>   27.7206    0.0000 </r>
       <r>   29.0056    0.0000 </r>
       <r>   29.0056    0.0000 </r>
       <r>   30.0088    0.0000 </r>
       <r>   33.7757    0.0000 </r>
       <r>   34.1946    0.0000 </r>
       <r>   34.1946    0.0000 </r>
       <r>   34.7023    0.0000 </r>
       <r>   35.1266    0.0000 </r>
       <r>   35.7916    0.0000 </r>
       <r>   35.9387    0.0000 </r>
       <r>   35.9387    0.0000 </r>
      </set>
      <set comment="kpoint 32">
       <r>    2.9577    1.0000 </r>
       <r>    3.2722    1.0000 </r>
       <r>    3.2722    1.0000 </r>
       <r>    3.2722    1.0000 </r>
       <r>    4.3619    1.0000 </r>
       <r>    4.3619    1.0000 </r>
       <r>    4.3619    1.0000 </r>
       <r>    4.8123    1.0000 </r>
       <r>    4.8123    1.0000 </r>
       <r>    5.1369    1.0000 </r>
       <r>    5.1369    1.0000 </r>
       <r>    5.1369    1.0000 </r>
       <r>    5.4216    1.0000 </r>
       <r>    5.4216    1.0000 </r>
       <r>    5.4216    1.0000 </r>
       <r>    6.2107    1.0000 </r>
       <r>    6.4078    1.0000 </r>
       <r>    6.4078    1.0000 </r>
       <r>    6.8918    1.0000 </r>
       <r>    6.8918    1.0000 </r>
       <r>    6.8918    1.0000 </r>
       <r>   10.5079   -0.0000 </r>
       <r>   10.5079   -0.0000 </r>
       <r>   10.5079   -0.0000 </r>
       <r>   15.1148    0.0000 </r>
       <r>   15.1148    0.0000 </r>
       <r>   15.1148    0.0000 </r>
       <r>   18.5255    0.0000 </r>
       <r>   24.1197    0.0000 </r>
       <r>   24.1197    0.0000 </r>
       <r>   24.1197    0.0000 </r>
       <r>   26.1446    0.0000 </r>
       <r>   26.2354    0.0000 </r>
       <r>   26.2354    0.0000 </r>
       <r>   26.2354    0.0000 </r>
       <r>   27.0809    0.0000 </r>
       <r>   27.0809    0.0000 </r>
       <r>   27.0809    0.0000 </r>
       <r>   30.0624    0.0000 </r>
       <r>   30.0624    0.0000 </r>
       <r>   33.9521    0.0000 </r>
       <r>   33.9521    0.0000 </r>
       <r>   35.1764    0.0000 </r>
       <r>   36.0767    0.0000 </r>
[...]
       <r>   34.5751    0.0000 </r>
       <r>   34.8335    0.0000 </r>
       <r>   34.8335    0.0000 </r>
       <r>   35.3081    0.0000 </r>
       <r>   35.3625    0.0000 </r>
       <r>   36.4417    0.0000 </r>
       <r>   36.4523    0.0000 </r>
      </set>
      <set comment="kpoint 34">
       <r>    2.9415    1.0000 </r>
       <r>    3.0218    1.0000 </r>
       <r>    3.0218    1.0000 </r>
       <r>    3.0593    1.0000 </r>
       <r>    4.5034    1.0000 </r>
       <r>    4.5541    1.0000 </r>
       <r>    4.5541    1.0000 </r>
       <r>    4.6798    1.0000 </r>
       <r>    4.7493    1.0000 </r>
       <r>    4.8287    1.0000 </r>
       <r>    4.8287    1.0000 </r>
       <r>    4.8523    1.0000 </r>
       <r>    6.1093    1.0000 </r>
       <r>    6.1304    1.0000 </r>
       <r>    6.1304    1.0000 </r>
       <r>    6.4387    1.0000 </r>
       <r>    6.6037    1.0000 </r>
       <r>    6.7812    1.0000 </r>
       <r>    6.7857    1.0000 </r>
       <r>    6.7857    1.0000 </r>
       <r>    8.2404    1.0000 </r>
       <r>    9.4765    1.0000 </r>
       <r>    9.4765    1.0000 </r>
       <r>   10.2521   -0.0000 </r>
       <r>   14.2307    0.0000 </r>
       <r>   14.9218    0.0000 </r>
       <r>   14.9218    0.0000 </r>
       <r>   15.9317    0.0000 </r>
       <r>   24.8796    0.0000 </r>
       <r>   25.2296    0.0000 </r>
       <r>   25.2296    0.0000 </r>
       <r>   25.5269    0.0000 </r>
       <r>   27.0881    0.0000 </r>
       <r>   27.1341    0.0000 </r>
       <r>   27.1341    0.0000 </r>
       <r>   27.9823    0.0000 </r>
       <r>   28.1391    0.0000 </r>
       <r>   28.5524    0.0000 </r>
       <r>   28.5524    0.0000 </r>
       <r>   29.5338    0.0000 </r>
       <r>   34.1936    0.0000 </r>
       <r>   34.3532    0.0000 </r>
       <r>   34.5412    0.0000 </r>
       <r>   34.5412    0.0000 </r>
       <r>   35.0707    0.0000 </r>
       <r>   35.1244    0.0000 </r>
       <r>   35.2720    0.0000 </r>
       <r>   35.2720    0.0000 </r>
      </set>
      <set comment="kpoint 35">
       <r>    2.8399    1.0000 </r>
       <r>    2.8818    1.0000 </r>
       <r>    2.8818    1.0000 </r>
       <r>    2.8818    1.0000 </r>
       <r>    4.6119    1.0000 </r>
       <r>    4.6119    1.0000 </r>
       <r>    4.6119    1.0000 </r>
       <r>    4.6743    1.0000 </r>
       <r>    4.6743    1.0000 </r>
       <r>    4.7100    1.0000 </r>
       <r>    4.7100    1.0000 </r>
       <r>    4.7100    1.0000 </r>
       <r>    6.5797    1.0000 </r>
       <r>    6.5797    1.0000 </r>
       <r>    6.5797    1.0000 </r>
       <r>    6.8008    1.0000 </r>
       <r>    6.8008    1.0000 </r>
       <r>    6.8629    1.0000 </r>
       <r>    6.8629    1.0000 </r>
       <r>    6.8629    1.0000 </r>
       <r>    8.6080    1.0000 </r>
       <r>    9.4681    1.0000 </r>
       <r>    9.4681    1.0000 </r>
       <r>    9.4681    1.0000 </r>
       <r>   14.1760    0.0000 </r>
       <r>   14.1760    0.0000 </r>
       <r>   14.1760    0.0000 </r>
       <r>   14.8244    0.0000 </r>
       <r>   25.3253    0.0000 </r>
       <r>   25.3253    0.0000 </r>
       <r>   25.3253    0.0000 </r>
       <r>   25.4291    0.0000 </r>
       <r>   28.2774    0.0000 </r>
       <r>   28.2774    0.0000 </r>
       <r>   28.2774    0.0000 </r>
       <r>   28.3946    0.0000 </r>
       <r>   28.3946    0.0000 </r>
       <r>   28.3946    0.0000 </r>
       <r>   28.9426    0.0000 </r>
       <r>   28.9426    0.0000 </r>
       <r>   34.1695    0.0000 </r>
       <r>   34.1695    0.0000 </r>
       <r>   34.4990    0.0000 </r>
       <r>   34.4990    0.0000 </r>
       <r>   34.4990    0.0000 </r>
       <r>   34.5797    0.0000 </r>
       <r>   34.5797    0.0000 </r>
       <r>   34.5797    0.0000 </r>
      </set>
     </set>
    </set>
   </array>
  </eigenvalues>
  <separator name="orbital magnetization" >
   <v name="MAGDIPOLOUT">      0.00000000      0.00000000      0.00000000</v>
  </separator>
  <dos>
   <i name="efermi">      9.84231371 </i>
   <total>
    <array>
     <dimension dim="1">gridpoints</dimension>
     <dimension dim="2">spin</dimension>
     <field>energy</field>
     <field>total</field>
     <field>integrated</field>
     <set>
      <set comment="spin 1">
       <r>    -0.5999     0.0000     0.0000 </r>
       <r>    -0.4564     0.0000     0.0000 </r>
       <r>    -0.3130     0.0000     0.0000 </r>
       <r>    -0.1696     0.0000     0.0000 </r>
       <r>    -0.0261     0.0000     0.0000 </r>
       <r>     0.1173     0.0000     0.0000 </r>
       <r>     0.2607     0.0000     0.0000 </r>
       <r>     0.4042     0.0000     0.0000 </r>
       <r>     0.5476    -0.0000    -0.0000 </r>
       <r>     0.6910    -0.0000    -0.0000 </r>
       <r>     0.8345    -0.0000    -0.0000 </r>
       <r>     0.9779    -0.0000    -0.0000 </r>
       <r>     1.1214    -0.0000    -0.0000 </r>
       <r>     1.2648    -0.0005    -0.0001 </r>
       <r>     1.4082     0.0158     0.0022 </r>
       <r>     1.5517     0.1083     0.0177 </r>
       <r>     1.6951     0.2312     0.0509 </r>
       <r>     1.8385     0.1620     0.0741 </r>
       <r>     1.9820     0.1782     0.0997 </r>
       <r>     2.1254     0.5766     0.1824 </r>
       <r>     2.2688     0.2822     0.2228 </r>
       <r>     2.4123     0.2106     0.2531 </r>
       <r>     2.5557     0.6040     0.3397 </r>
       <r>     2.6991     0.7580     0.4484 </r>
       <r>     2.8426     0.8874     0.5757 </r>
       <r>     2.9860     4.5476     1.2280 </r>
       <r>     3.1294     6.6106     2.1762 </r>
       <r>     3.2729     8.7967     3.4379 </r>
       <r>     3.4163    13.0553     5.3105 </r>
       <r>     3.5597    11.3801     6.9428 </r>
       <r>     3.7032    10.2684     8.4156 </r>
       <r>     3.8466     8.6958     9.6629 </r>
       <r>     3.9900     4.9964    10.3796 </r>
       <r>     4.1335    10.2077    11.8437 </r>
       <r>     4.2769     8.8507    13.1132 </r>
       <r>     4.4203     6.8230    14.0919 </r>
       <r>     4.5638     9.5318    15.4590 </r>
       <r>     4.7072     9.5509    16.8290 </r>
       <r>     4.8506    11.0020    18.4070 </r>
       <r>     4.9941    15.1686    20.5827 </r>
       <r>     5.1375    12.4647    22.3706 </r>
       <r>     5.2809    10.1126    23.8211 </r>
       <r>     5.4244     8.7715    25.0792 </r>
       <r>     5.5678     8.0080    26.2278 </r>
       <r>     5.7113    10.0874    27.6747 </r>
       <r>     5.8547     9.6168    29.0541 </r>
       <r>     5.9981    11.8970    30.7605 </r>
       <r>     6.1416     8.9991    32.0513 </r>
       <r>     6.2850     8.5461    33.2771 </r>
       <r>     6.4284     9.3081    34.6122 </r>
       <r>     6.5719     8.0466    35.7664 </r>
       <r>     6.7153     9.2871    37.0985 </r>
       <r>     6.8587    17.3057    39.5807 </r>
       <r>     7.0022     9.8647    40.9956 </r>
       <r>     7.1456     3.4863    41.4957 </r>
       <r>     7.2890     0.0141    41.4977 </r>
       <r>     7.4325     1.0239    41.6446 </r>
       <r>     7.5759     1.9224    41.9203 </r>
       <r>     7.7193     1.2728    42.1029 </r>
       <r>     7.8628     0.0612    42.1117 </r>
       <r>     8.0062     0.8382    42.2319 </r>
       <r>     8.1496     0.0410    42.2378 </r>
       <r>     8.2931     1.1478    42.4024 </r>
       <r>     8.4365     1.0492    42.5529 </r>
       <r>     8.5799     1.7524    42.8042 </r>
       <r>     8.7234     0.6203    42.8932 </r>
       <r>     8.8668     0.5574    42.9732 </r>
       <r>     9.0102     1.1757    43.1418 </r>
       <r>     9.1537     0.1984    43.1703 </r>
       <r>     9.2971    -0.0996    43.1560 </r>
       <r>     9.4405     1.4996    43.3711 </r>
       <r>     9.5840     3.3183    43.8470 </r>
       <r>     9.7274    -0.0340    43.8422 </r>
       <r>     9.8708     1.3842    44.0407 </r>
       <r>    10.0143     0.3426    44.0898 </r>
       <r>    10.1577     0.7074    44.1913 </r>
       <r>    10.3012     0.7549    44.2996 </r>
       <r>    10.4446     0.3740    44.3532 </r>
       <r>    10.5880     1.6766    44.5937 </r>
       <r>    10.7315     0.9581    44.7312 </r>
       <r>    10.8749     1.5647    44.9556 </r>
       <r>    11.0183     1.8633    45.2228 </r>
       <r>    11.1618     0.6191    45.3116 </r>
       <r>    11.3052     0.2367    45.3456 </r>
       <r>    11.4486     0.9358    45.4798 </r>
       <r>    11.5921     0.8189    45.5973 </r>
       <r>    11.7355    -0.0377    45.5919 </r>
       <r>    11.8789     1.4019    45.7930 </r>
       <r>    12.0224     2.1550    46.1021 </r>
       <r>    12.1658     0.7757    46.2133 </r>
       <r>    12.3092     1.2299    46.3897 </r>
       <r>    12.4527     0.2277    46.4224 </r>
       <r>    12.5961     1.2297    46.5988 </r>
       <r>    12.7395     0.8584    46.7219 </r>
       <r>    12.8830     0.3609    46.7737 </r>
       <r>    13.0264     0.4255    46.8347 </r>
       <r>    13.1698     0.7056    46.9359 </r>
       <r>    13.3133     1.3465    47.1290 </r>
       <r>    13.4567     0.3214    47.1751 </r>
       <r>    13.6001     0.5700    47.2569 </r>
       <r>    13.7436     1.0902    47.4133 </r>
       <r>    13.8870     0.7003    47.5137 </r>
       <r>    14.0304     0.1756    47.5389 </r>
       <r>    14.1739     0.4800    47.6077 </r>
       <r>    14.3173     1.9174    47.8828 </r>
       <r>    14.4607     1.9771    48.1663 </r>
       <r>    14.6042     1.1295    48.3283 </r>
       <r>    14.7476     0.6864    48.4268 </r>
       <r>    14.8910     0.7878    48.5398 </r>
       <r>    15.0345     1.3283    48.7303 </r>
       <r>    15.1779     2.5645    49.0981 </r>
       <r>    15.3214     1.1709    49.2661 </r>
       <r>    15.4648     0.6585    49.3605 </r>
       <r>    15.6082     0.6312    49.4511 </r>
       <r>    15.7517     1.7255    49.6986 </r>
       <r>    15.8951     1.0142    49.8440 </r>
       <r>    16.0385     0.7607    49.9532 </r>
       <r>    16.1820     1.1073    50.1120 </r>
       <r>    16.3254     1.4357    50.3179 </r>
       <r>    16.4688     0.9277    50.4510 </r>
       <r>    16.6123     1.2618    50.6320 </r>
       <r>    16.7557     0.2586    50.6690 </r>
       <r>    16.8991     1.2735    50.8517 </r>
       <r>    17.0426     1.2448    51.0303 </r>
       <r>    17.1860     0.6954    51.1300 </r>
       <r>    17.3294     0.8276    51.2487 </r>
       <r>    17.4729     2.7902    51.6489 </r>
       <r>    17.6163     1.3930    51.8487 </r>
       <r>    17.7597     0.5705    51.9306 </r>
       <r>    17.9032     1.3821    52.1288 </r>
       <r>    18.0466     2.2882    52.4570 </r>
       <r>    18.1900     1.6002    52.6865 </r>
       <r>    18.3335     1.0552    52.8379 </r>
       <r>    18.4769     1.2844    53.0221 </r>
       <r>    18.6203     1.9212    53.2977 </r>
       <r>    18.7638     2.9258    53.7173 </r>
       <r>    18.9072     1.6100    53.9483 </r>
       <r>    19.0506     1.3909    54.1478 </r>
       <r>    19.1941     1.5927    54.3762 </r>
       <r>    19.3375     2.6350    54.7542 </r>
       <r>    19.4809     1.1793    54.9233 </r>
       <r>    19.6244     1.7164    55.1695 </r>
       <r>    19.7678     1.7380    55.4188 </r>
       <r>    19.9113     0.9512    55.5552 </r>
       <r>    20.0547     1.5464    55.7770 </r>
       <r>    20.1981     2.0333    56.0687 </r>
       <r>    20.3416     2.1124    56.3717 </r>
       <r>    20.4850     1.9235    56.6476 </r>
       <r>    20.6284     1.9037    56.9206 </r>
       <r>    20.7719     1.5266    57.1396 </r>
       <r>    20.9153     1.4392    57.3460 </r>
       <r>    21.0587     2.5411    57.7105 </r>
       <r>    21.2022     3.3851    58.1961 </r>
       <r>    21.3456     2.0918    58.4961 </r>
       <r>    21.4890     0.8458    58.6174 </r>
       <r>    21.6325     3.0150    59.0499 </r>
       <r>    21.7759     1.9337    59.3272 </r>
       <r>    21.9193     2.8244    59.7324 </r>
       <r>    22.0628     1.8253    59.9942 </r>
       <r>    22.2062     1.4615    60.2038 </r>
       <r>    22.3496     1.7454    60.4541 </r>
       <r>    22.4931     1.3569    60.6488 </r>
       <r>    22.6365     2.8772    61.0615 </r>
       <r>    22.7799     1.1914    61.2323 </r>
       <r>    22.9234     0.6682    61.3282 </r>
       <r>    23.0668     1.5330    61.5481 </r>
       <r>    23.2102     3.3903    62.0344 </r>
       <r>    23.3537     3.7367    62.5703 </r>
       <r>    23.4971     2.3753    62.9110 </r>
       <r>    23.6405     0.8585    63.0342 </r>
       <r>    23.7840     3.2232    63.4965 </r>
       <r>    23.9274     1.4534    63.7050 </r>
       <r>    24.0708     1.0273    63.8523 </r>
       <r>    24.2143     1.3617    64.0476 </r>
       <r>    24.3577     2.1235    64.3522 </r>
       <r>    24.5012     2.8666    64.7634 </r>
       <r>    24.6446     1.9649    65.0452 </r>
       <r>    24.7880     0.6121    65.1330 </r>
       <r>    24.9315     1.1299    65.2951 </r>
       <r>    25.0749     3.2156    65.7563 </r>
       <r>    25.2183     1.7371    66.0055 </r>
       <r>    25.3618     2.4438    66.3560 </r>
       <r>    25.5052     2.5234    66.7179 </r>
       <r>    25.6486     2.0212    67.0078 </r>
       <r>    25.7921     2.9261    67.4275 </r>
       <r>    25.9355     1.0770    67.5820 </r>
       <r>    26.0789     1.5481    67.8041 </r>
       <r>    26.2224     2.8511    68.2130 </r>
       <r>    26.3658     2.6781    68.5971 </r>
       <r>    26.5092     0.7495    68.7047 </r>
       <r>    26.6527     1.9858    68.9895 </r>
       <r>    26.7961     1.3031    69.1764 </r>
       <r>    26.9395     0.7529    69.2844 </r>
       <r>    27.0830     1.4933    69.4986 </r>
       <r>    27.2264     2.4583    69.8512 </r>
       <r>    27.3698     1.4075    70.0530 </r>
       <r>    27.5133     1.4718    70.2641 </r>
       <r>    27.6567     2.4778    70.6195 </r>
       <r>    27.8001     2.2169    70.9375 </r>
       <r>    27.9436     2.5724    71.3065 </r>
       <r>    28.0870     3.8116    71.8532 </r>
       <r>    28.2304     4.7535    72.5350 </r>
       <r>    28.3739     3.4228    73.0260 </r>
       <r>    28.5173     3.8385    73.5765 </r>
       <r>    28.6607     5.1101    74.3095 </r>
       <r>    28.8042     2.4912    74.6668 </r>
       <r>    28.9476     0.9680    74.8057 </r>
       <r>    29.0911     3.0818    75.2477 </r>
       <r>    29.2345     1.7809    75.5032 </r>
       <r>    29.3779     1.7231    75.7503 </r>
       <r>    29.5214     1.3259    75.9405 </r>
       <r>    29.6648     4.0817    76.5259 </r>
       <r>    29.8082     4.5438    77.1777 </r>
       <r>    29.9517     3.1746    77.6330 </r>
       <r>    30.0951     3.4075    78.1218 </r>
       <r>    30.2385     1.8363    78.3852 </r>
       <r>    30.3820     1.6001    78.6147 </r>
       <r>    30.5254     1.2148    78.7889 </r>
       <r>    30.6688     0.9761    78.9289 </r>
       <r>    30.8123     1.8162    79.1894 </r>
       <r>    30.9557     1.9688    79.4718 </r>
       <r>    31.0991     2.0797    79.7701 </r>
       <r>    31.2426     2.3007    80.1001 </r>
       <r>    31.3860     1.1801    80.2694 </r>
       <r>    31.5294     0.7888    80.3825 </r>
       <r>    31.6729     0.5814    80.4659 </r>
       <r>    31.8163     0.9152    80.5972 </r>
       <r>    31.9597     2.2000    80.9127 </r>
       <r>    32.1032     0.8273    81.0314 </r>
       <r>    32.2466     0.4670    81.0984 </r>
       <r>    32.3900     2.0352    81.3903 </r>
       <r>    32.5335     1.8374    81.6539 </r>
       <r>    32.6769     1.1841    81.8237 </r>
       <r>    32.8203     1.2628    82.0048 </r>
       <r>    32.9638     2.5797    82.3748 </r>
       <r>    33.1072     1.7806    82.6302 </r>
       <r>    33.2506     1.1931    82.8014 </r>
       <r>    33.3941     2.0648    83.0975 </r>
       <r>    33.5375     1.9558    83.3781 </r>
       <r>    33.6810     2.1864    83.6917 </r>
       <r>    33.8244     3.1958    84.1501 </r>
       <r>    33.9678     0.8624    84.2738 </r>
       <r>    34.1113     2.5155    84.6346 </r>
       <r>    34.2547     3.3690    85.1178 </r>
       <r>    34.3981     3.0695    85.5581 </r>
       <r>    34.5416     3.7572    86.0970 </r>
       <r>    34.6850     3.6774    86.6244 </r>
       <r>    34.8284     3.6196    87.1436 </r>
       <r>    34.9719     2.1921    87.4580 </r>
       <r>    35.1153     3.1317    87.9072 </r>
       <r>    35.2587     4.2280    88.5137 </r>
       <r>    35.4022     3.4757    89.0122 </r>
       <r>    35.5456     0.3477    89.0621 </r>
       <r>    35.6890     0.6562    89.1562 </r>
       <r>    35.8325     1.8788    89.4257 </r>
       <r>    35.9759     1.6688    89.6650 </r>
       <r>    36.1193     1.5402    89.8859 </r>
       <r>    36.2628     2.4745    90.2409 </r>
       <r>    36.4062     3.1730    90.6960 </r>
       <r>    36.5496     3.7863    91.2391 </r>
       <r>    36.6931     4.0170    91.8153 </r>
       <r>    36.8365     5.1145    92.5488 </r>
       <r>    36.9799     3.5903    93.0638 </r>
       <r>    37.1234     3.0853    93.5064 </r>
       <r>    37.2668     2.1664    93.8171 </r>
       <r>    37.4102     3.3761    94.3013 </r>
       <r>    37.5537     2.6464    94.6809 </r>
       <r>    37.6971     0.9042    94.8106 </r>
       <r>    37.8405     1.1819    94.9801 </r>
       <r>    37.9840     1.8650    95.2476 </r>
       <r>    38.1274     2.0170    95.5369 </r>
       <r>    38.2709     0.9789    95.6774 </r>
       <r>    38.4143     0.0760    95.6882 </r>
       <r>    38.5577     0.3055    95.7321 </r>
       <r>    38.7012     1.1895    95.9027 </r>
       <r>    38.8446     0.1382    95.9225 </r>
       <r>    38.9880     0.0259    95.9262 </r>
       <r>    39.1315    -0.0020    95.9259 </r>
       <r>    39.2749    -0.0000    95.9259 </r>
       <r>    39.4183    -0.0000    95.9259 </r>
       <r>    39.5618    -0.0001    95.9259 </r>
       <r>    39.7052    -0.0123    95.9242 </r>
       <r>    39.8486     0.2201    95.9557 </r>
       <r>    39.9921     0.1903    95.9830 </r>
       <r>    40.1355     0.0961    95.9968 </r>
       <r>    40.2789     0.0035    95.9973 </r>
       <r>    40.4224     0.0019    95.9976 </r>
       <r>    40.5658     0.0171    96.0000 </r>
       <r>    40.7092    -0.0002    96.0000 </r>
       <r>    40.8527    -0.0000    96.0000 </r>
       <r>    40.9961    -0.0000    96.0000 </r>
       <r>    41.1395    -0.0000    96.0000 </r>
       <r>    41.2830     0.0000    96.0000 </r>
       <r>    41.4264     0.0000    96.0000 </r>
       <r>    41.5698     0.0000    96.0000 </r>
       <r>    41.7133     0.0000    96.0000 </r>
       <r>    41.8567     0.0000    96.0000 </r>
       <r>    42.0001     0.0000    96.0000 </r>
       <r>    42.1436     0.0000    96.0000 </r>
       <r>    42.2870     0.0000    96.0000 </r>
       <r>    42.4304     0.0000    96.0000 </r>
      </set>
     </set>
    </array>
   </total>
  </dos>
 </calculation>
 <structure name="finalpos" >
  <crystal>
   <varray name="basis" >
    <v>       3.95366667       0.00000000       0.00000000 </v>
    <v>       0.00000000       3.95366667       0.00000000 </v>
    <v>       0.00000000       0.00000000       3.95366667 </v>
   </varray>
   <i name="volume">     61.80166187 </i>
   <varray name="rec_basis" >
    <v>       0.25292977       0.00000000       0.00000000 </v>
    <v>       0.00000000       0.25292977       0.00000000 </v>
    <v>       0.00000000       0.00000000       0.25292977 </v>
   </varray>
  </crystal>
  <varray name="positions" >
   <v>       0.00000000       0.00000000       0.00000000 </v>
   <v>       0.00000000       0.50000000       0.50000000 </v>
   <v>       0.50000000       0.00000000       0.50000000 </v>
   <v>       0.50000000       0.50000000       0.00000000 </v>
  </varray>
 </structure>
</modeling>
