unknown system                          
           1
     3.953667    0.000000    0.000000
     0.000000    3.953667    0.000000
     0.000000    0.000000    3.953667
   Ag
   4
Direct configuration=     1
   0.00000000  0.00000000  0.00000000
   0.00000000  0.50000000  0.50000000
   0.50000000  0.00000000  0.50000000
   0.50000000  0.50000000  0.00000000
