----- GAMESS execution script 'rungms' -----
This job is running on host crcfe02.crc.nd.edu
under operating system Linux at Sun Sep 29 10:53:03 EDT 2019
Available scratch disk space (Kbyte units) at beginning of the job is
Filesystem      1K-blocks  Used  Available Use% Mounted on
AFS            2147483647     0 2147483647   0% /afs
GAMESS temporary binary files will be written to /afs/crc.nd.edu/user/c/cdrisko
GAMESS supplementary output files will be written to /afs/crc.nd.edu/user/c/cdrisko/scr
Copying input file SO2.inp to your run's scratch directory...

 Distributed Data Interface kickoff program.
 Initiating 1 compute processes on 1 nodes to run the following command:
 /afs/crc.nd.edu/x86_64_linux/g/gamess/nov-2017/gamess/gamess.00.x SO2 

          ******************************************************
          *         GAMESS VERSION = 11 NOV 2017 (R3)         *
          *             FROM IOWA STATE UNIVERSITY             *
          * M.W.SCHMIDT, K.K.BALDRIDGE, J.A.BOATZ, S.T.ELBERT, *
          *   M.S.GORDON, J.H.JENSEN, S.KOSEKI, N.MATSUNAGA,   *
          *          K.A.NGUYEN, S.J.SU, T.L.WINDUS,           *
          *       TOGETHER WITH M.DUPUIS, J.A.MONTGOMERY       *
          *         J.COMPUT.CHEM.  14, 1347-1363(1993)        *
          **************** 64 BIT INTEL VERSION ****************

  SINCE 1993, STUDENTS AND POSTDOCS WORKING AT IOWA STATE UNIVERSITY
  AND ALSO IN THEIR VARIOUS JOBS AFTER LEAVING ISU HAVE MADE IMPORTANT
  CONTRIBUTIONS TO THE CODE:
     IVANA ADAMOVIC, CHRISTINE AIKENS, YURI ALEXEEV, POOJA ARORA,
     ANDREY ASADCHEV, ROB BELL, PRADIPTA BANDYOPADHYAY, JONATHAN BENTZ,
     BRETT BODE, KURT BRORSEN, CALEB CARLIN, GALINA CHABAN, WEI CHEN,
     CHEOL HO CHOI, PAUL DAY, ALBERT DEFUSCO, NUWAN DESILVA, TIM DUDLEY,
     DMITRI FEDOROV, ALEX FINDLATER, GRAHAM FLETCHER, MARK FREITAG,
     KURT GLAESEMANN, ANASTASIA GUININA,
     DAN KEMP, GRANT MERRILL, NORIYUKI MINEZAWA, JONATHAN MULLIN,
     TAKESHI NAGATA, SEAN NEDD, HEATHER NETZLOFF, BOSILJKA NJEGIC, RYAN OLSON,
     MIKE PAK, BUU PHAM,
     SPENCER PRUITT, LUKE ROSKOP, JIM SHOEMAKER, LYUDMILA SLIPCHENKO,
     TONY SMITH, SAROM SOK LEANG, JIE SONG, TETSUYA TAKETSUGU, SIMON WEBB,
     PENG XU, SOOHAENG YOO, FEDERICO ZAHARIEV

  ADDITIONAL CODE HAS BEEN PROVIDED BY COLLABORATORS IN OTHER GROUPS:
     IOWA STATE UNIVERSITY:
          JOE IVANIC, AARON WEST, LAIMUTIS BYTAUTAS, KLAUS RUEDENBERG
     UNIVERSITY OF TOKYO: KIMIHIKO HIRAO, TAKAHITO NAKAJIMA,
          TAKAO TSUNEDA, MUNEAKI KAMIYA, SUSUMU YANAGISAWA,
          KIYOSHI YAGI, MAHITO CHIBA, SEIKEN TOKURA, NAOAKI KAWAKAMI
     UNIVERSITY OF AARHUS: FRANK JENSEN
     UNIVERSITY OF IOWA: VISVALDAS KAIRYS, HUI LI
     NATIONAL INST. OF STANDARDS AND TECHNOLOGY: WALT STEVENS, DAVID GARMER
     UNIVERSITY OF PISA: BENEDETTA MENNUCCI, JACOPO TOMASI
     UNIVERSITY OF MEMPHIS: HENRY KURTZ, PRAKASHAN KORAMBATH
     UNIVERSITY OF ALBERTA: TOBY ZENG, MARIUSZ KLOBUKOWSKI
     UNIVERSITY OF NEW ENGLAND: MARK SPACKMAN
     MIE UNIVERSITY: HIROAKI UMEDA
     NAT. INST. OF ADVANCED INDUSTRIAL SCIENCE AND TECHNOLOGY: KAZUO KITAURA
     MICHIGAN STATE UNIVERSITY:
          KAROL KOWALSKI, MARTA WLOCH, JEFFREY GOUR, JESSE LUTZ,
          WEI LI, PIOTR PIECUCH
     UNIVERSITY OF SILESIA: MONIKA MUSIAL, STANISLAW KUCHARSKI
     FACULTES UNIVERSITAIRES NOTRE-DAME DE LA PAIX:
          OLIVIER QUINET, BENOIT CHAMPAGNE
     UNIVERSITY OF CALIFORNIA - SANTA BARBARA: BERNARD KIRTMAN
     INSTITUTE FOR MOLECULAR SCIENCE:
          KAZUYA ISHIMURA, MICHIO KATOUDA, AND SHIGERU NAGASE
     UNIVERSITY OF NOTRE DAME: ANNA POMOGAEVA, DAN CHIPMAN
     KYUSHU UNIVERSITY:
          HARUYUKI NAKANO,
          FENG LONG GU, JACEK KORCHOWIEC, MARCIN MAKOWSKI, AND YURIKO AOKI,
          HIROTOSHI MORI AND EISAKU MIYOSHI
     PENNSYLVANIA STATE UNIVERSITY:
          TZVETELIN IORDANOV, CHET SWALINA, JONATHAN SKONE,
          SHARON HAMMES-SCHIFFER
     WASEDA UNIVERSITY:
          MASATO KOBAYASHI, TOMOKO AKAMA, TSUGUKI TOUMA,
          TAKESHI YOSHIKAWA, YASUHIRO IKABATA, JUNJI SEINO,
          YUYA NAKAJIMA, HIROMI NAKAI
     NANJING UNIVERSITY: SHUHUA LI
     UNIVERSITY OF NEBRASKA:
          PEIFENG SU, DEJUN SI, NANDUN THELLAMUREGE, YALI WANG, HUI LI
     UNIVERSITY OF ZURICH: ROBERTO PEVERATI, KIM BALDRIDGE
     N. COPERNICUS UNIVERSITY AND JACKSON STATE UNIVERSITY:
          MARIA BARYSZ
     UNIVERSITY OF COPENHAGEN: Jimmy Kromann, CASPER STEINMANN
     TOKYO INSTITUTE OF TECHNOLOGY: HIROYA NAKATA
     NAGOYA UNIVERSITY: YOSHIO NISHIMOTO, STEPHAN IRLE
     MOSCOW STATE UNIVERSITY: VLADIMIR MIRONOV

 EXECUTION OF GAMESS BEGUN Sun Sep 29 10:53:03 2019

            ECHO OF THE FIRST FEW INPUT CARDS -
 INPUT CARD> $BASIS GBASIS=PCSEG-1 $END                                                     
 INPUT CARD> $CONTRL COORD=ZMT ISPHER=1 RUNTYP=ENERGY DFTTYP=PBE MULT=1 $END                
 INPUT CARD>                                                                                
 INPUT CARD> $DATA                                                                          
 INPUT CARD>Title SO2 single-point calculation template with Z-Matrix                       
 INPUT CARD>C1                                                                              
 INPUT CARD>S                                                                               
 INPUT CARD>O 1 1.65                                                                        
 INPUT CARD>O 1 1.65 2 130                                                                  
 INPUT CARD> $END                                                                           
    1000000 WORDS OF MEMORY AVAILABLE

     BASIS OPTIONS
     -------------
     GBASIS=PCSEG-1      IGAUSS=       0      POLAR=NONE    
     NDFUNC=       0     NFFUNC=       0     DIFFSP=       F
     NPFUNC=       0      DIFFS=       F     BASNAM=        


     RUN TITLE
     ---------
 Title SO2 single-point calculation template with Z-Matrix                       

 THE POINT GROUP OF THE MOLECULE IS C1      
 THE ORDER OF THE PRINCIPAL AXIS IS     0

 YOUR FULLY SUBSTITUTED Z-MATRIX IS
 S   
 O      1   1.6500000
 O      1   1.6500000  2  130.0000

 THE MOMENTS OF INERTIA ARE (AMU-ANGSTROM**2)
 IXX=     7.775   IYY=    71.537   IZZ=    79.313

 ATOM      ATOMIC                      COORDINATES (BOHR)
           CHARGE         X                   Y                   Z
 S          16.0     0.0000000000       -0.6590548304        0.0000000000
 O           8.0     2.8259110738        0.6586891446        0.0000000000
 O           8.0    -2.8259110738        0.6586891446        0.0000000000

          INTERNUCLEAR DISTANCES (ANGS.)
          ------------------------------

                1 S          2 O          3 O     

   1 S       0.0000000    1.6500000 *  1.6500000 *
   2 O       1.6500000 *  0.0000000    2.9908157 *
   3 O       1.6500000 *  2.9908157 *  0.0000000  

  * ... LESS THAN  3.000


     ATOMIC BASIS SET
     ----------------
 THE CONTRACTED PRIMITIVE FUNCTIONS HAVE BEEN UNNORMALIZED
 THE CONTRACTED BASIS FUNCTIONS ARE NOW NORMALIZED TO UNITY

  SHELL TYPE  PRIMITIVE        EXPONENT          CONTRACTION COEFFICIENT(S)

 S         

      1   S       1         49299.4000000    0.000677492991
      1   S       2          7395.8400000    0.005232317766
      1   S       3          1683.3000000    0.026769459077
      1   S       4           476.1440000    0.102869580705
      1   S       5           154.3290000    0.286438127414
      1   S       6            55.0288000    0.454278639081
      1   S       7            20.5029000    0.271743121997

      2   S       8            45.9596000   -0.088421914560
      2   S       9             4.9274000    0.564350486135
      2   S      10             1.9179900    0.505415953466

      3   S      11             0.3684980    1.000000000000

      4   S      12             0.1291650    1.000000000000

      5   P      13           451.6620000    0.003707705453
      5   P      14           106.0980000    0.029219352245
      5   P      15            33.6996000    0.124444551509
      5   P      16            12.3054000    0.321808587656
      5   P      17             4.7141200    0.462822172957
      5   P      18             1.7810500    0.266513371364

      6   P      19             0.8722350    0.349265132972
      6   P      20             0.3102780    0.717115018770

      7   P      21             0.1001940    1.000000000000

      8   D      22             0.5500000    1.000000000000

 O         

      9   S      23          2288.6400000    0.005451138222
      9   S      24           344.4160000    0.040718922842
      9   S      25            78.2538000    0.181369420873
      9   S      26            21.7195000    0.465536820246
      9   S      27             6.5590700    0.451211321214

     10   S      28            10.4656000   -0.150211201174
     10   S      29             0.9643510    1.052867983385

     11   S      30             0.2851270    1.000000000000

     12   P      31            17.0590000    0.068749256972
     12   P      32             3.6899900    0.351671941499
     12   P      33             0.9929960    0.724532099722

     13   P      34             0.2449240    1.000000000000

     14   D      35             1.0000000    1.000000000000

 O         

     15   S      36          2288.6400000    0.005451138222
     15   S      37           344.4160000    0.040718922842
     15   S      38            78.2538000    0.181369420873
     15   S      39            21.7195000    0.465536820246
     15   S      40             6.5590700    0.451211321214

     16   S      41            10.4656000   -0.150211201174
     16   S      42             0.9643510    1.052867983385

     17   S      43             0.2851270    1.000000000000

     18   P      44            17.0590000    0.068749256972
     18   P      45             3.6899900    0.351671941499
     18   P      46             0.9929960    0.724532099722

     19   P      47             0.2449240    1.000000000000

     20   D      48             1.0000000    1.000000000000

 TOTAL NUMBER OF BASIS SET SHELLS             =   20
 NUMBER OF CARTESIAN GAUSSIAN BASIS FUNCTIONS =   49
 NOTE: THIS RUN WILL RESTRICT THE MO VARIATION SPACE TO SPHERICAL HARMONICS.
 THE NUMBER OF ORBITALS KEPT IN THE VARIATIONAL SPACE WILL BE PRINTED LATER.
 NUMBER OF ELECTRONS                          =   32
 CHARGE OF MOLECULE                           =    0
 SPIN MULTIPLICITY                            =    1
 NUMBER OF OCCUPIED ORBITALS (ALPHA)          =   16
 NUMBER OF OCCUPIED ORBITALS (BETA )          =   16
 TOTAL NUMBER OF ATOMS                        =    3
 THE NUCLEAR REPULSION ENERGY IS       93.4264336669

     LEBEDEV GRID-BASED DFT OPTIONS
     ------------------------------
     DFTTYP=PBE     
     NRAD  =      96     NLEB  =     302
     NRAD0 =      24     NLEB0 =     110
     SWOFF =    5.00E-03 (PURE SCF -> DFT)
     SWITCH=    3.00E-04 (COARSE -> TIGHT GRID)
     THRESH=    0.00E+00 GTHRE=    1.00E+00

 GRIMME'S EMPIRICAL DISPERSION CORRECTION= F

     $CONTRL OPTIONS
     ---------------
 SCFTYP=RHF          RUNTYP=ENERGY       EXETYP=RUN     
 MPLEVL=       0     CITYP =NONE         CCTYP =NONE         VBTYP =NONE    
 DFTTYP=PBE          TDDFT =NONE    
 MULT  =       1     ICHARG=       0     NZVAR =       0     COORD =ZMT     
 PP    =NONE         RELWFN=NONE         LOCAL =NONE         NUMGRD=       F
 ISPHER=       1     NOSYM =       0     MAXIT =      30     UNITS =ANGS    
 PLTORB=       F     MOLPLT=       F     AIMPAC=       F     FRIEND=        
 NPRINT=       7     IREST =       0     GEOM  =INPUT   
 NORMF =       0     NORMP =       0     ITOL  =      20     ICUT  =       9
 INTTYP=BEST         GRDTYP=BEST         QMTTOL= 1.0E-06

     $SYSTEM OPTIONS
     ---------------
  REPLICATED MEMORY=     1000000 WORDS (ON EVERY NODE).
 DISTRIBUTED MEMDDI=           0 MILLION WORDS IN AGGREGATE,
 MEMDDI DISTRIBUTED OVER   1 PROCESSORS IS           0 WORDS/PROCESSOR.
 TOTAL MEMORY REQUESTED ON EACH PROCESSOR=     1000000 WORDS.
 TIMLIM=      525600.00 MINUTES, OR     365.0 DAYS.
 PARALL= F  BALTYP=  DLB     KDIAG=    0  COREFL= F
 MXSEQ2=     300 MXSEQ3=     150  mem10=         0

          ----------------
          PROPERTIES INPUT
          ----------------

     MOMENTS            FIELD           POTENTIAL          DENSITY
 IEMOM =       1   IEFLD =       0   IEPOT =       0   IEDEN =       0
 WHERE =COMASS     WHERE =NUCLEI     WHERE =NUCLEI     WHERE =NUCLEI  
 OUTPUT=BOTH       OUTPUT=BOTH       OUTPUT=BOTH       OUTPUT=BOTH    
 IEMINT=       0   IEFINT=       0                     IEDINT=       0
                                                       MORB  =       0
          EXTRAPOLATION IN EFFECT
          DIIS IN EFFECT
 ORBITAL PRINTING OPTION: NPREO=     1    49     2     1

     -------------------------------
     INTEGRAL TRANSFORMATION OPTIONS
     -------------------------------
     NWORD  =            0
     CUTOFF = 1.0E-09     MPTRAN =       0
     DIRTRF =       F     AOINTS =DUP     

          ----------------------
          INTEGRAL INPUT OPTIONS
          ----------------------
 NOPK  =       1 NORDER=       0 SCHWRZ=       F

   --- ENCODED Z MATRIX ---
 COORD  TYPE   I   J   K   L   M   N
    1      1    2   1
    2      1    3   1
    3      2    3   1   2

 THE DETERMINANT OF THE G MATRIX IS 10**(    -4)

 THE DETERMINANT OF THE G MATRIX IS 10**(    -4)
 * * * WARNING * * *
 YOUR B MATRIX HAS A SMALL DETERMINANT.
 THIS SUGGESTS YOU MAY HAVE BADLY CHOSEN COORDINATES.

     ------------------------------------------
     THE POINT GROUP IS C1 , NAXIS= 0, ORDER= 1
     ------------------------------------------

 -- VARIATIONAL SPACE WILL BE RESTRICTED TO PURE SPHERICAL HARMONICS ONLY --
 AFTER EXCLUDING CONTAMINANT COMBINATIONS FROM THE CARTESIAN GAUSSIAN BASIS
 SET, THE NUMBER OF SPHERICAL HARMONICS KEPT IN THE VARIATION SPACE IS   46

     DIMENSIONS OF THE SYMMETRY SUBSPACES ARE
 A   =   46

 ..... DONE SETTING UP THE RUN .....
 STEP CPU TIME =     0.04 TOTAL CPU TIME =          0.0 (      0.0 MIN)
 TOTAL WALL CLOCK TIME=          0.0 SECONDS, CPU UTILIZATION IS   100.00%

          ********************
          1 ELECTRON INTEGRALS
          ********************
 ...... END OF ONE-ELECTRON INTEGRALS ......
 STEP CPU TIME =     0.00 TOTAL CPU TIME =          0.0 (      0.0 MIN)
 TOTAL WALL CLOCK TIME=          0.0 SECONDS, CPU UTILIZATION IS   100.00%

          -------------
          GUESS OPTIONS
          -------------
          GUESS =HUCKEL            NORB  =       0          NORDER=       0
          MIX   =       F          PRTMO =       F          PUNMO =       F
          TOLZ  = 1.0E-08          TOLE  = 1.0E-05
          SYMDEN=       F          PURIFY=       F

 INITIAL GUESS ORBITALS GENERATED BY HUCKEL   ROUTINE.
 HUCKEL GUESS REQUIRES     21634 WORDS.

 STATISTICS FOR GENERATION OF SYMMETRY ORBITAL -Q- MATRIX
 NUMBER OF CARTESIAN ATOMIC ORBITALS=         49
 NUMBER OF SPHERICAL CONTAMINANTS DROPPED=     3
 NUMBER OF LINEARLY DEPENDENT MOS DROPPED=     0
 TOTAL NUMBER OF MOS IN VARIATION SPACE=      46

 SYMMETRIES FOR INITIAL GUESS ORBITALS FOLLOW.   BOTH SET(S).
    16 ORBITALS ARE OCCUPIED (    7 CORE ORBITALS).
     8=A        9=A       10=A       11=A       12=A       13=A       14=A   
    15=A       16=A       17=A       18=A       19=A       20=A       21=A   
    22=A       23=A       24=A       25=A       26=A   
 ...... END OF INITIAL ORBITAL SELECTION ......
 STEP CPU TIME =     0.00 TOTAL CPU TIME =          0.0 (      0.0 MIN)
 TOTAL WALL CLOCK TIME=          0.1 SECONDS, CPU UTILIZATION IS    80.00%

                    ----------------------
                    AO INTEGRAL TECHNOLOGY
                    ----------------------
     S,P,L SHELL ROTATED AXIS INTEGRALS, REPROGRAMMED BY
        KAZUYA ISHIMURA (IMS) AND JOSE SIERRA (SYNSTAR).
     S,P,D,L SHELL ROTATED AXIS INTEGRALS PROGRAMMED BY
        KAZUYA ISHIMURA (INSTITUTE FOR MOLECULAR SCIENCE).
     S,P,D,F,G SHELL TO TOTAL QUARTET ANGULAR MOMENTUM SUM 5,
        ERIC PROGRAM BY GRAHAM FLETCHER (ELORET AND NASA ADVANCED
        SUPERCOMPUTING DIVISION, AMES RESEARCH CENTER).
     S,P,D,F,G,L SHELL GENERAL RYS QUADRATURE PROGRAMMED BY
        MICHEL DUPUIS (PACIFIC NORTHWEST NATIONAL LABORATORY).

          --------------------
          2 ELECTRON INTEGRALS
          --------------------

 THE -PK- OPTION IS OFF, THE INTEGRALS ARE NOT IN SUPERMATRIX FORM.
 STORING   15000 INTEGRALS/RECORD ON DISK, USING 12 BYTES/INTEGRAL.
 TWO ELECTRON INTEGRAL EVALUATION REQUIRES   90606 WORDS OF MEMORY.
 II,JST,KST,LST =  1  1  1  1 NREC =         1 INTLOC =    1
 II,JST,KST,LST =  2  1  1  1 NREC =         1 INTLOC =    2
 II,JST,KST,LST =  3  1  1  1 NREC =         1 INTLOC =    7
 II,JST,KST,LST =  4  1  1  1 NREC =         1 INTLOC =   22
 II,JST,KST,LST =  5  1  1  1 NREC =         1 INTLOC =   56
 II,JST,KST,LST =  6  1  1  1 NREC =         1 INTLOC =  125
 II,JST,KST,LST =  7  1  1  1 NREC =         1 INTLOC =  329
 II,JST,KST,LST =  8  1  1  1 NREC =         1 INTLOC =  776
 II,JST,KST,LST =  9  1  1  1 NREC =         1 INTLOC = 2864
 II,JST,KST,LST = 10  1  1  1 NREC =         1 INTLOC = 4876
 II,JST,KST,LST = 11  1  1  1 NREC =         1 INTLOC = 7528
 II,JST,KST,LST = 12  1  1  1 NREC =         1 INTLOC =10639
 II,JST,KST,LST = 13  1  1  1 NREC =         2 INTLOC = 6504
 II,JST,KST,LST = 14  1  1  1 NREC =         3 INTLOC = 6744
 II,JST,KST,LST = 15  1  1  1 NREC =         6 INTLOC = 8615
 II,JST,KST,LST = 16  1  1  1 NREC =         7 INTLOC =  490
 II,JST,KST,LST = 17  1  1  1 NREC =         7 INTLOC =11134
 II,JST,KST,LST = 18  1  1  1 NREC =         8 INTLOC = 9408
 II,JST,KST,LST = 19  1  1  1 NREC =        11 INTLOC =  357
 II,JST,KST,LST = 20  1  1  1 NREC =        14 INTLOC = 6501
 TOTAL NUMBER OF NONZERO TWO-ELECTRON INTEGRALS =              322386
         22 INTEGRAL RECORDS WERE STORED ON DISK FILE  8.
  ...... END OF TWO-ELECTRON INTEGRALS .....
 STEP CPU TIME =     0.11 TOTAL CPU TIME =          0.2 (      0.0 MIN)
 TOTAL WALL CLOCK TIME=          0.2 SECONDS, CPU UTILIZATION IS   100.00%

          --------------------------
               R-PBE SCF CALCULATION
          --------------------------

     NUCLEAR ENERGY =        93.4264336669
     MAXIT =   30     NPUNCH=    2
     EXTRAP=T  DAMP=F  SHIFT=F  RSTRCT=F  DIIS=T  DEM=F  SOSCF=F
         DENSITY MATRIX CONVERGENCE THRESHOLD=  1.00E-05
     COARSE -> FINE DFT GRID SWITCH THRESHOLD=  3.00E-04 (SWITCH IN $DFT)
                   HF -> DFT SWITCH THRESHOLD=  5.00E-03 (SWOFF IN $DFT)
     MEMORY REQUIRED FOR RHF ITERS=    183108 WORDS.

 DFT CODE IS SWITCHING FROM THE FINE GRID NRAD= 96,  NLEB=  302
                      TO THE COARSE GRID NRAD0= 24, NLEB0=  110

     EXCHANGE FUNCTIONAL   =PBE       
     CORRELATION FUNCTIONAL=PBE       
     DFT THRESHOLD         =.460E-07
     GRID CHANGE THRESHOLD =.300E-03
 FOR AN EULER-MACLAURIN QUADRATURE USING  96 RADIAL POINTS:
 SMALLEST GAUSSIAN PRIMITIVE EXPONENT=        0.1001940000 OF TYPE -P-
 ON ATOM NUMBER   1 HAS RADIAL NORMALIZATION=  1.000000
  LARGEST GAUSSIAN PRIMITIVE EXPONENT=    49299.4000000000 OF TYPE -S-
 ON ATOM NUMBER   1 HAS RADIAL NORMALIZATION=  1.000000
 DFT IS SWITCHED OFF, PERFORMING PURE SCF UNTIL SWOFF THRESHOLD IS REACHED.

 ITER EX DEM     TOTAL ENERGY        E CHANGE  DENSITY CHANGE    DIIS ERROR
   1  0  0     -545.9952422633  -545.9952422633   0.673456397   0.817885955
          * * *   INITIATING DIIS PROCEDURE   * * *
   2  1  0     -546.5252962753    -0.5300540119   0.732623537   0.344420292
   3  2  0     -546.5327658892    -0.0074696139   0.297716757   0.333741183
   4  3  0     -546.9961575491    -0.4633916599   0.041150093   0.010992616
   5  4  0     -546.9971181177    -0.0009605686   0.007379427   0.005485276
   6  5  0     -546.9972524170    -0.0001342993   0.002075064   0.001459184
 CONVERGED TO SWOFF, SO DFT CALCULATION IS NOW SWITCHED ON.
          * * *   INITIATING DIIS PROCEDURE   * * *
   7  6  0     -548.1538532712    -1.1566008542   0.475134560   0.105015966
   8  7  0     -548.1361042950     0.0177489762   0.414206152   0.143471488
   9  8  0     -548.1499805697    -0.0138762746   0.128924520   0.135968971
  10  9  0     -548.1999385718    -0.0499580021   0.032380150   0.013708363
  11 10  0     -548.2006896037    -0.0007510319   0.002332123   0.001308241
  12 11  0     -548.2006959729    -0.0000063692   0.000709391   0.000382462
  13 12  0     -548.2006964536    -0.0000004808   0.000269175   0.000107558
 DFT CODE IS SWITCHING BACK TO THE FINE GRID
          * * *   INITIATING DIIS PROCEDURE   * * *
  14 13  0     -548.2084886297    -0.0077921761   0.018583827   0.010005635
  15 14  0     -548.2084670402     0.0000215895   0.022583525   0.008398127
  16 15  0     -548.2083385238     0.0001285164   0.015651394   0.009408113
  17 16  0     -548.2084009556    -0.0000624318   0.009141376   0.013099230
  18 17  0     -548.2086950728    -0.0002941173   0.000476064   0.000649638
  19 18  0     -548.2086961344    -0.0000010616   0.000187102   0.000090123
  20 19  0     -548.2086961622    -0.0000000277   0.000041679   0.000017368
  21 20  0     -548.2086961632    -0.0000000010   0.000006078   0.000003815
  22 21  0     -548.2086961632    -0.0000000000   0.000000531   0.000000400

          -----------------
          DENSITY CONVERGED
          -----------------
     TIME TO FORM FOCK OPERATORS=       2.4 SECONDS (       0.1 SEC/ITER)
     TIME TO SOLVE SCF EQUATIONS=       0.0 SECONDS (       0.0 SEC/ITER)

 FINAL R-PBE ENERGY IS     -548.2086961632 AFTER  22 ITERATIONS
 DFT EXCHANGE + CORRELATION ENERGY =       -42.2907387196
 TOTAL ELECTRON NUMBER             =        32.0000300596

          ------------
          EIGENVECTORS
          ------------

                      1          2          3          4          5
                  -88.2324   -18.8261   -18.8261    -7.8450    -5.8715
                     A          A          A          A          A   
    1  S  1  S    0.997762   0.000001   0.000000  -0.308393  -0.000000
    2  S  1  S    0.008221  -0.000089  -0.000000   1.031802   0.000000
    3  S  1  S   -0.002889  -0.000441  -0.000001   0.027598   0.000000
    4  S  1  S    0.000929   0.006874   0.000017  -0.005606  -0.000000
    5  S  1  X   -0.000000   0.000000  -0.000138  -0.000000   0.994669
    6  S  1  Y    0.000115  -0.000125  -0.000000   0.010544  -0.000001
    7  S  1  Z    0.000000   0.000000   0.000000   0.000000   0.000000
    8  S  1  X    0.000000  -0.000004   0.001750  -0.000000   0.017177
    9  S  1  Y   -0.000235   0.001128   0.000003   0.001002  -0.000000
   10  S  1  Z    0.000000   0.000000   0.000000   0.000000   0.000000
   11  S  1  X    0.000000  -0.000011   0.004344  -0.000000  -0.002439
   12  S  1  Y    0.000009   0.002384   0.000006  -0.000166   0.000000
   13  S  1  Z    0.000000   0.000000   0.000000   0.000000   0.000000
   14  S  1 XX   -0.000206   0.000845   0.000002   0.000786  -0.000000
   15  S  1 YY    0.000067  -0.000122  -0.000000  -0.000348  -0.000000
   16  S  1 ZZ    0.000138  -0.000723  -0.000002  -0.000438   0.000000
   17  S  1 XY    0.000000  -0.000002   0.000597  -0.000000   0.001265
   18  S  1 XZ    0.000000   0.000000   0.000000   0.000000   0.000000
   19  S  1 YZ    0.000000   0.000000   0.000000   0.000000   0.000000
   20  O  2  S   -0.000009   0.700632   0.704025   0.000016  -0.000120
   21  O  2  S   -0.000136   0.023622   0.023617   0.000028  -0.000079
   22  O  2  S    0.000250  -0.011095  -0.010995  -0.000404  -0.000812
   23  O  2  X   -0.000002  -0.000925  -0.000721   0.000211   0.000003
   24  O  2  Y    0.000001  -0.000216  -0.000456   0.000088   0.000023
   25  O  2  Z    0.000000   0.000000   0.000000   0.000000   0.000000
   26  O  2  X   -0.000323   0.002916   0.001717   0.000851   0.001059
   27  O  2  Y   -0.000158   0.000545   0.001477   0.000451   0.000526
   28  O  2  Z    0.000000   0.000000   0.000000   0.000000   0.000000
   29  O  2 XX    0.000159  -0.000328  -0.000143  -0.000256   0.000263
   30  O  2 YY   -0.000047   0.000124  -0.000003   0.000068  -0.000087
   31  O  2 ZZ   -0.000112   0.000204   0.000147   0.000188  -0.000176
   32  O  2 XY    0.000151  -0.000191  -0.000221  -0.000261   0.000213
   33  O  2 XZ    0.000000   0.000000   0.000000   0.000000   0.000000
   34  O  2 YZ    0.000000   0.000000   0.000000   0.000000   0.000000
   35  O  3  S   -0.000009   0.704029  -0.700627   0.000016   0.000120
   36  O  3  S   -0.000136   0.023736  -0.023503   0.000028   0.000079
   37  O  3  S    0.000250  -0.011149   0.010941  -0.000404   0.000812
   38  O  3  X    0.000002   0.000928  -0.000717  -0.000211   0.000003
   39  O  3  Y    0.000001  -0.000219   0.000455   0.000088  -0.000023
   40  O  3  Z    0.000000   0.000000   0.000000   0.000000   0.000000
   41  O  3  X    0.000323  -0.002925   0.001703  -0.000851   0.001059
   42  O  3  Y   -0.000158   0.000553  -0.001474   0.000451  -0.000526
   43  O  3  Z    0.000000   0.000000   0.000000   0.000000   0.000000
   44  O  3 XX    0.000159  -0.000329   0.000142  -0.000256  -0.000263
   45  O  3 YY   -0.000047   0.000124   0.000004   0.000068   0.000087
   46  O  3 ZZ   -0.000112   0.000204  -0.000146   0.000188   0.000176
   47  O  3 XY   -0.000151   0.000193  -0.000220   0.000261   0.000213
   48  O  3 XZ    0.000000   0.000000   0.000000   0.000000   0.000000
   49  O  3 YZ    0.000000   0.000000   0.000000   0.000000   0.000000

                      6          7          8          9         10
                   -5.8695    -5.8660    -0.9733    -0.9199    -0.6261
                     A          A          A          A          A   
    1  S  1  S    0.000000   0.003291   0.046421  -0.000000   0.071038
    2  S  1  S    0.000000  -0.011319  -0.286888   0.000000  -0.453829
    3  S  1  S    0.000000  -0.000030   0.405917  -0.000001   0.693727
    4  S  1  S    0.000000   0.000646   0.079733   0.000004   0.255317
    5  S  1  X    0.000000   0.000001  -0.000000   0.101816   0.000000
    6  S  1  Y    0.000000   0.994955  -0.042398  -0.000000   0.018354
    7  S  1  Z    0.995015   0.000000   0.000000   0.000000   0.000000
    8  S  1  X    0.000000   0.000000   0.000001  -0.229895   0.000000
    9  S  1  Y    0.000000   0.015805   0.095309   0.000000  -0.038866
   10  S  1  Z    0.015758   0.000000   0.000000   0.000000   0.000000
   11  S  1  X    0.000000  -0.000000   0.000003   0.006339  -0.000002
   12  S  1  Y    0.000000  -0.002847  -0.010223   0.000002  -0.027202
   13  S  1  Z   -0.003079   0.000000   0.000000   0.000000   0.000000
   14  S  1 XX    0.000000  -0.000168   0.043163   0.000001  -0.013701
   15  S  1 YY    0.000000   0.000673  -0.013948  -0.000000   0.000442
   16  S  1 ZZ    0.000000  -0.000505  -0.029214  -0.000000   0.013259
   17  S  1 XY    0.000000   0.000000   0.000000  -0.051854  -0.000000
   18  S  1 XZ   -0.000000   0.000000   0.000000   0.000000   0.000000
   19  S  1 YZ    0.000610   0.000000   0.000000   0.000000   0.000000
   20  O  2  S    0.000000  -0.000063  -0.140949   0.165054   0.111365
   21  O  2  S    0.000000  -0.000062   0.288910  -0.342837  -0.238071
   22  O  2  S    0.000000  -0.000217   0.277667  -0.330908  -0.297929
   23  O  2  X    0.000000  -0.000027  -0.086576   0.077033  -0.118216
   24  O  2  Y    0.000000  -0.000058  -0.037050   0.036585  -0.058449
   25  O  2  Z   -0.000063   0.000000   0.000000   0.000000   0.000000
   26  O  2  X    0.000000   0.000476  -0.038701   0.026052  -0.056076
   27  O  2  Y    0.000000   0.000041  -0.014312   0.014004  -0.022671
   28  O  2  Z   -0.000082   0.000000   0.000000   0.000000   0.000000
   29  O  2 XX    0.000000   0.000056   0.009115  -0.006362   0.004739
   30  O  2 YY    0.000000   0.000060  -0.004893   0.003589  -0.000148
   31  O  2 ZZ    0.000000  -0.000116  -0.004222   0.002774  -0.004591
   32  O  2 XY    0.000000   0.000288   0.006550  -0.006231   0.004932
   33  O  2 XZ    0.000169   0.000000   0.000000   0.000000   0.000000
   34  O  2 YZ    0.000069   0.000000   0.000000   0.000000   0.000000
   35  O  3  S    0.000000  -0.000063  -0.140949  -0.165054   0.111365
   36  O  3  S    0.000000  -0.000062   0.288910   0.342838  -0.238071
   37  O  3  S    0.000000  -0.000217   0.277672   0.330903  -0.297931
   38  O  3  X    0.000000   0.000027   0.086576   0.077033   0.118216
   39  O  3  Y    0.000000  -0.000058  -0.037050  -0.036585  -0.058449
   40  O  3  Z   -0.000063   0.000000   0.000000   0.000000   0.000000
   41  O  3  X    0.000000  -0.000476   0.038703   0.026049   0.056076
   42  O  3  Y    0.000000   0.000041  -0.014313  -0.014004  -0.022670
   43  O  3  Z   -0.000082   0.000000   0.000000   0.000000   0.000000
   44  O  3 XX    0.000000   0.000056   0.009115   0.006362   0.004739
   45  O  3 YY    0.000000   0.000060  -0.004893  -0.003589  -0.000148
   46  O  3 ZZ    0.000000  -0.000116  -0.004222  -0.002773  -0.004591
   47  O  3 XY    0.000000  -0.000288  -0.006550  -0.006231  -0.004932
   48  O  3 XZ   -0.000169   0.000000   0.000000   0.000000   0.000000
   49  O  3 YZ    0.000069   0.000000   0.000000   0.000000   0.000000

                     11         12         13         14         15
                   -0.4411    -0.4083    -0.4076    -0.3213    -0.3073
                     A          A          A          A          A   
    1  S  1  S    0.000000   0.000000  -0.011293   0.000000   0.000000
    2  S  1  S   -0.000000   0.000000   0.071972   0.000000  -0.000000
    3  S  1  S    0.000000   0.000000  -0.091428   0.000000  -0.000001
    4  S  1  S   -0.000001   0.000000  -0.157130   0.000000   0.000002
    5  S  1  X   -0.184511   0.000000  -0.000000   0.000000  -0.019594
    6  S  1  Y    0.000000   0.000000  -0.216231   0.000000   0.000000
    7  S  1  Z    0.000000  -0.217822   0.000000  -0.000000   0.000000
    8  S  1  X    0.497202   0.000000   0.000000   0.000000   0.052565
    9  S  1  Y   -0.000000   0.000000   0.583105   0.000000  -0.000001
   10  S  1  Z    0.000000   0.591184   0.000000   0.000000   0.000000
   11  S  1  X    0.005569   0.000000   0.000001   0.000000   0.096037
   12  S  1  Y   -0.000000   0.000000   0.139341   0.000000   0.000001
   13  S  1  Z    0.000000   0.171414   0.000000  -0.000000   0.000000
   14  S  1 XX   -0.000000   0.000000  -0.017177   0.000000  -0.000000
   15  S  1 YY    0.000000   0.000000   0.038539   0.000000   0.000000
   16  S  1 ZZ    0.000000   0.000000  -0.021363   0.000000   0.000000
   17  S  1 XY    0.043100   0.000000   0.000000   0.000000  -0.092125
   18  S  1 XZ    0.000000  -0.000000   0.000000   0.099370   0.000000
   19  S  1 YZ    0.000000   0.035736   0.000000   0.000000   0.000000
   20  O  2  S    0.066401   0.000000   0.021463   0.000000   0.001584
   21  O  2  S   -0.142313   0.000000  -0.046369   0.000000  -0.001281
   22  O  2  S   -0.210119   0.000000  -0.071082   0.000000  -0.037145
   23  O  2  X   -0.312411   0.000000  -0.256809   0.000000   0.275267
   24  O  2  Y   -0.188313   0.000000   0.154758   0.000000  -0.380403
   25  O  2  Z    0.000000   0.295602   0.000000   0.468736   0.000000
   26  O  2  X   -0.163155   0.000000  -0.160101   0.000000   0.188815
   27  O  2  Y   -0.108237   0.000000   0.100569   0.000000  -0.265548
   28  O  2  Z    0.000000   0.182845   0.000000   0.333404   0.000000
   29  O  2 XX    0.007570   0.000000   0.015979   0.000000  -0.010688
   30  O  2 YY    0.000050   0.000000  -0.011379   0.000000   0.011165
   31  O  2 ZZ   -0.007619   0.000000  -0.004601   0.000000  -0.000477
   32  O  2 XY    0.011786   0.000000  -0.004757   0.000000   0.010439
   33  O  2 XZ    0.000000  -0.015956   0.000000  -0.015209   0.000000
   34  O  2 YZ    0.000000  -0.006970   0.000000  -0.007490   0.000000
   35  O  3  S   -0.066401   0.000000   0.021464   0.000000  -0.001584
   36  O  3  S    0.142312   0.000000  -0.046370   0.000000   0.001281
   37  O  3  S    0.210120   0.000000  -0.071081   0.000000   0.037144
   38  O  3  X   -0.312411   0.000000   0.256810   0.000000   0.275266
   39  O  3  Y    0.188314   0.000000   0.154758   0.000000   0.380404
   40  O  3  Z    0.000000   0.295603   0.000000  -0.468736   0.000000
   41  O  3  X   -0.163153   0.000000   0.160102   0.000000   0.188814
   42  O  3  Y    0.108237   0.000000   0.100568   0.000000   0.265549
   43  O  3  Z    0.000000   0.182845   0.000000  -0.333404   0.000000
   44  O  3 XX   -0.007570   0.000000   0.015980   0.000000   0.010688
   45  O  3 YY   -0.000050   0.000000  -0.011379   0.000000  -0.011165
   46  O  3 ZZ    0.007619   0.000000  -0.004601   0.000000   0.000477
   47  O  3 XY    0.011786   0.000000   0.004757   0.000000   0.010439
   48  O  3 XZ    0.000000   0.015956   0.000000  -0.015209   0.000000
   49  O  3 YZ    0.000000  -0.006970   0.000000   0.007490   0.000000

                     16         17         18         19         20
                   -0.2843    -0.2091    -0.1120    -0.0020     0.2157
                     A          A          A          A          A   
    1  S  1  S    0.021150   0.000000   0.026210   0.000000   0.000000
    2  S  1  S   -0.137144   0.000000  -0.175436  -0.000000   0.000000
    3  S  1  S    0.173779   0.000000   0.277553  -0.000001   0.000000
    4  S  1  S    0.371072   0.000000   0.420382  -0.000001   0.000000
    5  S  1  X   -0.000000   0.000000   0.000000  -0.215301   0.000000
    6  S  1  Y    0.082941   0.000000  -0.201354  -0.000000   0.000000
    7  S  1  Z    0.000000  -0.220833   0.000000   0.000000   0.249328
    8  S  1  X    0.000000   0.000000   0.000000   0.670306   0.000000
    9  S  1  Y   -0.229463   0.000000   0.615189   0.000000   0.000000
   10  S  1  Z    0.000000   0.646640   0.000000   0.000000  -0.988237
   11  S  1  X   -0.000001   0.000000  -0.000007   0.853403   0.000000
   12  S  1  Y   -0.006201   0.000000   0.402220   0.000001   0.000000
   13  S  1  Z    0.000000   0.258103   0.000000   0.000000   1.308960
   14  S  1 XX   -0.130116   0.000000  -0.118322  -0.000002   0.000000
   15  S  1 YY    0.074159   0.000000   0.007087   0.000000   0.000000
   16  S  1 ZZ    0.055957   0.000000   0.111235   0.000002   0.000000
   17  S  1 XY    0.000000   0.000000   0.000001  -0.178953   0.000000
   18  S  1 XZ    0.000000  -0.000000   0.000000   0.000000   0.000000
   19  S  1 YZ    0.000000  -0.035872   0.000000   0.000000  -0.084098
   20  O  2  S    0.000567   0.000000   0.036779   0.056825   0.000000
   21  O  2  S    0.000361   0.000000  -0.081668  -0.113591   0.000000
   22  O  2  S   -0.045414   0.000000  -0.238257  -0.478642   0.000000
   23  O  2  X    0.129523   0.000000   0.391651   0.174450   0.000000
   24  O  2  Y    0.433169   0.000000  -0.089481   0.262709   0.000000
   25  O  2  Z    0.000000  -0.396139   0.000000   0.000000  -0.062480
   26  O  2  X    0.093219   0.000000   0.337727   0.202340   0.000000
   27  O  2  Y    0.309799   0.000000  -0.070899   0.238634   0.000000
   28  O  2  Z    0.000000  -0.304577   0.000000   0.000000  -0.128575
   29  O  2 XX    0.001088   0.000000   0.001908  -0.003392   0.000000
   30  O  2 YY   -0.004634   0.000000  -0.003553   0.005880   0.000000
   31  O  2 ZZ    0.003547   0.000000   0.001645  -0.002488   0.000000
   32  O  2 XY   -0.010741   0.000000  -0.003893   0.006034   0.000000
   33  O  2 XZ    0.000000   0.001763   0.000000   0.000000   0.013686
   34  O  2 YZ    0.000000   0.000263   0.000000   0.000000   0.004774
   35  O  3  S    0.000567   0.000000   0.036780  -0.056824   0.000000
   36  O  3  S    0.000360   0.000000  -0.081671   0.113584   0.000000
   37  O  3  S   -0.045414   0.000000  -0.238262   0.478648   0.000000
   38  O  3  X   -0.129524   0.000000  -0.391653   0.174444   0.000000
   39  O  3  Y    0.433167   0.000000  -0.089480  -0.262709   0.000000
   40  O  3  Z    0.000000  -0.396139   0.000000   0.000000  -0.062480
   41  O  3  X   -0.093220   0.000000  -0.337728   0.202343   0.000000
   42  O  3  Y    0.309798   0.000000  -0.070896  -0.238636   0.000000
   43  O  3  Z    0.000000  -0.304577   0.000000   0.000000  -0.128575
   44  O  3 XX    0.001088   0.000000   0.001908   0.003392   0.000000
   45  O  3 YY   -0.004634   0.000000  -0.003553  -0.005880   0.000000
   46  O  3 ZZ    0.003547   0.000000   0.001645   0.002488   0.000000
   47  O  3 XY    0.010741   0.000000   0.003893   0.006034   0.000000
   48  O  3 XZ    0.000000  -0.001763   0.000000   0.000000  -0.013686
   49  O  3 YZ    0.000000   0.000263   0.000000   0.000000   0.004774

                     21         22         23         24         25
                    0.2221     0.2391     0.2493     0.4886     0.4982
                     A          A          A          A          A   
    1  S  1  S    0.020924  -0.063868  -0.000003   0.000000   0.000000
    2  S  1  S   -0.152902   0.470876   0.000020   0.000000   0.000000
    3  S  1  S    0.525922  -1.836699  -0.000079   0.000000   0.000000
    4  S  1  S   -0.468857   2.139678   0.000084   0.000000   0.000000
    5  S  1  X   -0.000001  -0.000013   0.273342   0.000000   0.000000
    6  S  1  Y    0.243715   0.052910   0.000003   0.000000   0.000000
    7  S  1  Z    0.000000   0.000000   0.000000  -0.000000   0.024743
    8  S  1  X    0.000005   0.000050  -1.056687   0.000000   0.000000
    9  S  1  Y   -0.962178  -0.204567  -0.000015   0.000000   0.000000
   10  S  1  Z    0.000000   0.000000   0.000000   0.000000  -0.100604
   11  S  1  X   -0.000006  -0.000064   1.488723   0.000000   0.000000
   12  S  1  Y    1.259354   0.552536   0.000027   0.000000   0.000000
   13  S  1  Z    0.000000   0.000000   0.000000  -0.000000   0.069256
   14  S  1 XX    0.100942  -0.038586  -0.000005   0.000000   0.000000
   15  S  1 YY   -0.108053  -0.031666  -0.000001   0.000000   0.000000
   16  S  1 ZZ    0.007112   0.070252   0.000006   0.000000   0.000000
   17  S  1 XY    0.000000  -0.000001   0.082248   0.000000   0.000000
   18  S  1 XZ    0.000000   0.000000   0.000000   0.859286   0.000002
   19  S  1 YZ    0.000000   0.000000   0.000000  -0.000002   0.953723
   20  O  2  S    0.003015   0.023159   0.010478   0.000000   0.000000
   21  O  2  S    0.013748  -0.027776   0.034774   0.000000   0.000000
   22  O  2  S   -0.117746  -0.431119  -0.456977   0.000000   0.000000
   23  O  2  X   -0.036118  -0.110977  -0.239849   0.000000   0.000000
   24  O  2  Y   -0.048514  -0.117859  -0.077382   0.000000   0.000000
   25  O  2  Z    0.000000   0.000000   0.000000  -0.346431  -0.194027
   26  O  2  X    0.021625   0.160325  -0.056575   0.000000   0.000000
   27  O  2  Y   -0.114046   0.014897   0.032751   0.000000   0.000000
   28  O  2  Z    0.000000   0.000000   0.000000   0.157179   0.094121
   29  O  2 XX   -0.014159  -0.028973  -0.021589   0.000000   0.000000
   30  O  2 YY    0.010782   0.007919   0.002900   0.000000   0.000000
   31  O  2 ZZ    0.003376   0.021054   0.018689   0.000000   0.000000
   32  O  2 XY    0.007232  -0.025273  -0.028467   0.000000   0.000000
   33  O  2 XZ    0.000000   0.000000   0.000000  -0.050711  -0.035165
   34  O  2 YZ    0.000000   0.000000   0.000000  -0.033260   0.007007
   35  O  3  S    0.003016   0.023161  -0.010476   0.000000   0.000000
   36  O  3  S    0.013746  -0.027780  -0.034787   0.000000   0.000000
   37  O  3  S   -0.117746  -0.431148   0.456955   0.000000   0.000000
   38  O  3  X    0.036119   0.110994  -0.239845   0.000000   0.000000
   39  O  3  Y   -0.048515  -0.117866   0.077371   0.000000   0.000000
   40  O  3  Z    0.000000   0.000000   0.000000   0.346431  -0.194026
   41  O  3  X   -0.021623  -0.160312  -0.056577   0.000000   0.000000
   42  O  3  Y   -0.114046   0.014898  -0.032753   0.000000   0.000000
   43  O  3  Z    0.000000   0.000000   0.000000  -0.157179   0.094120
   44  O  3 XX   -0.014159  -0.028974   0.021586   0.000000   0.000000
   45  O  3 YY    0.010782   0.007919  -0.002899   0.000000   0.000000
   46  O  3 ZZ    0.003376   0.021055  -0.018688   0.000000   0.000000
   47  O  3 XY   -0.007232   0.025276  -0.028465   0.000000   0.000000
   48  O  3 XZ    0.000000   0.000000   0.000000  -0.050711   0.035165
   49  O  3 YZ    0.000000   0.000000   0.000000   0.033260   0.007007

                     26         27         28         29         30
                    0.4996     0.6319     0.6579     0.7913     0.8065
                     A          A          A          A          A   
    1  S  1  S   -0.000076  -0.000000   0.006712   0.000000  -0.000000
    2  S  1  S    0.000978   0.000000  -0.051645   0.000000   0.000001
    3  S  1  S   -0.009975   0.000000   0.052667   0.000000  -0.000003
    4  S  1  S    0.006864  -0.000011   0.849457   0.000000  -0.000003
    5  S  1  X   -0.000000  -0.110879  -0.000001   0.000000  -0.043079
    6  S  1  Y    0.028793   0.000000  -0.065686   0.000000   0.000000
    7  S  1  Z    0.000000   0.000000   0.000000   0.000000   0.000000
    8  S  1  X    0.000001   0.526354   0.000005   0.000000   0.293879
    9  S  1  Y   -0.118610  -0.000003   0.316023   0.000000  -0.000002
   10  S  1  Z    0.000000   0.000000   0.000000  -0.000000   0.000000
   11  S  1  X   -0.000001   0.321685   0.000006   0.000000  -0.283689
   12  S  1  Y    0.086423  -0.000003   0.183651   0.000000   0.000003
   13  S  1  Z    0.000000   0.000000   0.000000   0.000000   0.000000
   14  S  1 XX   -0.182095  -0.000005   0.785796   0.000000  -0.000002
   15  S  1 YY    0.883891   0.000001  -0.152492   0.000000   0.000003
   16  S  1 ZZ   -0.701796   0.000004  -0.633304   0.000000  -0.000001
   17  S  1 XY    0.000000   0.850013   0.000006   0.000000   0.246908
   18  S  1 XZ    0.000000   0.000000   0.000000  -0.527145   0.000000
   19  S  1 YZ    0.000000   0.000000   0.000000  -0.000000   0.000000
   20  O  2  S    0.000657   0.068127   0.075217   0.000000   0.002788
   21  O  2  S   -0.005401  -0.267977  -0.315352   0.000000   0.033596
   22  O  2  S   -0.002830  -0.195132  -0.182938   0.000000  -0.035133
   23  O  2  X    0.096206   0.022070  -0.232599   0.000000  -0.433215
   24  O  2  Y   -0.213362  -0.246069   0.098638   0.000000   0.430518
   25  O  2  Z    0.000000   0.000000   0.000000  -0.552902   0.000000
   26  O  2  X   -0.056867   0.480036   0.744641   0.000000   0.692473
   27  O  2  Y    0.097637   0.424507   0.152338   0.000000  -0.488183
   28  O  2  Z    0.000000   0.000000   0.000000   0.757257   0.000000
   29  O  2 XX    0.023701   0.048455  -0.000204   0.000000   0.040143
   30  O  2 YY   -0.007863  -0.039183   0.019717   0.000000  -0.022169
   31  O  2 ZZ   -0.015839  -0.009271  -0.019513   0.000000  -0.017974
   32  O  2 XY   -0.031558  -0.002469   0.027848   0.000000   0.007911
   33  O  2 XZ    0.000000   0.000000   0.000000   0.051698   0.000000
   34  O  2 YZ    0.000000   0.000000   0.000000   0.030683   0.000000
   35  O  3  S    0.000657  -0.068128   0.075216   0.000000  -0.002790
   36  O  3  S   -0.005402   0.267977  -0.315352   0.000000  -0.033583
   37  O  3  S   -0.002830   0.195142  -0.182928   0.000000   0.035123
   38  O  3  X   -0.096206   0.022063   0.232590   0.000000  -0.433223
   39  O  3  Y   -0.213362   0.246070   0.098639   0.000000  -0.430504
   40  O  3  Z    0.000000   0.000000   0.000000   0.552901   0.000000
   41  O  3  X    0.056868   0.480051  -0.744623   0.000000   0.692485
   42  O  3  Y    0.097637  -0.424511   0.152334   0.000000   0.488163
   43  O  3  Z    0.000000   0.000000   0.000000  -0.757256   0.000000
   44  O  3 XX    0.023701  -0.048455  -0.000205   0.000000  -0.040143
   45  O  3 YY   -0.007863   0.039183   0.019718   0.000000   0.022169
   46  O  3 ZZ   -0.015839   0.009272  -0.019513   0.000000   0.017974
   47  O  3 XY    0.031558  -0.002469  -0.027848   0.000000   0.007912
   48  O  3 XZ    0.000000   0.000000   0.000000   0.051698   0.000000
   49  O  3 YZ    0.000000   0.000000   0.000000  -0.030683   0.000000

                     31         32         33         34         35
                    0.8230     0.8450     0.8507     0.8556     1.4281
                     A          A          A          A          A   
    1  S  1  S    0.012137   0.000000   0.000000  -0.007286   0.000000
    2  S  1  S   -0.103680   0.000000  -0.000000   0.064875  -0.000001
    3  S  1  S    0.512608   0.000000   0.000001  -0.392483   0.000014
    4  S  1  S   -0.078549   0.000000  -0.000001   0.272464  -0.000063
    5  S  1  X   -0.000000   0.000000   0.028632   0.000000  -0.072822
    6  S  1  Y   -0.015362   0.000000   0.000000  -0.011709   0.000001
    7  S  1  Z    0.000000  -0.000979   0.000000   0.000000   0.000000
    8  S  1  X    0.000003   0.000000  -0.327384  -0.000001   0.463694
    9  S  1  Y    0.147993   0.000000  -0.000000  -0.010409  -0.000008
   10  S  1  Z    0.000000   0.005463   0.000000   0.000000   0.000000
   11  S  1  X   -0.000003   0.000000   0.217435   0.000001   1.047727
   12  S  1  Y   -0.418685   0.000000   0.000001  -0.238680  -0.000023
   13  S  1  Z    0.000000  -0.542516   0.000000   0.000000   0.000000
   14  S  1 XX   -0.048919   0.000000  -0.000002   0.696146  -0.000014
   15  S  1 YY   -0.214225   0.000000   0.000001  -0.406028   0.000002
   16  S  1 ZZ    0.263144   0.000000   0.000001  -0.290118   0.000012
   17  S  1 XY    0.000004   0.000000   0.551891   0.000002   0.295357
   18  S  1 XZ    0.000000   0.000000   0.000000   0.000000   0.000000
   19  S  1 YZ    0.000000  -0.299220   0.000000   0.000000   0.000000
   20  O  2  S   -0.001844   0.000000  -0.000733   0.003873  -0.077286
   21  O  2  S    0.028560   0.000000   0.061642   0.062734   1.225756
   22  O  2  S    0.021158   0.000000  -0.157465  -0.168424  -1.879955
   23  O  2  X   -0.199485   0.000000   0.462343   0.525580  -0.018169
   24  O  2  Y   -0.586126   0.000000   0.376006  -0.130226  -0.114612
   25  O  2  Z    0.000000  -0.611946   0.000000   0.000000   0.000000
   26  O  2  X    0.255808   0.000000  -0.480705  -0.519177   0.374327
   27  O  2  Y    0.799596   0.000000  -0.490496   0.372766   0.408194
   28  O  2  Z    0.000000   0.885836   0.000000   0.000000   0.000000
   29  O  2 XX    0.013436   0.000000   0.019969  -0.043685   0.100798
   30  O  2 YY   -0.004535   0.000000  -0.036633   0.049272  -0.028777
   31  O  2 ZZ   -0.008901   0.000000   0.016664  -0.005587  -0.072021
   32  O  2 XY    0.035245   0.000000  -0.041925   0.046534   0.108170
   33  O  2 XZ    0.000000   0.037723   0.000000   0.000000   0.000000
   34  O  2 YZ    0.000000   0.007635   0.000000   0.000000   0.000000
   35  O  3  S   -0.001845   0.000000   0.000734   0.003873   0.077291
   36  O  3  S    0.028566   0.000000  -0.061651   0.062727  -1.225835
   37  O  3  S    0.021153   0.000000   0.157474  -0.168416   1.880082
   38  O  3  X    0.199474   0.000000   0.462348  -0.525575  -0.018176
   39  O  3  Y   -0.586136   0.000000  -0.376005  -0.130229   0.114607
   40  O  3  Z    0.000000  -0.611947   0.000000   0.000000   0.000000
   41  O  3  X   -0.255791   0.000000  -0.480710   0.519172   0.374373
   42  O  3  Y    0.799606   0.000000   0.490494   0.372769  -0.408197
   43  O  3  Z    0.000000   0.885836   0.000000   0.000000   0.000000
   44  O  3 XX    0.013434   0.000000  -0.019968  -0.043685  -0.100807
   45  O  3 YY   -0.004534   0.000000   0.036633   0.049272   0.028779
   46  O  3 ZZ   -0.008900   0.000000  -0.016664  -0.005587   0.072027
   47  O  3 XY   -0.035244   0.000000  -0.041925  -0.046534   0.108176
   48  O  3 XZ    0.000000  -0.037723   0.000000   0.000000   0.000000
   49  O  3 YZ    0.000000   0.007635   0.000000   0.000000   0.000000

                     36         37         38         39         40
                    1.4657     2.0733     2.0735     2.0774     2.0824
                     A          A          A          A          A   
    1  S  1  S   -0.001636  -0.000000   0.000000   0.000000  -0.000986
    2  S  1  S    0.018377   0.000000   0.000000   0.000000   0.007790
    3  S  1  S    0.240205  -0.000000   0.000000   0.000000  -0.028559
    4  S  1  S   -1.668748   0.000000   0.000000   0.000000   0.016971
    5  S  1  X    0.000002  -0.002548   0.000000   0.000000  -0.000000
    6  S  1  Y    0.042813   0.000000   0.000000   0.000000   0.004607
    7  S  1  Z    0.000000   0.000000  -0.000000  -0.015725   0.000000
    8  S  1  X   -0.000012   0.006499   0.000000   0.000000   0.000000
    9  S  1  Y   -0.266128  -0.000000   0.000000   0.000000  -0.018724
   10  S  1  Z    0.000000   0.000000   0.000000   0.051182   0.000000
   11  S  1  X   -0.000045   0.019837   0.000000   0.000000  -0.000000
   12  S  1  Y   -0.589418   0.000000   0.000000   0.000000   0.007204
   13  S  1  Z    0.000000   0.000000   0.000000   0.017326   0.000000
   14  S  1 XX   -0.342453   0.000000   0.000000   0.000000   0.023665
   15  S  1 YY    0.050001   0.000000   0.000000   0.000000   0.037039
   16  S  1 ZZ    0.292452  -0.000000   0.000000   0.000000  -0.060704
   17  S  1 XY   -0.000012  -0.033367   0.000000   0.000000   0.000000
   18  S  1 XZ    0.000000   0.000000   0.025986  -0.000000   0.000000
   19  S  1 YZ    0.000000   0.000000  -0.000000  -0.006897   0.000000
   20  O  2  S    0.072022  -0.001313   0.000000   0.000000   0.001596
   21  O  2  S   -1.197396   0.011788   0.000000   0.000000  -0.007698
   22  O  2  S    1.847029  -0.015508   0.000000   0.000000  -0.001576
   23  O  2  X    0.130843   0.003386   0.000000   0.000000   0.010993
   24  O  2  Y   -0.046366  -0.010776   0.000000   0.000000   0.002665
   25  O  2  Z    0.000000   0.000000   0.005670   0.014852   0.000000
   26  O  2  X   -0.707640  -0.009051   0.000000   0.000000  -0.008962
   27  O  2  Y   -0.067130   0.015274   0.000000   0.000000  -0.002526
   28  O  2  Z    0.000000   0.000000  -0.008928  -0.024029   0.000000
   29  O  2 XX   -0.151753   0.227283   0.000000   0.000000  -0.056249
   30  O  2 YY    0.054978   0.372578   0.000000   0.000000  -0.540058
   31  O  2 ZZ    0.096775  -0.599861   0.000000   0.000000   0.596307
   32  O  2 XY   -0.089159  -0.365303   0.000000   0.000000   0.257525
   33  O  2 XZ    0.000000   0.000000   0.402613  -0.056987   0.000000
   34  O  2 YZ    0.000000   0.000000  -0.581440   0.705476   0.000000
   35  O  3  S    0.072017   0.001313   0.000000   0.000000   0.001596
   36  O  3  S   -1.197316  -0.011788   0.000000   0.000000  -0.007698
   37  O  3  S    1.846898   0.015508   0.000000   0.000000  -0.001577
   38  O  3  X   -0.130845   0.003386   0.000000   0.000000  -0.010993
   39  O  3  Y   -0.046375   0.010776   0.000000   0.000000   0.002664
   40  O  3  Z    0.000000   0.000000  -0.005670   0.014852   0.000000
   41  O  3  X    0.707621  -0.009051   0.000000   0.000000   0.008962
   42  O  3  Y   -0.067100  -0.015274   0.000000   0.000000  -0.002526
   43  O  3  Z    0.000000   0.000000   0.008927  -0.024029   0.000000
   44  O  3 XX   -0.151747  -0.227284   0.000000   0.000000  -0.056247
   45  O  3 YY    0.054976  -0.372582   0.000000   0.000000  -0.540054
   46  O  3 ZZ    0.096771   0.599866   0.000000   0.000000   0.596301
   47  O  3 XY    0.089152  -0.365305   0.000000   0.000000  -0.257522
   48  O  3 XZ    0.000000   0.000000   0.402615   0.056980   0.000000
   49  O  3 YZ    0.000000   0.000000   0.581453   0.705466   0.000000

                     41         42         43         44         45
                    2.1198     2.1235     2.1963     2.2060     2.5636
                     A          A          A          A          A   
    1  S  1  S    0.000000   0.000000   0.000000  -0.004975  -0.028843
    2  S  1  S    0.000000  -0.000000   0.000000   0.039181   0.221333
    3  S  1  S    0.000000   0.000000   0.000000  -0.078601  -0.473511
    4  S  1  S    0.000000  -0.000001   0.000000  -0.208657  -0.760855
    5  S  1  X    0.000000  -0.041793   0.000000  -0.000000  -0.000000
    6  S  1  Y    0.000000  -0.000000   0.000000   0.056322   0.086060
    7  S  1  Z    0.042262   0.000000  -0.000000   0.000000   0.000000
    8  S  1  X    0.000000   0.185385   0.000000   0.000000   0.000001
    9  S  1  Y    0.000000   0.000000   0.000000  -0.215169  -0.431961
   10  S  1  Z   -0.136221   0.000000   0.000000   0.000000   0.000000
   11  S  1  X    0.000000   0.036561   0.000000  -0.000001  -0.000003
   12  S  1  Y    0.000000  -0.000000   0.000000  -0.145587  -0.102314
   13  S  1  Z   -0.075069   0.000000  -0.000000   0.000000   0.000000
   14  S  1 XX    0.000000  -0.000000   0.000000   0.165609  -0.611022
   15  S  1 YY    0.000000   0.000000   0.000000  -0.241653   0.221988
   16  S  1 ZZ    0.000000   0.000000   0.000000   0.076044   0.389034
   17  S  1 XY    0.000000  -0.191172   0.000000  -0.000000  -0.000000
   18  S  1 XZ    0.000000   0.000000   0.352164   0.000000   0.000000
   19  S  1 YZ   -0.179872   0.000000   0.000000   0.000000   0.000000
   20  O  2  S    0.000000  -0.006774   0.000000   0.010044   0.008966
   21  O  2  S    0.000000   0.097466   0.000000  -0.173710  -0.485377
   22  O  2  S    0.000000  -0.133960   0.000000   0.273050   0.933537
   23  O  2  X    0.000000  -0.027075   0.000000   0.074300   0.055999
   24  O  2  Y    0.000000  -0.053222   0.000000  -0.031495   0.025189
   25  O  2  Z   -0.049885   0.000000   0.039713   0.000000   0.000000
   26  O  2  X    0.000000   0.049063   0.000000  -0.192585  -0.535023
   27  O  2  Y    0.000000   0.098624   0.000000   0.076549  -0.255442
   28  O  2  Z    0.100712   0.000000  -0.097775   0.000000   0.000000
   29  O  2 XX    0.000000   0.356664   0.000000   0.564172   0.461744
   30  O  2 YY    0.000000  -0.549811   0.000000  -0.457717  -0.068112
   31  O  2 ZZ    0.000000   0.193147   0.000000  -0.106454  -0.393632
   32  O  2 XY    0.000000  -0.441038   0.000000  -0.392579   0.584283
   33  O  2 XZ   -0.712327   0.000000   0.592588   0.000000   0.000000
   34  O  2 YZ   -0.062078   0.000000   0.407149   0.000000   0.000000
   35  O  3  S    0.000000   0.006774   0.000000   0.010044   0.008966
   36  O  3  S    0.000000  -0.097466   0.000000  -0.173710  -0.485377
   37  O  3  S    0.000000   0.133960   0.000000   0.273048   0.933534
   38  O  3  X    0.000000  -0.027075   0.000000  -0.074300  -0.056000
   39  O  3  Y    0.000000   0.053222   0.000000  -0.031495   0.025189
   40  O  3  Z   -0.049885   0.000000  -0.039713   0.000000   0.000000
   41  O  3  X    0.000000   0.049063   0.000000   0.192585   0.535024
   42  O  3  Y    0.000000  -0.098624   0.000000   0.076549  -0.255440
   43  O  3  Z    0.100712   0.000000   0.097775   0.000000   0.000000
   44  O  3 XX    0.000000  -0.356665   0.000000   0.564171   0.461746
   45  O  3 YY    0.000000   0.549812   0.000000  -0.457717  -0.068113
   46  O  3 ZZ    0.000000  -0.193147   0.000000  -0.106454  -0.393633
   47  O  3 XY    0.000000  -0.441038   0.000000   0.392579  -0.584284
   48  O  3 XZ    0.712328   0.000000   0.592588   0.000000   0.000000
   49  O  3 YZ   -0.062079   0.000000  -0.407148   0.000000   0.000000

                     46
                    2.5996
                     A   
    1  S  1  S    0.000000
    2  S  1  S   -0.000001
    3  S  1  S    0.000002
    4  S  1  S   -0.000002
    5  S  1  X   -0.192882
    6  S  1  Y   -0.000000
    7  S  1  Z    0.000000
    8  S  1  X    0.935077
    9  S  1  Y    0.000001
   10  S  1  Z    0.000000
   11  S  1  X    0.166875
   12  S  1  Y   -0.000001
   13  S  1  Z    0.000000
   14  S  1 XX    0.000000
   15  S  1 YY   -0.000000
   16  S  1 ZZ    0.000000
   17  S  1 XY    0.524606
   18  S  1 XZ    0.000000
   19  S  1 YZ    0.000000
   20  O  2  S   -0.006135
   21  O  2  S    0.416751
   22  O  2  S   -0.821175
   23  O  2  X   -0.038931
   24  O  2  Y   -0.019871
   25  O  2  Z    0.000000
   26  O  2  X    0.497644
   27  O  2  Y    0.228029
   28  O  2  Z    0.000000
   29  O  2 XX   -0.627166
   30  O  2 YY    0.272453
   31  O  2 ZZ    0.354714
   32  O  2 XY   -0.454418
   33  O  2 XZ    0.000000
   34  O  2 YZ    0.000000
   35  O  3  S    0.006135
   36  O  3  S   -0.416750
   37  O  3  S    0.821175
   38  O  3  X   -0.038931
   39  O  3  Y    0.019871
   40  O  3  Z    0.000000
   41  O  3  X    0.497643
   42  O  3  Y   -0.228028
   43  O  3  Z    0.000000
   44  O  3 XX    0.627165
   45  O  3 YY   -0.272452
   46  O  3 ZZ   -0.354713
   47  O  3 XY   -0.454416
   48  O  3 XZ    0.000000
   49  O  3 YZ    0.000000
 ...... END OF RHF CALCULATION ......
 STEP CPU TIME =     2.47 TOTAL CPU TIME =          2.6 (      0.0 MIN)
 TOTAL WALL CLOCK TIME=          2.7 SECONDS, CPU UTILIZATION IS    98.50%

     ---------------------------------------------------------------------
     PROPERTIES FOR THE PBE      DFT FUNCTIONAL (RHF  TYPE) DENSITY MATRIX
     ---------------------------------------------------------------------

          -----------------
          ENERGY COMPONENTS
          -----------------

         WAVEFUNCTION NORMALIZATION =       1.0000000000

                ONE ELECTRON ENERGY =    -941.1786673812
                TWO ELECTRON ENERGY =     299.5435375512
           NUCLEAR REPULSION ENERGY =      93.4264336669
                                      ------------------
                       TOTAL ENERGY =    -548.2086961632

 ELECTRON-ELECTRON POTENTIAL ENERGY =     299.5435375512
  NUCLEUS-ELECTRON POTENTIAL ENERGY =   -1487.9965282526
   NUCLEUS-NUCLEUS POTENTIAL ENERGY =      93.4264336669
                                      ------------------
             TOTAL POTENTIAL ENERGY =   -1095.0265570346
               TOTAL KINETIC ENERGY =     546.8178608714
                 VIRIAL RATIO (V/T) =       2.0025435074

          ---------------------------------------
          MULLIKEN AND LOWDIN POPULATION ANALYSES
          ---------------------------------------

     ATOMIC MULLIKEN POPULATION IN EACH MOLECULAR ORBITAL

                      1          2          3          4          5

                  2.000000   2.000000   2.000000   2.000000   2.000000

    1             1.999971   0.000859   0.000878   2.000620   2.000356
    2             0.000014   0.994736   1.004396  -0.000310  -0.000178
    3             0.000014   1.004405   0.994726  -0.000310  -0.000178

                      6          7          8          9         10

                  2.000000   2.000000   2.000000   2.000000   2.000000

    1             2.000009   2.000066   0.605092   0.266338   1.110457
    2            -0.000005  -0.000033   0.697450   0.866835   0.444770
    3            -0.000005  -0.000033   0.697458   0.866827   0.444773

                     11         12         13         14         15

                  2.000000   2.000000   2.000000   2.000000   2.000000

    1             0.541943   1.114413   1.078680   0.059066   0.098241
    2             0.729030   0.442793   0.460659   0.970467   0.950879
    3             0.729027   0.442794   0.460661   0.970466   0.950880

                     16

                  2.000000

    1             0.401310
    2             0.799347
    3             0.799343

               ----- POPULATIONS IN EACH AO -----
                             MULLIKEN      LOWDIN
              1  S  1  S      1.99984     1.99928
              2  S  1  S      1.99259     1.88875
              3  S  1  S      1.35883     0.69482
              4  S  1  S      0.55194     0.46996
              5  S  1  X      1.99352     1.95646
              6  S  1  Y      1.99465     1.96493
              7  S  1  Z      1.99389     1.96082
              8  S  1  X      0.79973     0.67859
              9  S  1  Y      0.99099     0.91077
             10  S  1  Z      0.87349     0.78903
             11  S  1  X      0.03109     0.19924
             12  S  1  Y      0.17400     0.30889
             13  S  1  Z      0.24063     0.34692
             14  S  1 XX      0.03175     0.31062
             15  S  1 YY      0.10246     0.30450
             16  S  1 ZZ      0.08341     0.30465
             17  S  1 XY      0.05907     0.09813
             18  S  1 XZ      0.00641     0.06950
             19  S  1 YZ      0.00000     0.00617
             20  O  2  S      1.99568     1.97294
             21  O  2  S      0.96599     0.70981
             22  O  2  S      0.97297     0.54945
             23  O  2  X      0.81110     0.77007
             24  O  2  Y      1.07969     1.04878
             25  O  2  Z      0.84060     0.80738
             26  O  2  X      0.44847     0.56262
             27  O  2  Y      0.66405     0.71061
             28  O  2  Z      0.56889     0.60148
             29  O  2 XX      0.00157     0.21205
             30  O  2 YY      0.00424     0.20349
             31  O  2 ZZ      0.00383     0.20860
             32  O  2 XY      0.00310     0.00678
             33  O  2 XZ      0.00066     0.00407
             34  O  2 YZ      0.00000     0.00085
             35  O  3  S      1.99568     1.97294
             36  O  3  S      0.96599     0.70981
             37  O  3  S      0.97297     0.54945
             38  O  3  X      0.81110     0.77007
             39  O  3  Y      1.07969     1.04878
             40  O  3  Z      0.84060     0.80738
             41  O  3  X      0.44847     0.56262
             42  O  3  Y      0.66405     0.71061
             43  O  3  Z      0.56889     0.60148
             44  O  3 XX      0.00157     0.21205
             45  O  3 YY      0.00424     0.20349
             46  O  3 ZZ      0.00383     0.20860
             47  O  3 XY      0.00310     0.00678
             48  O  3 XZ      0.00066     0.00407
             49  O  3 YZ      0.00000     0.00085

          ----- MULLIKEN ATOMIC OVERLAP POPULATIONS -----
          (OFF-DIAGONAL ELEMENTS NEED TO BE MULTIPLIED BY 2)

             1           2           3

    1   14.7633665
    2    0.2574657   8.1123902
    3    0.2574651  -0.0090045   8.1123906

          TOTAL MULLIKEN AND LOWDIN ATOMIC POPULATIONS
       ATOM         MULL.POP.    CHARGE          LOW.POP.     CHARGE
    1 S            15.278297    0.721703        15.262035    0.737965
    2 O             8.360851   -0.360851         8.368982   -0.368982
    3 O             8.360851   -0.360851         8.368983   -0.368983

          MULLIKEN SPHERICAL HARMONIC POPULATIONS
       ATOM           S       P       D      F      G      H      I    TOTAL
    1 S             5.90    9.09    0.28   0.00   0.00   0.00   0.00   15.28
    2 O             3.93    4.41    0.01   0.00   0.00   0.00   0.00    8.36
    3 O             3.93    4.41    0.01   0.00   0.00   0.00   0.00    8.36

          -------------------------------
          BOND ORDER AND VALENCE ANALYSIS     BOND ORDER THRESHOLD=0.050
          -------------------------------

                   BOND                       BOND                       BOND
  ATOM PAIR DIST  ORDER      ATOM PAIR DIST  ORDER      ATOM PAIR DIST  ORDER
    1   2  1.650  1.712        1   3  1.650  1.712        2   3  2.991  0.417

                       TOTAL       BONDED        FREE
      ATOM            VALENCE     VALENCE     VALENCE
    1 S                 3.423       3.423      -0.000
    2 O                 2.129       2.129       0.000
    3 O                 2.129       2.129       0.000

          ---------------------
          ELECTROSTATIC MOMENTS
          ---------------------

 POINT   1           X           Y           Z (BOHR)    CHARGE
                 0.000000   -0.000000    0.000000        0.00 (A.U.)
         DX          DY          DZ         /D/  (DEBYE)
    -0.000001   -1.549653    0.000000    1.549653
 ...... END OF PROPERTY EVALUATION ......
 STEP CPU TIME =     0.01 TOTAL CPU TIME =          2.6 (      0.0 MIN)
 TOTAL WALL CLOCK TIME=          2.7 SECONDS, CPU UTILIZATION IS    98.50%
                580000  WORDS OF DYNAMIC MEMORY USED
 EXECUTION OF GAMESS TERMINATED NORMALLY Sun Sep 29 10:53:06 2019
 DDI: 263640 bytes (0.3 MB / 0 MWords) used by master data server.

 ----------------------------------------
 CPU timing information for all processes
 ========================================
 0: 2.566 + 0.70 = 2.636
 ----------------------------------------
 ddikick.x: exited gracefully.
----- accounting info -----
Files used on the master node crcfe02.crc.nd.edu were:
-rw-r--r-- 1 cdrisko campus     208 Sep 29 10:53 /afs/crc.nd.edu/user/c/cdrisko/SO2.F05
-rw-r--r-- 1 cdrisko campus   37566 Sep 29 10:53 /afs/crc.nd.edu/user/c/cdrisko/SO2.F07
-rw-r--r-- 1 cdrisko campus 3960352 Sep 29 10:53 /afs/crc.nd.edu/user/c/cdrisko/SO2.F08
-rw-r--r-- 1 cdrisko campus 1766880 Sep 29 10:53 /afs/crc.nd.edu/user/c/cdrisko/SO2.F10
Sun Sep 29 10:53:09 EDT 2019
0.435u 0.255s 0:06.33 10.7%	0+0k 0+24io 0pf+0w
