  13  13   0   0
  0.4262391E+02  0.5142081E-09  0.5142081E-09  0.2419849E-08  0.5000000E-15
  1.000000000000000E-004
  CAR 
 unknown system                          
      9.22646468    -21.47868087  301     -1.72618217      1.00000000
    -21.479  0.0000E+00  0.0000E+00
    -21.376  0.0000E+00  0.0000E+00
    -21.274  0.0000E+00  0.0000E+00
    -21.172  0.0000E+00  0.0000E+00
    -21.069  0.0000E+00  0.0000E+00
    -20.967 -0.6366E-34 -0.6516E-35
    -20.865 -0.1639E-26 -0.1677E-27
    -20.762 -0.5151E-20 -0.5272E-21
    -20.660 -0.1896E-14 -0.1940E-15
    -20.558 -0.8659E-10 -0.8862E-11
    -20.455 -0.4599E-06 -0.4708E-07
    -20.353 -0.2717E-03 -0.2786E-04
    -20.250 -0.1475E-01 -0.1537E-02
    -20.148  0.3808E-01  0.2360E-02
    -20.046  0.6793E+00  0.7188E-01
    -19.943  0.3085E+00  0.1035E+00
    -19.841 -0.3133E-01  0.1003E+00
    -19.739 -0.2480E-02  0.1000E+00
    -19.636 -0.1236E-04  0.1000E+00
    -19.534 -0.6458E-08  0.1000E+00
    -19.432 -0.3867E-12  0.1000E+00
    -19.329  0.0000E+00  0.1000E+00
    -19.227  0.0000E+00  0.1000E+00
    -19.125  0.0000E+00  0.1000E+00
    -19.022  0.0000E+00  0.1000E+00
    -18.920  0.0000E+00  0.1000E+00
    -18.818  0.0000E+00  0.1000E+00
    -18.715  0.0000E+00  0.1000E+00
    -18.613  0.0000E+00  0.1000E+00
    -18.511  0.0000E+00  0.1000E+00
    -18.408  0.0000E+00  0.1000E+00
    -18.306  0.0000E+00  0.1000E+00
    -18.203  0.0000E+00  0.1000E+00
    -18.101  0.0000E+00  0.1000E+00
    -17.999  0.0000E+00  0.1000E+00
    -17.896  0.0000E+00  0.1000E+00
    -17.794  0.0000E+00  0.1000E+00
    -17.692  0.0000E+00  0.1000E+00
    -17.589  0.0000E+00  0.1000E+00
    -17.487  0.0000E+00  0.1000E+00
    -17.385  0.0000E+00  0.1000E+00
    -17.282  0.0000E+00  0.1000E+00
    -17.180  0.0000E+00  0.1000E+00
    -17.078  0.0000E+00  0.1000E+00
    -16.975  0.0000E+00  0.1000E+00
    -16.873  0.0000E+00  0.1000E+00
    -16.771  0.0000E+00  0.1000E+00
    -16.668  0.0000E+00  0.1000E+00
    -16.566  0.0000E+00  0.1000E+00
    -16.464  0.0000E+00  0.1000E+00
    -16.361  0.0000E+00  0.1000E+00
    -16.259  0.0000E+00  0.1000E+00
    -16.156  0.0000E+00  0.1000E+00
    -16.054  0.0000E+00  0.1000E+00
    -15.952  0.0000E+00  0.1000E+00
    -15.849  0.0000E+00  0.1000E+00
    -15.747  0.0000E+00  0.1000E+00
    -15.645  0.0000E+00  0.1000E+00
    -15.542  0.0000E+00  0.1000E+00
    -15.440  0.0000E+00  0.1000E+00
    -15.338  0.0000E+00  0.1000E+00
    -15.235  0.0000E+00  0.1000E+00
    -15.133  0.0000E+00  0.1000E+00
    -15.031  0.0000E+00  0.1000E+00
    -14.928  0.0000E+00  0.1000E+00
    -14.826  0.0000E+00  0.1000E+00
    -14.724  0.0000E+00  0.1000E+00
    -14.621  0.0000E+00  0.1000E+00
    -14.519  0.0000E+00  0.1000E+00
    -14.416  0.0000E+00  0.1000E+00
    -14.314  0.0000E+00  0.1000E+00
    -14.212  0.0000E+00  0.1000E+00
    -14.109  0.0000E+00  0.1000E+00
    -14.007  0.0000E+00  0.1000E+00
    -13.905  0.0000E+00  0.1000E+00
    -13.802  0.0000E+00  0.1000E+00
    -13.700  0.0000E+00  0.1000E+00
    -13.598  0.0000E+00  0.1000E+00
    -13.495  0.0000E+00  0.1000E+00
    -13.393  0.0000E+00  0.1000E+00
    -13.291  0.0000E+00  0.1000E+00
    -13.188  0.0000E+00  0.1000E+00
    -13.086  0.0000E+00  0.1000E+00
    -12.984  0.0000E+00  0.1000E+00
    -12.881  0.0000E+00  0.1000E+00
    -12.779  0.0000E+00  0.1000E+00
    -12.677  0.0000E+00  0.1000E+00
    -12.574  0.0000E+00  0.1000E+00
    -12.472  0.0000E+00  0.1000E+00
    -12.369  0.0000E+00  0.1000E+00
    -12.267  0.0000E+00  0.1000E+00
    -12.165  0.0000E+00  0.1000E+00
    -12.062  0.0000E+00  0.1000E+00
    -11.960  0.0000E+00  0.1000E+00
    -11.858  0.0000E+00  0.1000E+00
    -11.755  0.0000E+00  0.1000E+00
    -11.653  0.0000E+00  0.1000E+00
    -11.551  0.0000E+00  0.1000E+00
    -11.448  0.0000E+00  0.1000E+00
    -11.346  0.0000E+00  0.1000E+00
    -11.244  0.0000E+00  0.1000E+00
    -11.141 -0.6728E-33  0.1000E+00
    -11.039 -0.8034E-26  0.1000E+00
    -10.937 -0.1159E-19  0.1000E+00
    -10.834 -0.1939E-14  0.1000E+00
    -10.732 -0.3918E-10  0.1000E+00
    -10.630 -0.9098E-07  0.1000E+00
    -10.527 -0.2307E-04  0.1000E+00
    -10.425 -0.5692E-03  0.9994E-01
    -10.322  0.7651E-03  0.1000E+00
    -10.220  0.3219E-01  0.1033E+00
    -10.118  0.4819E-01  0.1082E+00
    -10.015  0.3718E-01  0.1121E+00
     -9.913  0.8133E-01  0.1204E+00
     -9.811  0.2963E-01  0.1234E+00
     -9.708  0.1457E-01  0.1249E+00
     -9.606  0.1058E+00  0.1357E+00
     -9.504  0.4962E-01  0.1408E+00
     -9.401  0.4517E-01  0.1454E+00
     -9.299  0.9818E-03  0.1455E+00
     -9.197  0.6311E-01  0.1520E+00
     -9.094  0.1328E+00  0.1656E+00
     -8.992  0.2602E-01  0.1682E+00
     -8.890  0.3864E-01  0.1722E+00
     -8.787  0.2731E-01  0.1750E+00
     -8.685  0.3971E-01  0.1791E+00
     -8.583  0.1385E+00  0.1932E+00
     -8.480  0.5312E-01  0.1987E+00
     -8.378  0.4706E-01  0.2035E+00
     -8.275  0.3180E-01  0.2067E+00
     -8.173  0.1173E+00  0.2188E+00
     -8.071  0.1051E+00  0.2295E+00
     -7.968  0.2093E+00  0.2509E+00
     -7.866  0.2020E+00  0.2716E+00
     -7.764  0.2104E+00  0.2931E+00
     -7.661  0.5815E-01  0.2991E+00
     -7.559  0.2917E-01  0.3021E+00
     -7.457  0.2006E+00  0.3226E+00
     -7.354  0.2861E+00  0.3519E+00
     -7.252  0.2355E+00  0.3760E+00
     -7.150  0.2675E+00  0.4034E+00
     -7.047  0.4053E+00  0.4448E+00
     -6.945  0.5745E+00  0.5036E+00
     -6.843  0.6637E+00  0.5716E+00
     -6.740  0.3603E+00  0.6084E+00
     -6.638  0.4382E+00  0.6533E+00
     -6.536  0.5350E+00  0.7080E+00
     -6.433  0.5297E+00  0.7623E+00
     -6.331  0.5537E+00  0.8189E+00
     -6.228  0.4842E+00  0.8685E+00
     -6.126  0.6518E+00  0.9352E+00
     -6.024  0.9538E+00  0.1033E+01
     -5.921  0.1069E+01  0.1142E+01
     -5.819  0.1035E+01  0.1248E+01
     -5.717  0.1133E+01  0.1364E+01
     -5.614  0.1270E+01  0.1494E+01
     -5.512  0.1386E+01  0.1636E+01
     -5.410  0.1119E+01  0.1751E+01
     -5.307  0.8855E+00  0.1841E+01
     -5.205  0.1682E+01  0.2013E+01
     -5.103  0.2027E+01  0.2221E+01
     -5.000  0.1416E+01  0.2366E+01
     -4.898  0.1249E+01  0.2494E+01
     -4.796  0.1965E+01  0.2695E+01
     -4.693  0.2288E+01  0.2929E+01
     -4.591  0.2061E+01  0.3140E+01
     -4.489  0.2597E+01  0.3406E+01
     -4.386  0.3029E+01  0.3716E+01
     -4.284  0.2165E+01  0.3937E+01
     -4.181  0.1610E+01  0.4102E+01
     -4.079  0.1952E+01  0.4302E+01
     -3.977  0.2693E+01  0.4577E+01
     -3.874  0.2386E+01  0.4822E+01
     -3.772  0.2277E+01  0.5055E+01
     -3.670  0.2282E+01  0.5288E+01
     -3.567  0.2425E+01  0.5536E+01
     -3.465  0.3245E+01  0.5869E+01
     -3.363  0.3338E+01  0.6210E+01
     -3.260  0.1740E+01  0.6388E+01
     -3.158  0.7331E+00  0.6463E+01
     -3.056  0.4237E+00  0.6507E+01
     -2.953  0.5614E+00  0.6564E+01
     -2.851  0.7100E+00  0.6637E+01
     -2.749  0.6144E+00  0.6700E+01
     -2.646  0.1832E+00  0.6718E+01
     -2.544  0.7243E-01  0.6726E+01
     -2.441  0.3218E+00  0.6759E+01
     -2.339  0.1496E+00  0.6774E+01
     -2.237  0.1456E+00  0.6789E+01
     -2.134  0.3098E+00  0.6821E+01
     -2.032  0.3834E+00  0.6860E+01
     -1.930  0.8403E-01  0.6869E+01
     -1.827  0.1280E-01  0.6870E+01
     -1.725  0.2995E+00  0.6901E+01
     -1.623  0.4476E+00  0.6946E+01
     -1.520  0.2678E+00  0.6974E+01
     -1.418  0.2115E+00  0.6995E+01
     -1.316  0.1481E+00  0.7011E+01
     -1.213  0.7575E-01  0.7018E+01
     -1.111  0.1734E+00  0.7036E+01
     -1.009  0.2278E+00  0.7059E+01
     -0.906  0.1653E+00  0.7076E+01
     -0.804  0.2005E+00  0.7097E+01
     -0.702  0.2516E+00  0.7123E+01
     -0.599  0.3170E+00  0.7155E+01
     -0.497  0.2243E+00  0.7178E+01
     -0.394  0.1537E+00  0.7194E+01
     -0.292  0.2315E+00  0.7217E+01
     -0.190  0.2207E+00  0.7240E+01
     -0.087  0.7761E-01  0.7248E+01
      0.015  0.2443E+00  0.7273E+01
      0.117  0.1854E+00  0.7292E+01
      0.220  0.1015E+00  0.7302E+01
      0.322  0.1286E+00  0.7315E+01
      0.424  0.2326E+00  0.7339E+01
      0.527  0.2207E+00  0.7362E+01
      0.629  0.1793E+00  0.7380E+01
      0.731  0.2586E+00  0.7407E+01
      0.834  0.3049E+00  0.7438E+01
      0.936  0.1900E+00  0.7457E+01
      1.038  0.8161E-01  0.7466E+01
      1.141  0.1052E+00  0.7476E+01
      1.243  0.1885E+00  0.7496E+01
      1.345  0.1946E+00  0.7516E+01
      1.448  0.2426E+00  0.7540E+01
      1.550  0.8946E-01  0.7550E+01
      1.653  0.3932E-01  0.7554E+01
      1.755  0.1528E+00  0.7569E+01
      1.857  0.9523E-01  0.7579E+01
      1.960  0.1684E+00  0.7596E+01
      2.062  0.2264E+00  0.7619E+01
      2.164  0.2133E+00  0.7641E+01
      2.267  0.1670E+00  0.7658E+01
      2.369  0.2265E+00  0.7682E+01
      2.471  0.1624E+00  0.7698E+01
      2.574  0.4507E-01  0.7703E+01
      2.676  0.3713E-03  0.7703E+01
      2.778  0.3558E-01  0.7706E+01
      2.881  0.1341E+00  0.7720E+01
      2.983  0.1822E+00  0.7739E+01
      3.085  0.2995E+00  0.7770E+01
      3.188  0.2445E+00  0.7795E+01
      3.290  0.1681E+00  0.7812E+01
      3.392  0.4016E+00  0.7853E+01
      3.495  0.3262E+00  0.7886E+01
      3.597  0.3635E+00  0.7923E+01
      3.700  0.2297E+00  0.7947E+01
      3.802  0.2072E+00  0.7968E+01
      3.904  0.3936E+00  0.8008E+01
      4.007  0.4330E+00  0.8053E+01
      4.109  0.2908E+00  0.8083E+01
      4.211  0.3091E+00  0.8114E+01
      4.314  0.2114E+00  0.8136E+01
      4.416  0.4770E+00  0.8185E+01
      4.518  0.4168E+00  0.8227E+01
      4.621  0.3595E+00  0.8264E+01
      4.723  0.4532E+00  0.8310E+01
      4.825  0.3512E+00  0.8346E+01
      4.928  0.2831E+00  0.8375E+01
      5.030  0.3292E+00  0.8409E+01
      5.132  0.3678E+00  0.8447E+01
      5.235  0.4033E+00  0.8488E+01
      5.337  0.5091E+00  0.8540E+01
      5.439  0.3915E+00  0.8580E+01
      5.542  0.4460E+00  0.8626E+01
      5.644  0.3288E+00  0.8659E+01
      5.747  0.5444E+00  0.8715E+01
      5.849  0.3726E+00  0.8753E+01
      5.951  0.3892E+00  0.8793E+01
      6.054  0.4887E+00  0.8843E+01
      6.156  0.5689E+00  0.8901E+01
      6.258  0.4213E+00  0.8945E+01
      6.361  0.4360E+00  0.8989E+01
      6.463  0.5103E+00  0.9041E+01
      6.565  0.5708E+00  0.9100E+01
      6.668  0.3823E+00  0.9139E+01
      6.770  0.3535E+00  0.9175E+01
      6.872  0.3098E+00  0.9207E+01
      6.975  0.5601E+00  0.9264E+01
      7.077  0.6212E+00  0.9328E+01
      7.179  0.4483E+00  0.9374E+01
      7.282  0.4467E+00  0.9419E+01
      7.384  0.5073E+00  0.9471E+01
      7.487  0.5076E+00  0.9523E+01
      7.589  0.3662E+00  0.9561E+01
      7.691  0.1978E+00  0.9581E+01
      7.794  0.1207E+00  0.9593E+01
      7.896  0.6450E-01  0.9600E+01
      7.998  0.2825E-02  0.9600E+01
      8.101 -0.1507E-02  0.9600E+01
      8.203 -0.3338E-04  0.9600E+01
      8.305 -0.6830E-07  0.9600E+01
      8.408 -0.1540E-10  0.9600E+01
      8.510 -0.4018E-15  0.9600E+01
      8.612  0.0000E+00  0.9600E+01
      8.715  0.0000E+00  0.9600E+01
      8.817  0.0000E+00  0.9600E+01
      8.919  0.0000E+00  0.9600E+01
      9.022  0.0000E+00  0.9600E+01
      9.124  0.0000E+00  0.9600E+01
      9.226  0.0000E+00  0.9600E+01
