       N       E                     dE             d eps       ncg     rms          rms(c)
DAV:   1     0.108535170933E+04    0.10854E+04   -0.50255E+04  2304   0.132E+03
DAV:   2     0.393071060534E+02   -0.10460E+04   -0.99258E+03  2304   0.316E+02
DAV:   3    -0.551163907497E+02   -0.94423E+02   -0.87323E+02  3648   0.133E+02
DAV:   4    -0.597111888619E+02   -0.45948E+01   -0.45811E+01  2760   0.310E+01
DAV:   5    -0.598297850884E+02   -0.11860E+00   -0.11857E+00  3024   0.437E+00    0.279E+01
DAV:   6    -0.553750106233E+02    0.44548E+01   -0.13179E+02  3168   0.125E+02    0.207E+01
DAV:   7    -0.485399806731E+02    0.68350E+01   -0.59058E+01  3744   0.776E+01    0.702E+00
DAV:   8    -0.477184967269E+02    0.82148E+00   -0.10425E+01  3768   0.497E+01    0.381E+00
DAV:   9    -0.475986900987E+02    0.11981E+00   -0.20526E+00  3528   0.241E+01    0.197E+00
DAV:  10    -0.475760817416E+02    0.22608E-01   -0.10605E+00  4392   0.102E+01    0.264E+00
DAV:  11    -0.475132299072E+02    0.62852E-01   -0.28321E-01  3552   0.902E+00    0.163E+00
DAV:  12    -0.474979989909E+02    0.15231E-01   -0.36396E-01  4152   0.602E+00    0.950E-01
DAV:  13    -0.474863996251E+02    0.11599E-01   -0.73620E-02  3096   0.256E+00    0.500E-01
DAV:  14    -0.474834114080E+02    0.29882E-02   -0.19965E-02  3552   0.131E+00    0.118E-01
DAV:  15    -0.474839022421E+02   -0.49083E-03   -0.61293E-03  3120   0.914E-01    0.732E-02
DAV:  16    -0.474840285435E+02   -0.12630E-03   -0.12902E-03  2832   0.564E-01    0.739E-02
DAV:  17    -0.474840397205E+02   -0.11177E-04   -0.35066E-04  1944   0.324E-01
   1 F= -.47484040E+02 E0= -.47480420E+02  d E =-.474840E+02
       N       E                     dE             d eps       ncg     rms          rms(c)
DAV:   1    -0.475060941973E+02   -0.22066E-01   -0.19328E+01  2304   0.145E+01    0.455E-01
DAV:   2    -0.475440443775E+02   -0.37950E-01   -0.40831E-01  3672   0.409E+00    0.422E-01
DAV:   3    -0.475418596938E+02    0.21847E-02   -0.13465E-02  2736   0.198E+00    0.265E-01
DAV:   4    -0.475417920121E+02    0.67682E-04   -0.62769E-03  3312   0.154E+00    0.233E-01
DAV:   5    -0.475414874717E+02    0.30454E-03   -0.57019E-03  3600   0.156E+00    0.166E-01
DAV:   6    -0.475414736502E+02    0.13821E-04   -0.39017E-03  3864   0.151E+00    0.115E-01
DAV:   7    -0.475413421360E+02    0.13151E-03   -0.96529E-04  2928   0.735E-01    0.247E-02
DAV:   8    -0.475413700849E+02   -0.27949E-04   -0.12888E-04  1968   0.201E-01
   2 F= -.47541370E+02 E0= -.47538118E+02  d E =-.573304E-01
       N       E                     dE             d eps       ncg     rms          rms(c)
DAV:   1    -0.475240928022E+02    0.17249E-01   -0.24788E+01  2304   0.165E+01    0.524E-01
DAV:   2    -0.475731609944E+02   -0.49068E-01   -0.53073E-01  3504   0.455E+00    0.473E-01
DAV:   3    -0.475708002844E+02    0.23607E-02   -0.22991E-02  2808   0.236E+00    0.312E-01
DAV:   4    -0.475705996316E+02    0.20065E-03   -0.10007E-02  3192   0.196E+00    0.271E-01
DAV:   5    -0.475699785793E+02    0.62105E-03   -0.57851E-03  3624   0.157E+00    0.172E-01
DAV:   6    -0.475699358345E+02    0.42745E-04   -0.36273E-03  3744   0.152E+00    0.117E-01
DAV:   7    -0.475697572394E+02    0.17860E-03   -0.96816E-04  2976   0.826E-01    0.284E-02
DAV:   8    -0.475697654329E+02   -0.81935E-05   -0.15158E-04  1896   0.235E-01
   3 F= -.47569765E+02 E0= -.47566862E+02  d E =-.857257E-01
       N       E                     dE             d eps       ncg     rms          rms(c)
DAV:   1    -0.475470978879E+02    0.22659E-01   -0.16509E+01  2304   0.135E+01    0.619E-01
DAV:   2    -0.475942554018E+02   -0.47158E-01   -0.50564E-01  3312   0.654E+00    0.616E-01
DAV:   3    -0.475930009396E+02    0.12545E-02   -0.82499E-02  3048   0.626E+00    0.418E-01
DAV:   4    -0.475903478056E+02    0.26531E-02   -0.24677E-02  3720   0.288E+00    0.205E-01
DAV:   5    -0.475902543793E+02    0.93426E-04   -0.44173E-03  3432   0.129E+00    0.132E-01
DAV:   6    -0.475901514139E+02    0.10297E-03   -0.20363E-03  3264   0.105E+00    0.689E-02
DAV:   7    -0.475901197617E+02    0.31652E-04   -0.48855E-04  2880   0.533E-01
   4 F= -.47590120E+02 E0= -.47587491E+02  d E =-.203543E-01
       N       E                     dE             d eps       ncg     rms          rms(c)
DAV:   1    -0.475900978561E+02    0.53558E-04   -0.19745E-02  2688   0.544E-01    0.313E-02
DAV:   2    -0.475901677620E+02   -0.69906E-04   -0.62281E-04  2952   0.295E-01
   5 F= -.47590168E+02 E0= -.47587528E+02  d E =-.204023E-01
       N       E                     dE             d eps       ncg     rms          rms(c)
DAV:   1    -0.475887604372E+02    0.13374E-02   -0.49803E+00  2328   0.712E+00    0.199E-01
DAV:   2    -0.475969564790E+02   -0.81960E-02   -0.88213E-02  3600   0.289E+00    0.251E-01
DAV:   3    -0.475964190682E+02    0.53741E-03   -0.70678E-03  2784   0.170E+00    0.124E-01
DAV:   4    -0.475963958941E+02    0.23174E-04   -0.15261E-03  2784   0.638E-01    0.109E-01
DAV:   5    -0.475963417509E+02    0.54143E-04   -0.69580E-04  2400   0.560E-01
   6 F= -.47596342E+02 E0= -.47593768E+02  d E =-.617399E-02
       N       E                     dE             d eps       ncg     rms          rms(c)
DAV:   1    -0.475923034397E+02    0.40925E-02   -0.36881E+00  2328   0.613E+00    0.162E-01
DAV:   2    -0.475980104353E+02   -0.57070E-02   -0.60917E-02  3672   0.229E+00    0.199E-01
DAV:   3    -0.475977934476E+02    0.21699E-03   -0.57441E-03  2640   0.142E+00    0.107E-01
DAV:   4    -0.475977622931E+02    0.31154E-04   -0.12197E-03  2688   0.618E-01    0.882E-02
DAV:   5    -0.475977348237E+02    0.27469E-04   -0.50610E-04  2328   0.509E-01
   7 F= -.47597735E+02 E0= -.47595221E+02  d E =-.756706E-02
       N       E                     dE             d eps       ncg     rms          rms(c)
DAV:   1    -0.475976393193E+02    0.12297E-03   -0.89034E-01  2304   0.318E+00    0.102E-01
DAV:   2    -0.475994533335E+02   -0.18140E-02   -0.19241E-02  3120   0.871E-01    0.850E-02
DAV:   3    -0.475994493173E+02    0.40162E-05   -0.18111E-03  3048   0.709E-01    0.733E-02
DAV:   4    -0.475994067485E+02    0.42569E-04   -0.53934E-04  1872   0.517E-01
   8 F= -.47599407E+02 E0= -.47596922E+02  d E =-.167192E-02
       N       E                     dE             d eps       ncg     rms          rms(c)
DAV:   1    -0.475986805808E+02    0.76874E-03   -0.84542E-01  2304   0.307E+00    0.102E-01
DAV:   2    -0.476002897822E+02   -0.16092E-02   -0.17523E-02  2952   0.827E-01    0.841E-02
DAV:   3    -0.476002655872E+02    0.24195E-04   -0.11909E-03  3024   0.587E-01    0.698E-02
DAV:   4    -0.476002444512E+02    0.21136E-04   -0.49251E-04  1800   0.503E-01
   9 F= -.47600244E+02 E0= -.47597776E+02  d E =-.250963E-02
       N       E                     dE             d eps       ncg     rms          rms(c)
DAV:   1    -0.475993423577E+02    0.92323E-03   -0.31648E-01  2304   0.188E+00    0.949E-02
DAV:   2    -0.476003085719E+02   -0.96621E-03   -0.10654E-02  3336   0.801E-01    0.683E-02
DAV:   3    -0.476003248878E+02   -0.16316E-04   -0.11848E-03  2928   0.801E-01    0.643E-02
DAV:   4    -0.476002652200E+02    0.59668E-04   -0.44548E-04  1728   0.427E-01
  10 F= -.47600265E+02 E0= -.47597812E+02  d E =-.207687E-04
       N       E                     dE             d eps       ncg     rms          rms(c)
DAV:   1    -0.476001666174E+02    0.15827E-03   -0.59048E-02  2352   0.827E-01    0.446E-02
DAV:   2    -0.476003793737E+02   -0.21276E-03   -0.21708E-03  3168   0.361E-01    0.229E-02
DAV:   3    -0.476003816209E+02   -0.22472E-05   -0.12551E-04  1920   0.282E-01
  11 F= -.47600382E+02 E0= -.47597938E+02  d E =-.137170E-03
