 vasp.5.4.1 05Feb16 (build Feb 08 2018 09:21:51) complex                        
  
 executed on             LinuxIFC date 2019.11.21  23:36:32
 running on   24 total cores
 distrk:  each k-point on   24 cores,    1 groups
 distr:  one band on NCORES_PER_BAND=   1 cores,   24 groups


--------------------------------------------------------------------------------------------------------


 INCAR:
 POTCAR:    PAW_PBE Cu 22Jun2005                  
 POTCAR:    PAW_PBE O 08Apr2002                   

 ----------------------------------------------------------------------------- 
|                                                                             |
|           W    W    AA    RRRRR   N    N  II  N    N   GGGG   !!!           |
|           W    W   A  A   R    R  NN   N  II  NN   N  G    G  !!!           |
|           W    W  A    A  R    R  N N  N  II  N N  N  G       !!!           |
|           W WW W  AAAAAA  RRRRR   N  N N  II  N  N N  G  GGG   !            |
|           WW  WW  A    A  R   R   N   NN  II  N   NN  G    G                |
|           W    W  A    A  R    R  N    N  II  N    N   GGGG   !!!           |
|                                                                             |
|      For optimal performance we recommend to set                            |
|        NCORE= 4 - approx SQRT( number of cores)                             |
|      NCORE specifies how many cores store one orbital (NPAR=cpu/NCORE).     |
|      This setting can  greatly improve the performance of VASP for DFT.     |
|      The default, NPAR=number of cores might be grossly inefficient         |
|      on modern multi-core architectures or massively parallel machines.     |
|      Do your own testing !!!!                                               |
|      Unfortunately you need to use the default for GW and RPA calculations. |
|      (for HF NCORE is supported but not extensively tested yet)             |
|                                                                             |
 ----------------------------------------------------------------------------- 

 POTCAR:    PAW_PBE Cu 22Jun2005                  
   VRHFIN =Cu: d10 p1                                                           
   LEXCH  = PE                                                                  
   EATOM  =  1390.9808 eV,  102.2342 Ry                                         
                                                                                
   TITEL  = PAW_PBE Cu 22Jun2005                                                
   LULTRA =        F    use ultrasoft PP ?                                      
   IUNSCR =        1    unscreen: 0-lin 1-nonlin 2-no                           
   RPACOR =    2.000    partial core radius                                     
   POMASS =   63.546; ZVAL   =   11.000    mass and valenz                      
   RCORE  =    2.300    outmost cutoff radius                                   
   RWIGS  =    2.200; RWIGS  =    1.164    wigner-seitz radius (au A)           
   ENMAX  =  295.446; ENMIN  =  221.585 eV                                      
   ICORE  =        3    local potential                                         
   LCOR   =        T    correct aug charges                                     
   LPAW   =        T    paw PP                                                  
   EAUG   =  586.980                                                            
   DEXC   =    0.000                                                            
   RMAX   =    2.344    core radius for proj-oper                               
   RAUG   =    1.300    factor for augmentation sphere                          
   RDEP   =    2.302    radius for radial grids                                 
   RDEPT  =    1.771    core radius for aug-charge                              
                                                                                
   Atomic configuration                                                         
    9 entries                                                                   
     n  l   j            E        occ.                                          
     1  0  0.50     -8850.2468   2.0000                                         
     2  0  0.50     -1062.3498   2.0000                                         
     2  1  1.50      -916.8226   6.0000                                         
     3  0  0.50      -114.6929   2.0000                                         
     3  1  1.50       -72.1325   6.0000                                         
     3  2  2.50        -5.0394  10.0000                                         
     4  0  0.50        -4.6097   1.0000                                         
     4  1  0.50        -4.0817   0.0000                                         
     4  3  2.50        -1.3606   0.0000                                         
   Description                                                                  
     l       E           TYP  RCUT    TYP  RCUT                                 
     2     -5.0393973     23  2.200                                             
     2     10.8846608     23  2.200                                             
     0     -4.6097109     23  2.200                                             
     0      8.2520465     23  2.200                                             
     1     -2.7211652     23  2.200                                             
     1     21.7055443     23  2.200                                             
     3      2.7211652     23  2.300                                             
  local pseudopotential read in
  partial core-charges read in
  partial kinetic energy density read in
  atomic valenz-charges read in
  non local Contribution for L=           2  read in
    real space projection operators read in
  non local Contribution for L=           2  read in
    real space projection operators read in
  non local Contribution for L=           0  read in
    real space projection operators read in
  non local Contribution for L=           0  read in
    real space projection operators read in
  non local Contribution for L=           1  read in
    real space projection operators read in
  non local Contribution for L=           1  read in
    real space projection operators read in
    PAW grid and wavefunctions read in
 
   number of l-projection  operators is LMAX  =           6
   number of lm-projection operators is LMMAX =          18
 
 POTCAR:    PAW_PBE O 08Apr2002                   
   VRHFIN =O: s2p4                                                              
   LEXCH  = PE                                                                  
   EATOM  =   432.3788 eV,   31.7789 Ry                                         
                                                                                
   TITEL  = PAW_PBE O 08Apr2002                                                 
   LULTRA =        F    use ultrasoft PP ?                                      
   IUNSCR =        1    unscreen: 0-lin 1-nonlin 2-no                           
   RPACOR =    1.200    partial core radius                                     
   POMASS =   16.000; ZVAL   =    6.000    mass and valenz                      
   RCORE  =    1.520    outmost cutoff radius                                   
   RWIGS  =    1.550; RWIGS  =    0.820    wigner-seitz radius (au A)           
   ENMAX  =  400.000; ENMIN  =  300.000 eV                                      
   ICORE  =        2    local potential                                         
   LCOR   =        T    correct aug charges                                     
   LPAW   =        T    paw PP                                                  
   EAUG   =  605.392                                                            
   DEXC   =    0.000                                                            
   RMAX   =    1.553    core radius for proj-oper                               
   RAUG   =    1.300    factor for augmentation sphere                          
   RDEP   =    1.550    radius for radial grids                                 
   RDEPT  =    1.329    core radius for aug-charge                              
                                                                                
   Atomic configuration                                                         
    4 entries                                                                   
     n  l   j            E        occ.                                          
     1  0  0.50      -514.6923   2.0000                                         
     2  0  0.50       -23.9615   2.0000                                         
     2  1  0.50        -9.0305   4.0000                                         
     3  2  1.50        -9.5241   0.0000                                         
   Description                                                                  
     l       E           TYP  RCUT    TYP  RCUT                                 
     0    -23.9615318     23  1.200                                             
     0     -9.5240782     23  1.200                                             
     1     -9.0304911     23  1.520                                             
     1      8.1634956     23  1.520                                             
     2     -9.5240782      7  1.500                                             
  local pseudopotential read in
  partial core-charges read in
  partial kinetic energy density read in
  kinetic energy density of atom read in
  atomic valenz-charges read in
  non local Contribution for L=           0  read in
    real space projection operators read in
  non local Contribution for L=           0  read in
    real space projection operators read in
  non local Contribution for L=           1  read in
    real space projection operators read in
  non local Contribution for L=           1  read in
    real space projection operators read in
    PAW grid and wavefunctions read in
 
   number of l-projection  operators is LMAX  =           4
   number of lm-projection operators is LMMAX =           8
 
  PAW_PBE Cu 22Jun2005                  :
 energy of atom  1       EATOM=-1390.9808
 kinetic energy error for atom=    0.0232 (will be added to EATOM!!)
  PAW_PBE O 08Apr2002                   :
 energy of atom  2       EATOM= -432.3788
 kinetic energy error for atom=    0.1156 (will be added to EATOM!!)
 
 
 POSCAR: Cu  O                                   
  positions in cartesian coordinates
  No initial velocities read in
 exchange correlation table for  LEXCH =        8
   RHO(1)=    0.500       N(1)  =     2000
   RHO(2)=  100.500       N(2)  =     4000
 


--------------------------------------------------------------------------------------------------------


 ion  position               nearest neighbor table
   1  0.167  0.167  0.413-   3 2.57   3 2.57   4 2.57   4 2.57   2 2.57   2 2.57   8 2.57   5 2.57
                             6 2.57
   2  0.667  0.167  0.413-   4 2.57   3 2.57   4 2.57   3 2.57   1 2.57   1 2.57   7 2.57   6 2.57
                             5 2.57
   3  0.167  0.667  0.413-   1 2.57   1 2.57   2 2.57   2 2.57   4 2.57   4 2.57   6 2.57   7 2.57
                             8 2.57
   4  0.667  0.667  0.413-   2 2.57   1 2.57   2 2.57   1 2.57   3 2.57   3 2.57   5 2.57   8 2.57
                             7 2.57
   5  0.833  0.333  0.500-   7 2.57   7 2.57   8 2.57   8 2.57   6 2.57   6 2.57   4 2.57  11 2.57
                             1 2.57   9 2.57  12 2.57   2 2.57
   6  0.333  0.333  0.500-   8 2.57   7 2.57   8 2.57   7 2.57   5 2.57   5 2.57   3 2.57  12 2.57
                             2 2.57  11 2.57  10 2.57   1 2.57
   7  0.833  0.833  0.500-   5 2.57   5 2.57   6 2.57   6 2.57   8 2.57   8 2.57   2 2.57   9 2.57
                             3 2.57  10 2.57  11 2.57   4 2.57
   8  0.333  0.833  0.500-   6 2.57   5 2.57   6 2.57   5 2.57   7 2.57   7 2.57   1 2.57  10 2.57
                             4 2.57   9 2.57  12 2.57   3 2.57
   9  0.000  0.000  0.587-  13 1.91  11 2.57  11 2.57  12 2.57  12 2.57  10 2.57  10 2.57   7 2.57
                             8 2.57   5 2.57
  10  0.500  0.000  0.587-  13 1.91  12 2.57  11 2.57  12 2.57  11 2.57   9 2.57   9 2.57   8 2.57
                             6 2.57   7 2.57
  11  0.000  0.500  0.587-  13 1.91   9 2.57   9 2.57  10 2.57  10 2.57  12 2.57  12 2.57   5 2.57
                             7 2.57   6 2.57
  12  0.500  0.500  0.587-  10 2.57   9 2.57  10 2.57   9 2.57  11 2.57  11 2.57   6 2.57   5 2.57
                             8 2.57
  13  0.167  0.167  0.636-   9 1.91  10 1.91  11 1.91
 
  LATTYP: Found a hexagonal cell.
 ALAT       =     5.1420805128
 C/A-ratio  =     4.7059728251
  
  Lattice vectors:
  
 A1 = (   2.5710402564,  -4.4531723524,   0.0000000000)
 A2 = (  -5.1420805128,   0.0000000000,   0.0000000000)
 A3 = (   0.0000000000,   0.0000000000, -24.1984911575)


Analysis of symmetry for initial positions (statically):
=====================================================================
 Subroutine PRICEL returns:
 Original cell was already a primitive cell.
 

 Routine SETGRP: Setting up the symmetry group for a 
 hexagonal supercell.


 Subroutine GETGRP returns: Found  6 space group operations
 (whereof  2 operations were pure point group operations)
 out of a pool of 24 trial point group operations.


The static configuration has the point symmetry C_1h.
 The point group associated with its full space group is C_3v.


Analysis of symmetry for dynamics (positions and initial velocities):
=====================================================================
 Subroutine PRICEL returns:
 Original cell was already a primitive cell.
 

 Routine SETGRP: Setting up the symmetry group for a 
 hexagonal supercell.


 Subroutine GETGRP returns: Found  6 space group operations
 (whereof  2 operations were pure point group operations)
 out of a pool of 24 trial point group operations.


The dynamic configuration has the point symmetry C_1h.
 The point group associated with its full space group is C_3v.


 Subroutine INISYM returns: Found  6 space group operations
 (whereof  2 operations are pure point group operations),
 and found     1 'primitive' translations

 
 
 KPOINTS: KPOINTS created by Atomic Simulation Env

Automatic generation of k-mesh.
Space group operators:
 irot       det(A)        alpha          n_x          n_y          n_z        tau_x        tau_y        tau_z
    1     1.000000     0.000000     1.000000     0.000000     0.000000     0.000000     0.000000     0.000000
    2    -1.000000   179.999999     0.500000    -0.866025     0.000000     0.000000     0.000000     0.000000
    3     1.000000   120.000000     0.000000     0.000000     1.000000     0.000000    -0.500000     0.000000
    4     1.000000   120.000000     0.000000     0.000000    -1.000000    -0.500000    -0.000000     0.000000
    5    -1.000000   180.000000     1.000000     0.000000     0.000000    -0.500000     0.000000     0.000000
    6    -1.000000   179.999999    -0.500000    -0.866025     0.000000     0.000000    -0.500000     0.000000
 
 Subroutine IBZKPT returns following result:
 ===========================================
 
 Found     12 irreducible k-points:
 
 Following reciprocal coordinates:
            Coordinates               Weight
  0.000000  0.000000  0.000000      1.000000
  0.111111 -0.000000  0.000000      6.000000
  0.222222 -0.000000  0.000000      6.000000
  0.333333 -0.000000  0.000000      6.000000
  0.444444 -0.000000  0.000000      6.000000
  0.222222  0.111111  0.000000      6.000000
  0.333333  0.111111  0.000000     12.000000
  0.444444  0.111111  0.000000     12.000000
 -0.444444  0.111111  0.000000      6.000000
  0.444444  0.222222  0.000000      6.000000
 -0.444444  0.222222  0.000000     12.000000
 -0.333333  0.333333  0.000000      2.000000
 
 Following cartesian coordinates:
            Coordinates               Weight
  0.000000  0.000000  0.000000      1.000000
  0.021608 -0.012476  0.000000      6.000000
  0.043216 -0.024951  0.000000      6.000000
  0.064825 -0.037427  0.000000      6.000000
  0.086433 -0.049902  0.000000      6.000000
  0.043216 -0.000000  0.000000      6.000000
  0.064825 -0.012476  0.000000     12.000000
  0.086433 -0.024951  0.000000     12.000000
 -0.086433  0.074853  0.000000      6.000000
  0.086433  0.000000  0.000000      6.000000
 -0.086433  0.099804  0.000000     12.000000
 -0.064825  0.112280  0.000000      2.000000
 


--------------------------------------------------------------------------------------------------------




 Dimension of arrays:
   k-points           NKPTS =     12   k-points in BZ     NKDIM =     12   number of bands    NBANDS=     96
   number of dos      NEDOS =    301   number of ions     NIONS =     13
   non local maximal  LDIM  =      6   non local SUM 2l+1 LMDIM =     18
   total plane-waves  NPLWV =  94080
   max r-space proj   IRMAX =      1   max aug-charges    IRDMAX=   5117
   dimension x,y,z NGX =    28 NGY =   28 NGZ =  120
   dimension x,y,z NGXF=    56 NGYF=   56 NGZF=  240
   support grid    NGXF=    56 NGYF=   56 NGZF=  240
   ions per type =              12   1
 NGX,Y,Z   is equivalent  to a cutoff of   9.05,  9.05,  8.24 a.u.
 NGXF,Y,Z  is equivalent  to a cutoff of  18.11, 18.11, 16.49 a.u.


 I would recommend the setting:
   dimension x,y,z NGX =    25 NGY =   25 NGZ =  118
 SYSTEM =  unknown system                          
 POSCAR =  Cu  O                                   

 Startparameter for this run:
   NWRITE =      2    write-flag & timer
   PREC   = normal    normal or accurate (medium, high low for compatibility)
   ISTART =      0    job   : 0-new  1-cont  2-samecut
   ICHARG =      2    charge: 1-file 2-atom 10-const
   ISPIN  =      1    spin polarized calculation?
   LNONCOLLINEAR =      F non collinear calculations
   LSORBIT =      F    spin-orbit coupling
   INIWAV =      1    electr: 0-lowe 1-rand  2-diag
   LASPH  =      F    aspherical Exc in radial PAW
   METAGGA=      F    non-selfconsistent MetaGGA calc.

 Electronic Relaxation 1
   ENCUT  =  400.0 eV  29.40 Ry    5.42 a.u.   8.39  8.39 39.46*2*pi/ulx,y,z
   ENINI  =  400.0     initial cutoff
   ENAUG  =  605.4 eV  augmentation charge cutoff
   NELM   =     60;   NELMIN=  2; NELMDL= -5     # of ELM steps 
   EDIFF  = 0.1E-03   stopping-criterion for ELM
   LREAL  =      F    real-space projection
   NLSPLINE    = F    spline interpolate recip. space projectors
   LCOMPAT=      F    compatible to vasp.4.4
   GGA_COMPAT  = T    GGA compatible to vasp.4.4-vasp.4.6
   LMAXPAW     = -100 max onsite density
   LMAXMIX     =    2 max onsite mixed and CHGCAR
   VOSKOWN=      0    Vosko Wilk Nusair interpolation
   ROPT   =    0.00000   0.00000
 Ionic relaxation
   EDIFFG = 0.1E-02   stopping-criterion for IOM
   NSW    =     20    number of steps for IOM
   NBLOCK =      1;   KBLOCK =     20    inner block; outer block 
   IBRION =      2    ionic relax: 0-MD 1-quasi-New 2-CG
   NFREE  =      1    steps in history (QN), initial steepest desc. (CG)
   ISIF   =      2    stress and relaxation
   IWAVPR =     11    prediction:  0-non 1-charg 2-wave 3-comb
   ISYM   =      2    0-nonsym 1-usesym 2-fastsym
   LCORR  =      T    Harris-Foulkes like correction to forces

   POTIM  = 0.5000    time-step for ionic-motion
   TEIN   =    0.0    initial temperature
   TEBEG  =    0.0;   TEEND  =   0.0 temperature during run
   SMASS  =  -3.00    Nose mass-parameter (am)
   estimated Nose-frequenzy (Omega)   =  0.10E-29 period in steps =****** mass=  -0.604E-27a.u.
   SCALEE = 1.0000    scale energy and forces
   NPACO  =    256;   APACO  = 16.0  distance and # of slots for P.C.
   PSTRESS=    0.0 pullay stress

  Mass of Ions in am
   POMASS =  63.55 16.00
  Ionic Valenz
   ZVAL   =  11.00  6.00
  Atomic Wigner-Seitz radii
   RWIGS  =  -1.00 -1.00
  virtual crystal weights 
   VCA    =   1.00  1.00
   NELECT =     138.0000    total number of electrons
   NUPDOWN=      -1.0000    fix difference up-down

 DOS related values:
   EMIN   =  10.00;   EMAX   =-10.00  energy-range for DOS
   EFERMI =   0.00
   ISMEAR =     1;   SIGMA  =   0.10  broadening in eV -4-tet -1-fermi 0-gaus

 Electronic relaxation 2 (details)
   IALGO  =     38    algorithm
   LDIAG  =      T    sub-space diagonalisation (order eigenvalues)
   LSUBROT=      F    optimize rotation matrix (better conditioning)
   TURBO    =      0    0=normal 1=particle mesh
   IRESTART =      0    0=no restart 2=restart with 2 vectors
   NREBOOT  =      0    no. of reboots
   NMIN     =      0    reboot dimension
   EREF     =   0.00    reference energy to select bands
   IMIX   =      4    mixing-type and parameters
     AMIX     =   0.40;   BMIX     =  1.00
     AMIX_MAG =   1.60;   BMIX_MAG =  1.00
     AMIN     =   0.10
     WC   =   100.;   INIMIX=   1;  MIXPRE=   1;  MAXMIX= -45

 Intra band minimization:
   WEIMIN = 0.0010     energy-eigenvalue tresh-hold
   EBREAK =  0.26E-06  absolut break condition
   DEPER  =   0.30     relativ break condition  

   TIME   =   0.40     timestep for ELM

  volume/ion in A,a.u.               =      42.62       287.64
  Fermi-wavevector in a.u.,A,eV,Ry     =   1.029996  1.946411 14.434315  1.060892
  Thomas-Fermi vector in A             =   2.164072
 
 Write flags
   LWAVE  =      F    write WAVECAR
   LCHARG =      F    write CHGCAR
   LVTOT  =      F    write LOCPOT, total local potential
   LVHAR  =      F    write LOCPOT, Hartree potential only
   LELF   =      F    write electronic localiz. function (ELF)
   LORBIT =      0    0 simple, 1 ext, 2 COOP (PROOUT)


 Dipole corrections
   LMONO  =      F    monopole corrections only (constant potential shift)
   LDIPOL =      F    correct potential (dipole corrections)
   IDIPOL =      0    1-x, 2-y, 3-z, 4-all directions 
   EPSILON=  1.0000000 bulk dielectric constant

 Exchange correlation treatment:
   GGA     =    --    GGA type
   LEXCH   =     8    internal setting for exchange type
   VOSKOWN=      0    Vosko Wilk Nusair interpolation
   LHFCALC =     F    Hartree Fock is set to
   LHFONE  =     F    Hartree Fock one center treatment
   AEXX    =    0.0000 exact exchange contribution

 Linear response parameters
   LEPSILON=     F    determine dielectric tensor
   LRPA    =     F    only Hartree local field effects (RPA)
   LNABLA  =     F    use nabla operator in PAW spheres
   LVEL    =     F    velocity operator in full k-point grid
   LINTERFAST=   F  fast interpolation
   KINTER  =     0    interpolate to denser k-point grid
   CSHIFT  =0.1000    complex shift for real part using Kramers Kronig
   OMEGAMAX=  -1.0    maximum frequency
   DEG_THRESHOLD= 0.2000000E-02 threshold for treating states as degnerate
   RTIME   =    0.100 relaxation time in fs

 Orbital magnetization related:
   ORBITALMAG=     F  switch on orbital magnetization
   LCHIMAG   =     F  perturbation theory with respect to B field
   DQ        =  0.001000  dq finite difference perturbation B field



--------------------------------------------------------------------------------------------------------


 conjugate gradient relaxation of ions
 charge density and potential will be updated during run
 non-spin polarized calculation
 Variant of blocked Davidson
 Davidson routine will perform the subspace rotation
 perform sub-space diagonalisation
    after iterative eigenvector-optimisation
 modified Broyden-mixing scheme, WC =      100.0
 initial mixing is a Kerker type mixing with AMIX =  0.4000 and BMIX =      1.0000
 Hartree-type preconditioning will be used
 using additional bands           27
 reciprocal scheme for non local part
 use partial core corrections
 calculate Harris-corrections to forces 
   (improved forces if not selfconsistent)
 use gradient corrections 
 use of overlap-Matrix (Vanderbilt PP)
 Methfessel and Paxton  Order N= 1 SIGMA  =   0.10


--------------------------------------------------------------------------------------------------------


  energy-cutoff  :      400.00
  volume of cell :      554.11
      direct lattice vectors                 reciprocal lattice vectors
     5.142080513  0.000000000  0.000000000     0.194473812 -0.112279508  0.000000000
     2.571040256  4.453172352  0.000000000     0.000000000  0.224559016  0.000000000
     0.000000000  0.000000000 24.198491158     0.000000000  0.000000000  0.041324891

  length of vectors
     5.142080513  5.142080513 24.198491158     0.224559016  0.224559016  0.041324891


 
 k-points in units of 2pi/SCALE and weight: KPOINTS created by Atomic Simulation Env
   0.00000000  0.00000000  0.00000000       0.012
   0.02160820 -0.01247550  0.00000000       0.074
   0.04321640 -0.02495100  0.00000000       0.074
   0.06482460 -0.03742650  0.00000000       0.074
   0.08643281 -0.04990200  0.00000000       0.074
   0.04321640 -0.00000000  0.00000000       0.074
   0.06482460 -0.01247550  0.00000000       0.148
   0.08643281 -0.02495100  0.00000000       0.148
  -0.08643281  0.07485301  0.00000000       0.074
   0.08643281  0.00000000  0.00000000       0.074
  -0.08643281  0.09980401  0.00000000       0.148
  -0.06482460  0.11227951  0.00000000       0.025
 
 k-points in reciprocal lattice and weights: KPOINTS created by Atomic Simulation Env
   0.00000000  0.00000000  0.00000000       0.012
   0.11111111 -0.00000000  0.00000000       0.074
   0.22222222 -0.00000000  0.00000000       0.074
   0.33333333 -0.00000000  0.00000000       0.074
   0.44444444 -0.00000000  0.00000000       0.074
   0.22222222  0.11111111  0.00000000       0.074
   0.33333333  0.11111111  0.00000000       0.148
   0.44444444  0.11111111  0.00000000       0.148
  -0.44444444  0.11111111  0.00000000       0.074
   0.44444444  0.22222222  0.00000000       0.074
  -0.44444444  0.22222222  0.00000000       0.148
  -0.33333333  0.33333333  0.00000000       0.025
 
 position of ions in fractional coordinates (direct lattice) 
   0.16666667  0.16666667  0.41324891
   0.66666667  0.16666667  0.41324891
   0.16666667  0.66666667  0.41324891
   0.66666667  0.66666667  0.41324891
   0.83333333  0.33333333  0.50000000
   0.33333333  0.33333333  0.50000000
   0.83333333  0.83333333  0.50000000
   0.33333333  0.83333333  0.50000000
   0.00000000  0.00000000  0.58675109
   0.50000000  0.00000000  0.58675109
   0.00000000  0.50000000  0.58675109
   0.50000000  0.50000000  0.58675109
   0.16666667  0.16666667  0.63634096
 
 position of ions in cartesian coordinates  (Angst):
   1.28552013  0.74219539 10.00000000
   3.85656038  0.74219539 10.00000000
   2.57104026  2.96878157 10.00000000
   5.14208051  2.96878157 10.00000000
   5.14208051  1.48439078 12.09924558
   2.57104026  1.48439078 12.09924558
   6.42760064  3.71097696 12.09924558
   3.85656038  3.71097696 12.09924558
   0.00000000  0.00000000 14.19849116
   2.57104026  0.00000000 14.19849116
   1.28552013  2.22658618 14.19849116
   3.85656038  2.22658618 14.19849116
   1.28552013  0.74219539 15.39849116
 


--------------------------------------------------------------------------------------------------------


 k-point  1 :   0.0000 0.0000 0.0000  plane waves:   10129
 k-point  2 :   0.1111-0.0000 0.0000  plane waves:   10127
 k-point  3 :   0.2222-0.0000 0.0000  plane waves:   10089
 k-point  4 :   0.3333-0.0000 0.0000  plane waves:   10064
 k-point  5 :   0.4444-0.0000 0.0000  plane waves:   10042
 k-point  6 :   0.2222 0.1111 0.0000  plane waves:   10097
 k-point  7 :   0.3333 0.1111 0.0000  plane waves:   10059
 k-point  8 :   0.4444 0.1111 0.0000  plane waves:   10045
 k-point  9 :  -0.4444 0.1111 0.0000  plane waves:   10036
 k-point 10 :   0.4444 0.2222 0.0000  plane waves:   10078
 k-point 11 :  -0.4444 0.2222 0.0000  plane waves:   10068
 k-point 12 :  -0.3333 0.3333 0.0000  plane waves:   10044

 maximum and minimum number of plane-waves per node :     10129    10036

 maximum number of plane-waves:     10129
 maximum index in each direction: 
   IXMAX=    8   IYMAX=    8   IZMAX=   39
   IXMIN=   -8   IYMIN=   -8   IZMIN=  -39

 WARNING: aliasing errors must be expected set NGX to  34 to avoid them
 WARNING: aliasing errors must be expected set NGY to  34 to avoid them
 WARNING: aliasing errors must be expected set NGZ to 158 to avoid them
 aliasing errors are usually negligible using standard VASP settings
 and one can safely disregard these warnings

 serial   3D FFT for wavefunctions
 parallel 3D FFT for charge:
    minimum data exchange during FFTs selected (reduces bandwidth)


 total amount of memory used by VASP on root node    83109. kBytes
========================================================================

   base      :      30000. kBytes
   nonl-proj :      37196. kBytes
   fftplans  :       1683. kBytes
   grid      :       6047. kBytes
   one-center:        202. kBytes
   wavefun   :       7981. kBytes
 
     INWAV:  cpu time    0.0000: real time    0.0001
 Broyden mixing: mesh for mixing (old mesh)
   NGX = 17   NGY = 17   NGZ = 79
  (NGX  = 56   NGY  = 56   NGZ  =240)
  gives a total of  22831 points

 initial charge density was supplied:
 charge density of overlapping atoms calculated
 number of electron     138.0000000 magnetization 
 keeping initial charge density in first step


--------------------------------------------------------------------------------------------------------


 Maximum index for augmentation-charges          471 (set IRDMAX)


--------------------------------------------------------------------------------------------------------


 First call to EWALD:  gamma=   0.216
 Maximum number of real-space cells 5x 5x 1
 Maximum number of reciprocal cells 2x 2x 7

 FEWALD executed in parallel
    FEWALD:  cpu time    0.0017: real time    0.0025


----------------------------------------- Iteration    1(   1)  ---------------------------------------


    POTLOK:  cpu time    0.0420: real time    0.0544
    SETDIJ:  cpu time    0.0044: real time    0.0045
     EDDAV:  cpu time    2.8414: real time    2.8455
       DOS:  cpu time    0.0012: real time    0.0015
    --------------------------------------------
      LOOP:  cpu time    2.8915: real time    2.9094

 eigenvalue-minimisations  :  2304
 total energy-change (2. order) : 0.1085352E+04  (-0.5025463E+04)
 number of electron     138.0000000 magnetization 
 augmentation part      138.0000000 magnetization 

 Free energy of the ion-electron system (eV)
  ---------------------------------------------------
  alpha Z        PSCENC =       204.46100579
  Ewald energy   TEWEN  =     69903.77115712
  -Hartree energ DENC   =    -86074.47146905
  -exchange      EXHF   =         0.00000000
  -V(xc)+E(xc)   XCENC  =       573.05108587
  PAW double counting   =     15085.02939543   -16356.92975307
  entropy T*S    EENTRO =         0.00733112
  eigenvalues    EBANDS =       626.67807769
  atomic energy  EATOM  =     17123.75487843
  Solvation  Ediel_sol  =         0.00000000
  ---------------------------------------------------
  free energy    TOTEN  =      1085.35170933 eV

  energy without entropy =     1085.34437821  energy(sigma->0) =     1085.34926562


--------------------------------------------------------------------------------------------------------




----------------------------------------- Iteration    1(   2)  ---------------------------------------


     EDDAV:  cpu time    2.8573: real time    2.8585
       DOS:  cpu time    0.0007: real time    0.0007
    --------------------------------------------
      LOOP:  cpu time    2.8597: real time    2.8751

 eigenvalue-minimisations  :  2304
 total energy-change (2. order) :-0.1046045E+04  (-0.9925766E+03)
 number of electron     138.0000000 magnetization 
 augmentation part      138.0000000 magnetization 

 Free energy of the ion-electron system (eV)
  ---------------------------------------------------
  alpha Z        PSCENC =       204.46100579
  Ewald energy   TEWEN  =     69903.77115712
  -Hartree energ DENC   =    -86074.47146905
  -exchange      EXHF   =         0.00000000
  -V(xc)+E(xc)   XCENC  =       573.05108587
  PAW double counting   =     15085.02939543   -16356.92975307
  entropy T*S    EENTRO =         0.00131215
  eigenvalues    EBANDS =      -419.36050662
  atomic energy  EATOM  =     17123.75487843
  Solvation  Ediel_sol  =         0.00000000
  ---------------------------------------------------
  free energy    TOTEN  =        39.30710605 eV

  energy without entropy =       39.30579390  energy(sigma->0) =       39.30666867


--------------------------------------------------------------------------------------------------------




----------------------------------------- Iteration    1(   3)  ---------------------------------------


     EDDAV:  cpu time    3.7923: real time    3.7922
       DOS:  cpu time    0.0011: real time    0.0011
    --------------------------------------------
      LOOP:  cpu time    3.7944: real time    3.7959

 eigenvalue-minimisations  :  3648
 total energy-change (2. order) :-0.9442350E+02  (-0.8732316E+02)
 number of electron     138.0000000 magnetization 
 augmentation part      138.0000000 magnetization 

 Free energy of the ion-electron system (eV)
  ---------------------------------------------------
  alpha Z        PSCENC =       204.46100579
  Ewald energy   TEWEN  =     69903.77115712
  -Hartree energ DENC   =    -86074.47146905
  -exchange      EXHF   =         0.00000000
  -V(xc)+E(xc)   XCENC  =       573.05108587
  PAW double counting   =     15085.02939543   -16356.92975307
  entropy T*S    EENTRO =        -0.00260409
  eigenvalues    EBANDS =      -513.78008718
  atomic energy  EATOM  =     17123.75487843
  Solvation  Ediel_sol  =         0.00000000
  ---------------------------------------------------
  free energy    TOTEN  =       -55.11639075 eV

  energy without entropy =      -55.11378666  energy(sigma->0) =      -55.11552272


--------------------------------------------------------------------------------------------------------




----------------------------------------- Iteration    1(   4)  ---------------------------------------


     EDDAV:  cpu time    2.7972: real time    2.7969
       DOS:  cpu time    0.0007: real time    0.0007
    --------------------------------------------
      LOOP:  cpu time    2.7992: real time    2.8166

 eigenvalue-minimisations  :  2760
 total energy-change (2. order) :-0.4594798E+01  (-0.4581136E+01)
 number of electron     138.0000000 magnetization 
 augmentation part      138.0000000 magnetization 

 Free energy of the ion-electron system (eV)
  ---------------------------------------------------
  alpha Z        PSCENC =       204.46100579
  Ewald energy   TEWEN  =     69903.77115712
  -Hartree energ DENC   =    -86074.47146905
  -exchange      EXHF   =         0.00000000
  -V(xc)+E(xc)   XCENC  =       573.05108587
  PAW double counting   =     15085.02939543   -16356.92975307
  entropy T*S    EENTRO =        -0.00403948
  eigenvalues    EBANDS =      -518.37344990
  atomic energy  EATOM  =     17123.75487843
  Solvation  Ediel_sol  =         0.00000000
  ---------------------------------------------------
  free energy    TOTEN  =       -59.71118886 eV

  energy without entropy =      -59.70714938  energy(sigma->0) =      -59.70984237


--------------------------------------------------------------------------------------------------------




----------------------------------------- Iteration    1(   5)  ---------------------------------------


     EDDAV:  cpu time    3.0170: real time    3.0167
       DOS:  cpu time    0.0007: real time    0.0007
    CHARGE:  cpu time    0.1031: real time    0.1031
    MIXING:  cpu time    0.0019: real time    0.0019
    --------------------------------------------
      LOOP:  cpu time    3.1238: real time    3.1252

 eigenvalue-minimisations  :  3024
 total energy-change (2. order) :-0.1185962E+00  (-0.1185749E+00)
 number of electron     138.0000344 magnetization 
 augmentation part       78.6908757 magnetization 

 Broyden mixing:
  rms(total) = 0.27859E+01    rms(broyden)= 0.27855E+01
  rms(prec ) = 0.29420E+01
  weight for this iteration     100.00

 Free energy of the ion-electron system (eV)
  ---------------------------------------------------
  alpha Z        PSCENC =       204.46100579
  Ewald energy   TEWEN  =     69903.77115712
  -Hartree energ DENC   =    -86074.47146905
  -exchange      EXHF   =         0.00000000
  -V(xc)+E(xc)   XCENC  =       573.05108587
  PAW double counting   =     15085.02939543   -16356.92975307
  entropy T*S    EENTRO =        -0.00411766
  eigenvalues    EBANDS =      -518.49196795
  atomic energy  EATOM  =     17123.75487843
  Solvation  Ediel_sol  =         0.00000000
  ---------------------------------------------------
  free energy    TOTEN  =       -59.82978509 eV

  energy without entropy =      -59.82566743  energy(sigma->0) =      -59.82841253


--------------------------------------------------------------------------------------------------------




----------------------------------------- Iteration    1(   6)  ---------------------------------------


    POTLOK:  cpu time    0.0258: real time    0.0263
    SETDIJ:  cpu time    0.0032: real time    0.0032
     EDDAV:  cpu time    3.1601: real time    3.1609
       DOS:  cpu time    0.0007: real time    0.0007
    CHARGE:  cpu time    0.1158: real time    0.1158
    MIXING:  cpu time    0.0022: real time    0.0022
    --------------------------------------------
      LOOP:  cpu time    3.3091: real time    3.3124

 eigenvalue-minimisations  :  3168
 total energy-change (2. order) : 0.4454774E+01  (-0.1317891E+02)
 number of electron     138.0000413 magnetization 
 augmentation part       88.8302110 magnetization 

 Broyden mixing:
  rms(total) = 0.20690E+01    rms(broyden)= 0.20682E+01
  rms(prec ) = 0.22325E+01
  weight for this iteration     100.00

 eigenvalues of (default mixing * dielectric matrix)
  average eigenvalue GAMMA=   0.5782
  0.5782

 Free energy of the ion-electron system (eV)
  ---------------------------------------------------
  alpha Z        PSCENC =       204.46100579
  Ewald energy   TEWEN  =     69903.77115712
  -Hartree energ DENC   =    -85712.80310157
  -exchange      EXHF   =         0.00000000
  -V(xc)+E(xc)   XCENC  =       557.78525673
  PAW double counting   =     15236.54832492   -16438.51205293
  entropy T*S    EENTRO =         0.00401038
  eigenvalues    EBANDS =      -930.38448949
  atomic energy  EATOM  =     17123.75487843
  Solvation  Ediel_sol  =         0.00000000
  ---------------------------------------------------
  free energy    TOTEN  =       -55.37501062 eV

  energy without entropy =      -55.37902100  energy(sigma->0) =      -55.37634742


--------------------------------------------------------------------------------------------------------




----------------------------------------- Iteration    1(   7)  ---------------------------------------


    POTLOK:  cpu time    0.0250: real time    0.0250
    SETDIJ:  cpu time    0.0032: real time    0.0032
     EDDAV:  cpu time    3.6035: real time    3.6032
       DOS:  cpu time    0.0007: real time    0.0007
    CHARGE:  cpu time    0.1183: real time    0.1183
    MIXING:  cpu time    0.0011: real time    0.0011
    --------------------------------------------
      LOOP:  cpu time    3.7530: real time    3.7540

 eigenvalue-minimisations  :  3744
 total energy-change (2. order) : 0.6835030E+01  (-0.5905804E+01)
 number of electron     138.0000376 magnetization 
 augmentation part       85.8029390 magnetization 

 Broyden mixing:
  rms(total) = 0.70188E+00    rms(broyden)= 0.70081E+00
  rms(prec ) = 0.85249E+00
  weight for this iteration     100.00

 eigenvalues of (default mixing * dielectric matrix)
  average eigenvalue GAMMA=   0.4992
  0.5993  0.3991

 Free energy of the ion-electron system (eV)
  ---------------------------------------------------
  alpha Z        PSCENC =       204.46100579
  Ewald energy   TEWEN  =     69903.77115712
  -Hartree energ DENC   =    -85857.23895857
  -exchange      EXHF   =         0.00000000
  -V(xc)+E(xc)   XCENC  =       562.13052617
  PAW double counting   =     15517.78693306   -16775.48058189
  entropy T*S    EENTRO =        -0.00402873
  eigenvalues    EBANDS =      -727.72091206
  atomic energy  EATOM  =     17123.75487843
  Solvation  Ediel_sol  =         0.00000000
  ---------------------------------------------------
  free energy    TOTEN  =       -48.53998067 eV

  energy without entropy =      -48.53595194  energy(sigma->0) =      -48.53863776


--------------------------------------------------------------------------------------------------------




----------------------------------------- Iteration    1(   8)  ---------------------------------------


    POTLOK:  cpu time    0.0351: real time    0.0351
    SETDIJ:  cpu time    0.0031: real time    0.0031
     EDDAV:  cpu time    4.2808: real time    4.2836
       DOS:  cpu time    0.0006: real time    0.0006
    CHARGE:  cpu time    0.0984: real time    0.0984
    MIXING:  cpu time    0.0011: real time    0.0011
    --------------------------------------------
      LOOP:  cpu time    4.4204: real time    4.4374

 eigenvalue-minimisations  :  3768
 total energy-change (2. order) : 0.8214839E+00  (-0.1042518E+01)
 number of electron     138.0000385 magnetization 
 augmentation part       84.9653870 magnetization 

 Broyden mixing:
  rms(total) = 0.38061E+00    rms(broyden)= 0.38037E+00
  rms(prec ) = 0.41726E+00
  weight for this iteration     100.00

 eigenvalues of (default mixing * dielectric matrix)
  average eigenvalue GAMMA=   0.4668
  0.6693  0.3655  0.3655

 Free energy of the ion-electron system (eV)
  ---------------------------------------------------
  alpha Z        PSCENC =       204.46100579
  Ewald energy   TEWEN  =     69903.77115712
  -Hartree energ DENC   =    -85871.87145249
  -exchange      EXHF   =         0.00000000
  -V(xc)+E(xc)   XCENC  =       563.00484186
  PAW double counting   =     15621.29525164   -16889.72809976
  entropy T*S    EENTRO =        -0.00663422
  eigenvalues    EBANDS =      -702.39944509
  atomic energy  EATOM  =     17123.75487843
  Solvation  Ediel_sol  =         0.00000000
  ---------------------------------------------------
  free energy    TOTEN  =       -47.71849673 eV

  energy without entropy =      -47.71186251  energy(sigma->0) =      -47.71628532


--------------------------------------------------------------------------------------------------------




----------------------------------------- Iteration    1(   9)  ---------------------------------------


    POTLOK:  cpu time    0.0249: real time    0.0249
    SETDIJ:  cpu time    0.0031: real time    0.0031
     EDDAV:  cpu time    4.0332: real time    4.0365
       DOS:  cpu time    0.0009: real time    0.0009
    CHARGE:  cpu time    0.1016: real time    0.1016
    MIXING:  cpu time    0.0012: real time    0.0012
    --------------------------------------------
      LOOP:  cpu time    4.1660: real time    4.1712

 eigenvalue-minimisations  :  3528
 total energy-change (2. order) : 0.1198066E+00  (-0.2052618E+00)
 number of electron     138.0000380 magnetization 
 augmentation part       84.8179397 magnetization 

 Broyden mixing:
  rms(total) = 0.19699E+00    rms(broyden)= 0.19692E+00
  rms(prec ) = 0.22417E+00
  weight for this iteration     100.00

 eigenvalues of (default mixing * dielectric matrix)
  average eigenvalue GAMMA=   0.7877
  1.8671  0.4902  0.4902  0.3033

 Free energy of the ion-electron system (eV)
  ---------------------------------------------------
  alpha Z        PSCENC =       204.46100579
  Ewald energy   TEWEN  =     69903.77115712
  -Hartree energ DENC   =    -85873.02539135
  -exchange      EXHF   =         0.00000000
  -V(xc)+E(xc)   XCENC  =       563.05550207
  PAW double counting   =     15702.02491955   -16976.06573530
  entropy T*S    EENTRO =        -0.01303656
  eigenvalues    EBANDS =      -695.56198986
  atomic energy  EATOM  =     17123.75487843
  Solvation  Ediel_sol  =         0.00000000
  ---------------------------------------------------
  free energy    TOTEN  =       -47.59869010 eV

  energy without entropy =      -47.58565354  energy(sigma->0) =      -47.59434458


--------------------------------------------------------------------------------------------------------




----------------------------------------- Iteration    1(  10)  ---------------------------------------


    POTLOK:  cpu time    0.0264: real time    0.0264
    SETDIJ:  cpu time    0.0032: real time    0.0032
     EDDAV:  cpu time    4.9127: real time    4.9813
       DOS:  cpu time    0.0007: real time    0.0007
    CHARGE:  cpu time    0.0918: real time    0.0918
    MIXING:  cpu time    0.0013: real time    0.0013
    --------------------------------------------
      LOOP:  cpu time    5.0373: real time    5.1077

 eigenvalue-minimisations  :  4392
 total energy-change (2. order) : 0.2260836E-01  (-0.1060477E+00)
 number of electron     138.0000384 magnetization 
 augmentation part       84.7298872 magnetization 

 Broyden mixing:
  rms(total) = 0.26407E+00    rms(broyden)= 0.26387E+00
  rms(prec ) = 0.30045E+00
  weight for this iteration     100.00

 eigenvalues of (default mixing * dielectric matrix)
  average eigenvalue GAMMA=   0.7372
  1.9499  0.5761  0.4527  0.4527  0.2547

 Free energy of the ion-electron system (eV)
  ---------------------------------------------------
  alpha Z        PSCENC =       204.46100579
  Ewald energy   TEWEN  =     69903.77115712
  -Hartree energ DENC   =    -85864.91378247
  -exchange      EXHF   =         0.00000000
  -V(xc)+E(xc)   XCENC  =       562.57255592
  PAW double counting   =     15948.01526193   -17236.17367798
  entropy T*S    EENTRO =        -0.00166688
  eigenvalues    EBANDS =      -689.06181360
  atomic energy  EATOM  =     17123.75487843
  Solvation  Ediel_sol  =         0.00000000
  ---------------------------------------------------
  free energy    TOTEN  =       -47.57608174 eV

  energy without entropy =      -47.57441486  energy(sigma->0) =      -47.57552611


--------------------------------------------------------------------------------------------------------




----------------------------------------- Iteration    1(  11)  ---------------------------------------


    POTLOK:  cpu time    0.0253: real time    0.0253
    SETDIJ:  cpu time    0.0032: real time    0.0032
     EDDAV:  cpu time    4.0483: real time    4.0490
       DOS:  cpu time    0.0007: real time    0.0007
    CHARGE:  cpu time    0.0942: real time    0.0942
    MIXING:  cpu time    0.0017: real time    0.0017
    --------------------------------------------
      LOOP:  cpu time    4.1746: real time    4.1772

 eigenvalue-minimisations  :  3552
 total energy-change (2. order) : 0.6285183E-01  (-0.2832116E-01)
 number of electron     138.0000383 magnetization 
 augmentation part       84.7272495 magnetization 

 Broyden mixing:
  rms(total) = 0.16317E+00    rms(broyden)= 0.16316E+00
  rms(prec ) = 0.17933E+00
  weight for this iteration     100.00

 eigenvalues of (default mixing * dielectric matrix)
  average eigenvalue GAMMA=   0.8708
  2.4183  0.9504  0.5862  0.5862  0.4176  0.2660

 Free energy of the ion-electron system (eV)
  ---------------------------------------------------
  alpha Z        PSCENC =       204.46100579
  Ewald energy   TEWEN  =     69903.77115712
  -Hartree energ DENC   =    -85866.03953094
  -exchange      EXHF   =         0.00000000
  -V(xc)+E(xc)   XCENC  =       562.37391598
  PAW double counting   =     15993.19889146   -17284.19816972
  entropy T*S    EENTRO =        -0.00877348
  eigenvalues    EBANDS =      -684.82660455
  atomic energy  EATOM  =     17123.75487843
  Solvation  Ediel_sol  =         0.00000000
  ---------------------------------------------------
  free energy    TOTEN  =       -47.51322991 eV

  energy without entropy =      -47.50445643  energy(sigma->0) =      -47.51030541


--------------------------------------------------------------------------------------------------------




----------------------------------------- Iteration    1(  12)  ---------------------------------------


    POTLOK:  cpu time    0.0243: real time    0.0243
    SETDIJ:  cpu time    0.0031: real time    0.0031
     EDDAV:  cpu time    4.1963: real time    4.1971
       DOS:  cpu time    0.0007: real time    0.0007
    CHARGE:  cpu time    0.1006: real time    0.1006
    MIXING:  cpu time    0.0013: real time    0.0013
    --------------------------------------------
      LOOP:  cpu time    4.3276: real time    4.3300

 eigenvalue-minimisations  :  4152
 total energy-change (2. order) : 0.1523092E-01  (-0.3639558E-01)
 number of electron     138.0000381 magnetization 
 augmentation part       84.8052591 magnetization 

 Broyden mixing:
  rms(total) = 0.94975E-01    rms(broyden)= 0.94793E-01
  rms(prec ) = 0.11249E+00
  weight for this iteration     100.00

 eigenvalues of (default mixing * dielectric matrix)
  average eigenvalue GAMMA=   0.8415
  2.3361  1.0495  0.7369  0.5354  0.5354  0.2676  0.4293

 Free energy of the ion-electron system (eV)
  ---------------------------------------------------
  alpha Z        PSCENC =       204.46100579
  Ewald energy   TEWEN  =     69903.77115712
  -Hartree energ DENC   =    -85863.31390079
  -exchange      EXHF   =         0.00000000
  -V(xc)+E(xc)   XCENC  =       561.93010294
  PAW double counting   =     16063.51353425   -17358.48904304
  entropy T*S    EENTRO =        -0.01253693
  eigenvalues    EBANDS =      -683.11319677
  atomic energy  EATOM  =     17123.75487843
  Solvation  Ediel_sol  =         0.00000000
  ---------------------------------------------------
  free energy    TOTEN  =       -47.49799899 eV

  energy without entropy =      -47.48546206  energy(sigma->0) =      -47.49382001


--------------------------------------------------------------------------------------------------------




----------------------------------------- Iteration    1(  13)  ---------------------------------------


    POTLOK:  cpu time    0.0248: real time    0.0248
    SETDIJ:  cpu time    0.0030: real time    0.0030
     EDDAV:  cpu time    3.6361: real time    3.6367
       DOS:  cpu time    0.0008: real time    0.0008
    CHARGE:  cpu time    0.0988: real time    0.0988
    MIXING:  cpu time    0.0013: real time    0.0013
    --------------------------------------------
      LOOP:  cpu time    3.7662: real time    3.7807

 eigenvalue-minimisations  :  3096
 total energy-change (2. order) : 0.1159937E-01  (-0.7362009E-02)
 number of electron     138.0000382 magnetization 
 augmentation part       84.8784778 magnetization 

 Broyden mixing:
  rms(total) = 0.49984E-01    rms(broyden)= 0.49977E-01
  rms(prec ) = 0.55640E-01
  weight for this iteration     100.00

 eigenvalues of (default mixing * dielectric matrix)
  average eigenvalue GAMMA=   0.8293
  2.3397  1.0303  0.6553  0.6553  0.6313  0.6313  0.2677  0.4237

 Free energy of the ion-electron system (eV)
  ---------------------------------------------------
  alpha Z        PSCENC =       204.46100579
  Ewald energy   TEWEN  =     69903.77115712
  -Hartree energ DENC   =    -85861.10495566
  -exchange      EXHF   =         0.00000000
  -V(xc)+E(xc)   XCENC  =       561.85982940
  PAW double counting   =     16057.10785698   -17350.99537178
  entropy T*S    EENTRO =        -0.01182235
  eigenvalues    EBANDS =      -686.32897755
  atomic energy  EATOM  =     17123.75487843
  Solvation  Ediel_sol  =         0.00000000
  ---------------------------------------------------
  free energy    TOTEN  =       -47.48639963 eV

  energy without entropy =      -47.47457727  energy(sigma->0) =      -47.48245884


--------------------------------------------------------------------------------------------------------




----------------------------------------- Iteration    1(  14)  ---------------------------------------


    POTLOK:  cpu time    0.0248: real time    0.0248
    SETDIJ:  cpu time    0.0031: real time    0.0031
     EDDAV:  cpu time    4.0548: real time    4.0544
       DOS:  cpu time    0.0008: real time    0.0008
    CHARGE:  cpu time    0.0984: real time    0.0984
    MIXING:  cpu time    0.0015: real time    0.0015
    --------------------------------------------
      LOOP:  cpu time    4.1846: real time    4.1861

 eigenvalue-minimisations  :  3552
 total energy-change (2. order) : 0.2988217E-02  (-0.1996466E-02)
 number of electron     138.0000382 magnetization 
 augmentation part       84.9094004 magnetization 

 Broyden mixing:
  rms(total) = 0.11798E-01    rms(broyden)= 0.11738E-01
  rms(prec ) = 0.13416E-01
  weight for this iteration     100.00

 eigenvalues of (default mixing * dielectric matrix)
  average eigenvalue GAMMA=   0.8819
  2.4137  1.2596  0.9823  0.9823  0.5725  0.5725  0.2677  0.4287  0.4573

 Free energy of the ion-electron system (eV)
  ---------------------------------------------------
  alpha Z        PSCENC =       204.46100579
  Ewald energy   TEWEN  =     69903.77115712
  -Hartree energ DENC   =    -85861.37145765
  -exchange      EXHF   =         0.00000000
  -V(xc)+E(xc)   XCENC  =       561.85735662
  PAW double counting   =     16058.13882401   -17351.78059116
  entropy T*S    EENTRO =        -0.01072273
  eigenvalues    EBANDS =      -686.30386185
  atomic energy  EATOM  =     17123.75487843
  Solvation  Ediel_sol  =         0.00000000
  ---------------------------------------------------
  free energy    TOTEN  =       -47.48341141 eV

  energy without entropy =      -47.47268868  energy(sigma->0) =      -47.47983716


--------------------------------------------------------------------------------------------------------




----------------------------------------- Iteration    1(  15)  ---------------------------------------


    POTLOK:  cpu time    0.0257: real time    0.0257
    SETDIJ:  cpu time    0.0030: real time    0.0030
     EDDAV:  cpu time    3.6219: real time    3.6215
       DOS:  cpu time    0.0007: real time    0.0007
    CHARGE:  cpu time    0.0981: real time    0.0980
    MIXING:  cpu time    0.0015: real time    0.0015
    --------------------------------------------
      LOOP:  cpu time    3.7521: real time    3.7538

 eigenvalue-minimisations  :  3120
 total energy-change (2. order) :-0.4908341E-03  (-0.6129329E-03)
 number of electron     138.0000382 magnetization 
 augmentation part       84.8921185 magnetization 

 Broyden mixing:
  rms(total) = 0.73166E-02    rms(broyden)= 0.73023E-02
  rms(prec ) = 0.91929E-02
  weight for this iteration     100.00

 eigenvalues of (default mixing * dielectric matrix)
  average eigenvalue GAMMA=   0.9834
  2.7693  2.1789  0.9101  0.9101  0.8138  0.5771  0.5771  0.2676  0.4315  0.3988

 Free energy of the ion-electron system (eV)
  ---------------------------------------------------
  alpha Z        PSCENC =       204.46100579
  Ewald energy   TEWEN  =     69903.77115712
  -Hartree energ DENC   =    -85863.71152209
  -exchange      EXHF   =         0.00000000
  -V(xc)+E(xc)   XCENC  =       561.88314631
  PAW double counting   =     16061.83370311   -17355.82343560
  entropy T*S    EENTRO =        -0.01105087
  eigenvalues    EBANDS =      -683.64178444
  atomic energy  EATOM  =     17123.75487843
  Solvation  Ediel_sol  =         0.00000000
  ---------------------------------------------------
  free energy    TOTEN  =       -47.48390224 eV

  energy without entropy =      -47.47285137  energy(sigma->0) =      -47.48021862


--------------------------------------------------------------------------------------------------------




----------------------------------------- Iteration    1(  16)  ---------------------------------------


    POTLOK:  cpu time    0.0250: real time    0.0250
    SETDIJ:  cpu time    0.0030: real time    0.0030
     EDDAV:  cpu time    3.3820: real time    3.3817
       DOS:  cpu time    0.0007: real time    0.0007
    CHARGE:  cpu time    0.1014: real time    0.1014
    MIXING:  cpu time    0.0023: real time    0.0023
    --------------------------------------------
      LOOP:  cpu time    3.5157: real time    3.5171

 eigenvalue-minimisations  :  2832
 total energy-change (2. order) :-0.1263015E-03  (-0.1290239E-03)
 number of electron     138.0000382 magnetization 
 augmentation part       84.8947440 magnetization 

 Broyden mixing:
  rms(total) = 0.73896E-02    rms(broyden)= 0.73810E-02
  rms(prec ) = 0.91287E-02
  weight for this iteration     100.00

 eigenvalues of (default mixing * dielectric matrix)
  average eigenvalue GAMMA=   0.9958
  2.6757  2.4438  0.9339  0.9339  0.8583  0.8583  0.5746  0.5746  0.2676  0.4096
  0.4235

 Free energy of the ion-electron system (eV)
  ---------------------------------------------------
  alpha Z        PSCENC =       204.46100579
  Ewald energy   TEWEN  =     69903.77115712
  -Hartree energ DENC   =    -85866.23764582
  -exchange      EXHF   =         0.00000000
  -V(xc)+E(xc)   XCENC  =       561.88441759
  PAW double counting   =     16061.47822585   -17355.39579876
  entropy T*S    EENTRO =        -0.01068077
  eigenvalues    EBANDS =      -681.18958798
  atomic energy  EATOM  =     17123.75487843
  Solvation  Ediel_sol  =         0.00000000
  ---------------------------------------------------
  free energy    TOTEN  =       -47.48402854 eV

  energy without entropy =      -47.47334777  energy(sigma->0) =      -47.48046829


--------------------------------------------------------------------------------------------------------




----------------------------------------- Iteration    1(  17)  ---------------------------------------


    POTLOK:  cpu time    0.0278: real time    0.0278
    SETDIJ:  cpu time    0.0033: real time    0.0033
     EDDAV:  cpu time    2.6069: real time    2.6066
       DOS:  cpu time    0.0006: real time    0.0006
    --------------------------------------------
      LOOP:  cpu time    2.6399: real time    2.6420

 eigenvalue-minimisations  :  1944
 total energy-change (2. order) :-0.1117696E-04  (-0.3506622E-04)
 number of electron     138.0000382 magnetization 
 augmentation part       84.8947440 magnetization 

 Free energy of the ion-electron system (eV)
  ---------------------------------------------------
  alpha Z        PSCENC =       204.46100579
  Ewald energy   TEWEN  =     69903.77115712
  -Hartree energ DENC   =    -85867.25828966
  -exchange      EXHF   =         0.00000000
  -V(xc)+E(xc)   XCENC  =       561.88568441
  PAW double counting   =     16059.76580326   -17353.58061519
  entropy T*S    EENTRO =        -0.01086032
  eigenvalues    EBANDS =      -680.27280357
  atomic energy  EATOM  =     17123.75487843
  Solvation  Ediel_sol  =         0.00000000
  ---------------------------------------------------
  free energy    TOTEN  =       -47.48403972 eV

  energy without entropy =      -47.47317941  energy(sigma->0) =      -47.48041962


--------------------------------------------------------------------------------------------------------




 average (electrostatic) potential at core
  the test charge radii are     0.9430  0.7215
  (the norm of the test charge is              1.0000)
       1 -72.8983       2 -72.8345       3 -72.8345       4 -72.8345       5 -73.0773
       6 -73.0773       7 -73.2014       8 -73.0773       9 -73.1334      10 -73.1334
      11 -73.1334      12 -72.7984      13 -77.4491
 
 
 
 E-fermi :  -1.8096     XC(G=0):  -4.2557     alpha+bet : -3.5686


 k-point     1 :       0.0000    0.0000    0.0000
  band No.  band energies     occupation 
      1     -19.9925      2.00000
      2     -10.3224      2.00000
      3      -8.3522      2.00000
      4      -7.0591      2.00000
      5      -6.9821      2.00000
      6      -6.9821      2.00000
      7      -6.6983      2.00000
      8      -6.5025      2.00000
      9      -6.5025      2.00000
     10      -6.4716      2.00000
     11      -6.1618      2.00000
     12      -6.1238      2.00000
     13      -6.1238      2.00000
     14      -5.9577      2.00000
     15      -5.9577      2.00000
     16      -5.9009      2.00000
     17      -5.6931      2.00000
     18      -5.6931      2.00000
     19      -5.3878      2.00000
     20      -5.1370      2.00000
     21      -5.1370      2.00000
     22      -4.9895      2.00000
     23      -4.9046      2.00000
     24      -4.9046      2.00000
     25      -4.8753      2.00000
     26      -4.7792      2.00000
     27      -4.7792      2.00000
     28      -4.7329      2.00000
     29      -4.6221      2.00000
     30      -4.6221      2.00000
     31      -4.5908      2.00000
     32      -4.5485      2.00000
     33      -4.5485      2.00000
     34      -4.4872      2.00000
     35      -4.4872      2.00000
     36      -4.4257      2.00000
     37      -4.3303      2.00000
     38      -4.3303      2.00000
     39      -4.3039      2.00000
     40      -4.0194      2.00000
     41      -4.0117      2.00000
     42      -4.0117      2.00000
     43      -3.9130      2.00000
     44      -3.9130      2.00000
     45      -3.8016      2.00000
     46      -3.8016      2.00000
     47      -3.6369      2.00000
     48      -3.6369      2.00000
     49      -3.5479      2.00000
     50      -3.5385      2.00000
     51      -3.5385      2.00000
     52      -3.5161      2.00000
     53      -3.4872      2.00000
     54      -3.4872      2.00000
     55      -3.4785      2.00000
     56      -3.4473      2.00000
     57      -3.4472      2.00000
     58      -3.4006      2.00000
     59      -3.3751      2.00000
     60      -3.3751      2.00000
     61      -3.2889      2.00000
     62      -3.2174      2.00000
     63      -3.2174      2.00000
     64      -3.1934      2.00000
     65      -2.9746      2.00000
     66      -2.9436      2.00000
     67      -2.9436      2.00000
     68      -1.6188     -0.02132
     69      -1.6188     -0.02131
     70      -1.5958     -0.00999
     71      -1.2640     -0.00000
     72      -0.6042     -0.00000
     73      -0.6042     -0.00000
     74      -0.4524     -0.00000
     75      -0.1768     -0.00000
     76      -0.1768     -0.00000
     77       1.1261      0.00000
     78       2.5110      0.00000
     79       2.6065      0.00000
     80       2.6066      0.00000
     81       2.9828      0.00000
     82       3.4329      0.00000
     83       3.6343      0.00000
     84       4.0193      0.00000
     85       4.0193      0.00000
     86       4.4805      0.00000
     87       4.5623      0.00000
     88       4.8708      0.00000
     89       5.4375      0.00000
     90       5.7622      0.00000
     91       5.7622      0.00000
     92       6.5835      0.00000
     93       6.7899      0.00000
     94       7.2872      0.00000
     95       7.4397      0.00000
     96       7.4397      0.00000

 k-point     2 :       0.1111   -0.0000    0.0000
  band No.  band energies     occupation 
      1     -19.9912      2.00000
      2     -10.2289      2.00000
      3      -8.2760      2.00000
      4      -7.0254      2.00000
      5      -6.9913      2.00000
      6      -6.9638      2.00000
      7      -6.6709      2.00000
      8      -6.5387      2.00000
      9      -6.4746      2.00000
     10      -6.4431      2.00000
     11      -6.1417      2.00000
     12      -6.1004      2.00000
     13      -6.0962      2.00000
     14      -5.9379      2.00000
     15      -5.9287      2.00000
     16      -5.8613      2.00000
     17      -5.6801      2.00000
     18      -5.6648      2.00000
     19      -5.3815      2.00000
     20      -5.1533      2.00000
     21      -5.1491      2.00000
     22      -4.9969      2.00000
     23      -4.8866      2.00000
     24      -4.8824      2.00000
     25      -4.8677      2.00000
     26      -4.8203      2.00000
     27      -4.7637      2.00000
     28      -4.7469      2.00000
     29      -4.6479      2.00000
     30      -4.6406      2.00000
     31      -4.5929      2.00000
     32      -4.5805      2.00000
     33      -4.5273      2.00000
     34      -4.5069      2.00000
     35      -4.4624      2.00000
     36      -4.4579      2.00000
     37      -4.3929      2.00000
     38      -4.3608      2.00000
     39      -4.3000      2.00000
     40      -4.0556      2.00000
     41      -4.0465      2.00000
     42      -4.0195      2.00000
     43      -3.9413      2.00000
     44      -3.9398      2.00000
     45      -3.8342      2.00000
     46      -3.8027      2.00000
     47      -3.7265      2.00000
     48      -3.6631      2.00000
     49      -3.6450      2.00000
     50      -3.5781      2.00000
     51      -3.5750      2.00000
     52      -3.5635      2.00000
     53      -3.5532      2.00000
     54      -3.5346      2.00000
     55      -3.4965      2.00000
     56      -3.4927      2.00000
     57      -3.4726      2.00000
     58      -3.4677      2.00000
     59      -3.4373      2.00000
     60      -3.4084      2.00000
     61      -3.3202      2.00000
     62      -3.2930      2.00000
     63      -3.2477      2.00000
     64      -3.1923      2.00000
     65      -3.0667      2.00000
     66      -2.9062      2.00000
     67      -2.7730      2.00000
     68      -2.2072      2.00000
     69      -1.7063     -0.05648
     70      -1.6566     -0.05262
     71      -1.1879     -0.00000
     72      -0.9583     -0.00000
     73      -0.6127     -0.00000
     74      -0.2102     -0.00000
     75       0.2456     -0.00000
     76       0.3966     -0.00000
     77       1.3305      0.00000
     78       2.6001      0.00000
     79       2.7336      0.00000
     80       2.8095      0.00000
     81       3.1678      0.00000
     82       3.5105      0.00000
     83       3.7212      0.00000
     84       4.0092      0.00000
     85       4.0355      0.00000
     86       4.4798      0.00000
     87       4.8325      0.00000
     88       4.9571      0.00000
     89       5.4021      0.00000
     90       5.9829      0.00000
     91       6.1120      0.00000
     92       6.6129      0.00000
     93       6.8316      0.00000
     94       7.0339      0.00000
     95       7.2302      0.00000
     96       7.6588      0.00000

 k-point     3 :       0.2222   -0.0000    0.0000
  band No.  band energies     occupation 
      1     -19.9876      2.00000
      2      -9.9521      2.00000
      3      -8.0576      2.00000
      4      -7.1533      2.00000
      5      -6.9148      2.00000
      6      -6.8652      2.00000
      7      -6.7168      2.00000
      8      -6.5194      2.00000
      9      -6.3948      2.00000
     10      -6.3503      2.00000
     11      -6.1045      2.00000
     12      -6.0270      2.00000
     13      -6.0215      2.00000
     14      -5.8776      2.00000
     15      -5.8474      2.00000
     16      -5.7604      2.00000
     17      -5.6349      2.00000
     18      -5.5768      2.00000
     19      -5.3688      2.00000
     20      -5.2015      2.00000
     21      -5.1732      2.00000
     22      -5.0516      2.00000
     23      -4.9441      2.00000
     24      -4.8705      2.00000
     25      -4.8420      2.00000
     26      -4.8355      2.00000
     27      -4.8055      2.00000
     28      -4.7444      2.00000
     29      -4.7246      2.00000
     30      -4.6834      2.00000
     31      -4.6523      2.00000
     32      -4.5723      2.00000
     33      -4.5517      2.00000
     34      -4.5447      2.00000
     35      -4.5204      2.00000
     36      -4.4772      2.00000
     37      -4.4463      2.00000
     38      -4.3619      2.00000
     39      -4.3242      2.00000
     40      -4.1582      2.00000
     41      -4.1495      2.00000
     42      -4.0410      2.00000
     43      -4.0407      2.00000
     44      -3.9893      2.00000
     45      -3.9482      2.00000
     46      -3.9030      2.00000
     47      -3.8908      2.00000
     48      -3.8528      2.00000
     49      -3.7970      2.00000
     50      -3.7163      2.00000
     51      -3.7005      2.00000
     52      -3.6675      2.00000
     53      -3.6448      2.00000
     54      -3.6128      2.00000
     55      -3.6107      2.00000
     56      -3.5662      2.00000
     57      -3.5417      2.00000
     58      -3.5411      2.00000
     59      -3.4981      2.00000
     60      -3.4639      2.00000
     61      -3.4486      2.00000
     62      -3.3875      2.00000
     63      -3.3767      2.00000
     64      -3.3548      2.00000
     65      -3.1336      2.00000
     66      -2.8940      2.00000
     67      -2.8684      2.00000
     68      -2.3707      2.00000
     69      -1.8338      1.39620
     70      -1.8051      0.92392
     71      -1.5105     -0.00020
     72      -0.6835     -0.00000
     73      -0.5063     -0.00000
     74       0.0221     -0.00000
     75       0.6834     -0.00000
     76       1.0634      0.00000
     77       1.7930      0.00000
     78       2.8679      0.00000
     79       3.0298      0.00000
     80       3.2515      0.00000
     81       3.6019      0.00000
     82       3.7855      0.00000
     83       3.9826      0.00000
     84       4.2550      0.00000
     85       4.3546      0.00000
     86       4.7940      0.00000
     87       5.1545      0.00000
     88       5.1945      0.00000
     89       5.5751      0.00000
     90       6.2612      0.00000
     91       6.3766      0.00000
     92       6.8610      0.00000
     93       7.0016      0.00000
     94       7.1615      0.00000
     95       7.1874      0.00000
     96       7.5475      0.00000

 k-point     4 :       0.3333   -0.0000    0.0000
  band No.  band energies     occupation 
      1     -19.9837      2.00000
      2      -9.5044      2.00000
      3      -7.7577      2.00000
      4      -7.5425      2.00000
      5      -6.8539      2.00000
      6      -6.8527      2.00000
      7      -6.6810      2.00000
      8      -6.3655      2.00000
      9      -6.2803      2.00000
     10      -6.2248      2.00000
     11      -6.0574      2.00000
     12      -5.9537      2.00000
     13      -5.9121      2.00000
     14      -5.7908      2.00000
     15      -5.7331      2.00000
     16      -5.6451      2.00000
     17      -5.5482      2.00000
     18      -5.4447      2.00000
     19      -5.3675      2.00000
     20      -5.2464      2.00000
     21      -5.1957      2.00000
     22      -5.1634      2.00000
     23      -5.0710      2.00000
     24      -4.9780      2.00000
     25      -4.9674      2.00000
     26      -4.9649      2.00000
     27      -4.8550      2.00000
     28      -4.7802      2.00000
     29      -4.7121      2.00000
     30      -4.7106      2.00000
     31      -4.6462      2.00000
     32      -4.5983      2.00000
     33      -4.5928      2.00000
     34      -4.5254      2.00000
     35      -4.5204      2.00000
     36      -4.4905      2.00000
     37      -4.4520      2.00000
     38      -4.4110      2.00000
     39      -4.2876      2.00000
     40      -4.2778      2.00000
     41      -4.2188      2.00000
     42      -4.2050      2.00000
     43      -4.2045      2.00000
     44      -4.1843      2.00000
     45      -4.1212      2.00000
     46      -4.0727      2.00000
     47      -4.0323      2.00000
     48      -4.0118      2.00000
     49      -3.9034      2.00000
     50      -3.8941      2.00000
     51      -3.8328      2.00000
     52      -3.8008      2.00000
     53      -3.7498      2.00000
     54      -3.7461      2.00000
     55      -3.7044      2.00000
     56      -3.6866      2.00000
     57      -3.6770      2.00000
     58      -3.6045      2.00000
     59      -3.5817      2.00000
     60      -3.5579      2.00000
     61      -3.4917      2.00000
     62      -3.4701      2.00000
     63      -3.4474      2.00000
     64      -3.3831      2.00000
     65      -3.3302      2.00000
     66      -2.9684      2.00000
     67      -2.8529      2.00000
     68      -2.2436      2.00000
     69      -1.8863      1.96219
     70      -1.8240      1.24146
     71      -1.5074     -0.00017
     72      -0.4961     -0.00000
     73      -0.3968     -0.00000
     74       0.2006     -0.00000
     75       0.6719     -0.00000
     76       1.8865      0.00000
     77       2.1148      0.00000
     78       3.2674      0.00000
     79       3.3324      0.00000
     80       3.4547      0.00000
     81       3.9215      0.00000
     82       4.2313      0.00000
     83       4.4294      0.00000
     84       4.8661      0.00000
     85       5.2221      0.00000
     86       5.3321      0.00000
     87       5.5324      0.00000
     88       5.6107      0.00000
     89       5.9133      0.00000
     90       6.1523      0.00000
     91       6.4112      0.00000
     92       6.6354      0.00000
     93       6.9339      0.00000
     94       7.3384      0.00000
     95       7.4891      0.00000
     96       7.4933      0.00000

 k-point     5 :       0.4444   -0.0000    0.0000
  band No.  band energies     occupation 
      1     -19.9811      2.00000
      2      -8.9144      2.00000
      3      -8.2325      2.00000
      4      -7.3697      2.00000
      5      -6.9880      2.00000
      6      -6.8073      2.00000
      7      -6.5359      2.00000
      8      -6.2917      2.00000
      9      -6.1790      2.00000
     10      -6.1213      2.00000
     11      -5.9611      2.00000
     12      -5.9180      2.00000
     13      -5.8305      2.00000
     14      -5.7128      2.00000
     15      -5.6210      2.00000
     16      -5.5856      2.00000
     17      -5.4694      2.00000
     18      -5.4293      2.00000
     19      -5.3894      2.00000
     20      -5.2849      2.00000
     21      -5.1992      2.00000
     22      -5.1450      2.00000
     23      -5.1437      2.00000
     24      -5.1286      2.00000
     25      -5.0910      2.00000
     26      -5.0622      2.00000
     27      -4.8841      2.00000
     28      -4.8136      2.00000
     29      -4.7602      2.00000
     30      -4.7415      2.00000
     31      -4.6328      2.00000
     32      -4.6070      2.00000
     33      -4.5742      2.00000
     34      -4.5621      2.00000
     35      -4.5495      2.00000
     36      -4.5161      2.00000
     37      -4.4765      2.00000
     38      -4.4610      2.00000
     39      -4.4297      2.00000
     40      -4.4243      2.00000
     41      -4.3631      2.00000
     42      -4.3113      2.00000
     43      -4.2788      2.00000
     44      -4.2030      2.00000
     45      -4.1349      2.00000
     46      -4.1279      2.00000
     47      -4.1112      2.00000
     48      -4.0470      2.00000
     49      -4.0191      2.00000
     50      -3.9583      2.00000
     51      -3.9489      2.00000
     52      -3.9273      2.00000
     53      -3.8410      2.00000
     54      -3.8351      2.00000
     55      -3.7849      2.00000
     56      -3.7671      2.00000
     57      -3.7407      2.00000
     58      -3.7034      2.00000
     59      -3.6081      2.00000
     60      -3.5349      2.00000
     61      -3.5002      2.00000
     62      -3.4791      2.00000
     63      -3.4566      2.00000
     64      -3.4043      2.00000
     65      -3.3791      2.00000
     66      -2.9928      2.00000
     67      -2.8467      2.00000
     68      -2.2997      2.00000
     69      -1.8153      1.09717
     70      -1.7756      0.46010
     71      -1.2278     -0.00000
     72      -0.7504     -0.00000
     73      -0.3400     -0.00000
     74       0.2113     -0.00000
     75       1.1471      0.00000
     76       1.8523      0.00000
     77       2.2962      0.00000
     78       3.1324      0.00000
     79       3.9296      0.00000
     80       4.3328      0.00000
     81       4.5797      0.00000
     82       4.6883      0.00000
     83       4.8248      0.00000
     84       5.0634      0.00000
     85       5.4091      0.00000
     86       5.5435      0.00000
     87       5.6734      0.00000
     88       5.8882      0.00000
     89       5.9707      0.00000
     90       6.0388      0.00000
     91       6.1907      0.00000
     92       6.3603      0.00000
     93       6.6616      0.00000
     94       6.8113      0.00000
     95       6.9512      0.00000
     96       7.0425      0.00000

 k-point     6 :       0.2222    0.1111    0.0000
  band No.  band energies     occupation 
      1     -19.9887      2.00000
      2     -10.0438      2.00000
      3      -8.1283      2.00000
      4      -7.0579      2.00000
      5      -6.9805      2.00000
      6      -6.8935      2.00000
      7      -6.6493      2.00000
      8      -6.5728      2.00000
      9      -6.4803      2.00000
     10      -6.3335      2.00000
     11      -6.1109      2.00000
     12      -6.0651      2.00000
     13      -6.0324      2.00000
     14      -5.8952      2.00000
     15      -5.8756      2.00000
     16      -5.7915      2.00000
     17      -5.6529      2.00000
     18      -5.6048      2.00000
     19      -5.3720      2.00000
     20      -5.1845      2.00000
     21      -5.1690      2.00000
     22      -5.0278      2.00000
     23      -4.9155      2.00000
     24      -4.8614      2.00000
     25      -4.8566      2.00000
     26      -4.8255      2.00000
     27      -4.8061      2.00000
     28      -4.7266      2.00000
     29      -4.6851      2.00000
     30      -4.6638      2.00000
     31      -4.6394      2.00000
     32      -4.6148      2.00000
     33      -4.5499      2.00000
     34      -4.5286      2.00000
     35      -4.4963      2.00000
     36      -4.4732      2.00000
     37      -4.4150      2.00000
     38      -4.3778      2.00000
     39      -4.3212      2.00000
     40      -4.1311      2.00000
     41      -4.1119      2.00000
     42      -4.0381      2.00000
     43      -4.0099      2.00000
     44      -3.9714      2.00000
     45      -3.8831      2.00000
     46      -3.8576      2.00000
     47      -3.8376      2.00000
     48      -3.7999      2.00000
     49      -3.7761      2.00000
     50      -3.6986      2.00000
     51      -3.6724      2.00000
     52      -3.6274      2.00000
     53      -3.6176      2.00000
     54      -3.5927      2.00000
     55      -3.5581      2.00000
     56      -3.5475      2.00000
     57      -3.5400      2.00000
     58      -3.4920      2.00000
     59      -3.4854      2.00000
     60      -3.4578      2.00000
     61      -3.4063      2.00000
     62      -3.3849      2.00000
     63      -3.3654      2.00000
     64      -3.1836      2.00000
     65      -3.1082      2.00000
     66      -2.9455      2.00000
     67      -2.6480      2.00000
     68      -2.5065      2.00000
     69      -2.2837      2.00000
     70      -1.4551     -0.00001
     71      -1.1261     -0.00000
     72      -0.9341     -0.00000
     73      -0.5719     -0.00000
     74       0.0048     -0.00000
     75       0.5650     -0.00000
     76       0.8038     -0.00000
     77       1.7749      0.00000
     78       2.7786      0.00000
     79       2.8585      0.00000
     80       3.1022      0.00000
     81       3.3749      0.00000
     82       3.7166      0.00000
     83       3.8954      0.00000
     84       4.2957      0.00000
     85       4.4044      0.00000
     86       4.7627      0.00000
     87       4.9104      0.00000
     88       5.1139      0.00000
     89       5.4576      0.00000
     90       5.9921      0.00000
     91       6.1824      0.00000
     92       6.8471      0.00000
     93       7.0151      0.00000
     94       7.2879      0.00000
     95       7.5547      0.00000
     96       7.5837      0.00000

 k-point     7 :       0.3333    0.1111    0.0000
  band No.  band energies     occupation 
      1     -19.9849      2.00000
      2      -9.6809      2.00000
[...]
     58      -3.4954      2.00000
     59      -3.4832      2.00000
     60      -3.4453      2.00000
     61      -3.4308      2.00000
     62      -3.4129      2.00000
     63      -3.4107      2.00000
     64      -3.2846      2.00000
     65      -3.2112      2.00000
     66      -3.0297      2.00000
     67      -2.9875      2.00000
     68      -2.7403      2.00000
     69      -2.0559      2.00003
     70      -1.6138     -0.06736
     71      -1.1653     -0.00000
     72       0.1767     -0.00000
     73       0.2457     -0.00000
     74       0.5993     -0.00000
     75       0.8811     -0.00000
     76       1.3975      0.00000
     77       2.2208      0.00000
     78       3.3579      0.00000
     79       3.4953      0.00000
     80       3.7981      0.00000
     81       4.2270      0.00000
     82       4.6063      0.00000
     83       4.6711      0.00000
     84       5.1427      0.00000
     85       5.6091      0.00000
     86       5.7038      0.00000
     87       5.7299      0.00000
     88       5.9397      0.00000
     89       6.1340      0.00000
     90       6.2871      0.00000
     91       6.4911      0.00000
     92       6.6102      0.00000
     93       6.9718      0.00000
     94       7.1496      0.00000
     95       7.1650      0.00000
     96       7.2076      0.00000

 k-point    11 :      -0.4444    0.2222    0.0000
  band No.  band energies     occupation 
      1     -20.0686      2.00000
      2      -8.6558      2.00000
      3      -8.0054      2.00000
      4      -7.4815      2.00000
      5      -7.1745      2.00000
      6      -6.8865      2.00000
      7      -6.7075      2.00000
      8      -6.3777      2.00000
      9      -6.1350      2.00000
     10      -5.9889      2.00000
     11      -5.7577      2.00000
     12      -5.7416      2.00000
     13      -5.6894      2.00000
     14      -5.5752      2.00000
     15      -5.5261      2.00000
     16      -5.4982      2.00000
     17      -5.4643      2.00000
     18      -5.3672      2.00000
     19      -5.3109      2.00000
     20      -5.2743      2.00000
     21      -5.2470      2.00000
     22      -5.2264      2.00000
     23      -5.1610      2.00000
     24      -5.0960      2.00000
     25      -5.0055      2.00000
     26      -4.9491      2.00000
     27      -4.9288      2.00000
     28      -4.8710      2.00000
     29      -4.8157      2.00000
     30      -4.7789      2.00000
     31      -4.7313      2.00000
     32      -4.7088      2.00000
     33      -4.6818      2.00000
     34      -4.6436      2.00000
     35      -4.5176      2.00000
     36      -4.4862      2.00000
     37      -4.4364      2.00000
     38      -4.4118      2.00000
     39      -4.3895      2.00000
     40      -4.3502      2.00000
     41      -4.2836      2.00000
     42      -4.2214      2.00000
     43      -4.1747      2.00000
     44      -4.1155      2.00000
     45      -4.0715      2.00000
     46      -4.0159      2.00000
     47      -4.0087      2.00000
     48      -3.9695      2.00000
     49      -3.9039      2.00000
     50      -3.8852      2.00000
     51      -3.8671      2.00000
     52      -3.8176      2.00000
     53      -3.7704      2.00000
     54      -3.6985      2.00000
     55      -3.6703      2.00000
     56      -3.6573      2.00000
     57      -3.6092      2.00000
     58      -3.5538      2.00000
     59      -3.5075      2.00000
     60      -3.4780      2.00000
     61      -3.4646      2.00000
     62      -3.4447      2.00000
     63      -3.4227      2.00000
     64      -3.3690      2.00000
     65      -3.2494      2.00000
     66      -3.1709      2.00000
     67      -2.9997      2.00000
     68      -2.7922      2.00000
     69      -2.1524      2.00000
     70      -1.6008     -0.07066
     71      -0.8145     -0.00000
     72      -0.2796     -0.00000
     73       0.5166     -0.00000
     74       0.8287     -0.00000
     75       1.4453      0.00000
     76       2.0779      0.00000
     77       2.2874      0.00000
     78       3.0062      0.00000
     79       3.4907      0.00000
     80       3.8726      0.00000
     81       4.3752      0.00000
     82       4.5609      0.00000
     83       5.0851      0.00000
     84       5.2687      0.00000
     85       5.3119      0.00000
     86       5.7441      0.00000
     87       5.9411      0.00000
     88       6.0613      0.00000
     89       6.1337      0.00000
     90       6.2697      0.00000
     91       6.4572      0.00000
     92       6.6532      0.00000
     93       6.8370      0.00000
     94       6.9694      0.00000
     95       7.2121      0.00000
     96       7.3706      0.00000

 k-point    12 :      -0.3333    0.3333    0.0000
  band No.  band energies     occupation 
      1     -20.0677      2.00000
      2      -8.1777      2.00000
      3      -8.0541      2.00000
      4      -7.9359      2.00000
      5      -7.0482      2.00000
      6      -6.9796      2.00000
      7      -6.7126      2.00000
      8      -6.3250      2.00000
      9      -6.1121      2.00000
     10      -6.0047      2.00000
     11      -5.6563      2.00000
     12      -5.6123      2.00000
     13      -5.5780      2.00000
     14      -5.5645      2.00000
     15      -5.5312      2.00000
     16      -5.5281      2.00000
     17      -5.4074      2.00000
     18      -5.3943      2.00000
     19      -5.3629      2.00000
     20      -5.3277      2.00000
     21      -5.3097      2.00000
     22      -5.1742      2.00000
     23      -5.1414      2.00000
     24      -5.0917      2.00000
     25      -5.0809      2.00000
     26      -4.9849      2.00000
     27      -4.8841      2.00000
     28      -4.8827      2.00000
     29      -4.8586      2.00000
     30      -4.8470      2.00000
     31      -4.8253      2.00000
     32      -4.7752      2.00000
     33      -4.7678      2.00000
     34      -4.7086      2.00000
     35      -4.5115      2.00000
     36      -4.4803      2.00000
     37      -4.4476      2.00000
     38      -4.4049      2.00000
     39      -4.3775      2.00000
     40      -4.3698      2.00000
     41      -4.3260      2.00000
     42      -4.2366      2.00000
     43      -4.1625      2.00000
     44      -4.1064      2.00000
     45      -4.0376      2.00000
     46      -4.0221      2.00000
     47      -3.9652      2.00000
     48      -3.9349      2.00000
     49      -3.8993      2.00000
     50      -3.8940      2.00000
     51      -3.8487      2.00000
     52      -3.7893      2.00000
     53      -3.7480      2.00000
     54      -3.7221      2.00000
     55      -3.6874      2.00000
     56      -3.6232      2.00000
     57      -3.5673      2.00000
     58      -3.5210      2.00000
     59      -3.5053      2.00000
     60      -3.4935      2.00000
     61      -3.4851      2.00000
     62      -3.4697      2.00000
     63      -3.4409      2.00000
     64      -3.4400      2.00000
     65      -3.2974      2.00000
     66      -3.2265      2.00000
     67      -3.1423      2.00000
     68      -2.8401      2.00000
     69      -2.2093      2.00000
     70      -1.6855      0.37073
     71      -0.4612     -0.00000
     72      -0.4169     -0.00000
     73       0.3686     -0.00000
     74       1.8488      0.00000
     75       1.9759      0.00000
     76       1.9943      0.00000
     77       2.1778      0.00000
     78       2.4820      0.00000
     79       3.1540      0.00000
     80       3.5630      0.00000
     81       4.3872      0.00000
     82       5.0136      0.00000
     83       5.0604      0.00000
     84       5.0821      0.00000
     85       5.4135      0.00000
     86       5.8367      0.00000
     87       5.8584      0.00000
     88       6.0266      0.00000
     89       6.0606      0.00000
     90       6.0642      0.00000
     91       6.1553      0.00000
     92       6.6552      0.00000
     93       7.0785      0.00000
     94       7.0992      0.00000
     95       7.2183      0.00000
     96       7.2258      0.00000


--------------------------------------------------------------------------------------------------------


 soft charge-density along one line, spin component           1
         0         1         2         3         4         5         6         7         8         9
 total charge-density along one line
 
 pseudopotential strength for first ion, spin component:           1
 -9.580  -0.000   0.000  -0.005   0.000   0.325   0.000  -0.000
 -0.000  -9.549  -0.000   0.000  -0.005   0.000   0.299   0.000
  0.000  -0.000  -9.549  -0.000   0.000  -0.000   0.000   0.298
 -0.005   0.000  -0.000  -9.549  -0.000   0.004  -0.000   0.000
  0.000  -0.005   0.000  -0.000  -9.580  -0.000   0.004  -0.000
  0.325   0.000  -0.000   0.004  -0.000   6.759  -0.000   0.000
  0.000   0.299   0.000  -0.000   0.004  -0.000   6.779  -0.000
 -0.000   0.000   0.298   0.000  -0.000   0.000  -0.000   6.780
  0.004  -0.000   0.000   0.299   0.000  -0.003  -0.000  -0.000
 -0.000   0.004  -0.000   0.000   0.325   0.000  -0.003   0.000
  0.000   0.000  -0.007   0.000   0.000   0.000   0.000   0.003
  0.000   0.000  -0.012   0.000   0.000   0.000   0.000   0.005
  0.000  -0.010  -0.000  -0.000   0.000  -0.000   0.009  -0.000
 -0.000   0.000  -0.009   0.000  -0.000  -0.000  -0.000   0.009
  0.000  -0.000  -0.000  -0.010   0.000  -0.000  -0.000  -0.000
  0.000  -0.011  -0.000   0.000   0.000   0.000   0.011  -0.000
  0.000   0.000  -0.010   0.000   0.000  -0.000  -0.000   0.010
  0.000   0.000  -0.000  -0.011   0.000  -0.000  -0.000  -0.000
 total augmentation occupancy for first ion, spin component:           1
  1.909   0.000  -0.000  -0.006   0.000  -0.017   0.000   0.000   0.006  -0.000  -0.000  -0.000   0.000  -0.000   0.008  -0.000
  0.000   1.928   0.000   0.000  -0.006   0.000  -0.032  -0.000  -0.000   0.006   0.000  -0.000   0.014   0.000   0.000  -0.011
 -0.000   0.000   1.919   0.000  -0.000   0.000  -0.000  -0.027  -0.000   0.000  -0.014   0.014  -0.000   0.058   0.000   0.000
 -0.006   0.000  -0.000   1.928   0.000   0.006   0.000   0.000  -0.032  -0.000   0.000  -0.000   0.000   0.000   0.014  -0.000
  0.000  -0.006  -0.000   0.000   1.909  -0.000   0.006   0.000  -0.000  -0.017  -0.000  -0.000   0.008  -0.000  -0.000  -0.001
 -0.017   0.000   0.000   0.006  -0.000   0.014   0.000  -0.000   0.000   0.000   0.000  -0.000   0.000  -0.000   0.002  -0.000
  0.000  -0.032  -0.000  -0.000   0.006   0.000   0.010  -0.000   0.000   0.000   0.000   0.000   0.017   0.000   0.000  -0.001
  0.000  -0.000  -0.027   0.000   0.000  -0.000  -0.000   0.013  -0.000  -0.000  -0.035   0.002  -0.000   0.024  -0.000   0.000
  0.006   0.000   0.000  -0.032  -0.000   0.000   0.000   0.000   0.010   0.000   0.000   0.000   0.000  -0.000   0.017  -0.000
 -0.000   0.006   0.000  -0.000  -0.017   0.000   0.000  -0.000   0.000   0.014   0.000  -0.000   0.002  -0.000   0.000  -0.000
 -0.000   0.000  -0.014   0.000   0.000   0.000   0.000  -0.035   0.000   0.000   1.674  -0.137   0.000   0.148   0.000   0.000
 -0.000   0.000   0.014   0.000  -0.000  -0.000   0.000   0.002   0.000  -0.000  -0.137   0.016   0.000  -0.023   0.000   0.000
  0.000   0.014  -0.000   0.000   0.008   0.000   0.017  -0.000   0.000   0.002  -0.000   0.000   0.209  -0.000   0.000  -0.013
 -0.000   0.000   0.058   0.000  -0.000  -0.000   0.000   0.024  -0.000  -0.000   0.148  -0.023  -0.000   0.132   0.000  -0.000
  0.008   0.000  -0.000   0.014  -0.000   0.002   0.000  -0.000   0.017  -0.000   0.000   0.000   0.000  -0.000   0.209  -0.000
 -0.000  -0.011   0.000  -0.000  -0.001  -0.000  -0.001   0.000  -0.000  -0.000   0.000   0.000  -0.013  -0.000   0.000   0.001
  0.000   0.000  -0.016  -0.000   0.000   0.000   0.000  -0.001   0.000   0.000  -0.020   0.002  -0.000  -0.009   0.000  -0.000
 -0.001  -0.000   0.000  -0.011   0.000  -0.000  -0.000   0.000  -0.001   0.000  -0.000   0.000  -0.000  -0.000  -0.013   0.000


------------------------ aborting loop because EDIFF is reached ----------------------------------------


    CHARGE:  cpu time    0.0895: real time    0.0897
    FORLOC:  cpu time    0.0031: real time    0.0031
    FORNL :  cpu time    1.6741: real time    1.6740
    STRESS:  cpu time    2.9586: real time    2.9615
    FORCOR:  cpu time    0.0268: real time    0.0268
    FORHAR:  cpu time    0.0084: real time    0.0084
    MIXING:  cpu time    0.0013: real time    0.0013
    OFIELD:  cpu time    0.0000: real time    0.0000

  FORCE on cell =-STRESS in cart. coord.  units (eV):
  Direction    XX          YY          ZZ          XY          YZ          ZX
  --------------------------------------------------------------------------------------
  Alpha Z   204.46101   204.46101   204.46101
  Ewald   79339.96354 79339.96354-88269.04930    -0.00000     0.00000     0.00000
  Hartree 83490.21683 83490.21683-80599.69711     0.00000    -0.00000    -0.00000
  E(xc)    -799.89527  -799.89510  -801.82632    -0.00015     0.00000     0.00000
  Local  ************************167391.34584     0.00597    -0.00005    -0.00008
  n-local  -276.08569  -288.35385  -287.29001    -5.60429     0.11273    -0.36307
  augment  1139.72257  1139.72865  1146.90081    -0.00527    -0.00000    -0.00001
  Kinetic  1198.86104  1202.92903  1213.75772     1.95198    -1.40860     1.31076
  Fock        0.00000     0.00000     0.00000     0.00000     0.00000     0.00000
  -------------------------------------------------------------------------------------
  Total      -2.77062    -2.77062    -1.39736     0.00000     0.00000     0.00000
  in kB      -8.01107    -8.01107    -4.04037     0.00000     0.00000     0.00000
  external pressure =       -6.69 kB  Pullay stress =        0.00 kB


 VOLUME and BASIS-vectors are now :
 -----------------------------------------------------------------------------
  energy-cutoff  :      400.00
  volume of cell :      554.11
      direct lattice vectors                 reciprocal lattice vectors
     5.142080513  0.000000000  0.000000000     0.194473812 -0.112279508  0.000000000
     2.571040256  4.453172352  0.000000000     0.000000000  0.224559016  0.000000000
     0.000000000  0.000000000 24.198491158     0.000000000  0.000000000  0.041324891

  length of vectors
     5.142080513  5.142080513 24.198491158     0.224559016  0.224559016  0.041324891


 FORCES acting on ions
    electron-ion (+dipol)            ewald-force                    non-local-force                 convergence-correction
 -----------------------------------------------------------------------------------------------
   0.214E-05 0.124E-05 0.296E+04   0.399E-10 0.231E-10 -.296E+04   -.243E-16 -.347E-17 -.283E+01   0.337E-06 0.195E-06 0.194E-01
   0.117E-07 0.473E+01 0.297E+04   -.317E-10 -.457E+01 -.297E+04   -.347E-17 -.161E+00 -.181E+01   0.521E-07 -.250E-02 -.245E-01
   0.410E+01 -.237E+01 0.297E+04   -.396E+01 0.228E+01 -.297E+04   -.140E+00 0.807E-01 -.181E+01   -.216E-02 0.125E-02 -.245E-01
   -.410E+01 -.237E+01 0.297E+04   0.396E+01 0.228E+01 -.297E+04   0.140E+00 0.807E-01 -.181E+01   0.216E-02 0.125E-02 -.245E-01
   -.940E+01 0.543E+01 0.203E+03   0.918E+01 -.530E+01 -.203E+03   0.199E+00 -.115E+00 0.436E+00   0.161E-01 -.929E-02 0.620E-01
   0.940E+01 0.543E+01 0.203E+03   -.918E+01 -.530E+01 -.203E+03   -.199E+00 -.115E+00 0.436E+00   -.161E-01 -.928E-02 0.620E-01
   0.215E-04 0.124E-04 0.148E+03   -.204E-10 0.268E-11 -.146E+03   -.520E-17 0.000E+00 -.147E+01   -.169E-06 -.977E-07 0.390E-01
   -.117E-04 -.109E+02 0.203E+03   0.156E-10 0.106E+02 -.203E+03   -.347E-17 0.229E+00 0.436E+00   -.250E-06 0.186E-01 0.620E-01
   0.765E+02 0.441E+02 -.264E+04   -.777E+02 -.448E+02 0.264E+04   0.122E+01 0.704E+00 -.193E+00   0.183E-01 0.106E-01 0.964E-01
   -.765E+02 0.441E+02 -.264E+04   0.777E+02 -.448E+02 0.264E+04   -.122E+01 0.704E+00 -.193E+00   -.183E-01 0.106E-01 0.964E-01
   -.371E-05 -.883E+02 -.264E+04   0.138E-10 0.897E+02 0.264E+04   -.278E-16 -.141E+01 -.193E+00   0.213E-05 -.212E-01 0.964E-01
   -.260E-04 -.150E-04 -.256E+04   -.188E-10 -.109E-10 0.256E+04   0.104E-16 0.000E+00 0.560E+01   -.391E-06 -.226E-06 0.813E-01
   0.762E-05 0.440E-05 -.213E+04   0.392E-11 0.221E-11 0.216E+04   0.607E-17 -.347E-17 -.258E+02   -.295E-07 -.171E-07 0.513E-01
 -----------------------------------------------------------------------------------------------
   -.582E-04 -.336E-04 0.286E+02   0.139E-12 -.244E-13 0.455E-11   0.211E-15 -.347E-17 -.292E+02   0.995E-06 0.574E-06 0.593E+00
 
 
 POSITION                                       TOTAL-FORCE (eV/Angst)
 -----------------------------------------------------------------------------------
      1.28552      0.74220     10.03915        -0.000000     -0.000000     -0.034648
      3.85656      0.73963     10.02042        -0.000000     -0.001768      0.010331
      2.56882      2.97006     10.02042        -0.001531      0.000884      0.010331
      5.14430      2.97006     10.02042         0.001531      0.000884      0.010331
      5.14565      1.48233     12.08361        -0.000108      0.000062     -0.009864
      2.56747      1.48233     12.08361         0.000108      0.000062     -0.009864
      6.42760      3.71098     12.14707        -0.000000     -0.000000      0.019114
      3.85656      3.71510     12.08361        -0.000000     -0.000124     -0.009864
     -0.04910     -0.02835     14.23416         0.023180      0.013383      0.008656
      2.62014     -0.02835     14.23416        -0.023180      0.013383      0.008656
      1.28552      2.28328     14.23416         0.000000     -0.026766      0.008656
      3.85656      2.22659     14.06726        -0.000000      0.000000     -0.005365
      1.28552      0.74220     15.32139        -0.000000      0.000000     -0.006468
 -----------------------------------------------------------------------------------
    total drift:                               -0.000057     -0.000033     -0.031246


--------------------------------------------------------------------------------------------------------



  FREE ENERGIE OF THE ION-ELECTRON SYSTEM (eV)
  ---------------------------------------------------
  free  energy   TOTEN  =       -47.60038162 eV

  energy  without entropy=      -47.59305125  energy(sigma->0) =      -47.59793816
 
 d Force = 0.9050050E-04[-0.205E-04, 0.201E-03]  d Energy = 0.1164009E-03-0.259E-04
 d Force =-0.3452408E+01[-0.345E+01,-0.345E+01]  d Ewald  =-0.3452409E+01 0.115E-05


--------------------------------------------------------------------------------------------------------


    POTLOK:  cpu time    0.0299: real time    0.0299


--------------------------------------------------------------------------------------------------------




--------------------------------------------------------------------------------------------------------


  
 reached required accuracy - stopping structural energy minimisation
     LOOP+:  cpu time   14.1824: real time   14.2507
    4ORBIT:  cpu time    0.0000: real time    0.0000

 total amount of memory used by VASP on root node    83109. kBytes
========================================================================

   base      :      30000. kBytes
   nonl-proj :      37196. kBytes
   fftplans  :       1683. kBytes
   grid      :       6047. kBytes
   one-center:        202. kBytes
   wavefun   :       7981. kBytes
 
  
  
 General timing and accounting informations for this job:
 ========================================================
  
                  Total CPU time used (sec):      299.375
                            User time (sec):      294.691
                          System time (sec):        4.684
                         Elapsed time (sec):      300.669
  
                   Maximum memory used (kb):      125784.
                   Average memory used (kb):           0.
  
                          Minor page faults:       197669
                          Major page faults:           43
                 Voluntary context switches:         3239
