<?xml version="1.0" encoding="ISO-8859-1"?>
<modeling>
 <generator>
  <i name="program" type="string">vasp </i>
  <i name="version" type="string">5.4.1  </i>
  <i name="subversion" type="string">05Feb16 (build Feb 08 2018 09:21:51) complex                          parallel </i>
  <i name="platform" type="string">LinuxIFC </i>
  <i name="date" type="string">2019 11 21 </i>
  <i name="time" type="string">23:36:32 </i>
 </generator>
 <incar>
  <i type="string" name="PREC">normal</i>
  <i type="int" name="IBRION">     2</i>
  <i type="int" name="NSW">    20</i>
  <i name="ENCUT">    400.00000000</i>
  <i type="int" name="ISMEAR">     1</i>
  <i name="SIGMA">      0.10000000</i>
  <i type="logical" name="LWAVE"> F  </i>
  <i type="logical" name="LCHARG"> F  </i>
  <v type="int" name="KPOINT_BSE">    -1     0     0     0</v>
 </incar>
 <kpoints>
  <generation param="Monkhorst-Pack">
   <v type="int" name="divisions">       9        9        1 </v>
   <v name="usershift">      0.00000000       0.00000000       0.00000000 </v>
   <v name="genvec1">      0.11111111       0.00000000       0.00000000 </v>
   <v name="genvec2">      0.00000000       0.11111111       0.00000000 </v>
   <v name="genvec3">      0.00000000       0.00000000       1.00000000 </v>
   <v name="shift">      0.00000000       0.00000000       0.00000000 </v>
  </generation>
  <varray name="kpointlist" >
   <v>       0.00000000       0.00000000       0.00000000 </v>
   <v>       0.11111111      -0.00000000       0.00000000 </v>
   <v>       0.22222222      -0.00000000       0.00000000 </v>
   <v>       0.33333333      -0.00000000       0.00000000 </v>
   <v>       0.44444444      -0.00000000       0.00000000 </v>
   <v>       0.22222222       0.11111111       0.00000000 </v>
   <v>       0.33333333       0.11111111       0.00000000 </v>
   <v>       0.44444444       0.11111111       0.00000000 </v>
   <v>      -0.44444444       0.11111111       0.00000000 </v>
   <v>       0.44444444       0.22222222       0.00000000 </v>
   <v>      -0.44444444       0.22222222       0.00000000 </v>
   <v>      -0.33333333       0.33333333       0.00000000 </v>
  </varray>
  <varray name="weights" >
   <v>       0.01234568 </v>
   <v>       0.07407407 </v>
   <v>       0.07407407 </v>
   <v>       0.07407407 </v>
   <v>       0.07407407 </v>
   <v>       0.07407407 </v>
   <v>       0.14814815 </v>
   <v>       0.14814815 </v>
   <v>       0.07407407 </v>
   <v>       0.07407407 </v>
   <v>       0.14814815 </v>
   <v>       0.02469136 </v>
  </varray>
 </kpoints>
 <parameters>
  <separator name="general" >
   <i type="string" name="SYSTEM">unknown system</i>
   <i type="logical" name="LCOMPAT"> F  </i>
  </separator>
  <separator name="electronic" >
   <i type="string" name="PREC">normal</i>
   <i name="ENMAX">    400.00000000</i>
   <i name="ENAUG">    605.39200000</i>
   <i name="EDIFF">      0.00010000</i>
   <i type="int" name="IALGO">    38</i>
   <i type="int" name="IWAVPR">    11</i>
   <i type="int" name="NBANDS">    96</i>
   <i name="NELECT">    138.00000000</i>
   <i type="int" name="TURBO">     0</i>
   <i type="int" name="IRESTART">     0</i>
   <i type="int" name="NREBOOT">     0</i>
   <i type="int" name="NMIN">     0</i>
   <i name="EREF">      0.00000000</i>
   <separator name="electronic smearing" >
    <i type="int" name="ISMEAR">     1</i>
    <i name="SIGMA">      0.10000000</i>
    <i name="KSPACING">      0.50000000</i>
    <i type="logical" name="KGAMMA"> T  </i>
   </separator>
   <separator name="electronic projectors" >
    <i type="logical" name="LREAL"> F  </i>
    <v name="ROPT">      0.00000000      0.00000000</v>
    <i type="int" name="LMAXPAW">  -100</i>
    <i type="int" name="LMAXMIX">     2</i>
    <i type="logical" name="NLSPLINE"> F  </i>
   </separator>
   <separator name="electronic startup" >
    <i type="int" name="ISTART">     0</i>
    <i type="int" name="ICHARG">     2</i>
    <i type="int" name="INIWAV">     1</i>
   </separator>
   <separator name="electronic spin" >
    <i type="int" name="ISPIN">     1</i>
    <i type="logical" name="LNONCOLLINEAR"> F  </i>
    <v name="MAGMOM">      1.00000000      1.00000000      1.00000000      1.00000000      1.00000000      1.00000000      1.00000000      1.00000000      1.00000000      1.00000000      1.00000000      1.00000000      1.00000000</v>
    <i name="NUPDOWN">     -1.00000000</i>
    <i type="logical" name="LSORBIT"> F  </i>
    <v name="SAXIS">      0.00000000      0.00000000      1.00000000</v>
    <i type="logical" name="LSPIRAL"> F  </i>
    <v name="QSPIRAL">      0.00000000      0.00000000      0.00000000</v>
    <i type="logical" name="LZEROZ"> F  </i>
   </separator>
   <separator name="electronic exchange-correlation" >
    <i type="logical" name="LASPH"> F  </i>
    <i type="logical" name="LMETAGGA"> F  </i>
   </separator>
   <separator name="electronic convergence" >
    <i type="int" name="NELM">    60</i>
    <i type="int" name="NELMDL">    -5</i>
    <i type="int" name="NELMIN">     2</i>
    <i name="ENINI">    400.00000000</i>
    <separator name="electronic convergence detail" >
     <i type="logical" name="LDIAG"> T  </i>
     <i type="logical" name="LSUBROT"> F  </i>
     <i name="WEIMIN">      0.00100000</i>
     <i name="EBREAK">      0.00000026</i>
     <i name="DEPER">      0.30000000</i>
     <i type="int" name="NRMM">     4</i>
     <i name="TIME">      0.40000000</i>
    </separator>
   </separator>
   <separator name="electronic mixer" >
    <i name="AMIX">      0.40000000</i>
    <i name="BMIX">      1.00000000</i>
    <i name="AMIN">      0.10000000</i>
    <i name="AMIX_MAG">      1.60000000</i>
    <i name="BMIX_MAG">      1.00000000</i>
    <separator name="electronic mixer details" >
     <i type="int" name="IMIX">     4</i>
     <i type="logical" name="MIXFIRST"> F  </i>
     <i type="int" name="MAXMIX">   -45</i>
     <i name="WC">    100.00000000</i>
     <i type="int" name="INIMIX">     1</i>
     <i type="int" name="MIXPRE">     1</i>
     <i type="int" name="MREMOVE">     5</i>
    </separator>
   </separator>
   <separator name="electronic dipolcorrection" >
    <i type="logical" name="LDIPOL"> F  </i>
    <i type="logical" name="LMONO"> F  </i>
    <i type="int" name="IDIPOL">     0</i>
    <i name="EPSILON">      1.00000000</i>
    <v name="DIPOL">   -100.00000000   -100.00000000   -100.00000000</v>
    <i name="EFIELD">      0.00000000</i>
   </separator>
  </separator>
  <separator name="grids" >
   <i type="int" name="NGX">    28</i>
   <i type="int" name="NGY">    28</i>
   <i type="int" name="NGZ">   120</i>
   <i type="int" name="NGXF">    56</i>
   <i type="int" name="NGYF">    56</i>
   <i type="int" name="NGZF">   240</i>
   <i type="logical" name="ADDGRID"> F  </i>
  </separator>
  <separator name="ionic" >
   <i type="int" name="NSW">    20</i>
   <i type="int" name="IBRION">     2</i>
   <i type="int" name="ISIF">     2</i>
   <i name="PSTRESS">      0.00000000</i>
   <i name="EDIFFG">      0.00100000</i>
   <i type="int" name="NFREE">     1</i>
   <i name="POTIM">      0.50000000</i>
   <i name="SMASS">     -3.00000000</i>
   <i name="SCALEE">      1.00000000</i>
  </separator>
  <separator name="ionic md" >
   <i name="TEBEG">      0.00010000</i>
   <i name="TEEND">      0.00010000</i>
   <i type="int" name="NBLOCK">     1</i>
   <i type="int" name="KBLOCK">    20</i>
   <i type="int" name="NPACO">   256</i>
   <i name="APACO">     16.00000000</i>
  </separator>
  <separator name="symmetry" >
   <i type="int" name="ISYM">     2</i>
   <i name="SYMPREC">      0.00001000</i>
  </separator>
  <separator name="dos" >
   <i type="logical" name="LORBIT"> F  </i>
   <v name="RWIGS">     -1.00000000     -1.00000000</v>
   <i type="int" name="NEDOS">   301</i>
   <i name="EMIN">     10.00000000</i>
   <i name="EMAX">    -10.00000000</i>
   <i name="EFERMI">      0.00000000</i>
  </separator>
  <separator name="writing" >
   <i type="int" name="NWRITE">     2</i>
   <i type="logical" name="LWAVE"> F  </i>
   <i type="logical" name="LCHARG"> F  </i>
   <i type="logical" name="LPARD"> F  </i>
   <i type="logical" name="LVTOT"> F  </i>
   <i type="logical" name="LVHAR"> F  </i>
   <i type="logical" name="LELF"> F  </i>
   <i type="logical" name="LOPTICS"> F  </i>
   <v name="STM">      0.00000000      0.00000000      0.00000000      0.00000000      0.00000000      0.00000000      0.00000000</v>
  </separator>
  <separator name="performance" >
   <i type="int" name="NPAR">    24</i>
   <i type="int" name="NSIM">     4</i>
   <i type="int" name="NBLK">    -1</i>
   <i type="logical" name="LPLANE"> T  </i>
   <i type="logical" name="LSCALAPACK"> F  </i>
   <i type="logical" name="LSCAAWARE"> F  </i>
   <i type="logical" name="LSCALU"> F  </i>
   <i type="logical" name="LASYNC"> F  </i>
   <i type="logical" name="LORBITALREAL"> F  </i>
  </separator>
  <separator name="miscellaneous" >
   <i type="int" name="IDIOT">     3</i>
   <i type="logical" name="LMUSIC"> F  </i>
   <v name="POMASS">     63.54600000     16.00000000</v>
   <v name="DARWINR">      0.00000000      0.00000000</v>
   <v name="DARWINV">      1.00000000      1.00000000</v>
   <i type="logical" name="LCORR"> T  </i>
  </separator>
  <i type="logical" name="GGA_COMPAT"> T  </i>
  <i type="logical" name="LBERRY"> F  </i>
  <i type="int" name="ICORELEVEL">     0</i>
  <i type="logical" name="LDAU"> F  </i>
  <i type="int" name="I_CONSTRAINED_M">     0</i>
  <separator name="electronic exchange-correlation" >
   <i type="string" name="GGA">--</i>
   <i type="int" name="VOSKOWN">     0</i>
   <i type="logical" name="LHFCALC"> F  </i>
   <i type="string" name="PRECFOCK"></i>
   <i type="logical" name="LSYMGRAD"> F  </i>
   <i type="logical" name="LHFONE"> F  </i>
   <i type="logical" name="LRHFCALC"> F  </i>
   <i type="logical" name="LTHOMAS"> F  </i>
   <i type="logical" name="LMODELHF"> F  </i>
   <i name="ENCUT4O">     -1.00000000</i>
   <i type="int" name="EXXOEP">     0</i>
   <i type="int" name="FOURORBIT">     0</i>
   <i name="AEXX">      0.00000000</i>
   <i name="HFALPHA">      0.00000000</i>
   <i name="MCALPHA">      0.00000000</i>
   <i name="ALDAX">      1.00000000</i>
   <i name="AGGAX">      1.00000000</i>
   <i name="ALDAC">      1.00000000</i>
   <i name="AGGAC">      1.00000000</i>
   <i type="int" name="NKREDX">     1</i>
   <i type="int" name="NKREDY">     1</i>
   <i type="int" name="NKREDZ">     1</i>
   <i type="logical" name="SHIFTRED"> F  </i>
   <i type="logical" name="ODDONLY"> F  </i>
   <i type="logical" name="EVENONLY"> F  </i>
   <i type="int" name="LMAXFOCK">     0</i>
   <i type="int" name="NMAXFOCKAE">     0</i>
   <i type="logical" name="LFOCKAEDFT"> F  </i>
   <i name="HFSCREEN">      0.00000000</i>
   <i name="HFSCREENC">      0.00000000</i>
   <i type="int" name="NBANDSGWLOW">     0</i>
  </separator>
  <separator name="vdW DFT" >
   <i type="logical" name="LUSE_VDW"> F  </i>
   <i name="Zab_VDW">     -0.84910000</i>
   <i name="PARAM1">      0.12340000</i>
   <i name="PARAM2">      1.00000000</i>
   <i name="PARAM3">      0.00000000</i>
  </separator>
  <separator name="model GW" >
   <i type="int" name="MODEL_GW">     0</i>
   <i name="MODEL_EPS0">     25.57434749</i>
   <i name="MODEL_ALPHA">      1.00000000</i>
  </separator>
  <separator name="linear response parameters" >
   <i type="logical" name="LEPSILON"> F  </i>
   <i type="logical" name="LRPA"> F  </i>
   <i type="logical" name="LNABLA"> F  </i>
   <i type="logical" name="LVEL"> F  </i>
   <i type="int" name="KINTER">     0</i>
   <i name="CSHIFT">      0.10000000</i>
   <i name="OMEGAMAX">     -1.00000000</i>
   <i name="DEG_THRESHOLD">      0.00200000</i>
  </separator>
  <separator name="orbital magnetization" >
   <i type="logical" name="NUCIND"> F  </i>
   <v name="MAGPOS">      0.00000000      0.00000000      0.00000000</v>
   <i type="logical" name="LNICSALL"> T  </i>
   <i type="logical" name="ORBITALMAG"> F  </i>
   <i type="logical" name="LMAGBLOCH"> F  </i>
   <i type="logical" name="LCHIMAG"> F  </i>
   <i type="logical" name="LGAUGE"> T  </i>
   <i type="int" name="MAGATOM">     0</i>
   <v name="MAGDIPOL">      0.00000000      0.00000000      0.00000000</v>
   <v name="AVECCONST">      0.00000000      0.00000000      0.00000000</v>
  </separator>
  <separator name="response functions" >
   <i type="logical" name="LADDER"> F  </i>
   <i type="logical" name="LFXC"> F  </i>
   <i type="logical" name="LHARTREE"> T  </i>
   <i type="int" name="IBSE">     0</i>
   <v type="int" name="KPOINT">    -1     0     0     0</v>
   <i type="logical" name="LTCTE"> F  </i>
   <i type="logical" name="LTETE"> F  </i>
   <i type="logical" name="LTRIPLET"> F  </i>
   <i type="logical" name="LFXCEPS"> F  </i>
   <i type="logical" name="LFXHEG"> F  </i>
   <i type="int" name="NATURALO">     0</i>
   <i type="logical" name="L2ORDER"> F  </i>
   <i type="logical" name="LUSEW"> F  </i>
   <i name="ENCUTGW">     -2.00000000</i>
   <i name="ENCUTGWSOFT">     -2.00000000</i>
   <i name="ENCUTLF">     -1.00000000</i>
   <i type="int" name="LMAXMP2">    -1</i>
   <i name="SCISSOR">      0.00000000</i>
   <i type="int" name="NOMEGA">     0</i>
   <i type="int" name="NOMEGAR">     0</i>
   <i type="int" name="NBANDSGW">    -1</i>
   <i type="int" name="NBANDSO">    -1</i>
   <i type="int" name="NBANDSV">    -1</i>
   <i type="int" name="NELM">     1</i>
   <i type="int" name="NELMHF">     1</i>
   <i type="int" name="DIM">     3</i>
   <i type="int" name="ANTIRES">     0</i>
   <i name="OMEGAMAX">    -30.00000000</i>
   <i name="OMEGAMIN">    -30.00000000</i>
   <i name="OMEGATL">   -200.00000000</i>
   <i type="int" name="OMEGAGRID">     0</i>
   <i name="CSHIFT">     -0.10000000</i>
   <i type="logical" name="SELFENERGY"> F  </i>
   <i type="logical" name="LSPECTRAL"> F  </i>
   <i type="logical" name="LSPECTRALGW"> F  </i>
   <i type="logical" name="LSINGLES"> F  </i>
   <i type="logical" name="LFERMIGW"> F  </i>
   <i type="logical" name="ODDONLYGW"> F  </i>
   <i type="logical" name="EVENONLYGW"> F  </i>
   <i type="int" name="NKREDLFX">     1</i>
   <i type="int" name="NKREDLFY">     1</i>
   <i type="int" name="NKREDLFZ">     1</i>
   <i type="int" name="MAXMEM">  1800</i>
   <i type="int" name="TELESCOPE">     0</i>
   <i type="int" name="TAUPAR">     1</i>
   <i type="int" name="OMEGAPAR">    -1</i>
   <i name="LAMBDA">      1.00000000</i>
  </separator>
  <separator name="External order field" >
   <i name="OFIELD_KAPPA">      0.00000000</i>
   <v name="OFIELD_K">      0.00000000      0.00000000      0.00000000</v>
   <i name="OFIELD_Q6_NEAR">      0.00000000</i>
   <i name="OFIELD_Q6_FAR">      0.00000000</i>
   <i name="OFIELD_A">      0.00000000</i>
  </separator>
 </parameters>
 <atominfo>
  <atoms>      13 </atoms>
  <types>       2 </types>
  <array name="atoms" >
   <dimension dim="1">ion</dimension>
   <field type="string">element</field>
   <field type="int">atomtype</field>
   <set>
    <rc><c>Cu</c><c>   1</c></rc>
    <rc><c>Cu</c><c>   1</c></rc>
    <rc><c>Cu</c><c>   1</c></rc>
    <rc><c>Cu</c><c>   1</c></rc>
    <rc><c>Cu</c><c>   1</c></rc>
    <rc><c>Cu</c><c>   1</c></rc>
    <rc><c>Cu</c><c>   1</c></rc>
    <rc><c>Cu</c><c>   1</c></rc>
    <rc><c>Cu</c><c>   1</c></rc>
    <rc><c>Cu</c><c>   1</c></rc>
    <rc><c>Cu</c><c>   1</c></rc>
    <rc><c>Cu</c><c>   1</c></rc>
    <rc><c>O </c><c>   2</c></rc>
   </set>
  </array>
  <array name="atomtypes" >
   <dimension dim="1">type</dimension>
   <field type="int">atomspertype</field>
   <field type="string">element</field>
   <field>mass</field>
   <field>valence</field>
   <field type="string">pseudopotential</field>
   <set>
    <rc><c>  12</c><c>Cu</c><c>     63.54600000</c><c>     11.00000000</c><c>  PAW_PBE Cu 22Jun2005                  </c></rc>
    <rc><c>   1</c><c>O </c><c>     16.00000000</c><c>      6.00000000</c><c>  PAW_PBE O 08Apr2002                   </c></rc>
   </set>
  </array>
 </atominfo>
 <structure name="initialpos" >
  <crystal>
   <varray name="basis" >
    <v>       5.14208051       0.00000000       0.00000000 </v>
    <v>       2.57104026       4.45317235       0.00000000 </v>
    <v>       0.00000000       0.00000000      24.19849116 </v>
   </varray>
   <i name="volume">    554.11086238 </i>
   <varray name="rec_basis" >
    <v>       0.19447381      -0.11227951       0.00000000 </v>
    <v>       0.00000000       0.22455902       0.00000000 </v>
    <v>       0.00000000       0.00000000       0.04132489 </v>
   </varray>
  </crystal>
  <varray name="positions" >
   <v>       0.16666667       0.16666667       0.41324891 </v>
   <v>       0.66666667       0.16666667       0.41324891 </v>
   <v>       0.16666667       0.66666667       0.41324891 </v>
   <v>       0.66666667       0.66666667       0.41324891 </v>
   <v>       0.83333333       0.33333333       0.50000000 </v>
   <v>       0.33333333       0.33333333       0.50000000 </v>
   <v>       0.83333333       0.83333333       0.50000000 </v>
   <v>       0.33333333       0.83333333       0.50000000 </v>
   <v>       0.00000000       0.00000000       0.58675109 </v>
   <v>       0.50000000       0.00000000       0.58675109 </v>
   <v>       0.00000000       0.50000000       0.58675109 </v>
   <v>       0.50000000       0.50000000       0.58675109 </v>
   <v>       0.16666667       0.16666667       0.63634096 </v>
  </varray>
 </structure>
 <calculation>
  <scstep>
   <time name="dav">    2.84    2.85</time>
   <time name="total">    2.89    2.91</time>
   <energy>
    <i name="alphaZ">    204.46100579 </i>
    <i name="ewald">  69903.77115712 </i>
    <i name="hartreedc"> -86074.47146905 </i>
    <i name="XCdc">    573.05108587 </i>
    <i name="pawpsdc">  15085.02939543 </i>
    <i name="pawaedc"> -16356.92975307 </i>
    <i name="eentropy">      0.00733112 </i>
    <i name="bandstr">    626.67807769 </i>
    <i name="atom">  17123.75487843 </i>
    <i name="e_fr_energy">   1085.35170933 </i>
    <i name="e_wo_entrp">   1085.34437821 </i>
    <i name="e_0_energy">   1085.34926562 </i>
   </energy>
  </scstep>
  <scstep>
   <time name="dav">    2.86    2.86</time>
   <time name="total">    2.86    2.88</time>
   <energy>
    <i name="e_fr_energy">     39.30710605 </i>
    <i name="e_wo_entrp">     39.30579390 </i>
    <i name="e_0_energy">     39.30666867 </i>
   </energy>
  </scstep>
  <scstep>
   <time name="dav">    3.79    3.79</time>
   <time name="total">    3.79    3.80</time>
   <energy>
    <i name="e_fr_energy">    -55.11639075 </i>
    <i name="e_wo_entrp">    -55.11378666 </i>
    <i name="e_0_energy">    -55.11552272 </i>
   </energy>
  </scstep>
  <scstep>
   <time name="dav">    2.80    2.80</time>
   <time name="total">    2.80    2.82</time>
   <energy>
    <i name="e_fr_energy">    -59.71118886 </i>
    <i name="e_wo_entrp">    -59.70714938 </i>
    <i name="e_0_energy">    -59.70984237 </i>
   </energy>
  </scstep>
  <scstep>
   <time name="dav">    3.02    3.02</time>
   <time name="total">    3.12    3.13</time>
   <energy>
    <i name="e_fr_energy">    -59.82978509 </i>
    <i name="e_wo_entrp">    -59.82566743 </i>
    <i name="e_0_energy">    -59.82841253 </i>
   </energy>
  </scstep>
  <scstep>
   <time name="dav">    3.16    3.16</time>
   <time name="total">    3.31    3.31</time>
   <energy>
    <i name="e_fr_energy">    -55.37501062 </i>
    <i name="e_wo_entrp">    -55.37902100 </i>
    <i name="e_0_energy">    -55.37634742 </i>
   </energy>
  </scstep>
  <scstep>
   <time name="dav">    3.60    3.60</time>
   <time name="total">    3.75    3.75</time>
   <energy>
    <i name="e_fr_energy">    -48.53998067 </i>
    <i name="e_wo_entrp">    -48.53595194 </i>
    <i name="e_0_energy">    -48.53863776 </i>
   </energy>
  </scstep>
  <scstep>
   <time name="dav">    4.28    4.28</time>
   <time name="total">    4.42    4.44</time>
   <energy>
    <i name="e_fr_energy">    -47.71849673 </i>
    <i name="e_wo_entrp">    -47.71186251 </i>
    <i name="e_0_energy">    -47.71628532 </i>
   </energy>
  </scstep>
  <scstep>
   <time name="dav">    4.03    4.04</time>
   <time name="total">    4.17    4.17</time>
   <energy>
    <i name="e_fr_energy">    -47.59869010 </i>
    <i name="e_wo_entrp">    -47.58565354 </i>
    <i name="e_0_energy">    -47.59434458 </i>
   </energy>
  </scstep>
  <scstep>
   <time name="dav">    4.91    4.98</time>
   <time name="total">    5.04    5.11</time>
   <energy>
    <i name="e_fr_energy">    -47.57608174 </i>
    <i name="e_wo_entrp">    -47.57441486 </i>
    <i name="e_0_energy">    -47.57552611 </i>
   </energy>
  </scstep>
  <scstep>
   <time name="dav">    4.05    4.05</time>
   <time name="total">    4.17    4.18</time>
   <energy>
    <i name="e_fr_energy">    -47.51322991 </i>
    <i name="e_wo_entrp">    -47.50445643 </i>
    <i name="e_0_energy">    -47.51030541 </i>
   </energy>
  </scstep>
  <scstep>
   <time name="dav">    4.20    4.20</time>
   <time name="total">    4.33    4.33</time>
   <energy>
    <i name="e_fr_energy">    -47.49799899 </i>
    <i name="e_wo_entrp">    -47.48546206 </i>
    <i name="e_0_energy">    -47.49382001 </i>
   </energy>
  </scstep>
  <scstep>
   <time name="dav">    3.64    3.64</time>
   <time name="total">    3.77    3.78</time>
   <energy>
    <i name="e_fr_energy">    -47.48639963 </i>
    <i name="e_wo_entrp">    -47.47457727 </i>
    <i name="e_0_energy">    -47.48245884 </i>
   </energy>
  </scstep>
  <scstep>
   <time name="dav">    4.05    4.05</time>
   <time name="total">    4.18    4.19</time>
   <energy>
    <i name="e_fr_energy">    -47.48341141 </i>
    <i name="e_wo_entrp">    -47.47268868 </i>
    <i name="e_0_energy">    -47.47983716 </i>
   </energy>
  </scstep>
  <scstep>
   <time name="dav">    3.62    3.62</time>
   <time name="total">    3.75    3.75</time>
   <energy>
    <i name="e_fr_energy">    -47.48390224 </i>
    <i name="e_wo_entrp">    -47.47285137 </i>
    <i name="e_0_energy">    -47.48021862 </i>
   </energy>
  </scstep>
  <scstep>
   <time name="dav">    3.38    3.38</time>
   <time name="total">    3.52    3.52</time>
   <energy>
    <i name="e_fr_energy">    -47.48402854 </i>
    <i name="e_wo_entrp">    -47.47334777 </i>
    <i name="e_0_energy">    -47.48046829 </i>
   </energy>
  </scstep>
  <scstep>
   <time name="dav">    2.61    2.61</time>
   <time name="total">    2.64    2.64</time>
   <energy>
    <i name="alphaZ">    204.46100579 </i>
    <i name="ewald">  69903.77115712 </i>
    <i name="hartreedc"> -85867.25828966 </i>
    <i name="XCdc">    561.88568441 </i>
    <i name="pawpsdc">  16059.76580326 </i>
    <i name="pawaedc"> -17353.58061519 </i>
    <i name="eentropy">     -0.01086032 </i>
    <i name="bandstr">   -680.27280357 </i>
    <i name="atom">  17123.75487843 </i>
    <i name="e_fr_energy">    -47.48403972 </i>
    <i name="e_wo_entrp">    -47.47317941 </i>
    <i name="e_0_energy">    -47.48041962 </i>
   </energy>
  </scstep>
  <structure>
   <crystal>
    <varray name="basis" >
     <v>       5.14208051       0.00000000       0.00000000 </v>
     <v>       2.57104026       4.45317235       0.00000000 </v>
     <v>       0.00000000       0.00000000      24.19849116 </v>
    </varray>
    <i name="volume">    554.11086238 </i>
    <varray name="rec_basis" >
     <v>       0.19447381      -0.11227951       0.00000000 </v>
     <v>       0.00000000       0.22455902       0.00000000 </v>
     <v>       0.00000000       0.00000000       0.04132489 </v>
    </varray>
   </crystal>
   <varray name="positions" >
    <v>       0.16666667       0.16666667       0.41324891 </v>
    <v>       0.66666667       0.16666667       0.41324891 </v>
    <v>       0.16666667       0.66666667       0.41324891 </v>
    <v>       0.66666667       0.66666667       0.41324891 </v>
    <v>       0.83333333       0.33333333       0.50000000 </v>
    <v>       0.33333333       0.33333333       0.50000000 </v>
    <v>       0.83333333       0.83333333       0.50000000 </v>
    <v>       0.33333333       0.83333333       0.50000000 </v>
    <v>       0.00000000       0.00000000       0.58675109 </v>
    <v>       0.50000000       0.00000000       0.58675109 </v>
    <v>       0.00000000       0.50000000       0.58675109 </v>
    <v>       0.50000000       0.50000000       0.58675109 </v>
    <v>       0.16666667       0.16666667       0.63634096 </v>
   </varray>
  </structure>
  <varray name="forces" >
   <v>       0.00000000       0.00000000       0.18005608 </v>
   <v>       0.00000000       0.02368791       0.04176929 </v>
   <v>       0.02051433      -0.01184395       0.04176929 </v>
   <v>      -0.02051433      -0.01184395       0.04176929 </v>
   <v>      -0.07155954       0.04131492      -0.09922838 </v>
   <v>       0.07155954       0.04131492      -0.09922838 </v>
   <v>       0.00000000       0.00000000       0.28287922 </v>
   <v>       0.00000000      -0.08262984      -0.09922838 </v>
   <v>      -0.45363248      -0.26190483       0.18978292 </v>
   <v>       0.45363248      -0.26190483       0.18978292 </v>
   <v>      -0.00000000       0.52380966       0.18978292 </v>
   <v>       0.00000000       0.00000000      -0.45241364 </v>
   <v>       0.00000000       0.00000000      -0.40749313 </v>
  </varray>
  <varray name="stress" >
   <v>     -11.22125197       0.00000000       0.00000000 </v>
   <v>       0.00000000     -11.22125197      -0.00000000 </v>
   <v>       0.00000000      -0.00000000      -8.53358462 </v>
  </varray>
  <energy>
   <i name="e_fr_energy">    -47.48403972 </i>
   <i name="e_wo_entrp">    -47.48041962 </i>
   <i name="e_0_energy">     -0.01086032 </i>
  </energy>
  <time name="totalsc">   67.62   67.83</time>
 </calculation>
 <calculation>
  <scstep>
   <time name="dav">    2.91    2.92</time>
   <time name="total">    3.04    3.05</time>
   <energy>
    <i name="alphaZ">    204.46100579 </i>
    <i name="ewald">  69966.57912912 </i>
    <i name="hartreedc"> -85930.92343256 </i>
    <i name="XCdc">    561.91243866 </i>
    <i name="pawpsdc">  16058.35542973 </i>
    <i name="pawaedc"> -17352.07259237 </i>
    <i name="eentropy">     -0.00987498 </i>
    <i name="bandstr">   -679.56307601 </i>
    <i name="atom">  17123.75487843 </i>
    <i name="e_fr_energy">    -47.50609420 </i>
    <i name="e_wo_entrp">    -47.49621921 </i>
    <i name="e_0_energy">    -47.50280254 </i>
   </energy>
  </scstep>
  <scstep>
   <time name="dav">    4.23    4.24</time>
   <time name="total">    4.37    4.37</time>
   <energy>
    <i name="e_fr_energy">    -47.54404438 </i>
    <i name="e_wo_entrp">    -47.53451885 </i>
    <i name="e_0_energy">    -47.54086920 </i>
   </energy>
  </scstep>
  <scstep>
   <time name="dav">    3.42    3.43</time>
   <time name="total">    3.55    3.57</time>
   <energy>
    <i name="e_fr_energy">    -47.54185969 </i>
    <i name="e_wo_entrp">    -47.53193687 </i>
    <i name="e_0_energy">    -47.53855209 </i>
   </energy>
  </scstep>
  <scstep>
   <time name="dav">    3.82    3.82</time>
   <time name="total">    3.98    4.03</time>
   <energy>
    <i name="e_fr_energy">    -47.54179201 </i>
    <i name="e_wo_entrp">    -47.53231882 </i>
    <i name="e_0_energy">    -47.53863428 </i>
   </energy>
  </scstep>
  <scstep>
   <time name="dav">    4.08    4.09</time>
   <time name="total">    4.22    4.23</time>
   <energy>
    <i name="e_fr_energy">    -47.54148747 </i>
    <i name="e_wo_entrp">    -47.53146003 </i>
    <i name="e_0_energy">    -47.53814499 </i>
   </energy>
  </scstep>
  <scstep>
   <time name="dav">    4.36    4.36</time>
   <time name="total">    4.49    4.49</time>
   <energy>
    <i name="e_fr_energy">    -47.54147365 </i>
    <i name="e_wo_entrp">    -47.53206448 </i>
    <i name="e_0_energy">    -47.53833726 </i>
   </energy>
  </scstep>
  <scstep>
   <time name="dav">    3.48    3.48</time>
   <time name="total">    3.61    3.61</time>
   <energy>
    <i name="e_fr_energy">    -47.54134214 </i>
    <i name="e_wo_entrp">    -47.53157255 </i>
    <i name="e_0_energy">    -47.53808561 </i>
   </energy>
  </scstep>
  <scstep>
   <time name="dav">    2.61    2.61</time>
   <time name="total">    2.64    2.64</time>
   <energy>
    <i name="alphaZ">    204.46100579 </i>
    <i name="ewald">  69966.57912912 </i>
    <i name="hartreedc"> -85933.63449997 </i>
    <i name="XCdc">    561.90806467 </i>
    <i name="pawpsdc">  16061.53138287 </i>
    <i name="pawaedc"> -17355.39048402 </i>
    <i name="eentropy">     -0.00975688 </i>
    <i name="bandstr">   -676.74109009 </i>
    <i name="atom">  17123.75487843 </i>
    <i name="e_fr_energy">    -47.54137008 </i>
    <i name="e_wo_entrp">    -47.53161321 </i>
    <i name="e_0_energy">    -47.53811779 </i>
   </energy>
  </scstep>
  <structure>
   <crystal>
    <varray name="basis" >
     <v>       5.14208051       0.00000000       0.00000000 </v>
     <v>       2.57104026       4.45317235       0.00000000 </v>
     <v>       0.00000000       0.00000000      24.19849116 </v>
    </varray>
    <i name="volume">    554.11086238 </i>
    <varray name="rec_basis" >
     <v>       0.19447381      -0.11227951       0.00000000 </v>
     <v>       0.00000000       0.22455902       0.00000000 </v>
     <v>       0.00000000       0.00000000       0.04132489 </v>
    </varray>
   </crystal>
   <varray name="positions" >
    <v>       0.16666667       0.16666667       0.41360787 </v>
    <v>       0.66653836       0.16692329       0.41333218 </v>
    <v>       0.16692329       0.66653836       0.41333218 </v>
    <v>       0.66653836       0.66653836       0.41333218 </v>
    <v>       0.83243818       0.33378091       0.49980218 </v>
    <v>       0.33378091       0.33378091       0.49980218 </v>
    <v>       0.83333333       0.83333333       0.50056395 </v>
    <v>       0.33378091       0.83243818       0.49980218 </v>
    <v>      -0.00283730      -0.00283730       0.58712945 </v>
    <v>       0.50567460      -0.00283730       0.58712945 </v>
    <v>      -0.00283730       0.50567460       0.58712945 </v>
    <v>       0.50000000       0.50000000       0.58584915 </v>
    <v>       0.16666667       0.16666667       0.63552858 </v>
   </varray>
  </structure>
  <varray name="forces" >
   <v>       0.00000000       0.00000000       0.14140011 </v>
   <v>       0.00000000      -0.00494728       0.04301212 </v>
   <v>      -0.00428447       0.00247364       0.04301212 </v>
   <v>       0.00428447       0.00247364       0.04301212 </v>
   <v>      -0.01342630       0.00775168      -0.04673557 </v>
   <v>       0.01342630       0.00775168      -0.04673557 </v>
   <v>       0.00000000       0.00000000       0.16165519 </v>
   <v>       0.00000000      -0.01550336      -0.04673557 </v>
   <v>      -0.17531697      -0.10121930       0.18361781 </v>
   <v>       0.17531697      -0.10121930       0.18361781 </v>
   <v>      -0.00000000       0.20243860       0.18361781 </v>
   <v>       0.00000000       0.00000000      -0.38163948 </v>
   <v>       0.00000000       0.00000000      -0.46109891 </v>
  </varray>
  <varray name="stress" >
   <v>     -12.00015013       0.00000000       0.00000000 </v>
   <v>       0.00000000     -12.00015013       0.00000000 </v>
   <v>       0.00000000       0.00000000      -9.73205157 </v>
  </varray>
  <energy>
   <i name="e_fr_energy">    -47.54137008 </i>
   <i name="e_wo_entrp">    -47.53811779 </i>
   <i name="e_0_energy">     -0.00975688 </i>
  </energy>
  <time name="totalsc">   34.97   35.11</time>
 </calculation>
 <calculation>
  <scstep>
   <time name="dav">    2.89    2.89</time>
   <time name="total">    3.02    3.02</time>
   <energy>
    <i name="alphaZ">    204.46100579 </i>
    <i name="ewald">  70039.33006514 </i>
    <i name="hartreedc"> -86006.23921084 </i>
    <i name="XCdc">    561.95485764 </i>
    <i name="pawpsdc">  16061.47395823 </i>
    <i name="pawaedc"> -17355.32883180 </i>
    <i name="eentropy">     -0.00887925 </i>
    <i name="bandstr">   -676.92193616 </i>
    <i name="atom">  17123.75487843 </i>
    <i name="e_fr_energy">    -47.52409280 </i>
    <i name="e_wo_entrp">    -47.51521355 </i>
    <i name="e_0_energy">    -47.52113305 </i>
   </energy>
  </scstep>
  <scstep>
   <time name="dav">    4.12    4.12</time>
   <time name="total">    4.25    4.27</time>
   <energy>
    <i name="e_fr_energy">    -47.57316099 </i>
    <i name="e_wo_entrp">    -47.56475107 </i>
    <i name="e_0_energy">    -47.57035768 </i>
   </energy>
  </scstep>
  <scstep>
   <time name="dav">    3.41    3.41</time>
   <time name="total">    3.55    3.56</time>
   <energy>
    <i name="e_fr_energy">    -47.57080028 </i>
    <i name="e_wo_entrp">    -47.56181542 </i>
    <i name="e_0_energy">    -47.56780533 </i>
   </energy>
  </scstep>
  <scstep>
   <time name="dav">    3.81    3.81</time>
   <time name="total">    4.04    4.14</time>
   <energy>
    <i name="e_fr_energy">    -47.57059963 </i>
    <i name="e_wo_entrp">    -47.56218720 </i>
    <i name="e_0_energy">    -47.56779549 </i>
   </energy>
  </scstep>
  <scstep>
   <time name="dav">    4.18    4.18</time>
   <time name="total">    4.31    4.32</time>
   <energy>
    <i name="e_fr_energy">    -47.56997858 </i>
    <i name="e_wo_entrp">    -47.56110885 </i>
    <i name="e_0_energy">    -47.56702200 </i>
   </energy>
  </scstep>
  <scstep>
   <time name="dav">    4.35    4.35</time>
   <time name="total">    4.49    4.51</time>
   <energy>
    <i name="e_fr_energy">    -47.56993583 </i>
    <i name="e_wo_entrp">    -47.56146180 </i>
    <i name="e_0_energy">    -47.56711116 </i>
   </energy>
  </scstep>
  <scstep>
   <time name="dav">    3.56    3.56</time>
   <time name="total">    3.69    3.70</time>
   <energy>
    <i name="e_fr_energy">    -47.56975724 </i>
    <i name="e_wo_entrp">    -47.56104070 </i>
    <i name="e_0_energy">    -47.56685173 </i>
   </energy>
  </scstep>
  <scstep>
   <time name="dav">    2.59    2.59</time>
   <time name="total">    2.63    2.64</time>
   <energy>
    <i name="alphaZ">    204.46100579 </i>
    <i name="ewald">  70039.33006514 </i>
    <i name="hartreedc"> -86007.70501863 </i>
    <i name="XCdc">    561.93613931 </i>
    <i name="pawpsdc">  16068.60527066 </i>
    <i name="pawaedc"> -17362.59984982 </i>
    <i name="eentropy">     -0.00871033 </i>
    <i name="bandstr">   -675.34354599 </i>
    <i name="atom">  17123.75487843 </i>
    <i name="e_fr_energy">    -47.56976543 </i>
    <i name="e_wo_entrp">    -47.56105510 </i>
    <i name="e_0_energy">    -47.56686199 </i>
   </energy>
  </scstep>
  <structure>
   <crystal>
    <varray name="basis" >
     <v>       5.14208051       0.00000000       0.00000000 </v>
     <v>       2.57104026       4.45317235       0.00000000 </v>
     <v>       0.00000000       0.00000000      24.19849116 </v>
    </varray>
    <i name="volume">    554.11086238 </i>
    <varray name="rec_basis" >
     <v>       0.19447381      -0.11227951       0.00000000 </v>
     <v>       0.00000000       0.22455902       0.00000000 </v>
     <v>       0.00000000       0.00000000       0.04132489 </v>
    </varray>
   </crystal>
   <varray name="positions" >
    <v>       0.16666667       0.16666667       0.41401424 </v>
    <v>       0.66639310       0.16721379       0.41342645 </v>
    <v>       0.16721379       0.66639310       0.41342645 </v>
    <v>       0.66639310       0.66639310       0.41342645 </v>
    <v>       0.83142480       0.33428760       0.49957823 </v>
    <v>       0.33428760       0.33428760       0.49957823 </v>
    <v>       0.83333333       0.83333333       0.50120239 </v>
    <v>       0.33428760       0.83142480       0.49957823 </v>
    <v>      -0.00604930      -0.00604930       0.58755777 </v>
    <v>       0.51209861      -0.00604930       0.58755777 </v>
    <v>      -0.00604930       0.51209861       0.58755777 </v>
    <v>       0.50000000       0.50000000       0.58482810 </v>
    <v>       0.16666667       0.16666667       0.63460890 </v>
   </varray>
  </structure>
  <varray name="forces" >
   <v>      -0.00000000      -0.00000000       0.10182264 </v>
   <v>      -0.00000000      -0.03693677       0.04117019 </v>
   <v>      -0.03198818       0.01846839       0.04117019 </v>
   <v>       0.03198818       0.01846839       0.04117019 </v>
   <v>       0.05285313      -0.03051477       0.00373318 </v>
   <v>      -0.05285313      -0.03051477       0.00373318 </v>
   <v>      -0.00000000      -0.00000000       0.01600532 </v>
   <v>      -0.00000000       0.06102954       0.00373318 </v>
   <v>       0.17109299       0.09878058       0.18900685 </v>
   <v>      -0.17109299       0.09878058       0.18900685 </v>
   <v>       0.00000000      -0.19756116       0.18900685 </v>
   <v>      -0.00000000      -0.00000000      -0.30438530 </v>
   <v>      -0.00000000      -0.00000000      -0.51517329 </v>
  </varray>
  <varray name="stress" >
   <v>     -11.32710545       0.00000000       0.00000000 </v>
   <v>       0.00000000     -11.32710545       0.00000000 </v>
   <v>       0.00000000       0.00000000      -9.20062732 </v>
  </varray>
  <energy>
   <i name="e_fr_energy">    -47.56976543 </i>
   <i name="e_wo_entrp">    -47.56686199 </i>
   <i name="e_0_energy">     -0.00871033 </i>
  </energy>
  <time name="totalsc">   35.12   35.30</time>
 </calculation>
 <calculation>
  <scstep>
   <time name="dav">    3.00    3.00</time>
   <time name="total">    3.13    3.13</time>
   <energy>
    <i name="alphaZ">    204.46100579 </i>
    <i name="ewald">  70131.77125047 </i>
    <i name="hartreedc"> -86098.60506015 </i>
    <i name="XCdc">    562.06136433 </i>
    <i name="pawpsdc">  16068.57044588 </i>
    <i name="pawaedc"> -17362.56239666 </i>
    <i name="eentropy">     -0.00754726 </i>
    <i name="bandstr">   -676.99103871 </i>
    <i name="atom">  17123.75487843 </i>
    <i name="e_fr_energy">    -47.54709789 </i>
    <i name="e_wo_entrp">    -47.53955063 </i>
    <i name="e_0_energy">    -47.54458213 </i>
   </energy>
  </scstep>
  <scstep>
   <time name="dav">    3.98    3.98</time>
   <time name="total">    4.11    4.12</time>
   <energy>
    <i name="e_fr_energy">    -47.59425540 </i>
    <i name="e_wo_entrp">    -47.58575413 </i>
    <i name="e_0_energy">    -47.59142165 </i>
   </energy>
  </scstep>
  <scstep>
   <time name="dav">    3.73    3.73</time>
   <time name="total">    3.86    3.86</time>
   <energy>
    <i name="e_fr_energy">    -47.59300094 </i>
    <i name="e_wo_entrp">    -47.58609474 </i>
    <i name="e_0_energy">    -47.59069887 </i>
   </energy>
  </scstep>
  <scstep>
   <time name="dav">    4.43    4.44</time>
   <time name="total">    4.57    4.57</time>
   <energy>
    <i name="e_fr_energy">    -47.59034781 </i>
    <i name="e_wo_entrp">    -47.58230681 </i>
    <i name="e_0_energy">    -47.58766747 </i>
   </energy>
  </scstep>
  <scstep>
   <time name="dav">    4.08    4.08</time>
   <time name="total">    4.21    4.21</time>
   <energy>
    <i name="e_fr_energy">    -47.59025438 </i>
    <i name="e_wo_entrp">    -47.58238042 </i>
    <i name="e_0_energy">    -47.58762973 </i>
   </energy>
  </scstep>
  <scstep>
   <time name="dav">    3.92    3.92</time>
   <time name="total">    4.05    4.05</time>
   <energy>
    <i name="e_fr_energy">    -47.59015141 </i>
    <i name="e_wo_entrp">    -47.58236023 </i>
    <i name="e_0_energy">    -47.58755435 </i>
   </energy>
  </scstep>
  <scstep>
   <time name="dav">    3.59    3.59</time>
   <time name="total">    3.62    3.62</time>
   <energy>
    <i name="alphaZ">    204.46100579 </i>
    <i name="ewald">  70131.77125047 </i>
    <i name="hartreedc"> -86102.28231526 </i>
    <i name="XCdc">    562.05898936 </i>
    <i name="pawpsdc">  16091.69663208 </i>
    <i name="pawaedc"> -17386.05139013 </i>
    <i name="eentropy">     -0.00788681 </i>
    <i name="bandstr">   -672.99128368 </i>
    <i name="atom">  17123.75487843 </i>
    <i name="e_fr_energy">    -47.59011976 </i>
    <i name="e_wo_entrp">    -47.58223295 </i>
    <i name="e_0_energy">    -47.58749082 </i>
   </energy>
  </scstep>
  <structure>
   <crystal>
    <varray name="basis" >
     <v>       5.14208051       0.00000000       0.00000000 </v>
     <v>       2.57104026       4.45317235       0.00000000 </v>
     <v>       0.00000000       0.00000000      24.19849116 </v>
    </varray>
    <i name="volume">    554.11086238 </i>
    <varray name="rec_basis" >
     <v>       0.19447381      -0.11227951       0.00000000 </v>
     <v>       0.00000000       0.22455902       0.00000000 </v>
     <v>       0.00000000       0.00000000       0.04132489 </v>
    </varray>
   </crystal>
   <varray name="positions" >
    <v>       0.16666667       0.16666667       0.41440065 </v>
    <v>       0.66658934       0.16682131       0.41355900 </v>
    <v>       0.16682131       0.66658934       0.41355900 </v>
    <v>       0.66658934       0.66658934       0.41355900 </v>
    <v>       0.83189287       0.33405356       0.49951160 </v>
    <v>       0.33405356       0.33405356       0.49951160 </v>
    <v>       0.83333333       0.83333333       0.50145747 </v>
    <v>       0.33405356       0.83189287       0.49951160 </v>
    <v>      -0.00582336      -0.00582336       0.58816478 </v>
    <v>       0.51164673      -0.00582336       0.58816478 </v>
    <v>      -0.00582336       0.51164673       0.58816478 </v>
    <v>       0.50000000       0.50000000       0.58373850 </v>
    <v>       0.16666667       0.16666667       0.63303822 </v>
   </varray>
  </structure>
  <varray name="forces" >
   <v>      -0.00000000       0.00000000       0.05800486 </v>
   <v>      -0.00000000      -0.02339277       0.04074704 </v>
   <v>      -0.02025873       0.01169638       0.04074704 </v>
   <v>       0.02025873       0.01169638       0.04074704 </v>
   <v>       0.04844690      -0.02797083       0.00900120 </v>
   <v>      -0.04844690      -0.02797083       0.00900120 </v>
   <v>      -0.00000000       0.00000000       0.05080959 </v>
   <v>      -0.00000000       0.05594166       0.00900120 </v>
   <v>      -0.08984645      -0.05187287      -0.04258531 </v>
   <v>       0.08984645      -0.05187287      -0.04258531 </v>
   <v>      -0.00000000       0.10374574      -0.04258531 </v>
   <v>      -0.00000000       0.00000000      -0.24224334 </v>
   <v>      -0.00000000       0.00000000       0.11194009 </v>
  </varray>
  <varray name="stress" >
   <v>      -8.43859078       0.00000000       0.00000000 </v>
   <v>       0.00000000      -8.43859078       0.00000000 </v>
   <v>       0.00000000      -0.00000000      -5.92574871 </v>
  </varray>
  <energy>
   <i name="e_fr_energy">    -47.59011976 </i>
   <i name="e_wo_entrp">    -47.58749082 </i>
   <i name="e_0_energy">     -0.00788681 </i>
  </energy>
  <time name="totalsc">   32.87   32.94</time>
 </calculation>
 <calculation>
  <scstep>
   <time name="dav">    3.33    3.33</time>
   <time name="total">    3.46    3.46</time>
   <energy>
    <i name="alphaZ">    204.46100579 </i>
    <i name="ewald">  70134.94218176 </i>
    <i name="hartreedc"> -86105.56466860 </i>
    <i name="XCdc">    562.06575816 </i>
    <i name="pawpsdc">  16091.97324346 </i>
    <i name="pawaedc"> -17386.34760808 </i>
    <i name="eentropy">     -0.00785472 </i>
    <i name="bandstr">   -672.86703407 </i>
    <i name="atom">  17123.75487843 </i>
    <i name="e_fr_energy">    -47.59009786 </i>
    <i name="e_wo_entrp">    -47.58224314 </i>
    <i name="e_0_energy">    -47.58747962 </i>
   </energy>
  </scstep>
  <scstep>
   <time name="dav">    3.72    3.74</time>
   <time name="total">    3.76    3.80</time>
   <energy>
    <i name="alphaZ">    204.46100579 </i>
    <i name="ewald">  70134.94218176 </i>
    <i name="hartreedc"> -86105.70671745 </i>
    <i name="XCdc">    562.06315634 </i>
    <i name="pawpsdc">  16092.46077872 </i>
    <i name="pawaedc"> -17386.82007203 </i>
    <i name="eentropy">     -0.00792011 </i>
    <i name="bandstr">   -672.73745921 </i>
    <i name="atom">  17123.75487843 </i>
    <i name="e_fr_energy">    -47.59016776 </i>
    <i name="e_wo_entrp">    -47.58224765 </i>
    <i name="e_0_energy">    -47.58752772 </i>
   </energy>
  </scstep>
  <structure>
   <crystal>
    <varray name="basis" >
     <v>       5.14208051       0.00000000       0.00000000 </v>
     <v>       2.57104026       4.45317235       0.00000000 </v>
     <v>       0.00000000       0.00000000      24.19849116 </v>
    </varray>
    <i name="volume">    554.11086238 </i>
    <varray name="rec_basis" >
     <v>       0.19447381      -0.11227951       0.00000000 </v>
     <v>       0.00000000       0.22455902       0.00000000 </v>
     <v>       0.00000000       0.00000000       0.04132489 </v>
    </varray>
   </crystal>
   <varray name="positions" >
    <v>       0.16666667       0.16666667       0.41441400 </v>
    <v>       0.66659612       0.16680775       0.41356357 </v>
    <v>       0.16680775       0.66659612       0.41356357 </v>
    <v>       0.66659612       0.66659612       0.41356357 </v>
    <v>       0.83190904       0.33404548       0.49950930 </v>
    <v>       0.33404548       0.33404548       0.49950930 </v>
    <v>       0.83333333       0.83333333       0.50146628 </v>
    <v>       0.33404548       0.83190904       0.49950930 </v>
    <v>      -0.00581556      -0.00581556       0.58818574 </v>
    <v>       0.51163112      -0.00581556       0.58818574 </v>
    <v>      -0.00581556       0.51163112       0.58818574 </v>
    <v>       0.50000000       0.50000000       0.58370086 </v>
    <v>       0.16666667       0.16666667       0.63298396 </v>
   </varray>
  </structure>
  <varray name="forces" >
   <v>      -0.00000000      -0.00000000       0.05343528 </v>
   <v>      -0.00000000      -0.02331363       0.03943746 </v>
   <v>      -0.02019019       0.01165681       0.03943746 </v>
   <v>       0.02019019       0.01165681       0.03943746 </v>
   <v>       0.04798536      -0.02770436       0.00837429 </v>
   <v>      -0.04798536      -0.02770436       0.00837429 </v>
   <v>      -0.00000000      -0.00000000       0.04961755 </v>
   <v>      -0.00000000       0.05540872       0.00837429 </v>
   <v>      -0.09910151      -0.05721629      -0.05509404 </v>
   <v>       0.09910151      -0.05721629      -0.05509404 </v>
   <v>      -0.00000000       0.11443257      -0.05509404 </v>
   <v>      -0.00000000      -0.00000000      -0.22980246 </v>
   <v>      -0.00000000      -0.00000000       0.14859649 </v>
  </varray>
  <varray name="stress" >
   <v>      -8.06627931       0.00000000       0.00000000 </v>
   <v>       0.00000000      -8.06627931      -0.00000000 </v>
   <v>       0.00000000       0.00000000      -5.50332682 </v>
  </varray>
  <energy>
   <i name="e_fr_energy">    -47.59016776 </i>
   <i name="e_wo_entrp">    -47.58752772 </i>
   <i name="e_0_energy">     -0.00792011 </i>
  </energy>
  <time name="totalsc">   12.44   12.49</time>
 </calculation>
 <calculation>
  <scstep>
   <time name="dav">    2.98    2.98</time>
   <time name="total">    3.10    3.10</time>
   <energy>
    <i name="alphaZ">    204.46100579 </i>
    <i name="ewald">  70240.03982233 </i>
    <i name="hartreedc"> -86210.54049490 </i>
    <i name="XCdc">    562.12158652 </i>
    <i name="pawpsdc">  16092.63043408 </i>
    <i name="pawaedc"> -17386.99931172 </i>
    <i name="eentropy">     -0.00764871 </i>
    <i name="bandstr">   -673.04903226 </i>
    <i name="atom">  17123.75487843 </i>
    <i name="e_fr_energy">    -47.58876044 </i>
    <i name="e_wo_entrp">    -47.58111173 </i>
    <i name="e_0_energy">    -47.58621087 </i>
   </energy>
  </scstep>
  <scstep>
   <time name="dav">    4.25    4.25</time>
   <time name="total">    4.38    4.38</time>
   <energy>
    <i name="e_fr_energy">    -47.59695648 </i>
    <i name="e_wo_entrp">    -47.58942144 </i>
    <i name="e_0_energy">    -47.59444480 </i>
   </energy>
  </scstep>
  <scstep>
   <time name="dav">    3.48    3.48</time>
   <time name="total">    3.60    3.61</time>
   <energy>
    <i name="e_fr_energy">    -47.59641907 </i>
    <i name="e_wo_entrp">    -47.58869352 </i>
    <i name="e_0_energy">    -47.59384389 </i>
   </energy>
  </scstep>
  <scstep>
   <time name="dav">    3.43    3.43</time>
   <time name="total">    3.55    3.57</time>
   <energy>
    <i name="e_fr_energy">    -47.59639589 </i>
    <i name="e_wo_entrp">    -47.58881618 </i>
    <i name="e_0_energy">    -47.59386932 </i>
   </energy>
  </scstep>
  <scstep>
   <time name="dav">    3.08    3.08</time>
   <time name="total">    3.11    3.13</time>
   <energy>
    <i name="alphaZ">    204.46100579 </i>
    <i name="ewald">  70240.03982233 </i>
    <i name="hartreedc"> -86210.81917756 </i>
    <i name="XCdc">    562.10512152 </i>
    <i name="pawpsdc">  16098.25267836 </i>
    <i name="pawaedc"> -17392.66035683 </i>
    <i name="eentropy">     -0.00772028 </i>
    <i name="bandstr">   -672.72259351 </i>
    <i name="atom">  17123.75487843 </i>
    <i name="e_fr_energy">    -47.59634175 </i>
    <i name="e_wo_entrp">    -47.58862148 </i>
    <i name="e_0_energy">    -47.59376833 </i>
   </energy>
  </scstep>
  <structure>
   <crystal>
    <varray name="basis" >
     <v>       5.14208051       0.00000000       0.00000000 </v>
     <v>       2.57104026       4.45317235       0.00000000 </v>
     <v>       0.00000000       0.00000000      24.19849116 </v>
    </varray>
    <i name="volume">    554.11086238 </i>
    <varray name="rec_basis" >
     <v>       0.19447381      -0.11227951       0.00000000 </v>
     <v>       0.00000000       0.22455902       0.00000000 </v>
     <v>       0.00000000       0.00000000       0.04132489 </v>
    </varray>
   </crystal>
   <varray name="positions" >
    <v>       0.16666667       0.16666667       0.41468896 </v>
    <v>       0.66682489       0.16635021       0.41370986 </v>
    <v>       0.16635021       0.66682489       0.41370986 </v>
    <v>       0.66682489       0.66682489       0.41370986 </v>
    <v>       0.83282400       0.33358800       0.49950519 </v>
    <v>       0.33358800       0.33358800       0.49950519 </v>
    <v>       0.83333333       0.83333333       0.50168310 </v>
    <v>       0.33358800       0.83282400       0.49950519 </v>
    <v>      -0.00649714      -0.00649714       0.58827538 </v>
    <v>       0.51299429      -0.00649714       0.58827538 </v>
    <v>      -0.00649714       0.51299429       0.58827538 </v>
    <v>       0.50000000       0.50000000       0.58273074 </v>
    <v>       0.16666667       0.16666667       0.63276689 </v>
   </varray>
  </structure>
  <varray name="forces" >
   <v>       0.00000000       0.00000000       0.02098003 </v>
   <v>       0.00000000      -0.00637841       0.03704161 </v>
   <v>      -0.00552386       0.00318920       0.03704161 </v>
   <v>       0.00552386       0.00318920       0.03704161 </v>
   <v>       0.02965733      -0.01712267      -0.00925356 </v>
   <v>      -0.02965733      -0.01712267      -0.00925356 </v>
   <v>       0.00000000       0.00000000       0.02624009 </v>
   <v>      -0.00000000       0.03424534      -0.00925356 </v>
   <v>      -0.01651059      -0.00953239      -0.03481558 </v>
   <v>       0.01651059      -0.00953239      -0.03481558 </v>
   <v>       0.00000000       0.01906479      -0.03481558 </v>
   <v>       0.00000000      -0.00000000      -0.13178633 </v>
   <v>       0.00000000       0.00000000       0.10564880 </v>
  </varray>
  <varray name="stress" >
   <v>      -6.89032256       0.00000000       0.00000000 </v>
   <v>      -0.00000000      -6.89032256       0.00000000 </v>
   <v>       0.00000000      -0.00000000      -3.92973759 </v>
  </varray>
  <energy>
   <i name="e_fr_energy">    -47.59634175 </i>
   <i name="e_wo_entrp">    -47.59376833 </i>
   <i name="e_0_energy">     -0.00772028 </i>
  </energy>
  <time name="totalsc">   22.96   23.03</time>
 </calculation>
 <calculation>
  <scstep>
   <time name="dav">    2.99    2.99</time>
   <time name="total">    3.11    3.11</time>
   <energy>
    <i name="alphaZ">    204.46100579 </i>
    <i name="ewald">  70330.28475995 </i>
    <i name="hartreedc"> -86300.64153904 </i>
    <i name="XCdc">    562.14825277 </i>
    <i name="pawpsdc">  16099.86943256 </i>
    <i name="pawaedc"> -17394.34232504 </i>
    <i name="eentropy">     -0.00747175 </i>
    <i name="bandstr">   -673.11929710 </i>
    <i name="atom">  17123.75487843 </i>
    <i name="e_fr_energy">    -47.59230344 </i>
    <i name="e_wo_entrp">    -47.58483169 </i>
    <i name="e_0_energy">    -47.58981286 </i>
   </energy>
  </scstep>
  <scstep>
   <time name="dav">    4.32    4.34</time>
   <time name="total">    4.45    4.47</time>
   <energy>
    <i name="e_fr_energy">    -47.59801044 </i>
    <i name="e_wo_entrp">    -47.59064548 </i>
    <i name="e_0_energy">    -47.59555545 </i>
   </energy>
  </scstep>
  <scstep>
   <time name="dav">    3.29    3.30</time>
   <time name="total">    3.42    3.43</time>
   <energy>
    <i name="e_fr_energy">    -47.59779345 </i>
    <i name="e_wo_entrp">    -47.59022590 </i>
    <i name="e_0_energy">    -47.59527093 </i>
   </energy>
  </scstep>
  <scstep>
   <time name="dav">    3.34    3.34</time>
   <time name="total">    3.46    3.47</time>
   <energy>
    <i name="e_fr_energy">    -47.59776229 </i>
    <i name="e_wo_entrp">    -47.59034061 </i>
    <i name="e_0_energy">    -47.59528840 </i>
   </energy>
  </scstep>
  <scstep>
   <time name="dav">    3.01    3.04</time>
   <time name="total">    3.04    3.08</time>
   <energy>
    <i name="alphaZ">    204.46100579 </i>
    <i name="ewald">  70330.28475995 </i>
    <i name="hartreedc"> -86300.90261767 </i>
    <i name="XCdc">    562.13718437 </i>
    <i name="pawpsdc">  16104.98849027 </i>
    <i name="pawaedc"> -17399.53221483 </i>
    <i name="eentropy">     -0.00754157 </i>
    <i name="bandstr">   -672.78167957 </i>
    <i name="atom">  17123.75487843 </i>
    <i name="e_fr_energy">    -47.59773482 </i>
    <i name="e_wo_entrp">    -47.59019326 </i>
    <i name="e_0_energy">    -47.59522097 </i>
   </energy>
  </scstep>
  <structure>
   <crystal>
    <varray name="basis" >
     <v>       5.14208051       0.00000000       0.00000000 </v>
     <v>       2.57104026       4.45317235       0.00000000 </v>
     <v>       0.00000000       0.00000000      24.19849116 </v>
    </varray>
    <i name="volume">    554.11086238 </i>
    <varray name="rec_basis" >
     <v>       0.19447381      -0.11227951       0.00000000 </v>
     <v>       0.00000000       0.22455902       0.00000000 </v>
     <v>       0.00000000       0.00000000       0.04132489 </v>
    </varray>
   </crystal>
   <varray name="positions" >
    <v>       0.16666667       0.16666667       0.41492575 </v>
    <v>       0.66702192       0.16595617       0.41383584 </v>
    <v>       0.16595617       0.66702192       0.41383584 </v>
    <v>       0.66702192       0.66702192       0.41383584 </v>
    <v>       0.83361199       0.33319401       0.49950165 </v>
    <v>       0.33319401       0.33319401       0.49950165 </v>
    <v>       0.83333333       0.83333333       0.50186983 </v>
    <v>       0.33319401       0.83361199       0.49950165 </v>
    <v>      -0.00708414      -0.00708414       0.58835257 </v>
    <v>       0.51416829      -0.00708414       0.58835257 </v>
    <v>      -0.00708414       0.51416829       0.58835257 </v>
    <v>       0.50000000       0.50000000       0.58189526 </v>
    <v>       0.16666667       0.16666667       0.63257994 </v>
   </varray>
  </structure>
  <varray name="forces" >
   <v>      -0.00000000      -0.00000000      -0.01312198 </v>
   <v>      -0.00000000       0.00941687       0.03435673 </v>
   <v>       0.00815525      -0.00470843       0.03435673 </v>
   <v>      -0.00815525      -0.00470843       0.03435673 </v>
   <v>       0.01175401      -0.00678618      -0.02186636 </v>
   <v>      -0.01175401      -0.00678618      -0.02186636 </v>
   <v>      -0.00000000       0.00000000       0.00039393 </v>
   <v>      -0.00000000       0.01357236      -0.02186636 </v>
   <v>       0.05536106       0.03196273      -0.02283575 </v>
   <v>      -0.05536106       0.03196273      -0.02283575 </v>
   <v>      -0.00000000      -0.06392545      -0.02283575 </v>
   <v>      -0.00000000      -0.00000000      -0.04440270 </v>
   <v>      -0.00000000       0.00000000       0.08816691 </v>
  </varray>
  <varray name="stress" >
   <v>      -6.91146567       0.00000000       0.00000000 </v>
   <v>       0.00000000      -6.91146567       0.00000000 </v>
   <v>       0.00000000      -0.00000000      -3.57648035 </v>
  </varray>
  <energy>
   <i name="e_fr_energy">    -47.59773482 </i>
   <i name="e_wo_entrp">    -47.59522097 </i>
   <i name="e_0_energy">     -0.00754157 </i>
  </energy>
  <time name="totalsc">   22.61   22.72</time>
 </calculation>
 <calculation>
  <scstep>
   <time name="dav">    2.96    2.96</time>
   <time name="total">    3.09    3.09</time>
   <energy>
    <i name="alphaZ">    204.46100579 </i>
    <i name="ewald">  70373.44341745 </i>
    <i name="hartreedc"> -86343.86498483 </i>
    <i name="XCdc">    562.15107129 </i>
    <i name="pawpsdc">  16106.43514213 </i>
    <i name="pawaedc"> -17401.03302092 </i>
    <i name="eentropy">     -0.00732825 </i>
    <i name="bandstr">   -672.93782041 </i>
    <i name="atom">  17123.75487843 </i>
    <i name="e_fr_energy">    -47.59763932 </i>
    <i name="e_wo_entrp">    -47.59031107 </i>
    <i name="e_0_energy">    -47.59519657 </i>
   </energy>
  </scstep>
  <scstep>
   <time name="dav">    3.84    3.84</time>
   <time name="total">    3.97    3.97</time>
   <energy>
    <i name="e_fr_energy">    -47.59945333 </i>
    <i name="e_wo_entrp">    -47.59192001 </i>
    <i name="e_0_energy">    -47.59694223 </i>
   </energy>
  </scstep>
  <scstep>
   <time name="dav">    3.75    3.75</time>
   <time name="total">    3.87    3.88</time>
   <energy>
    <i name="e_fr_energy">    -47.59944932 </i>
    <i name="e_wo_entrp">    -47.59215703 </i>
    <i name="e_0_energy">    -47.59701856 </i>
   </energy>
  </scstep>
  <scstep>
   <time name="dav">    2.63    2.63</time>
   <time name="total">    2.66    2.66</time>
   <energy>
    <i name="alphaZ">    204.46100579 </i>
    <i name="ewald">  70373.44341745 </i>
    <i name="hartreedc"> -86343.80184073 </i>
    <i name="XCdc">    562.14449317 </i>
    <i name="pawpsdc">  16107.25058270 </i>
    <i name="pawaedc"> -17401.86979906 </i>
    <i name="eentropy">     -0.00745398 </i>
    <i name="bandstr">   -672.97469052 </i>
    <i name="atom">  17123.75487843 </i>
    <i name="e_fr_energy">    -47.59940675 </i>
    <i name="e_wo_entrp">    -47.59195277 </i>
    <i name="e_0_energy">    -47.59692209 </i>
   </energy>
  </scstep>
  <structure>
   <crystal>
    <varray name="basis" >
     <v>       5.14208051       0.00000000       0.00000000 </v>
     <v>       2.57104026       4.45317235       0.00000000 </v>
     <v>       0.00000000       0.00000000      24.19849116 </v>
    </varray>
    <i name="volume">    554.11086238 </i>
    <varray name="rec_basis" >
     <v>       0.19447381      -0.11227951       0.00000000 </v>
     <v>       0.00000000       0.22455902       0.00000000 </v>
     <v>       0.00000000       0.00000000       0.04132489 </v>
    </varray>
   </crystal>
   <varray name="positions" >
    <v>       0.16666667       0.16666667       0.41493248 </v>
    <v>       0.66698519       0.16602962       0.41395872 </v>
    <v>       0.16602962       0.66698519       0.41395872 </v>
    <v>       0.66698519       0.66698519       0.41395872 </v>
    <v>       0.83397325       0.33301338       0.49943788 </v>
    <v>       0.33301338       0.33301338       0.49943788 </v>
    <v>       0.83333333       0.83333333       0.50190614 </v>
    <v>       0.33301338       0.83397325       0.49943788 </v>
    <v>      -0.00669346      -0.00669346       0.58830120 </v>
    <v>       0.51338692      -0.00669346       0.58830120 </v>
    <v>      -0.00669346       0.51338692       0.58830120 </v>
    <v>       0.50000000       0.50000000       0.58160975 </v>
    <v>       0.16666667       0.16666667       0.63279918 </v>
   </varray>
  </structure>
  <varray name="forces" >
   <v>       0.00000000       0.00000000      -0.02673193 </v>
   <v>       0.00000000       0.00283460       0.01278716 </v>
   <v>       0.00245483      -0.00141730       0.01278716 </v>
   <v>      -0.00245483      -0.00141730       0.01278716 </v>
   <v>      -0.00057222       0.00033037      -0.01316511 </v>
   <v>       0.00057222       0.00033037      -0.01316511 </v>
   <v>       0.00000000       0.00000000       0.00460115 </v>
   <v>       0.00000000      -0.00066075      -0.01316511 </v>
   <v>       0.01471060       0.00849317      -0.01635912 </v>
   <v>      -0.01471060       0.00849317      -0.01635912 </v>
   <v>      -0.00000000      -0.01698633      -0.01635912 </v>
   <v>       0.00000000       0.00000000      -0.01590606 </v>
   <v>       0.00000000       0.00000000       0.08824806 </v>
  </varray>
  <varray name="stress" >
   <v>      -7.25875391       0.00000000       0.00000000 </v>
   <v>       0.00000000      -7.25875391      -0.00000000 </v>
   <v>       0.00000000       0.00000000      -3.70796121 </v>
  </varray>
  <energy>
   <i name="e_fr_energy">    -47.59940675 </i>
   <i name="e_wo_entrp">    -47.59692209 </i>
   <i name="e_0_energy">     -0.00745398 </i>
  </energy>
  <time name="totalsc">   18.66   18.70</time>
 </calculation>
 <calculation>
  <scstep>
   <time name="dav">    2.97    2.97</time>
   <time name="total">    3.09    3.10</time>
   <energy>
    <i name="alphaZ">    204.46100579 </i>
    <i name="ewald">  70415.48233409 </i>
    <i name="hartreedc"> -86385.76336009 </i>
    <i name="XCdc">    562.16440950 </i>
    <i name="pawpsdc">  16107.59831511 </i>
    <i name="pawaedc"> -17402.23463338 </i>
    <i name="eentropy">     -0.00729901 </i>
    <i name="bandstr">   -673.05433102 </i>
    <i name="atom">  17123.75487843 </i>
    <i name="e_fr_energy">    -47.59868058 </i>
    <i name="e_wo_entrp">    -47.59138157 </i>
    <i name="e_0_energy">    -47.59624758 </i>
   </energy>
  </scstep>
  <scstep>
   <time name="dav">    3.54    3.55</time>
   <time name="total">    3.79    3.81</time>
   <energy>
    <i name="e_fr_energy">    -47.60028978 </i>
    <i name="e_wo_entrp">    -47.59287717 </i>
    <i name="e_0_energy">    -47.59781891 </i>
   </energy>
  </scstep>
  <scstep>
   <time name="dav">    3.62    3.62</time>
   <time name="total">    3.75    3.76</time>
   <energy>
    <i name="e_fr_energy">    -47.60026559 </i>
    <i name="e_wo_entrp">    -47.59302390 </i>
    <i name="e_0_energy">    -47.59785169 </i>
   </energy>
  </scstep>
  <scstep>
   <time name="dav">    2.49    2.49</time>
   <time name="total">    2.52    2.53</time>
   <energy>
    <i name="alphaZ">    204.46100579 </i>
    <i name="ewald">  70415.48233409 </i>
    <i name="hartreedc"> -86385.42542180 </i>
    <i name="XCdc">    562.15526334 </i>
    <i name="pawpsdc">  16108.62765251 </i>
    <i name="pawaedc"> -17403.27101994 </i>
    <i name="eentropy">     -0.00740685 </i>
    <i name="bandstr">   -673.37753002 </i>
    <i name="atom">  17123.75487843 </i>
    <i name="e_fr_energy">    -47.60024445 </i>
    <i name="e_wo_entrp">    -47.59283760 </i>
    <i name="e_0_energy">    -47.59777550 </i>
   </energy>
  </scstep>
  <structure>
   <crystal>
    <varray name="basis" >
     <v>       5.14208051       0.00000000       0.00000000 </v>
     <v>       2.57104026       4.45317235       0.00000000 </v>
     <v>       0.00000000       0.00000000      24.19849116 </v>
    </varray>
    <i name="volume">    554.11086238 </i>
    <varray name="rec_basis" >
     <v>       0.19447381      -0.11227951       0.00000000 </v>
     <v>       0.00000000       0.22455902       0.00000000 </v>
     <v>       0.00000000       0.00000000       0.04132489 </v>
    </varray>
   </crystal>
   <varray name="positions" >
    <v>       0.16666667       0.16666667       0.41493904 </v>
    <v>       0.66694941       0.16610118       0.41407842 </v>
    <v>       0.16610118       0.66694941       0.41407842 </v>
    <v>       0.66694941       0.66694941       0.41407842 </v>
    <v>       0.83432518       0.33283741       0.49937576 </v>
    <v>       0.33283741       0.33283741       0.49937576 </v>
    <v>       0.83333333       0.83333333       0.50194151 </v>
    <v>       0.33283741       0.83432518       0.49937576 </v>
    <v>      -0.00631287      -0.00631287       0.58825117 </v>
    <v>       0.51262574      -0.00631287       0.58825117 </v>
    <v>      -0.00631287       0.51262574       0.58825117 </v>
    <v>       0.50000000       0.50000000       0.58133162 </v>
    <v>       0.16666667       0.16666667       0.63301274 </v>
   </varray>
  </structure>
  <varray name="forces" >
   <v>       0.00000000       0.00000000      -0.03700068 </v>
   <v>      -0.00000000      -0.00165195       0.00131772 </v>
   <v>      -0.00143063       0.00082598       0.00131772 </v>
   <v>       0.00143063       0.00082598       0.00131772 </v>
   <v>      -0.00821098       0.00474061      -0.00802581 </v>
   <v>       0.00821098       0.00474061      -0.00802581 </v>
   <v>      -0.00000000       0.00000000       0.01599439 </v>
   <v>       0.00000000      -0.00948122      -0.00802581 </v>
   <v>      -0.01459960      -0.00842908      -0.01084897 </v>
   <v>       0.01459960      -0.00842908      -0.01084897 </v>
   <v>       0.00000000       0.01685817      -0.01084897 </v>
   <v>       0.00000000       0.00000000       0.01204496 </v>
   <v>      -0.00000000       0.00000000       0.06163251 </v>
  </varray>
  <varray name="stress" >
   <v>      -7.14461699       0.00000000       0.00000000 </v>
   <v>      -0.00000000      -7.14461699       0.00000000 </v>
   <v>       0.00000000       0.00000000      -3.28795975 </v>
  </varray>
  <energy>
   <i name="e_fr_energy">    -47.60024445 </i>
   <i name="e_wo_entrp">    -47.59777550 </i>
   <i name="e_0_energy">     -0.00740685 </i>
  </energy>
  <time name="totalsc">   18.26   18.33</time>
 </calculation>
 <calculation>
  <scstep>
   <time name="dav">    2.83    2.83</time>
   <time name="total">    2.98    2.98</time>
   <energy>
    <i name="alphaZ">    204.46100579 </i>
    <i name="ewald">  70407.43796087 </i>
    <i name="hartreedc"> -86377.51681444 </i>
    <i name="XCdc">    562.14213875 </i>
    <i name="pawpsdc">  16109.20030184 </i>
    <i name="pawaedc"> -17403.87031080 </i>
    <i name="eentropy">     -0.00742505 </i>
    <i name="bandstr">   -673.20107776 </i>
    <i name="atom">  17123.75487843 </i>
    <i name="e_fr_energy">    -47.59934236 </i>
    <i name="e_wo_entrp">    -47.59191731 </i>
    <i name="e_0_energy">    -47.59686734 </i>
   </energy>
  </scstep>
  <scstep>
   <time name="dav">    3.83    3.83</time>
   <time name="total">    3.96    3.96</time>
   <energy>
    <i name="e_fr_energy">    -47.60030857 </i>
    <i name="e_wo_entrp">    -47.59302618 </i>
    <i name="e_0_energy">    -47.59788111 </i>
   </energy>
  </scstep>
  <scstep>
   <time name="dav">    3.47    3.52</time>
   <time name="total">    3.60    3.66</time>
   <energy>
    <i name="e_fr_energy">    -47.60032489 </i>
    <i name="e_wo_entrp">    -47.59280312 </i>
    <i name="e_0_energy">    -47.59781763 </i>
   </energy>
  </scstep>
  <scstep>
   <time name="dav">    2.44    2.45</time>
   <time name="total">    2.47    2.49</time>
   <energy>
    <i name="alphaZ">    204.46100579 </i>
    <i name="ewald">  70407.43796087 </i>
    <i name="hartreedc"> -86377.07041260 </i>
    <i name="XCdc">    562.13906582 </i>
    <i name="pawpsdc">  16107.50636813 </i>
    <i name="pawaedc"> -17402.14514974 </i>
    <i name="eentropy">     -0.00735877 </i>
    <i name="bandstr">   -673.67662316 </i>
    <i name="atom">  17123.75487843 </i>
    <i name="e_fr_energy">    -47.60026522 </i>
    <i name="e_wo_entrp">    -47.59290645 </i>
    <i name="e_0_energy">    -47.59781230 </i>
   </energy>
  </scstep>
  <structure>
   <crystal>
    <varray name="basis" >
     <v>       5.14208051       0.00000000       0.00000000 </v>
     <v>       2.57104026       4.45317235       0.00000000 </v>
     <v>       0.00000000       0.00000000      24.19849116 </v>
    </varray>
    <i name="volume">    554.11086238 </i>
    <varray name="rec_basis" >
     <v>       0.19447381      -0.11227951       0.00000000 </v>
     <v>       0.00000000       0.22455902       0.00000000 </v>
     <v>       0.00000000       0.00000000       0.04132489 </v>
    </varray>
   </crystal>
   <varray name="positions" >
    <v>       0.16666667       0.16666667       0.41481258 </v>
    <v>       0.66695876       0.16608247       0.41410345 </v>
    <v>       0.16608247       0.66695876       0.41410345 </v>
    <v>       0.66695876       0.66695876       0.41410345 </v>
    <v>       0.83420773       0.33289613       0.49933746 </v>
    <v>       0.33289613       0.33289613       0.49933746 </v>
    <v>       0.83333333       0.83333333       0.50200271 </v>
    <v>       0.33289613       0.83420773       0.49933746 </v>
    <v>      -0.00640570      -0.00640570       0.58820520 </v>
    <v>       0.51281140      -0.00640570       0.58820520 </v>
    <v>      -0.00640570       0.51281140       0.58820520 </v>
    <v>       0.50000000       0.50000000       0.58132557 </v>
    <v>       0.16666667       0.16666667       0.63326180 </v>
   </varray>
  </structure>
  <varray name="forces" >
   <v>       0.00000000      -0.00000000      -0.01613475 </v>
   <v>       0.00000000      -0.00195434       0.00182098 </v>
   <v>      -0.00169251       0.00097717       0.00182098 </v>
   <v>       0.00169251       0.00097717       0.00182098 </v>
   <v>       0.00830833      -0.00479681      -0.00391410 </v>
   <v>      -0.00830833      -0.00479681      -0.00391410 </v>
   <v>       0.00000000      -0.00000000      -0.00135234 </v>
   <v>       0.00000000       0.00959363      -0.00391410 </v>
   <v>       0.05407709       0.03122142       0.02556866 </v>
   <v>      -0.05407709       0.03122142       0.02556866 </v>
   <v>      -0.00000000      -0.06244284       0.02556866 </v>
   <v>       0.00000000      -0.00000000      -0.00692609 </v>
   <v>       0.00000000      -0.00000000      -0.04601343 </v>
  </varray>
  <varray name="stress" >
   <v>      -8.09998962       0.00000000       0.00000000 </v>
   <v>       0.00000000      -8.09998962      -0.00000000 </v>
   <v>       0.00000000       0.00000000      -4.29744230 </v>
  </varray>
  <energy>
   <i name="e_fr_energy">    -47.60026522 </i>
   <i name="e_wo_entrp">    -47.59781230 </i>
   <i name="e_0_energy">     -0.00735877 </i>
  </energy>
  <time name="totalsc">   17.91   18.03</time>
 </calculation>
 <calculation>
  <scstep>
   <time name="dav">    2.90    2.90</time>
   <time name="total">    3.02    3.03</time>
   <energy>
    <i name="alphaZ">    204.46100579 </i>
    <i name="ewald">  70410.89037016 </i>
    <i name="hartreedc"> -86380.26983982 </i>
    <i name="XCdc">    562.14390648 </i>
    <i name="pawpsdc">  16107.10959199 </i>
    <i name="pawaedc"> -17401.74441538 </i>
    <i name="eentropy">     -0.00734708 </i>
    <i name="bandstr">   -673.93831718 </i>
    <i name="atom">  17123.75487843 </i>
    <i name="e_fr_energy">    -47.60016662 </i>
    <i name="e_wo_entrp">    -47.59281953 </i>
    <i name="e_0_energy">    -47.59771759 </i>
   </energy>
  </scstep>
  <scstep>
   <time name="dav">    3.67    3.68</time>
   <time name="total">    3.80    3.81</time>
   <energy>
    <i name="e_fr_energy">    -47.60037937 </i>
    <i name="e_wo_entrp">    -47.59299110 </i>
    <i name="e_0_energy">    -47.59791662 </i>
   </energy>
  </scstep>
  <scstep>
   <time name="dav">    2.51    2.51</time>
   <time name="total">    2.54    2.55</time>
   <energy>
    <i name="alphaZ">    204.46100579 </i>
    <i name="ewald">  70410.89037016 </i>
    <i name="hartreedc"> -86380.29848571 </i>
    <i name="XCdc">    562.14558166 </i>
    <i name="pawpsdc">  16107.67688049 </i>
    <i name="pawaedc"> -17402.32524115 </i>
    <i name="eentropy">     -0.00733037 </i>
    <i name="bandstr">   -673.89804092 </i>
    <i name="atom">  17123.75487843 </i>
    <i name="e_fr_energy">    -47.60038162 </i>
    <i name="e_wo_entrp">    -47.59305125 </i>
    <i name="e_0_energy">    -47.59793816 </i>
   </energy>
  </scstep>
  <structure>
   <crystal>
    <varray name="basis" >
     <v>       5.14208051       0.00000000       0.00000000 </v>
     <v>       2.57104026       4.45317235       0.00000000 </v>
     <v>       0.00000000       0.00000000      24.19849116 </v>
    </varray>
    <i name="volume">    554.11086238 </i>
    <varray name="rec_basis" >
     <v>       0.19447381      -0.11227951       0.00000000 </v>
     <v>       0.00000000       0.22455902       0.00000000 </v>
     <v>       0.00000000       0.00000000       0.04132489 </v>
    </varray>
   </crystal>
   <varray name="positions" >
    <v>       0.16666667       0.16666667       0.41486685 </v>
    <v>       0.66695475       0.16609050       0.41409271 </v>
    <v>       0.16609050       0.66695475       0.41409271 </v>
    <v>       0.66695475       0.66695475       0.41409271 </v>
    <v>       0.83425813       0.33287094       0.49935389 </v>
    <v>       0.33287094       0.33287094       0.49935389 </v>
    <v>       0.83333333       0.83333333       0.50197645 </v>
    <v>       0.33287094       0.83425813       0.49935389 </v>
    <v>      -0.00636587      -0.00636587       0.58822492 </v>
    <v>       0.51273173      -0.00636587       0.58822492 </v>
    <v>      -0.00636587       0.51273173       0.58822492 </v>
    <v>       0.50000000       0.50000000       0.58132817 </v>
    <v>       0.16666667       0.16666667       0.63315493 </v>
   </varray>
  </structure>
  <varray name="forces" >
   <v>      -0.00000000      -0.00000000      -0.03464842 </v>
   <v>      -0.00000000      -0.00176783       0.01033086 </v>
   <v>      -0.00153098       0.00088391       0.01033086 </v>
   <v>       0.00153098       0.00088391       0.01033086 </v>
   <v>      -0.00010751       0.00006207      -0.00986401 </v>
   <v>       0.00010751       0.00006207      -0.00986401 </v>
   <v>      -0.00000000      -0.00000000       0.01911422 </v>
   <v>      -0.00000000      -0.00012415      -0.00986401 </v>
   <v>       0.02318008       0.01338302       0.00865558 </v>
   <v>      -0.02318008       0.01338302       0.00865558 </v>
   <v>       0.00000000      -0.02676605       0.00865558 </v>
   <v>      -0.00000000       0.00000000      -0.00536523 </v>
   <v>      -0.00000000       0.00000000      -0.00646787 </v>
  </varray>
  <varray name="stress" >
   <v>      -8.01106990       0.00000000       0.00000000 </v>
   <v>       0.00000000      -8.01106990      -0.00000000 </v>
   <v>       0.00000000       0.00000000      -4.04037052 </v>
  </varray>
  <energy>
   <i name="e_fr_energy">    -47.60038162 </i>
   <i name="e_wo_entrp">    -47.59793816 </i>
   <i name="e_0_energy">     -0.00733037 </i>
  </energy>
  <time name="totalsc">   14.18   14.25</time>
  <eigenvalues>
   <array>
    <dimension dim="1">band</dimension>
    <dimension dim="2">kpoint</dimension>
    <dimension dim="3">spin</dimension>
    <field>eigene</field>
    <field>occ</field>
    <set>
     <set comment="spin 1">
      <set comment="kpoint 1">
       <r>  -20.0830    1.0000 </r>
       <r>  -10.2878    1.0000 </r>
       <r>   -8.2743    1.0000 </r>
       <r>   -7.0776    1.0000 </r>
       <r>   -7.0776    1.0000 </r>
       <r>   -7.0139    1.0000 </r>
       <r>   -6.6083    1.0000 </r>
       <r>   -6.4662    1.0000 </r>
       <r>   -6.4662    1.0000 </r>
       <r>   -6.4488    1.0000 </r>
       <r>   -6.1202    1.0000 </r>
       <r>   -6.1112    1.0000 </r>
       <r>   -6.1112    1.0000 </r>
       <r>   -5.8891    1.0000 </r>
       <r>   -5.8891    1.0000 </r>
       <r>   -5.8488    1.0000 </r>
       <r>   -5.6779    1.0000 </r>
       <r>   -5.6779    1.0000 </r>
       <r>   -5.2557    1.0000 </r>
       <r>   -5.1399    1.0000 </r>
       <r>   -5.1399    1.0000 </r>
       <r>   -5.0353    1.0000 </r>
       <r>   -4.8181    1.0000 </r>
       <r>   -4.8155    1.0000 </r>
       <r>   -4.8155    1.0000 </r>
       <r>   -4.7311    1.0000 </r>
       <r>   -4.7311    1.0000 </r>
       <r>   -4.6638    1.0000 </r>
       <r>   -4.6016    1.0000 </r>
       <r>   -4.6016    1.0000 </r>
       <r>   -4.5051    1.0000 </r>
       <r>   -4.4577    1.0000 </r>
       <r>   -4.4577    1.0000 </r>
       <r>   -4.4207    1.0000 </r>
       <r>   -4.4207    1.0000 </r>
       <r>   -4.3808    1.0000 </r>
       <r>   -4.2869    1.0000 </r>
       <r>   -4.2869    1.0000 </r>
       <r>   -4.2725    1.0000 </r>
       <r>   -3.9574    1.0000 </r>
       <r>   -3.9485    1.0000 </r>
       <r>   -3.9485    1.0000 </r>
       <r>   -3.8613    1.0000 </r>
       <r>   -3.8613    1.0000 </r>
       <r>   -3.8074    1.0000 </r>
       <r>   -3.8074    1.0000 </r>
       <r>   -3.5448    1.0000 </r>
       <r>   -3.5448    1.0000 </r>
       <r>   -3.4865    1.0000 </r>
       <r>   -3.4798    1.0000 </r>
       <r>   -3.4798    1.0000 </r>
       <r>   -3.4775    1.0000 </r>
       <r>   -3.4375    1.0000 </r>
       <r>   -3.4375    1.0000 </r>
       <r>   -3.3994    1.0000 </r>
       <r>   -3.3877    1.0000 </r>
       <r>   -3.3877    1.0000 </r>
       <r>   -3.3346    1.0000 </r>
       <r>   -3.3293    1.0000 </r>
       <r>   -3.3293    1.0000 </r>
       <r>   -3.2825    1.0000 </r>
       <r>   -3.1554    1.0000 </r>
       <r>   -3.1554    1.0000 </r>
       <r>   -3.1159    1.0000 </r>
       <r>   -2.9340    1.0000 </r>
       <r>   -2.8509    1.0000 </r>
       <r>   -2.8509    1.0000 </r>
       <r>   -1.6012   -0.0354 </r>
       <r>   -1.6011   -0.0354 </r>
       <r>   -1.4699   -0.0009 </r>
       <r>   -1.2432   -0.0000 </r>
       <r>   -0.5528   -0.0000 </r>
       <r>   -0.5528   -0.0000 </r>
       <r>   -0.3855   -0.0000 </r>
       <r>   -0.0111   -0.0000 </r>
       <r>   -0.0111   -0.0000 </r>
       <r>    1.2074    0.0000 </r>
       <r>    2.7060    0.0000 </r>
       <r>    2.7060    0.0000 </r>
       <r>    2.7599    0.0000 </r>
       <r>    3.1289    0.0000 </r>
       <r>    3.5058    0.0000 </r>
       <r>    3.6358    0.0000 </r>
       <r>    4.1016    0.0000 </r>
       <r>    4.1016    0.0000 </r>
       <r>    4.5478    0.0000 </r>
       <r>    4.5891    0.0000 </r>
       <r>    4.9859    0.0000 </r>
       <r>    5.6937    0.0000 </r>
       <r>    5.9622    0.0000 </r>
       <r>    5.9622    0.0000 </r>
       <r>    6.6457    0.0000 </r>
       <r>    6.8795    0.0000 </r>
       <r>    7.4439    0.0000 </r>
       <r>    7.5145    0.0000 </r>
       <r>    7.5145    0.0000 </r>
      </set>
      <set comment="kpoint 2">
       <r>  -20.0814    1.0000 </r>
       <r>  -10.1950    1.0000 </r>
       <r>   -8.2036    1.0000 </r>
       <r>   -7.1040    1.0000 </r>
       <r>   -7.0590    1.0000 </r>
       <r>   -6.9559    1.0000 </r>
       <r>   -6.5965    1.0000 </r>
       <r>   -6.4991    1.0000 </r>
       <r>   -6.4402    1.0000 </r>
       <r>   -6.4154    1.0000 </r>
       <r>   -6.1124    1.0000 </r>
       <r>   -6.0829    1.0000 </r>
       <r>   -6.0764    1.0000 </r>
       <r>   -5.8701    1.0000 </r>
       <r>   -5.8617    1.0000 </r>
       <r>   -5.8059    1.0000 </r>
       <r>   -5.6642    1.0000 </r>
       <r>   -5.6479    1.0000 </r>
       <r>   -5.2491    1.0000 </r>
       <r>   -5.1542    1.0000 </r>
       <r>   -5.1483    1.0000 </r>
       <r>   -5.0367    1.0000 </r>
       <r>   -4.8258    1.0000 </r>
       <r>   -4.7982    1.0000 </r>
       <r>   -4.7978    1.0000 </r>
[...]
       <r>   -6.3250    1.0000 </r>
       <r>   -6.1121    1.0000 </r>
       <r>   -6.0047    1.0000 </r>
       <r>   -5.6563    1.0000 </r>
       <r>   -5.6123    1.0000 </r>
       <r>   -5.5780    1.0000 </r>
       <r>   -5.5645    1.0000 </r>
       <r>   -5.5312    1.0000 </r>
       <r>   -5.5281    1.0000 </r>
       <r>   -5.4074    1.0000 </r>
       <r>   -5.3943    1.0000 </r>
       <r>   -5.3629    1.0000 </r>
       <r>   -5.3277    1.0000 </r>
       <r>   -5.3097    1.0000 </r>
       <r>   -5.1742    1.0000 </r>
       <r>   -5.1414    1.0000 </r>
       <r>   -5.0917    1.0000 </r>
       <r>   -5.0809    1.0000 </r>
       <r>   -4.9849    1.0000 </r>
       <r>   -4.8841    1.0000 </r>
       <r>   -4.8827    1.0000 </r>
       <r>   -4.8586    1.0000 </r>
       <r>   -4.8470    1.0000 </r>
       <r>   -4.8253    1.0000 </r>
       <r>   -4.7752    1.0000 </r>
       <r>   -4.7678    1.0000 </r>
       <r>   -4.7086    1.0000 </r>
       <r>   -4.5115    1.0000 </r>
       <r>   -4.4803    1.0000 </r>
       <r>   -4.4476    1.0000 </r>
       <r>   -4.4049    1.0000 </r>
       <r>   -4.3775    1.0000 </r>
       <r>   -4.3698    1.0000 </r>
       <r>   -4.3260    1.0000 </r>
       <r>   -4.2366    1.0000 </r>
       <r>   -4.1625    1.0000 </r>
       <r>   -4.1064    1.0000 </r>
       <r>   -4.0376    1.0000 </r>
       <r>   -4.0221    1.0000 </r>
       <r>   -3.9652    1.0000 </r>
       <r>   -3.9349    1.0000 </r>
       <r>   -3.8993    1.0000 </r>
       <r>   -3.8940    1.0000 </r>
       <r>   -3.8487    1.0000 </r>
       <r>   -3.7893    1.0000 </r>
       <r>   -3.7480    1.0000 </r>
       <r>   -3.7221    1.0000 </r>
       <r>   -3.6874    1.0000 </r>
       <r>   -3.6232    1.0000 </r>
       <r>   -3.5673    1.0000 </r>
       <r>   -3.5210    1.0000 </r>
       <r>   -3.5053    1.0000 </r>
       <r>   -3.4935    1.0000 </r>
       <r>   -3.4851    1.0000 </r>
       <r>   -3.4697    1.0000 </r>
       <r>   -3.4409    1.0000 </r>
       <r>   -3.4400    1.0000 </r>
       <r>   -3.2974    1.0000 </r>
       <r>   -3.2265    1.0000 </r>
       <r>   -3.1423    1.0000 </r>
       <r>   -2.8401    1.0000 </r>
       <r>   -2.2093    1.0000 </r>
       <r>   -1.6855    0.1854 </r>
       <r>   -0.4612   -0.0000 </r>
       <r>   -0.4169   -0.0000 </r>
       <r>    0.3686   -0.0000 </r>
       <r>    1.8488    0.0000 </r>
       <r>    1.9759    0.0000 </r>
       <r>    1.9943    0.0000 </r>
       <r>    2.1778    0.0000 </r>
       <r>    2.4820    0.0000 </r>
       <r>    3.1540    0.0000 </r>
       <r>    3.5630    0.0000 </r>
       <r>    4.3872    0.0000 </r>
       <r>    5.0136    0.0000 </r>
       <r>    5.0604    0.0000 </r>
       <r>    5.0821    0.0000 </r>
       <r>    5.4135    0.0000 </r>
       <r>    5.8367    0.0000 </r>
       <r>    5.8584    0.0000 </r>
       <r>    6.0266    0.0000 </r>
       <r>    6.0606    0.0000 </r>
       <r>    6.0642    0.0000 </r>
       <r>    6.1553    0.0000 </r>
       <r>    6.6552    0.0000 </r>
       <r>    7.0785    0.0000 </r>
       <r>    7.0992    0.0000 </r>
       <r>    7.2183    0.0000 </r>
       <r>    7.2258    0.0000 </r>
      </set>
     </set>
    </set>
   </array>
  </eigenvalues>
  <separator name="orbital magnetization" >
   <v name="MAGDIPOLOUT">      0.00000000      0.00000000      0.00000000</v>
  </separator>
  <dos>
   <i name="efermi">     -1.72618217 </i>
   <total>
    <array>
     <dimension dim="1">gridpoints</dimension>
     <dimension dim="2">spin</dimension>
     <field>energy</field>
     <field>total</field>
     <field>integrated</field>
     <set>
      <set comment="spin 1">
       <r>   -21.4787     0.0000     0.0000 </r>
       <r>   -21.3763     0.0000     0.0000 </r>
       <r>   -21.2740     0.0000     0.0000 </r>
       <r>   -21.1716     0.0000     0.0000 </r>
       <r>   -21.0693     0.0000     0.0000 </r>
       <r>   -20.9669    -0.0000    -0.0000 </r>
       <r>   -20.8646    -0.0000    -0.0000 </r>
       <r>   -20.7622    -0.0000    -0.0000 </r>
       <r>   -20.6599    -0.0000    -0.0000 </r>
       <r>   -20.5575    -0.0000    -0.0000 </r>
       <r>   -20.4552    -0.0000    -0.0000 </r>
       <r>   -20.3528    -0.0054    -0.0006 </r>
       <r>   -20.2505    -0.2950    -0.0307 </r>
       <r>   -20.1481     0.7617     0.0472 </r>
       <r>   -20.0458    13.5855     1.4377 </r>
       <r>   -19.9434     6.1703     2.0692 </r>
       <r>   -19.8411    -0.6265     2.0051 </r>
       <r>   -19.7387    -0.0496     2.0000 </r>
       <r>   -19.6364    -0.0002     2.0000 </r>
       <r>   -19.5340    -0.0000     2.0000 </r>
       <r>   -19.4317    -0.0000     2.0000 </r>
       <r>   -19.3293     0.0000     2.0000 </r>
       <r>   -19.2270     0.0000     2.0000 </r>
       <r>   -19.1246     0.0000     2.0000 </r>
       <r>   -19.0223     0.0000     2.0000 </r>
       <r>   -18.9199     0.0000     2.0000 </r>
       <r>   -18.8176     0.0000     2.0000 </r>
       <r>   -18.7152     0.0000     2.0000 </r>
       <r>   -18.6129     0.0000     2.0000 </r>
       <r>   -18.5105     0.0000     2.0000 </r>
       <r>   -18.4082     0.0000     2.0000 </r>
       <r>   -18.3058     0.0000     2.0000 </r>
       <r>   -18.2035     0.0000     2.0000 </r>
       <r>   -18.1011     0.0000     2.0000 </r>
       <r>   -17.9988     0.0000     2.0000 </r>
       <r>   -17.8964     0.0000     2.0000 </r>
       <r>   -17.7941     0.0000     2.0000 </r>
       <r>   -17.6917     0.0000     2.0000 </r>
       <r>   -17.5894     0.0000     2.0000 </r>
       <r>   -17.4870     0.0000     2.0000 </r>
       <r>   -17.3847     0.0000     2.0000 </r>
       <r>   -17.2823     0.0000     2.0000 </r>
       <r>   -17.1800     0.0000     2.0000 </r>
       <r>   -17.0776     0.0000     2.0000 </r>
       <r>   -16.9753     0.0000     2.0000 </r>
       <r>   -16.8729     0.0000     2.0000 </r>
       <r>   -16.7706     0.0000     2.0000 </r>
       <r>   -16.6682     0.0000     2.0000 </r>
       <r>   -16.5659     0.0000     2.0000 </r>
       <r>   -16.4635     0.0000     2.0000 </r>
       <r>   -16.3612     0.0000     2.0000 </r>
       <r>   -16.2588     0.0000     2.0000 </r>
       <r>   -16.1565     0.0000     2.0000 </r>
       <r>   -16.0541     0.0000     2.0000 </r>
       <r>   -15.9518     0.0000     2.0000 </r>
       <r>   -15.8494     0.0000     2.0000 </r>
       <r>   -15.7471     0.0000     2.0000 </r>
       <r>   -15.6447     0.0000     2.0000 </r>
       <r>   -15.5424     0.0000     2.0000 </r>
       <r>   -15.4400     0.0000     2.0000 </r>
       <r>   -15.3377     0.0000     2.0000 </r>
       <r>   -15.2353     0.0000     2.0000 </r>
       <r>   -15.1330     0.0000     2.0000 </r>
       <r>   -15.0306     0.0000     2.0000 </r>
       <r>   -14.9282     0.0000     2.0000 </r>
       <r>   -14.8259     0.0000     2.0000 </r>
       <r>   -14.7235     0.0000     2.0000 </r>
       <r>   -14.6212     0.0000     2.0000 </r>
       <r>   -14.5188     0.0000     2.0000 </r>
       <r>   -14.4165     0.0000     2.0000 </r>
       <r>   -14.3141     0.0000     2.0000 </r>
       <r>   -14.2118     0.0000     2.0000 </r>
       <r>   -14.1094     0.0000     2.0000 </r>
       <r>   -14.0071     0.0000     2.0000 </r>
       <r>   -13.9047     0.0000     2.0000 </r>
       <r>   -13.8024     0.0000     2.0000 </r>
       <r>   -13.7000     0.0000     2.0000 </r>
       <r>   -13.5977     0.0000     2.0000 </r>
       <r>   -13.4953     0.0000     2.0000 </r>
       <r>   -13.3930     0.0000     2.0000 </r>
       <r>   -13.2906     0.0000     2.0000 </r>
       <r>   -13.1883     0.0000     2.0000 </r>
       <r>   -13.0859     0.0000     2.0000 </r>
       <r>   -12.9836     0.0000     2.0000 </r>
       <r>   -12.8812     0.0000     2.0000 </r>
       <r>   -12.7789     0.0000     2.0000 </r>
       <r>   -12.6765     0.0000     2.0000 </r>
       <r>   -12.5742     0.0000     2.0000 </r>
       <r>   -12.4718     0.0000     2.0000 </r>
       <r>   -12.3695     0.0000     2.0000 </r>
       <r>   -12.2671     0.0000     2.0000 </r>
       <r>   -12.1648     0.0000     2.0000 </r>
       <r>   -12.0624     0.0000     2.0000 </r>
       <r>   -11.9601     0.0000     2.0000 </r>
       <r>   -11.8577     0.0000     2.0000 </r>
       <r>   -11.7554     0.0000     2.0000 </r>
       <r>   -11.6530     0.0000     2.0000 </r>
       <r>   -11.5507     0.0000     2.0000 </r>
       <r>   -11.4483     0.0000     2.0000 </r>
       <r>   -11.3460     0.0000     2.0000 </r>
       <r>   -11.2436     0.0000     2.0000 </r>
       <r>   -11.1413    -0.0000     2.0000 </r>
       <r>   -11.0389    -0.0000     2.0000 </r>
       <r>   -10.9366    -0.0000     2.0000 </r>
       <r>   -10.8342    -0.0000     2.0000 </r>
       <r>   -10.7319    -0.0000     2.0000 </r>
       <r>   -10.6295    -0.0000     2.0000 </r>
       <r>   -10.5272    -0.0005     2.0000 </r>
       <r>   -10.4248    -0.0114     1.9988 </r>
       <r>   -10.3225     0.0153     2.0004 </r>
       <r>   -10.2201     0.6438     2.0662 </r>
       <r>   -10.1178     0.9638     2.1649 </r>
       <r>   -10.0154     0.7437     2.2410 </r>
       <r>    -9.9131     1.6266     2.4075 </r>
       <r>    -9.8107     0.5925     2.4681 </r>
       <r>    -9.7084     0.2915     2.4980 </r>
       <r>    -9.6060     2.1168     2.7146 </r>
       <r>    -9.5037     0.9924     2.8162 </r>
       <r>    -9.4013     0.9034     2.9087 </r>
       <r>    -9.2990     0.0196     2.9107 </r>
       <r>    -9.1966     1.2621     3.0398 </r>
       <r>    -9.0943     2.6559     3.3117 </r>
       <r>    -8.9919     0.5204     3.3649 </r>
       <r>    -8.8896     0.7729     3.4440 </r>
       <r>    -8.7872     0.5462     3.4999 </r>
       <r>    -8.6849     0.7943     3.5812 </r>
       <r>    -8.5825     2.7694     3.8647 </r>
       <r>    -8.4802     1.0625     3.9734 </r>
       <r>    -8.3778     0.9411     4.0698 </r>
       <r>    -8.2755     0.6359     4.1349 </r>
       <r>    -8.1731     2.3469     4.3751 </r>
       <r>    -8.0708     2.1029     4.5903 </r>
       <r>    -7.9684     4.1854     5.0187 </r>
       <r>    -7.8661     4.0391     5.4321 </r>
       <r>    -7.7637     4.2074     5.8627 </r>
       <r>    -7.6614     1.1629     5.9817 </r>
       <r>    -7.5590     0.5833     6.0414 </r>
       <r>    -7.4567     4.0113     6.4520 </r>
       <r>    -7.3543     5.7213     7.0376 </r>
       <r>    -7.2520     4.7097     7.5196 </r>
       <r>    -7.1496     5.3506     8.0673 </r>
       <r>    -7.0473     8.1054     8.8968 </r>
       <r>    -6.9449    11.4891    10.0728 </r>
       <r>    -6.8426    13.2749    11.4315 </r>
       <r>    -6.7402     7.2056    12.1690 </r>
       <r>    -6.6379     8.7636    13.0659 </r>
       <r>    -6.5355    10.6992    14.1610 </r>
       <r>    -6.4332    10.5940    15.2453 </r>
       <r>    -6.3308    11.0731    16.3786 </r>
       <r>    -6.2285     9.6837    17.3698 </r>
       <r>    -6.1261    13.0368    18.7041 </r>
       <r>    -6.0238    19.0758    20.6565 </r>
       <r>    -5.9214    21.3806    22.8448 </r>
       <r>    -5.8191    20.7095    24.9644 </r>
       <r>    -5.7167    22.6571    27.2834 </r>
       <r>    -5.6144    25.3999    29.8831 </r>
       <r>    -5.5120    27.7267    32.7209 </r>
       <r>    -5.4097    22.3734    35.0109 </r>
       <r>    -5.3073    17.7094    36.8234 </r>
       <r>    -5.2050    33.6475    40.2673 </r>
       <r>    -5.1026    40.5381    44.4164 </r>
       <r>    -5.0003    28.3216    47.3151 </r>
       <r>    -4.8979    24.9866    49.8725 </r>
       <r>    -4.7956    39.2972    53.8946 </r>
       <r>    -4.6932    45.7638    58.5785 </r>
       <r>    -4.5909    41.2194    62.7973 </r>
       <r>    -4.4885    51.9305    68.1124 </r>
       <r>    -4.3861    60.5791    74.3127 </r>
       <r>    -4.2838    43.2922    78.7437 </r>
       <r>    -4.1814    32.1968    82.0391 </r>
       <r>    -4.0791    39.0488    86.0357 </r>
       <r>    -3.9767    53.8591    91.5482 </r>
       <r>    -3.8744    47.7289    96.4333 </r>
       <r>    -3.7720    45.5411   101.0945 </r>
       <r>    -3.6697    45.6468   105.7665 </r>
       <r>    -3.5673    48.4934   110.7298 </r>
       <r>    -3.4650    64.8934   117.3716 </r>
       <r>    -3.3626    66.7534   124.2039 </r>
       <r>    -3.2603    34.7983   127.7655 </r>
       <r>    -3.1579    14.6617   129.2661 </r>
       <r>    -3.0556     8.4737   130.1334 </r>
       <r>    -2.9532    11.2278   131.2826 </r>
       <r>    -2.8509    14.2007   132.7360 </r>
       <r>    -2.7485    12.2889   133.9938 </r>
       <r>    -2.6462     3.6645   134.3689 </r>
       <r>    -2.5438     1.4486   134.5171 </r>
       <r>    -2.4415     6.4351   135.1758 </r>
       <r>    -2.3391     2.9923   135.4820 </r>
       <r>    -2.2368     2.9119   135.7801 </r>
       <r>    -2.1344     6.1956   136.4142 </r>
       <r>    -2.0321     7.6671   137.1989 </r>
       <r>    -1.9297     1.6807   137.3709 </r>
       <r>    -1.8274     0.2560   137.3971 </r>
       <r>    -1.7250     5.9902   138.0102 </r>
       <r>    -1.6227     8.9519   138.9265 </r>
       <r>    -1.5203     5.3557   139.4746 </r>
       <r>    -1.4180     4.2300   139.9076 </r>
       <r>    -1.3156     2.9622   140.2108 </r>
       <r>    -1.2133     1.5149   140.3658 </r>
       <r>    -1.1109     3.4678   140.7207 </r>
       <r>    -1.0086     4.5563   141.1871 </r>
       <r>    -0.9062     3.3063   141.5255 </r>
       <r>    -0.8039     4.0099   141.9359 </r>
       <r>    -0.7015     5.0316   142.4509 </r>
       <r>    -0.5992     6.3400   143.0998 </r>
       <r>    -0.4968     4.4855   143.5589 </r>
       <r>    -0.3945     3.0740   143.8735 </r>
       <r>    -0.2921     4.6304   144.3474 </r>
       <r>    -0.1898     4.4132   144.7991 </r>
       <r>    -0.0874     1.5523   144.9580 </r>
       <r>     0.0149     4.8861   145.4581 </r>
       <r>     0.1173     3.7085   145.8377 </r>
       <r>     0.2196     2.0304   146.0455 </r>
       <r>     0.3220     2.5714   146.3086 </r>
       <r>     0.4243     4.6519   146.7848 </r>
       <r>     0.5267     4.4149   147.2366 </r>
       <r>     0.6290     3.5862   147.6037 </r>
       <r>     0.7314     5.1718   148.1330 </r>
       <r>     0.8337     6.0974   148.7571 </r>
       <r>     0.9361     3.7998   149.1460 </r>
       <r>     1.0384     1.6323   149.3131 </r>
       <r>     1.1408     2.1049   149.5285 </r>
       <r>     1.2431     3.7694   149.9143 </r>
       <r>     1.3455     3.8914   150.3126 </r>
       <r>     1.4478     4.8527   150.8093 </r>
       <r>     1.5502     1.7893   150.9924 </r>
       <r>     1.6525     0.7863   151.0729 </r>
       <r>     1.7549     3.0560   151.3857 </r>
       <r>     1.8572     1.9047   151.5806 </r>
       <r>     1.9596     3.3687   151.9254 </r>
       <r>     2.0619     4.5282   152.3889 </r>
       <r>     2.1643     4.2654   152.8254 </r>
       <r>     2.2666     3.3401   153.1673 </r>
       <r>     2.3690     4.5306   153.6310 </r>
       <r>     2.4713     3.2486   153.9635 </r>
       <r>     2.5737     0.9013   154.0558 </r>
       <r>     2.6760     0.0074   154.0565 </r>
       <r>     2.7784     0.7116   154.1294 </r>
       <r>     2.8807     2.6828   154.4039 </r>
       <r>     2.9831     3.6448   154.7770 </r>
       <r>     3.0854     5.9905   155.3901 </r>
       <r>     3.1878     4.8904   155.8907 </r>
       <r>     3.2901     3.3623   156.2348 </r>
       <r>     3.3925     8.0317   157.0568 </r>
       <r>     3.4948     6.5235   157.7245 </r>
       <r>     3.5972     7.2701   158.4686 </r>
       <r>     3.6995     4.5935   158.9388 </r>
       <r>     3.8019     4.1432   159.3628 </r>
       <r>     3.9042     7.8715   160.1685 </r>
       <r>     4.0066     8.6593   161.0548 </r>
       <r>     4.1089     5.8167   161.6501 </r>
       <r>     4.2113     6.1819   162.2828 </r>
       <r>     4.3136     4.2276   162.7155 </r>
       <r>     4.4160     9.5400   163.6919 </r>
       <r>     4.5183     8.3359   164.5451 </r>
       <r>     4.6207     7.1891   165.2809 </r>
       <r>     4.7230     9.0640   166.2086 </r>
       <r>     4.8254     7.0243   166.9276 </r>
       <r>     4.9277     5.6623   167.5071 </r>
       <r>     5.0301     6.5846   168.1810 </r>
       <r>     5.1324     7.3556   168.9339 </r>
       <r>     5.2348     8.0663   169.7595 </r>
       <r>     5.3371    10.1818   170.8016 </r>
       <r>     5.4395     7.8308   171.6031 </r>
       <r>     5.5418     8.9198   172.5160 </r>
       <r>     5.6442     6.5760   173.1891 </r>
       <r>     5.7465    10.8877   174.3034 </r>
       <r>     5.8489     7.4527   175.0662 </r>
       <r>     5.9512     7.7840   175.8629 </r>
       <r>     6.0536     9.7731   176.8632 </r>
       <r>     6.1560    11.3773   178.0277 </r>
       <r>     6.2583     8.4264   178.8901 </r>
       <r>     6.3607     8.7193   179.7825 </r>
       <r>     6.4630    10.2068   180.8272 </r>
       <r>     6.5654    11.4162   181.9957 </r>
       <r>     6.6677     7.6459   182.7782 </r>
       <r>     6.7701     7.0707   183.5019 </r>
       <r>     6.8724     6.1957   184.1361 </r>
       <r>     6.9748    11.2017   185.2826 </r>
       <r>     7.0771    12.4234   186.5541 </r>
       <r>     7.1795     8.9665   187.4718 </r>
       <r>     7.2818     8.9344   188.3863 </r>
       <r>     7.3842    10.1465   189.4248 </r>
       <r>     7.4865    10.1516   190.4638 </r>
       <r>     7.5889     7.3236   191.2134 </r>
       <r>     7.6912     3.9569   191.6183 </r>
       <r>     7.7936     2.4131   191.8653 </r>
       <r>     7.8959     1.2901   191.9974 </r>
       <r>     7.9983     0.0565   192.0032 </r>
       <r>     8.1006    -0.0301   192.0001 </r>
       <r>     8.2030    -0.0007   192.0000 </r>
       <r>     8.3053    -0.0000   192.0000 </r>
       <r>     8.4077    -0.0000   192.0000 </r>
       <r>     8.5100    -0.0000   192.0000 </r>
       <r>     8.6124     0.0000   192.0000 </r>
       <r>     8.7147     0.0000   192.0000 </r>
       <r>     8.8171     0.0000   192.0000 </r>
       <r>     8.9194     0.0000   192.0000 </r>
       <r>     9.0218     0.0000   192.0000 </r>
       <r>     9.1241     0.0000   192.0000 </r>
       <r>     9.2265     0.0000   192.0000 </r>
      </set>
     </set>
    </array>
   </total>
  </dos>
 </calculation>
 <structure name="finalpos" >
  <crystal>
   <varray name="basis" >
    <v>       5.14208051       0.00000000       0.00000000 </v>
    <v>       2.57104026       4.45317235       0.00000000 </v>
    <v>       0.00000000       0.00000000      24.19849116 </v>
   </varray>
   <i name="volume">    554.11086238 </i>
   <varray name="rec_basis" >
    <v>       0.19447381      -0.11227951       0.00000000 </v>
    <v>       0.00000000       0.22455902       0.00000000 </v>
    <v>       0.00000000       0.00000000       0.04132489 </v>
   </varray>
  </crystal>
  <varray name="positions" >
   <v>       0.16666667       0.16666667       0.41486685 </v>
   <v>       0.66695475       0.16609050       0.41409271 </v>
   <v>       0.16609050       0.66695475       0.41409271 </v>
   <v>       0.66695475       0.66695475       0.41409271 </v>
   <v>       0.83425813       0.33287094       0.49935389 </v>
   <v>       0.33287094       0.33287094       0.49935389 </v>
   <v>       0.83333333       0.83333333       0.50197645 </v>
   <v>       0.33287094       0.83425813       0.49935389 </v>
   <v>      -0.00636587      -0.00636587       0.58822492 </v>
   <v>       0.51273173      -0.00636587       0.58822492 </v>
   <v>      -0.00636587       0.51273173       0.58822492 </v>
   <v>       0.50000000       0.50000000       0.58132817 </v>
   <v>       0.16666667       0.16666667       0.63315493 </v>
  </varray>
 </structure>
</modeling>
