unknown system                          
           1
     5.142081    0.000000    0.000000
     2.571040    4.453172    0.000000
     0.000000    0.000000   24.198491
   Cu   O 
  12   1
Direct configuration=     1
   0.16666667  0.16666667  0.41324891
   0.66666667  0.16666667  0.41324891
   0.16666667  0.66666667  0.41324891
   0.66666667  0.66666667  0.41324891
   0.83333333  0.33333333  0.50000000
   0.33333333  0.33333333  0.50000000
   0.83333333  0.83333333  0.50000000
   0.33333333  0.83333333  0.50000000
   0.00000000  0.00000000  0.58675109
   0.50000000  0.00000000  0.58675109
   0.00000000  0.50000000  0.58675109
   0.50000000  0.50000000  0.58675109
   0.16666667  0.16666667  0.63634096
Direct configuration=     2
   0.16666667  0.16666667  0.41360787
   0.66653836  0.16692329  0.41333218
   0.16692329  0.66653836  0.41333218
   0.66653836  0.66653836  0.41333218
   0.83243818  0.33378091  0.49980218
   0.33378091  0.33378091  0.49980218
   0.83333333  0.83333333  0.50056395
   0.33378091  0.83243818  0.49980218
  -0.00283730 -0.00283730  0.58712945
   0.50567460 -0.00283730  0.58712945
  -0.00283730  0.50567460  0.58712945
   0.50000000  0.50000000  0.58584915
   0.16666667  0.16666667  0.63552858
Direct configuration=     3
   0.16666667  0.16666667  0.41401424
   0.66639310  0.16721379  0.41342645
   0.16721379  0.66639310  0.41342645
   0.66639310  0.66639310  0.41342645
   0.83142480  0.33428760  0.49957823
   0.33428760  0.33428760  0.49957823
   0.83333333  0.83333333  0.50120239
   0.33428760  0.83142480  0.49957823
  -0.00604930 -0.00604930  0.58755777
   0.51209861 -0.00604930  0.58755777
  -0.00604930  0.51209861  0.58755777
   0.50000000  0.50000000  0.58482810
   0.16666667  0.16666667  0.63460890
Direct configuration=     4
   0.16666667  0.16666667  0.41440065
   0.66658934  0.16682131  0.41355900
   0.16682131  0.66658934  0.41355900
   0.66658934  0.66658934  0.41355900
   0.83189287  0.33405356  0.49951160
   0.33405356  0.33405356  0.49951160
   0.83333333  0.83333333  0.50145747
   0.33405356  0.83189287  0.49951160
  -0.00582336 -0.00582336  0.58816478
   0.51164673 -0.00582336  0.58816478
  -0.00582336  0.51164673  0.58816478
   0.50000000  0.50000000  0.58373850
   0.16666667  0.16666667  0.63303822
Direct configuration=     5
   0.16666667  0.16666667  0.41441400
   0.66659612  0.16680775  0.41356357
   0.16680775  0.66659612  0.41356357
   0.66659612  0.66659612  0.41356357
   0.83190904  0.33404548  0.49950930
   0.33404548  0.33404548  0.49950930
   0.83333333  0.83333333  0.50146628
   0.33404548  0.83190904  0.49950930
  -0.00581556 -0.00581556  0.58818574
   0.51163112 -0.00581556  0.58818574
  -0.00581556  0.51163112  0.58818574
   0.50000000  0.50000000  0.58370086
   0.16666667  0.16666667  0.63298396
Direct configuration=     6
   0.16666667  0.16666667  0.41468896
   0.66682489  0.16635021  0.41370986
   0.16635021  0.66682489  0.41370986
   0.66682489  0.66682489  0.41370986
   0.83282400  0.33358800  0.49950519
   0.33358800  0.33358800  0.49950519
   0.83333333  0.83333333  0.50168310
   0.33358800  0.83282400  0.49950519
  -0.00649714 -0.00649714  0.58827538
   0.51299429 -0.00649714  0.58827538
  -0.00649714  0.51299429  0.58827538
   0.50000000  0.50000000  0.58273074
   0.16666667  0.16666667  0.63276689
Direct configuration=     7
   0.16666667  0.16666667  0.41492575
   0.66702192  0.16595617  0.41383584
   0.16595617  0.66702192  0.41383584
   0.66702192  0.66702192  0.41383584
   0.83361199  0.33319401  0.49950165
   0.33319401  0.33319401  0.49950165
   0.83333333  0.83333333  0.50186983
   0.33319401  0.83361199  0.49950165
  -0.00708414 -0.00708414  0.58835257
   0.51416829 -0.00708414  0.58835257
  -0.00708414  0.51416829  0.58835257
   0.50000000  0.50000000  0.58189526
   0.16666667  0.16666667  0.63257994
Direct configuration=     8
   0.16666667  0.16666667  0.41493248
   0.66698519  0.16602962  0.41395872
   0.16602962  0.66698519  0.41395872
   0.66698519  0.66698519  0.41395872
   0.83397325  0.33301338  0.49943788
   0.33301338  0.33301338  0.49943788
   0.83333333  0.83333333  0.50190614
   0.33301338  0.83397325  0.49943788
  -0.00669346 -0.00669346  0.58830120
   0.51338692 -0.00669346  0.58830120
  -0.00669346  0.51338692  0.58830120
   0.50000000  0.50000000  0.58160975
   0.16666667  0.16666667  0.63279918
Direct configuration=     9
   0.16666667  0.16666667  0.41493904
   0.66694941  0.16610118  0.41407842
   0.16610118  0.66694941  0.41407842
   0.66694941  0.66694941  0.41407842
   0.83432518  0.33283741  0.49937576
   0.33283741  0.33283741  0.49937576
   0.83333333  0.83333333  0.50194151
   0.33283741  0.83432518  0.49937576
  -0.00631287 -0.00631287  0.58825117
   0.51262574 -0.00631287  0.58825117
  -0.00631287  0.51262574  0.58825117
   0.50000000  0.50000000  0.58133162
   0.16666667  0.16666667  0.63301274
Direct configuration=    10
   0.16666667  0.16666667  0.41481258
   0.66695876  0.16608247  0.41410345
   0.16608247  0.66695876  0.41410345
   0.66695876  0.66695876  0.41410345
   0.83420773  0.33289613  0.49933746
   0.33289613  0.33289613  0.49933746
   0.83333333  0.83333333  0.50200271
   0.33289613  0.83420773  0.49933746
  -0.00640570 -0.00640570  0.58820520
   0.51281140 -0.00640570  0.58820520
  -0.00640570  0.51281140  0.58820520
   0.50000000  0.50000000  0.58132557
   0.16666667  0.16666667  0.63326180
Direct configuration=    11
   0.16666667  0.16666667  0.41486685
   0.66695475  0.16609050  0.41409271
   0.16609050  0.66695475  0.41409271
   0.66695475  0.66695475  0.41409271
   0.83425813  0.33287094  0.49935389
   0.33287094  0.33287094  0.49935389
   0.83333333  0.83333333  0.50197645
   0.33287094  0.83425813  0.49935389
  -0.00636587 -0.00636587  0.58822492
   0.51273173 -0.00636587  0.58822492
  -0.00636587  0.51273173  0.58822492
   0.50000000  0.50000000  0.58132817
   0.16666667  0.16666667  0.63315493
