----- GAMESS execution script 'rungms' -----
This job is running on host crcfe02.crc.nd.edu
under operating system Linux at Sun Sep 29 10:53:54 EDT 2019
Available scratch disk space (Kbyte units) at beginning of the job is
Filesystem      1K-blocks  Used  Available Use% Mounted on
AFS            2147483647     0 2147483647   0% /afs
GAMESS temporary binary files will be written to /afs/crc.nd.edu/user/c/cdrisko
GAMESS supplementary output files will be written to /afs/crc.nd.edu/user/c/cdrisko/scr
Copying input file SO2.inp to your run's scratch directory...

 Distributed Data Interface kickoff program.
 Initiating 1 compute processes on 1 nodes to run the following command:
 /afs/crc.nd.edu/x86_64_linux/g/gamess/nov-2017/gamess/gamess.00.x SO2 

          ******************************************************
          *         GAMESS VERSION = 11 NOV 2017 (R3)         *
          *             FROM IOWA STATE UNIVERSITY             *
          * M.W.SCHMIDT, K.K.BALDRIDGE, J.A.BOATZ, S.T.ELBERT, *
          *   M.S.GORDON, J.H.JENSEN, S.KOSEKI, N.MATSUNAGA,   *
          *          K.A.NGUYEN, S.J.SU, T.L.WINDUS,           *
          *       TOGETHER WITH M.DUPUIS, J.A.MONTGOMERY       *
          *         J.COMPUT.CHEM.  14, 1347-1363(1993)        *
          **************** 64 BIT INTEL VERSION ****************

  SINCE 1993, STUDENTS AND POSTDOCS WORKING AT IOWA STATE UNIVERSITY
  AND ALSO IN THEIR VARIOUS JOBS AFTER LEAVING ISU HAVE MADE IMPORTANT
  CONTRIBUTIONS TO THE CODE:
     IVANA ADAMOVIC, CHRISTINE AIKENS, YURI ALEXEEV, POOJA ARORA,
     ANDREY ASADCHEV, ROB BELL, PRADIPTA BANDYOPADHYAY, JONATHAN BENTZ,
     BRETT BODE, KURT BRORSEN, CALEB CARLIN, GALINA CHABAN, WEI CHEN,
     CHEOL HO CHOI, PAUL DAY, ALBERT DEFUSCO, NUWAN DESILVA, TIM DUDLEY,
     DMITRI FEDOROV, ALEX FINDLATER, GRAHAM FLETCHER, MARK FREITAG,
     KURT GLAESEMANN, ANASTASIA GUININA,
     DAN KEMP, GRANT MERRILL, NORIYUKI MINEZAWA, JONATHAN MULLIN,
     TAKESHI NAGATA, SEAN NEDD, HEATHER NETZLOFF, BOSILJKA NJEGIC, RYAN OLSON,
     MIKE PAK, BUU PHAM,
     SPENCER PRUITT, LUKE ROSKOP, JIM SHOEMAKER, LYUDMILA SLIPCHENKO,
     TONY SMITH, SAROM SOK LEANG, JIE SONG, TETSUYA TAKETSUGU, SIMON WEBB,
     PENG XU, SOOHAENG YOO, FEDERICO ZAHARIEV

  ADDITIONAL CODE HAS BEEN PROVIDED BY COLLABORATORS IN OTHER GROUPS:
     IOWA STATE UNIVERSITY:
          JOE IVANIC, AARON WEST, LAIMUTIS BYTAUTAS, KLAUS RUEDENBERG
     UNIVERSITY OF TOKYO: KIMIHIKO HIRAO, TAKAHITO NAKAJIMA,
          TAKAO TSUNEDA, MUNEAKI KAMIYA, SUSUMU YANAGISAWA,
          KIYOSHI YAGI, MAHITO CHIBA, SEIKEN TOKURA, NAOAKI KAWAKAMI
     UNIVERSITY OF AARHUS: FRANK JENSEN
     UNIVERSITY OF IOWA: VISVALDAS KAIRYS, HUI LI
     NATIONAL INST. OF STANDARDS AND TECHNOLOGY: WALT STEVENS, DAVID GARMER
     UNIVERSITY OF PISA: BENEDETTA MENNUCCI, JACOPO TOMASI
     UNIVERSITY OF MEMPHIS: HENRY KURTZ, PRAKASHAN KORAMBATH
     UNIVERSITY OF ALBERTA: TOBY ZENG, MARIUSZ KLOBUKOWSKI
     UNIVERSITY OF NEW ENGLAND: MARK SPACKMAN
     MIE UNIVERSITY: HIROAKI UMEDA
     NAT. INST. OF ADVANCED INDUSTRIAL SCIENCE AND TECHNOLOGY: KAZUO KITAURA
     MICHIGAN STATE UNIVERSITY:
          KAROL KOWALSKI, MARTA WLOCH, JEFFREY GOUR, JESSE LUTZ,
          WEI LI, PIOTR PIECUCH
     UNIVERSITY OF SILESIA: MONIKA MUSIAL, STANISLAW KUCHARSKI
     FACULTES UNIVERSITAIRES NOTRE-DAME DE LA PAIX:
          OLIVIER QUINET, BENOIT CHAMPAGNE
     UNIVERSITY OF CALIFORNIA - SANTA BARBARA: BERNARD KIRTMAN
     INSTITUTE FOR MOLECULAR SCIENCE:
          KAZUYA ISHIMURA, MICHIO KATOUDA, AND SHIGERU NAGASE
     UNIVERSITY OF NOTRE DAME: ANNA POMOGAEVA, DAN CHIPMAN
     KYUSHU UNIVERSITY:
          HARUYUKI NAKANO,
          FENG LONG GU, JACEK KORCHOWIEC, MARCIN MAKOWSKI, AND YURIKO AOKI,
          HIROTOSHI MORI AND EISAKU MIYOSHI
     PENNSYLVANIA STATE UNIVERSITY:
          TZVETELIN IORDANOV, CHET SWALINA, JONATHAN SKONE,
          SHARON HAMMES-SCHIFFER
     WASEDA UNIVERSITY:
          MASATO KOBAYASHI, TOMOKO AKAMA, TSUGUKI TOUMA,
          TAKESHI YOSHIKAWA, YASUHIRO IKABATA, JUNJI SEINO,
          YUYA NAKAJIMA, HIROMI NAKAI
     NANJING UNIVERSITY: SHUHUA LI
     UNIVERSITY OF NEBRASKA:
          PEIFENG SU, DEJUN SI, NANDUN THELLAMUREGE, YALI WANG, HUI LI
     UNIVERSITY OF ZURICH: ROBERTO PEVERATI, KIM BALDRIDGE
     N. COPERNICUS UNIVERSITY AND JACKSON STATE UNIVERSITY:
          MARIA BARYSZ
     UNIVERSITY OF COPENHAGEN: Jimmy Kromann, CASPER STEINMANN
     TOKYO INSTITUTE OF TECHNOLOGY: HIROYA NAKATA
     NAGOYA UNIVERSITY: YOSHIO NISHIMOTO, STEPHAN IRLE
     MOSCOW STATE UNIVERSITY: VLADIMIR MIRONOV

 EXECUTION OF GAMESS BEGUN Sun Sep 29 10:53:54 2019

            ECHO OF THE FIRST FEW INPUT CARDS -
 INPUT CARD> $BASIS GBASIS=PCSEG-1 $END                                                     
 INPUT CARD> $CONTRL COORD=ZMT ISPHER=1 RUNTYP=ENERGY DFTTYP=PBE MULT=1 $END                
 INPUT CARD>                                                                                
 INPUT CARD> $DATA                                                                          
 INPUT CARD>Title SO2 single-point calculation template with Z-Matrix                       
 INPUT CARD>C1                                                                              
 INPUT CARD>S                                                                               
 INPUT CARD>O 1 1.70                                                                        
 INPUT CARD>O 1 1.70 2 105                                                                  
 INPUT CARD> $END                                                                           
    1000000 WORDS OF MEMORY AVAILABLE

     BASIS OPTIONS
     -------------
     GBASIS=PCSEG-1      IGAUSS=       0      POLAR=NONE    
     NDFUNC=       0     NFFUNC=       0     DIFFSP=       F
     NPFUNC=       0      DIFFS=       F     BASNAM=        


     RUN TITLE
     ---------
 Title SO2 single-point calculation template with Z-Matrix                       

 THE POINT GROUP OF THE MOLECULE IS C1      
 THE ORDER OF THE PRINCIPAL AXIS IS     0

 YOUR FULLY SUBSTITUTED Z-MATRIX IS
 S   
 O      1   1.7000000
 O      1   1.7000000  2  105.0000

 THE MOMENTS OF INERTIA ARE (AMU-ANGSTROM**2)
 IXX=    17.126   IYY=    58.189   IZZ=    75.315

 ATOM      ATOMIC                      COORDINATES (BOHR)
           CHARGE         X                   Y                   Z
 S          16.0     0.0000000000       -0.9781048064        0.0000000000
 O           8.0     2.5486747218        0.9775620912        0.0000000000
 O           8.0    -2.5486747218        0.9775620912        0.0000000000

          INTERNUCLEAR DISTANCES (ANGS.)
          ------------------------------

                1 S          2 O          3 O     

   1 S       0.0000000    1.7000000 *  1.7000000 *
   2 O       1.7000000 *  0.0000000    2.6974014 *
   3 O       1.7000000 *  2.6974014 *  0.0000000  

  * ... LESS THAN  3.000


     ATOMIC BASIS SET
     ----------------
 THE CONTRACTED PRIMITIVE FUNCTIONS HAVE BEEN UNNORMALIZED
 THE CONTRACTED BASIS FUNCTIONS ARE NOW NORMALIZED TO UNITY

  SHELL TYPE  PRIMITIVE        EXPONENT          CONTRACTION COEFFICIENT(S)

 S         

      1   S       1         49299.4000000    0.000677492991
      1   S       2          7395.8400000    0.005232317766
      1   S       3          1683.3000000    0.026769459077
      1   S       4           476.1440000    0.102869580705
      1   S       5           154.3290000    0.286438127414
      1   S       6            55.0288000    0.454278639081
      1   S       7            20.5029000    0.271743121997

      2   S       8            45.9596000   -0.088421914560
      2   S       9             4.9274000    0.564350486135
      2   S      10             1.9179900    0.505415953466

      3   S      11             0.3684980    1.000000000000

      4   S      12             0.1291650    1.000000000000

      5   P      13           451.6620000    0.003707705453
      5   P      14           106.0980000    0.029219352245
      5   P      15            33.6996000    0.124444551509
      5   P      16            12.3054000    0.321808587656
      5   P      17             4.7141200    0.462822172957
      5   P      18             1.7810500    0.266513371364

      6   P      19             0.8722350    0.349265132972
      6   P      20             0.3102780    0.717115018770

      7   P      21             0.1001940    1.000000000000

      8   D      22             0.5500000    1.000000000000

 O         

      9   S      23          2288.6400000    0.005451138222
      9   S      24           344.4160000    0.040718922842
      9   S      25            78.2538000    0.181369420873
      9   S      26            21.7195000    0.465536820246
      9   S      27             6.5590700    0.451211321214

     10   S      28            10.4656000   -0.150211201174
     10   S      29             0.9643510    1.052867983385

     11   S      30             0.2851270    1.000000000000

     12   P      31            17.0590000    0.068749256972
     12   P      32             3.6899900    0.351671941499
     12   P      33             0.9929960    0.724532099722

     13   P      34             0.2449240    1.000000000000

     14   D      35             1.0000000    1.000000000000

 O         

     15   S      36          2288.6400000    0.005451138222
     15   S      37           344.4160000    0.040718922842
     15   S      38            78.2538000    0.181369420873
     15   S      39            21.7195000    0.465536820246
     15   S      40             6.5590700    0.451211321214

     16   S      41            10.4656000   -0.150211201174
     16   S      42             0.9643510    1.052867983385

     17   S      43             0.2851270    1.000000000000

     18   P      44            17.0590000    0.068749256972
     18   P      45             3.6899900    0.351671941499
     18   P      46             0.9929960    0.724532099722

     19   P      47             0.2449240    1.000000000000

     20   D      48             1.0000000    1.000000000000

 TOTAL NUMBER OF BASIS SET SHELLS             =   20
 NUMBER OF CARTESIAN GAUSSIAN BASIS FUNCTIONS =   49
 NOTE: THIS RUN WILL RESTRICT THE MO VARIATION SPACE TO SPHERICAL HARMONICS.
 THE NUMBER OF ORBITALS KEPT IN THE VARIATIONAL SPACE WILL BE PRINTED LATER.
 NUMBER OF ELECTRONS                          =   32
 CHARGE OF MOLECULE                           =    0
 SPIN MULTIPLICITY                            =    1
 NUMBER OF OCCUPIED ORBITALS (ALPHA)          =   16
 NUMBER OF OCCUPIED ORBITALS (BETA )          =   16
 TOTAL NUMBER OF ATOMS                        =    3
 THE NUCLEAR REPULSION ENERGY IS       92.2434130580

     LEBEDEV GRID-BASED DFT OPTIONS
     ------------------------------
     DFTTYP=PBE     
     NRAD  =      96     NLEB  =     302
     NRAD0 =      24     NLEB0 =     110
     SWOFF =    5.00E-03 (PURE SCF -> DFT)
     SWITCH=    3.00E-04 (COARSE -> TIGHT GRID)
     THRESH=    0.00E+00 GTHRE=    1.00E+00

 GRIMME'S EMPIRICAL DISPERSION CORRECTION= F

     $CONTRL OPTIONS
     ---------------
 SCFTYP=RHF          RUNTYP=ENERGY       EXETYP=RUN     
 MPLEVL=       0     CITYP =NONE         CCTYP =NONE         VBTYP =NONE    
 DFTTYP=PBE          TDDFT =NONE    
 MULT  =       1     ICHARG=       0     NZVAR =       0     COORD =ZMT     
 PP    =NONE         RELWFN=NONE         LOCAL =NONE         NUMGRD=       F
 ISPHER=       1     NOSYM =       0     MAXIT =      30     UNITS =ANGS    
 PLTORB=       F     MOLPLT=       F     AIMPAC=       F     FRIEND=        
 NPRINT=       7     IREST =       0     GEOM  =INPUT   
 NORMF =       0     NORMP =       0     ITOL  =      20     ICUT  =       9
 INTTYP=BEST         GRDTYP=BEST         QMTTOL= 1.0E-06

     $SYSTEM OPTIONS
     ---------------
  REPLICATED MEMORY=     1000000 WORDS (ON EVERY NODE).
 DISTRIBUTED MEMDDI=           0 MILLION WORDS IN AGGREGATE,
 MEMDDI DISTRIBUTED OVER   1 PROCESSORS IS           0 WORDS/PROCESSOR.
 TOTAL MEMORY REQUESTED ON EACH PROCESSOR=     1000000 WORDS.
 TIMLIM=      525600.00 MINUTES, OR     365.0 DAYS.
 PARALL= F  BALTYP=  DLB     KDIAG=    0  COREFL= F
 MXSEQ2=     300 MXSEQ3=     150  mem10=         0

          ----------------
          PROPERTIES INPUT
          ----------------

     MOMENTS            FIELD           POTENTIAL          DENSITY
 IEMOM =       1   IEFLD =       0   IEPOT =       0   IEDEN =       0
 WHERE =COMASS     WHERE =NUCLEI     WHERE =NUCLEI     WHERE =NUCLEI  
 OUTPUT=BOTH       OUTPUT=BOTH       OUTPUT=BOTH       OUTPUT=BOTH    
 IEMINT=       0   IEFINT=       0                     IEDINT=       0
                                                       MORB  =       0
          EXTRAPOLATION IN EFFECT
          DIIS IN EFFECT
 ORBITAL PRINTING OPTION: NPREO=     1    49     2     1

     -------------------------------
     INTEGRAL TRANSFORMATION OPTIONS
     -------------------------------
     NWORD  =            0
     CUTOFF = 1.0E-09     MPTRAN =       0
     DIRTRF =       F     AOINTS =DUP     

          ----------------------
          INTEGRAL INPUT OPTIONS
          ----------------------
 NOPK  =       1 NORDER=       0 SCHWRZ=       F

   --- ENCODED Z MATRIX ---
 COORD  TYPE   I   J   K   L   M   N
    1      1    2   1
    2      1    3   1
    3      2    3   1   2

 THE DETERMINANT OF THE G MATRIX IS 10**(    -4)

 THE DETERMINANT OF THE G MATRIX IS 10**(    -4)
 * * * WARNING * * *
 YOUR B MATRIX HAS A SMALL DETERMINANT.
 THIS SUGGESTS YOU MAY HAVE BADLY CHOSEN COORDINATES.

     ------------------------------------------
     THE POINT GROUP IS C1 , NAXIS= 0, ORDER= 1
     ------------------------------------------

 -- VARIATIONAL SPACE WILL BE RESTRICTED TO PURE SPHERICAL HARMONICS ONLY --
 AFTER EXCLUDING CONTAMINANT COMBINATIONS FROM THE CARTESIAN GAUSSIAN BASIS
 SET, THE NUMBER OF SPHERICAL HARMONICS KEPT IN THE VARIATION SPACE IS   46

     DIMENSIONS OF THE SYMMETRY SUBSPACES ARE
 A   =   46

 ..... DONE SETTING UP THE RUN .....
 STEP CPU TIME =     0.04 TOTAL CPU TIME =          0.0 (      0.0 MIN)
 TOTAL WALL CLOCK TIME=          0.0 SECONDS, CPU UTILIZATION IS    80.00%

          ********************
          1 ELECTRON INTEGRALS
          ********************
 ...... END OF ONE-ELECTRON INTEGRALS ......
 STEP CPU TIME =     0.00 TOTAL CPU TIME =          0.0 (      0.0 MIN)
 TOTAL WALL CLOCK TIME=          0.0 SECONDS, CPU UTILIZATION IS    80.00%

          -------------
          GUESS OPTIONS
          -------------
          GUESS =HUCKEL            NORB  =       0          NORDER=       0
          MIX   =       F          PRTMO =       F          PUNMO =       F
          TOLZ  = 1.0E-08          TOLE  = 1.0E-05
          SYMDEN=       F          PURIFY=       F

 INITIAL GUESS ORBITALS GENERATED BY HUCKEL   ROUTINE.
 HUCKEL GUESS REQUIRES     21634 WORDS.

 STATISTICS FOR GENERATION OF SYMMETRY ORBITAL -Q- MATRIX
 NUMBER OF CARTESIAN ATOMIC ORBITALS=         49
 NUMBER OF SPHERICAL CONTAMINANTS DROPPED=     3
 NUMBER OF LINEARLY DEPENDENT MOS DROPPED=     0
 TOTAL NUMBER OF MOS IN VARIATION SPACE=      46

 SYMMETRIES FOR INITIAL GUESS ORBITALS FOLLOW.   BOTH SET(S).
    16 ORBITALS ARE OCCUPIED (    7 CORE ORBITALS).
     8=A        9=A       10=A       11=A       12=A       13=A       14=A   
    15=A       16=A       17=A       18=A       19=A       20=A       21=A   
    22=A       23=A       24=A       25=A       26=A   
 ...... END OF INITIAL ORBITAL SELECTION ......
 STEP CPU TIME =     0.01 TOTAL CPU TIME =          0.0 (      0.0 MIN)
 TOTAL WALL CLOCK TIME=          0.0 SECONDS, CPU UTILIZATION IS   100.00%

                    ----------------------
                    AO INTEGRAL TECHNOLOGY
                    ----------------------
     S,P,L SHELL ROTATED AXIS INTEGRALS, REPROGRAMMED BY
        KAZUYA ISHIMURA (IMS) AND JOSE SIERRA (SYNSTAR).
     S,P,D,L SHELL ROTATED AXIS INTEGRALS PROGRAMMED BY
        KAZUYA ISHIMURA (INSTITUTE FOR MOLECULAR SCIENCE).
     S,P,D,F,G SHELL TO TOTAL QUARTET ANGULAR MOMENTUM SUM 5,
        ERIC PROGRAM BY GRAHAM FLETCHER (ELORET AND NASA ADVANCED
        SUPERCOMPUTING DIVISION, AMES RESEARCH CENTER).
     S,P,D,F,G,L SHELL GENERAL RYS QUADRATURE PROGRAMMED BY
        MICHEL DUPUIS (PACIFIC NORTHWEST NATIONAL LABORATORY).

          --------------------
          2 ELECTRON INTEGRALS
          --------------------

 THE -PK- OPTION IS OFF, THE INTEGRALS ARE NOT IN SUPERMATRIX FORM.
 STORING   15000 INTEGRALS/RECORD ON DISK, USING 12 BYTES/INTEGRAL.
 TWO ELECTRON INTEGRAL EVALUATION REQUIRES   90606 WORDS OF MEMORY.
 II,JST,KST,LST =  1  1  1  1 NREC =         1 INTLOC =    1
 II,JST,KST,LST =  2  1  1  1 NREC =         1 INTLOC =    2
 II,JST,KST,LST =  3  1  1  1 NREC =         1 INTLOC =    7
 II,JST,KST,LST =  4  1  1  1 NREC =         1 INTLOC =   22
 II,JST,KST,LST =  5  1  1  1 NREC =         1 INTLOC =   56
 II,JST,KST,LST =  6  1  1  1 NREC =         1 INTLOC =  125
 II,JST,KST,LST =  7  1  1  1 NREC =         1 INTLOC =  329
 II,JST,KST,LST =  8  1  1  1 NREC =         1 INTLOC =  776
 II,JST,KST,LST =  9  1  1  1 NREC =         1 INTLOC = 2864
 II,JST,KST,LST = 10  1  1  1 NREC =         1 INTLOC = 4843
 II,JST,KST,LST = 11  1  1  1 NREC =         1 INTLOC = 7493
 II,JST,KST,LST = 12  1  1  1 NREC =         1 INTLOC =10600
 II,JST,KST,LST = 13  1  1  1 NREC =         2 INTLOC = 6441
 II,JST,KST,LST = 14  1  1  1 NREC =         3 INTLOC = 6666
 II,JST,KST,LST = 15  1  1  1 NREC =         6 INTLOC = 8476
 II,JST,KST,LST = 16  1  1  1 NREC =         7 INTLOC =  342
 II,JST,KST,LST = 17  1  1  1 NREC =         7 INTLOC =11770
 II,JST,KST,LST = 18  1  1  1 NREC =         8 INTLOC =10111
 II,JST,KST,LST = 19  1  1  1 NREC =        11 INTLOC = 4365
 II,JST,KST,LST = 20  1  1  1 NREC =        14 INTLOC =11208
 TOTAL NUMBER OF NONZERO TWO-ELECTRON INTEGRALS =              336174
         23 INTEGRAL RECORDS WERE STORED ON DISK FILE  8.
  ...... END OF TWO-ELECTRON INTEGRALS .....
 STEP CPU TIME =     0.10 TOTAL CPU TIME =          0.2 (      0.0 MIN)
 TOTAL WALL CLOCK TIME=          0.2 SECONDS, CPU UTILIZATION IS    93.75%

          --------------------------
               R-PBE SCF CALCULATION
          --------------------------

     NUCLEAR ENERGY =        92.2434130580
     MAXIT =   30     NPUNCH=    2
     EXTRAP=T  DAMP=F  SHIFT=F  RSTRCT=F  DIIS=T  DEM=F  SOSCF=F
         DENSITY MATRIX CONVERGENCE THRESHOLD=  1.00E-05
     COARSE -> FINE DFT GRID SWITCH THRESHOLD=  3.00E-04 (SWITCH IN $DFT)
                   HF -> DFT SWITCH THRESHOLD=  5.00E-03 (SWOFF IN $DFT)
     MEMORY REQUIRED FOR RHF ITERS=    183108 WORDS.

 DFT CODE IS SWITCHING FROM THE FINE GRID NRAD= 96,  NLEB=  302
                      TO THE COARSE GRID NRAD0= 24, NLEB0=  110

     EXCHANGE FUNCTIONAL   =PBE       
     CORRELATION FUNCTIONAL=PBE       
     DFT THRESHOLD         =.460E-07
     GRID CHANGE THRESHOLD =.300E-03
 FOR AN EULER-MACLAURIN QUADRATURE USING  96 RADIAL POINTS:
 SMALLEST GAUSSIAN PRIMITIVE EXPONENT=        0.1001940000 OF TYPE -P-
 ON ATOM NUMBER   1 HAS RADIAL NORMALIZATION=  1.000000
  LARGEST GAUSSIAN PRIMITIVE EXPONENT=    49299.4000000000 OF TYPE -S-
 ON ATOM NUMBER   1 HAS RADIAL NORMALIZATION=  1.000000
 DFT IS SWITCHED OFF, PERFORMING PURE SCF UNTIL SWOFF THRESHOLD IS REACHED.

 ITER EX DEM     TOTAL ENERGY        E CHANGE  DENSITY CHANGE    DIIS ERROR
   1  0  0     -545.9617012515  -545.9617012515   0.751661711   0.911750148
          * * *   INITIATING DIIS PROCEDURE   * * *
   2  1  0     -546.3904714434    -0.4287701919   0.846311939   0.376462017
   3  2  0     -546.3217526029     0.0687188405   0.350524120   0.419475924
   4  3  0     -546.9681308457    -0.6463782427   0.033553055   0.010569010
   5  4  0     -546.9695131050    -0.0013822593   0.010208562   0.009162194
   6  5  0     -546.9698407950    -0.0003276900   0.005582858   0.003168099
   7  6  0     -546.9699275700    -0.0000867750   0.003267367   0.000896556
 CONVERGED TO SWOFF, SO DFT CALCULATION IS NOW SWITCHED ON.
          * * *   INITIATING DIIS PROCEDURE   * * *
   8  7  0     -548.1337504701    -1.1638229001   0.510201797   0.100778374
   9  8  0     -548.1030580260     0.0306924442   0.457315279   0.161081542
  10  9  0     -548.1197088330    -0.0166508071   0.140038373   0.151392636
  11 10  0     -548.1794448205    -0.0597359875   0.031220634   0.014612794
  12 11  0     -548.1802368127    -0.0007919922   0.002226173   0.001404356
  13 12  0     -548.1802435559    -0.0000067432   0.000785995   0.000567701
  14 13  0     -548.1802436362    -0.0000000802   0.000526059   0.000713658
  15 14  0     -548.1802443844    -0.0000007483   0.000106533   0.000140161
 DFT CODE IS SWITCHING BACK TO THE FINE GRID
          * * *   INITIATING DIIS PROCEDURE   * * *
  16 15  0     -548.1896256822    -0.0093812978   0.023697778   0.015417616
  17 16  0     -548.1896905670    -0.0000648848   0.033332057   0.009817688
  18 17  0     -548.1892933020     0.0003972650   0.021798837   0.016459445
  19 18  0     -548.1899788800    -0.0006855780   0.000683679   0.000577085
  20 19  0     -548.1899795396    -0.0000006596   0.000841227   0.000272102
  21 20  0     -548.1899778816     0.0000016580   0.000676948   0.001096530
  22 21  0     -548.1899797059    -0.0000018243   0.000047940   0.000012722
  23 22  0     -548.1899797068    -0.0000000009   0.000009173   0.000005576
  24 23  0     -548.1899797069    -0.0000000001   0.000000360   0.000000225

          -----------------
          DENSITY CONVERGED
          -----------------
     TIME TO FORM FOCK OPERATORS=       2.5 SECONDS (       0.1 SEC/ITER)
     TIME TO SOLVE SCF EQUATIONS=       0.0 SECONDS (       0.0 SEC/ITER)

 FINAL R-PBE ENERGY IS     -548.1899797069 AFTER  24 ITERATIONS
 DFT EXCHANGE + CORRELATION ENERGY =       -42.2564225909
 TOTAL ELECTRON NUMBER             =        31.9999893155

          ------------
          EIGENVECTORS
          ------------

                      1          2          3          4          5
                  -88.2305   -18.8176   -18.8176    -7.8456    -5.8716
                     A          A          A          A          A   
    1  S  1  S    0.997764  -0.000003  -0.000000  -0.308402  -0.000000
    2  S  1  S    0.008204  -0.000037  -0.000000   1.031818   0.000000
    3  S  1  S   -0.002846  -0.001247  -0.000003   0.027643   0.000000
    4  S  1  S    0.001088   0.007740   0.000020  -0.006018  -0.000000
    5  S  1  X   -0.000000   0.000000  -0.000134  -0.000000   0.994724
    6  S  1  Y    0.000109  -0.000198  -0.000001   0.008099  -0.000002
    7  S  1  Z    0.000000   0.000000   0.000000   0.000000   0.000000
    8  S  1  X    0.000000  -0.000004   0.001433  -0.000000   0.016942
    9  S  1  Y   -0.000240   0.001528   0.000004   0.000822  -0.000000
   10  S  1  Z    0.000000   0.000000   0.000000   0.000000   0.000000
   11  S  1  X    0.000000  -0.000008   0.002996  -0.000000  -0.002705
   12  S  1  Y    0.000056   0.003567   0.000009  -0.000169   0.000000
   13  S  1  Z    0.000000   0.000000   0.000000   0.000000   0.000000
   14  S  1 XX   -0.000087   0.000677   0.000002   0.000409  -0.000000
   15  S  1 YY   -0.000004   0.000301   0.000001  -0.000072  -0.000000
   16  S  1 ZZ    0.000091  -0.000977  -0.000003  -0.000336   0.000000
   17  S  1 XY    0.000000  -0.000002   0.000813  -0.000000   0.001103
   18  S  1 XZ    0.000000   0.000000   0.000000   0.000000   0.000000
   19  S  1 YZ    0.000000   0.000000   0.000000   0.000000   0.000000
   20  O  2  S   -0.000006   0.700542   0.704124   0.000023  -0.000059
   21  O  2  S   -0.000087   0.023743   0.023281  -0.000009  -0.000056
   22  O  2  S    0.000100  -0.011755  -0.009841  -0.000120  -0.000623
   23  O  2  X    0.000006  -0.000713  -0.000681   0.000165   0.000049
   24  O  2  Y    0.000013  -0.000496  -0.000594   0.000106   0.000083
   25  O  2  Z    0.000000   0.000000   0.000000   0.000000   0.000000
   26  O  2  X   -0.000200   0.002601   0.001451   0.000576   0.000829
   27  O  2  Y   -0.000177   0.001333   0.001550   0.000516   0.000706
   28  O  2  Z    0.000000   0.000000   0.000000   0.000000   0.000000
   29  O  2 XX    0.000081  -0.000217  -0.000102  -0.000171   0.000133
   30  O  2 YY    0.000011   0.000050  -0.000073  -0.000033  -0.000085
   31  O  2 ZZ   -0.000092   0.000168   0.000176   0.000203  -0.000048
   32  O  2 XY    0.000154  -0.000269  -0.000227  -0.000342   0.000049
   33  O  2 XZ    0.000000   0.000000   0.000000   0.000000   0.000000
   34  O  2 YZ    0.000000   0.000000   0.000000   0.000000   0.000000
   35  O  3  S   -0.000006   0.704141  -0.700525   0.000023   0.000059
   36  O  3  S   -0.000087   0.023862  -0.023159  -0.000009   0.000056
   37  O  3  S    0.000100  -0.011806   0.009781  -0.000120   0.000623
   38  O  3  X   -0.000006   0.000717  -0.000677  -0.000165   0.000049
   39  O  3  Y    0.000013  -0.000499   0.000592   0.000106  -0.000083
   40  O  3  Z    0.000000   0.000000   0.000000   0.000000   0.000000
   41  O  3  X    0.000200  -0.002609   0.001438  -0.000576   0.000829
   42  O  3  Y   -0.000177   0.001341  -0.001543   0.000516  -0.000706
   43  O  3  Z    0.000000   0.000000   0.000000   0.000000   0.000000
   44  O  3 XX    0.000081  -0.000218   0.000101  -0.000171  -0.000133
   45  O  3 YY    0.000011   0.000049   0.000074  -0.000033   0.000085
   46  O  3 ZZ   -0.000092   0.000169  -0.000175   0.000203   0.000048
   47  O  3 XY   -0.000154   0.000270  -0.000225   0.000342   0.000049
   48  O  3 XZ    0.000000   0.000000   0.000000   0.000000   0.000000
   49  O  3 YZ    0.000000   0.000000   0.000000   0.000000   0.000000

                      6          7          8          9         10
                   -5.8697    -5.8672    -0.9544    -0.8898    -0.6380
                     A          A          A          A          A   
    1  S  1  S    0.000000   0.002500   0.044964  -0.000000   0.073471
    2  S  1  S    0.000000  -0.008553  -0.278437   0.000001  -0.468747
    3  S  1  S    0.000000  -0.000576   0.396824  -0.000002   0.713448
    4  S  1  S    0.000000   0.001601   0.084331   0.000005   0.269521
    5  S  1  X    0.000000   0.000002   0.000000   0.085428   0.000000
    6  S  1  Y    0.000000   0.994855  -0.051917  -0.000000   0.038158
    7  S  1  Z    0.994980   0.000000   0.000000   0.000000   0.000000
    8  S  1  X    0.000000   0.000000  -0.000000  -0.195253  -0.000000
    9  S  1  Y    0.000000   0.016289   0.115678   0.000000  -0.090925
   10  S  1  Z    0.015871   0.000000   0.000000   0.000000   0.000000
   11  S  1  X    0.000000  -0.000000   0.000002   0.000327  -0.000002
   12  S  1  Y    0.000000  -0.002592  -0.012049   0.000003  -0.037986
   13  S  1  Z   -0.003148   0.000000   0.000000   0.000000   0.000000
   14  S  1 XX    0.000000   0.000026   0.024178   0.000000  -0.007213
   15  S  1 YY    0.000000   0.000537   0.002346   0.000000  -0.005447
   16  S  1 ZZ    0.000000  -0.000563  -0.026524  -0.000001   0.012660
   17  S  1 XY    0.000000   0.000000   0.000000  -0.057634  -0.000000
   18  S  1 XZ   -0.000000   0.000000   0.000000   0.000000   0.000000
   19  S  1 YZ    0.000386   0.000000   0.000000   0.000000   0.000000
   20  O  2  S    0.000000  -0.000049  -0.141001   0.168378   0.105820
   21  O  2  S    0.000000   0.000033   0.288332  -0.350764  -0.225710
   22  O  2  S    0.000000  -0.000719   0.282577  -0.345583  -0.273824
   23  O  2  X    0.000000   0.000043  -0.073393   0.056338  -0.077399
   24  O  2  Y    0.000000  -0.000008  -0.053370   0.051874  -0.069585
   25  O  2  Z   -0.000061   0.000000   0.000000   0.000000   0.000000
   26  O  2  X    0.000000   0.000758  -0.032897   0.021833  -0.035972
   27  O  2  Y    0.000000   0.000379  -0.024257   0.021833  -0.029859
   28  O  2  Z   -0.000053   0.000000   0.000000   0.000000   0.000000
   29  O  2 XX    0.000000  -0.000085   0.004824  -0.001868   0.001977
   30  O  2 YY    0.000000   0.000167  -0.000567   0.000055   0.001829
   31  O  2 ZZ    0.000000  -0.000082  -0.004257   0.001813  -0.003806
   32  O  2 XY    0.000000   0.000192   0.010478  -0.008254   0.004169
   33  O  2 XZ    0.000164   0.000000   0.000000   0.000000   0.000000
   34  O  2 YZ    0.000120   0.000000   0.000000   0.000000   0.000000
   35  O  3  S    0.000000  -0.000049  -0.141001  -0.168377   0.105820
   36  O  3  S    0.000000   0.000033   0.288332   0.350764  -0.225710
   37  O  3  S    0.000000  -0.000719   0.282582   0.345576  -0.273826
   38  O  3  X    0.000000  -0.000043   0.073393   0.056338   0.077399
   39  O  3  Y    0.000000  -0.000008  -0.053369  -0.051873  -0.069585
   40  O  3  Z   -0.000061   0.000000   0.000000   0.000000   0.000000
   41  O  3  X    0.000000  -0.000758   0.032898   0.021830   0.035973
   42  O  3  Y    0.000000   0.000379  -0.024258  -0.021832  -0.029858
   43  O  3  Z   -0.000053   0.000000   0.000000   0.000000   0.000000
   44  O  3 XX    0.000000  -0.000085   0.004824   0.001868   0.001977
   45  O  3 YY    0.000000   0.000167  -0.000567  -0.000055   0.001829
   46  O  3 ZZ    0.000000  -0.000082  -0.004257  -0.001813  -0.003806
   47  O  3 XY    0.000000  -0.000192  -0.010478  -0.008254  -0.004169
   48  O  3 XZ   -0.000164   0.000000   0.000000   0.000000   0.000000
   49  O  3 YZ    0.000120   0.000000   0.000000   0.000000   0.000000

                     11         12         13         14         15
                   -0.4267    -0.4079    -0.3980    -0.3022    -0.2918
                     A          A          A          A          A   
    1  S  1  S    0.000000  -0.010884   0.000000   0.000000   0.013820
    2  S  1  S   -0.000000   0.068921   0.000000   0.000000  -0.089749
    3  S  1  S    0.000000  -0.073848   0.000000   0.000000   0.115956
    4  S  1  S    0.000000  -0.205575   0.000000   0.000000   0.230782
    5  S  1  X   -0.193916  -0.000000   0.000000   0.000000  -0.000000
    6  S  1  Y    0.000000  -0.217884   0.000000   0.000000   0.062154
    7  S  1  Z    0.000000   0.000000  -0.224375   0.000000   0.000000
    8  S  1  X    0.523929   0.000001   0.000000   0.000000   0.000000
    9  S  1  Y   -0.000001   0.588412   0.000000   0.000000  -0.171163
   10  S  1  Z    0.000000   0.000000   0.611680  -0.000001   0.000000
   11  S  1  X    0.052700   0.000001   0.000000   0.000000   0.000002
   12  S  1  Y   -0.000000   0.110590   0.000000   0.000000   0.004095
   13  S  1  Z    0.000000   0.000000   0.186725  -0.000000   0.000000
   14  S  1 XX   -0.000000  -0.011441   0.000000   0.000000  -0.105316
   15  S  1 YY   -0.000000   0.034114   0.000000   0.000000   0.071140
   16  S  1 ZZ    0.000000  -0.022673   0.000000   0.000000   0.034176
   17  S  1 XY    0.047250   0.000000   0.000000   0.000000  -0.000001
   18  S  1 XZ    0.000000   0.000000  -0.000000  -0.083836   0.000000
   19  S  1 YZ    0.000000   0.000000   0.036530   0.000000   0.000000
   20  O  2  S    0.061338   0.036430   0.000000   0.000000  -0.001927
   21  O  2  S   -0.129995  -0.079412   0.000000   0.000000   0.007000
   22  O  2  S   -0.200592  -0.110704   0.000000   0.000000  -0.023871
   23  O  2  X   -0.225653  -0.304055   0.000000   0.000000  -0.079769
   24  O  2  Y   -0.268065  -0.011726   0.000000   0.000000   0.449162
   25  O  2  Z    0.000000   0.000000   0.281369  -0.474355   0.000000
   26  O  2  X   -0.122015  -0.188094   0.000000   0.000000  -0.059526
   27  O  2  Y   -0.151860  -0.002120   0.000000   0.000000   0.326892
   28  O  2  Z    0.000000   0.000000   0.174961  -0.336981   0.000000
   29  O  2 XX    0.001008   0.014131   0.000000   0.000000   0.008407
   30  O  2 YY    0.006094  -0.008234   0.000000   0.000000  -0.011806
   31  O  2 ZZ   -0.007102  -0.005896   0.000000   0.000000   0.003399
   32  O  2 XY    0.011231   0.005538   0.000000   0.000000  -0.009022
   33  O  2 XZ    0.000000   0.000000  -0.012891   0.011470   0.000000
   34  O  2 YZ    0.000000   0.000000  -0.009750   0.010624   0.000000
   35  O  3  S   -0.061338   0.036430   0.000000   0.000000  -0.001927
   36  O  3  S    0.129993  -0.079412   0.000000   0.000000   0.006999
   37  O  3  S    0.200593  -0.110702   0.000000   0.000000  -0.023869
   38  O  3  X   -0.225654   0.304055   0.000000   0.000000   0.079777
   39  O  3  Y    0.268066  -0.011726   0.000000   0.000000   0.449166
   40  O  3  Z    0.000000   0.000000   0.281370   0.474356   0.000000
   41  O  3  X   -0.122015   0.188095   0.000000   0.000000   0.059531
   42  O  3  Y    0.151860  -0.002120   0.000000   0.000000   0.326895
   43  O  3  Z    0.000000   0.000000   0.174962   0.336981   0.000000
   44  O  3 XX   -0.001008   0.014131   0.000000   0.000000   0.008407
   45  O  3 YY   -0.006094  -0.008234   0.000000   0.000000  -0.011807
   46  O  3 ZZ    0.007102  -0.005896   0.000000   0.000000   0.003399
   47  O  3 XY    0.011231  -0.005538   0.000000   0.000000   0.009022
   48  O  3 XZ    0.000000   0.000000   0.012891   0.011470   0.000000
   49  O  3 YZ    0.000000   0.000000  -0.009750  -0.010624   0.000000

                     16         17         18         19         20
                   -0.2766    -0.2192    -0.0853    -0.0685     0.2140
                     A          A          A          A          A   
    1  S  1  S   -0.000000   0.000000  -0.000001   0.032028   0.000000
    2  S  1  S    0.000001   0.000000   0.000005  -0.216163   0.000000
    3  S  1  S   -0.000003   0.000000  -0.000008   0.372198   0.000000
    4  S  1  S    0.000001   0.000000  -0.000011   0.411478   0.000000
    5  S  1  X   -0.017941   0.000000  -0.221158  -0.000005   0.000000
    6  S  1  Y   -0.000000   0.000000   0.000004  -0.197407   0.000000
    7  S  1  Z    0.000000  -0.212153   0.000000   0.000000   0.251521
    8  S  1  X    0.048380   0.000000   0.671162   0.000017   0.000000
    9  S  1  Y    0.000001   0.000000  -0.000014   0.607853   0.000000
   10  S  1  Z    0.000000   0.618146   0.000000   0.000000  -0.995463
   11  S  1  X    0.128920   0.000000   0.609972   0.000009   0.000000
   12  S  1  Y    0.000002   0.000000  -0.000012   0.546630   0.000000
   13  S  1  Z    0.000000   0.245419   0.000000   0.000000   1.304120
   14  S  1 XX    0.000001   0.000000   0.000001  -0.082426   0.000000
   15  S  1 YY   -0.000001   0.000000   0.000001  -0.061664   0.000000
   16  S  1 ZZ   -0.000000   0.000000  -0.000002   0.144090   0.000000
   17  S  1 XY   -0.075781   0.000000  -0.175255  -0.000003   0.000000
   18  S  1 XZ    0.000000  -0.000000   0.000000   0.000000   0.000000
   19  S  1 YZ    0.000000  -0.057883   0.000000   0.000000  -0.096352
   20  O  2  S    0.003621   0.000000   0.039508   0.046308   0.000000
   21  O  2  S   -0.006840   0.000000  -0.078288  -0.092857   0.000000
   22  O  2  S   -0.045243   0.000000  -0.311613  -0.331109   0.000000
   23  O  2  X    0.399619   0.000000   0.108382   0.366088   0.000000
   24  O  2  Y   -0.267547   0.000000   0.322611   0.096456   0.000000
   25  O  2  Z    0.000000  -0.395800   0.000000   0.000000  -0.052083
   26  O  2  X    0.272751   0.000000   0.103189   0.352845   0.000000
   27  O  2  Y   -0.180612   0.000000   0.280841   0.079331   0.000000
   28  O  2  Z    0.000000  -0.305508   0.000000   0.000000  -0.132115
   29  O  2 XX   -0.012232   0.000000  -0.002334   0.002894   0.000000
   30  O  2 YY    0.011862   0.000000   0.004392  -0.004961   0.000000
   31  O  2 ZZ    0.000370   0.000000  -0.002057   0.002068   0.000000
   32  O  2 XY   -0.000757   0.000000   0.001623   0.000008   0.000000
   33  O  2 XZ    0.000000   0.002989   0.000000   0.000000   0.011792
   34  O  2 YZ    0.000000   0.001524   0.000000   0.000000   0.007067
   35  O  3  S   -0.003620   0.000000  -0.039510   0.046306   0.000000
   36  O  3  S    0.006840   0.000000   0.078287  -0.092857   0.000000
   37  O  3  S    0.045241   0.000000   0.311632  -0.331095   0.000000
   38  O  3  X    0.399617   0.000000   0.108396  -0.366084   0.000000
   39  O  3  Y    0.267538   0.000000  -0.322615   0.096442   0.000000
   40  O  3  Z    0.000000  -0.395800   0.000000   0.000000  -0.052083
   41  O  3  X    0.272748   0.000000   0.103206  -0.352839   0.000000
   42  O  3  Y    0.180606   0.000000  -0.280846   0.079319   0.000000
   43  O  3  Z    0.000000  -0.305507   0.000000   0.000000  -0.132114
   44  O  3 XX    0.012232   0.000000   0.002334   0.002894   0.000000
   45  O  3 YY   -0.011861   0.000000  -0.004392  -0.004962   0.000000
   46  O  3 ZZ   -0.000370   0.000000   0.002057   0.002068   0.000000
   47  O  3 XY   -0.000757   0.000000   0.001623  -0.000007   0.000000
   48  O  3 XZ    0.000000  -0.002989   0.000000   0.000000  -0.011792
   49  O  3 YZ    0.000000   0.001524   0.000000   0.000000   0.007067

                     21         22         23         24         25
                    0.2171     0.2317     0.2469     0.4814     0.4873
                     A          A          A          A          A   
    1  S  1  S    0.018524   0.000002  -0.061888   0.000000  -0.000571
    2  S  1  S   -0.135978  -0.000018   0.458523   0.000000   0.004386
    3  S  1  S    0.462685   0.000072  -1.848854   0.000000  -0.010903
    4  S  1  S   -0.388037  -0.000090   2.245787   0.000000  -0.025047
    5  S  1  X   -0.000004   0.262574   0.000009   0.000000  -0.000000
    6  S  1  Y    0.255593   0.000002   0.031530   0.000000   0.036678
    7  S  1  Z    0.000000   0.000000   0.000000  -0.000000   0.000000
    8  S  1  X    0.000014  -1.025588  -0.000032   0.000000   0.000001
    9  S  1  Y   -0.998144  -0.000010  -0.123165   0.000000  -0.154202
   10  S  1  Z    0.000000   0.000000   0.000000   0.000000   0.000000
   11  S  1  X   -0.000018   1.455651   0.000052   0.000000  -0.000001
   12  S  1  Y    1.288049  -0.000009   0.661214   0.000000   0.102937
   13  S  1  Z    0.000000   0.000000   0.000000  -0.000000   0.000000
   14  S  1 XX    0.112094   0.000002  -0.063845   0.000000  -0.542918
   15  S  1 YY   -0.089703   0.000001  -0.080911   0.000000   0.820304
   16  S  1 ZZ   -0.022391  -0.000003   0.144755   0.000000  -0.277385
   17  S  1 XY    0.000001   0.035229   0.000004   0.000000   0.000000
   18  S  1 XZ    0.000000   0.000000   0.000000   0.893527   0.000000
   19  S  1 YZ    0.000000   0.000000   0.000000  -0.000003   0.000000
   20  O  2  S    0.001539   0.009940   0.031090   0.000000  -0.000504
   21  O  2  S    0.038753   0.028857  -0.039064   0.000000  -0.009116
   22  O  2  S   -0.220535  -0.397369  -0.515220   0.000000   0.013014
   23  O  2  X   -0.097978  -0.194093  -0.089239   0.000000   0.207578
   24  O  2  Y   -0.071657  -0.076810  -0.109177   0.000000  -0.295958
   25  O  2  Z    0.000000   0.000000   0.000000  -0.297490   0.000000
   26  O  2  X    0.041497  -0.065265   0.207983   0.000000  -0.131885
   27  O  2  Y   -0.107061   0.062994   0.073173   0.000000   0.120035
   28  O  2  Z    0.000000   0.000000   0.000000   0.143393   0.000000
   29  O  2 XX   -0.018079  -0.006857  -0.019684   0.000000   0.047117
   30  O  2 YY    0.011562  -0.007608  -0.003567   0.000000  -0.042469
   31  O  2 ZZ    0.006517   0.014465   0.023250   0.000000  -0.004648
   32  O  2 XY   -0.004669  -0.025546  -0.030106   0.000000  -0.023221
   33  O  2 XZ    0.000000   0.000000   0.000000  -0.034175   0.000000
   34  O  2 YZ    0.000000   0.000000   0.000000  -0.041076   0.000000
   35  O  3  S    0.001539  -0.009941   0.031091   0.000000  -0.000504
   36  O  3  S    0.038749  -0.028863  -0.039076   0.000000  -0.009116
   37  O  3  S   -0.220540   0.397414  -0.515180   0.000000   0.013015
   38  O  3  X    0.097981  -0.194102   0.089221   0.000000  -0.207578
   39  O  3  Y   -0.071660   0.076816  -0.109172   0.000000  -0.295958
   40  O  3  Z    0.000000   0.000000   0.000000   0.297492   0.000000
   41  O  3  X   -0.041493  -0.065244  -0.207980   0.000000   0.131885
   42  O  3  Y   -0.107061  -0.063004   0.073165   0.000000   0.120035
   43  O  3  Z    0.000000   0.000000   0.000000  -0.143394   0.000000
   44  O  3 XX   -0.018079   0.006858  -0.019683   0.000000   0.047117
   45  O  3 YY    0.011562   0.007608  -0.003566   0.000000  -0.042469
   46  O  3 ZZ    0.006518  -0.014466   0.023249   0.000000  -0.004648
   47  O  3 XY    0.004669  -0.025549   0.030104   0.000000   0.023221
   48  O  3 XZ    0.000000   0.000000   0.000000  -0.034175   0.000000
   49  O  3 YZ    0.000000   0.000000   0.000000   0.041077   0.000000

                     26         27         28         29         30
                    0.4892     0.6118     0.6747     0.7847     0.8078
                     A          A          A          A          A   
    1  S  1  S    0.000000   0.002026   0.000000   0.011366   0.000000
    2  S  1  S    0.000000  -0.018406  -0.000000  -0.094374   0.000000
    3  S  1  S    0.000000   0.247846   0.000001   0.391327   0.000000
    4  S  1  S    0.000000  -0.861918  -0.000006   0.082313   0.000000
    5  S  1  X    0.000000   0.000000  -0.089058   0.000000   0.000000
    6  S  1  Y    0.000000   0.058585   0.000000  -0.028485   0.000000
    7  S  1  Z    0.025976   0.000000   0.000000   0.000000  -0.000000
    8  S  1  X    0.000000  -0.000002   0.426149   0.000000   0.000000
    9  S  1  Y    0.000000  -0.251374  -0.000001   0.213656   0.000000
   10  S  1  Z   -0.107471   0.000000   0.000000   0.000000   0.000000
   11  S  1  X    0.000000  -0.000003   0.274514   0.000001   0.000000
   12  S  1  Y    0.000000  -0.273960  -0.000003   0.194741   0.000000
   13  S  1  Z    0.073136   0.000000   0.000000   0.000000  -0.000001
   14  S  1 XX    0.000000  -0.686428  -0.000001  -0.458234   0.000000
   15  S  1 YY    0.000000  -0.244085  -0.000001   0.329211   0.000000
   16  S  1 ZZ    0.000000   0.930513   0.000002   0.129022   0.000000
   17  S  1 XY    0.000000  -0.000003   0.908990   0.000001   0.000000
   18  S  1 XZ    0.000003   0.000000   0.000000   0.000000   0.463623
   19  S  1 YZ    0.914197   0.000000   0.000000   0.000000  -0.000000
   20  O  2  S    0.000000  -0.065705   0.074318   0.013004   0.000000
   21  O  2  S    0.000000   0.274932  -0.318102  -0.071826   0.000000
   22  O  2  S    0.000000   0.177812  -0.104186  -0.020970   0.000000
   23  O  2  X    0.000000   0.059679  -0.060128  -0.571947   0.000000
   24  O  2  Y    0.000000  -0.041576  -0.124547   0.021825   0.000000
   25  O  2  Z   -0.262419   0.000000   0.000000   0.000000   0.578534
   26  O  2  X    0.000000  -0.413545   0.492500   0.766732   0.000000
   27  O  2  Y    0.000000  -0.224892   0.459722  -0.063026   0.000000
   28  O  2  Z    0.135852   0.000000   0.000000   0.000000  -0.760531
   29  O  2 XX    0.000000   0.002048   0.030487   0.041959   0.000000
   30  O  2 YY    0.000000  -0.022278  -0.013780  -0.041704   0.000000
   31  O  2 ZZ    0.000000   0.020230  -0.016706  -0.000255   0.000000
   32  O  2 XY    0.000000  -0.007643   0.035705   0.011208   0.000000
   33  O  2 XZ   -0.041128   0.000000   0.000000   0.000000  -0.036074
   34  O  2 YZ   -0.011864   0.000000   0.000000   0.000000  -0.031882
   35  O  3  S    0.000000  -0.065705  -0.074318   0.013004   0.000000
   36  O  3  S    0.000000   0.274937   0.318100  -0.071823   0.000000
   37  O  3  S    0.000000   0.177802   0.104193  -0.020971   0.000000
   38  O  3  X    0.000000  -0.059674  -0.060131   0.571942   0.000000
   39  O  3  Y    0.000000  -0.041576   0.124548   0.021824   0.000000
   40  O  3  Z   -0.262417   0.000000   0.000000   0.000000  -0.578535
   41  O  3  X    0.000000   0.413537   0.492507  -0.766724   0.000000
   42  O  3  Y    0.000000  -0.224890  -0.459725  -0.063025   0.000000
   43  O  3  Z    0.135851   0.000000   0.000000   0.000000   0.760532
   44  O  3 XX    0.000000   0.002048  -0.030487   0.041959   0.000000
   45  O  3 YY    0.000000  -0.022278   0.013780  -0.041704   0.000000
   46  O  3 ZZ    0.000000   0.020230   0.016706  -0.000255   0.000000
   47  O  3 XY    0.000000   0.007643   0.035705  -0.011208   0.000000
   48  O  3 XZ    0.041127   0.000000   0.000000   0.000000  -0.036074
   49  O  3 YZ   -0.011864   0.000000   0.000000   0.000000   0.031882

                     31         32         33         34         35
                    0.8300     0.8393     0.8418     0.9038     1.3714
                     A          A          A          A          A   
    1  S  1  S    0.013101   0.000000   0.000000   0.000000  -0.000000
    2  S  1  S   -0.109056  -0.000000   0.000000  -0.000001   0.000001
    3  S  1  S    0.485300   0.000001   0.000000   0.000001  -0.000002
    4  S  1  S   -0.037687  -0.000001   0.000000   0.000004  -0.000013
    5  S  1  X    0.000000   0.024726   0.000000  -0.029601   0.065610
    6  S  1  Y   -0.037735  -0.000000   0.000000  -0.000000   0.000001
    7  S  1  Z    0.000000   0.000000  -0.003058   0.000000   0.000000
    8  S  1  X   -0.000001  -0.222452   0.000000   0.251933  -0.400036
    9  S  1  Y    0.267639   0.000000   0.000000   0.000002  -0.000006
   10  S  1  Z    0.000000   0.000000   0.021007   0.000000   0.000000
   11  S  1  X    0.000001  -0.033202   0.000000  -0.524537  -0.728414
   12  S  1  Y   -0.400538  -0.000001   0.000000  -0.000000  -0.000004
   13  S  1  Z    0.000000   0.000000  -0.509527   0.000000   0.000000
   14  S  1 XX    0.217393   0.000000   0.000000   0.000002  -0.000002
   15  S  1 YY   -0.398236  -0.000000   0.000000  -0.000002  -0.000001
   16  S  1 ZZ    0.180843   0.000000   0.000000  -0.000001   0.000003
   17  S  1 XY    0.000001   0.457482   0.000000  -0.251077  -0.380947
   18  S  1 XZ    0.000000   0.000000  -0.000000   0.000000   0.000000
   19  S  1 YZ    0.000000   0.000000  -0.410379   0.000000   0.000000
   20  O  2  S    0.008577  -0.001495   0.000000  -0.000420   0.079451
   21  O  2  S   -0.048243   0.057406   0.000000  -0.062062  -1.170506
   22  O  2  S    0.082429  -0.082213   0.000000   0.226449   1.635396
   23  O  2  X   -0.094665   0.120258   0.000000  -0.624736   0.079055
   24  O  2  Y   -0.571903   0.603047   0.000000   0.143093   0.091228
   25  O  2  Z    0.000000   0.000000  -0.589981   0.000000   0.000000
   26  O  2  X    0.131534  -0.051700   0.000000   0.790602  -0.381299
   27  O  2  Y    0.828619  -0.705868   0.000000  -0.258765  -0.421752
   28  O  2  Z    0.000000   0.000000   0.853521   0.000000   0.000000
   29  O  2 XX   -0.017697   0.020571   0.000000   0.029611  -0.069622
   30  O  2 YY    0.035802  -0.022270   0.000000  -0.006478  -0.019835
   31  O  2 ZZ   -0.018105   0.001699   0.000000  -0.023133   0.089456
   32  O  2 XY    0.047035  -0.002783   0.000000  -0.000002  -0.127134
   33  O  2 XZ    0.000000   0.000000   0.039070   0.000000   0.000000
   34  O  2 YZ    0.000000   0.000000   0.024028   0.000000   0.000000
   35  O  3  S    0.008576   0.001495   0.000000   0.000419  -0.079448
   36  O  3  S   -0.048238  -0.057405   0.000000   0.062079   1.170473
   37  O  3  S    0.082424   0.082212   0.000000  -0.226469  -1.635351
   38  O  3  X    0.094668   0.120258   0.000000  -0.624739   0.079053
   39  O  3  Y   -0.571902  -0.603047   0.000000  -0.143096  -0.091226
   40  O  3  Z    0.000000   0.000000  -0.589981   0.000000   0.000000
   41  O  3  X   -0.131537  -0.051699   0.000000   0.790603  -0.381287
   42  O  3  Y    0.828618   0.705869   0.000000   0.258772   0.421744
   43  O  3  Z    0.000000   0.000000   0.853520   0.000000   0.000000
   44  O  3 XX   -0.017697  -0.020571   0.000000  -0.029611   0.069620
   45  O  3 YY    0.035802   0.022270   0.000000   0.006478   0.019835
   46  O  3 ZZ   -0.018105  -0.001699   0.000000   0.023133  -0.089455
   47  O  3 XY   -0.047035  -0.002783   0.000000  -0.000002  -0.127130
   48  O  3 XZ    0.000000   0.000000  -0.039070   0.000000   0.000000
   49  O  3 YZ    0.000000   0.000000   0.024028   0.000000   0.000000

                     36         37         38         39         40
                    1.5057     2.0864     2.0899     2.0906     2.0949
                     A          A          A          A          A   
    1  S  1  S    0.001012  -0.000000   0.000000   0.000000  -0.000000
    2  S  1  S   -0.006428   0.000000   0.000000   0.000000   0.000000
    3  S  1  S    0.439030  -0.000001   0.000000   0.000000  -0.000000
    4  S  1  S   -1.844218   0.000001   0.000000   0.000000  -0.000002
    5  S  1  X   -0.000001  -0.024904   0.000000   0.000000   0.003838
    6  S  1  Y    0.062253  -0.000000   0.000000   0.000000   0.000000
    7  S  1  Z    0.000000   0.000000  -0.000001  -0.009585   0.000000
    8  S  1  X    0.000007   0.079678   0.000000   0.000000  -0.027142
    9  S  1  Y   -0.348708   0.000000   0.000000   0.000000  -0.000001
   10  S  1  Z    0.000000   0.000000   0.000004   0.029545   0.000000
   11  S  1  X   -0.000000   0.083367   0.000000   0.000000   0.011943
   12  S  1  Y   -0.825874   0.000001   0.000000   0.000000  -0.000001
   13  S  1  Z    0.000000   0.000000   0.000002   0.020887   0.000000
   14  S  1 XX   -0.261113  -0.000000   0.000000   0.000000   0.000001
   15  S  1 YY   -0.108887   0.000000   0.000000   0.000000   0.000002
   16  S  1 ZZ    0.370000  -0.000000   0.000000   0.000000  -0.000003
   17  S  1 XY    0.000002  -0.067920   0.000000   0.000000   0.002671
   18  S  1 XZ    0.000000   0.000000   0.032702  -0.000004   0.000000
   19  S  1 YZ    0.000000   0.000000   0.000001   0.007902   0.000000
   20  O  2  S    0.072098  -0.001799   0.000000   0.000000   0.001649
   21  O  2  S   -1.234872   0.036242   0.000000   0.000000  -0.030004
   22  O  2  S    1.982436  -0.070779   0.000000   0.000000   0.036850
   23  O  2  X    0.080825   0.031356   0.000000   0.000000   0.026895
   24  O  2  Y    0.024312  -0.040457   0.000000   0.000000  -0.003950
   25  O  2  Z    0.000000   0.000000   0.011763   0.014582   0.000000
   26  O  2  X   -0.600806  -0.041158   0.000000   0.000000  -0.049262
   27  O  2  Y   -0.276157   0.066839   0.000000   0.000000   0.002424
   28  O  2  Z    0.000000   0.000000  -0.017917  -0.024411   0.000000
   29  O  2 XX   -0.094256   0.566676   0.000000   0.000000   0.292771
   30  O  2 YY    0.020272  -0.630130   0.000000   0.000000   0.323303
   31  O  2 ZZ    0.073984   0.063454   0.000000   0.000000  -0.616074
   32  O  2 XY   -0.139266  -0.149056   0.000000   0.000000  -0.345996
   33  O  2 XZ    0.000000   0.000000   0.558860  -0.275089   0.000000
   34  O  2 YZ    0.000000   0.000000  -0.433357   0.651834   0.000000
   35  O  3  S    0.072100   0.001799   0.000000   0.000000  -0.001648
   36  O  3  S   -1.234901  -0.036241   0.000000   0.000000   0.030000
   37  O  3  S    1.982470   0.070777   0.000000   0.000000  -0.036846
   38  O  3  X   -0.080832   0.031356   0.000000   0.000000   0.026892
   39  O  3  Y    0.024312   0.040457   0.000000   0.000000   0.003950
   40  O  3  Z    0.000000   0.000000  -0.011760   0.014585   0.000000
   41  O  3  X    0.600823  -0.041158   0.000000   0.000000  -0.049259
   42  O  3  Y   -0.276161  -0.066839   0.000000   0.000000  -0.002423
   43  O  3  Z    0.000000   0.000000   0.017911  -0.024416   0.000000
   44  O  3 XX   -0.094259  -0.566676   0.000000   0.000000  -0.292801
   45  O  3 YY    0.020272   0.630130   0.000000   0.000000  -0.323353
   46  O  3 ZZ    0.073988  -0.063454   0.000000   0.000000   0.616154
   47  O  3 XY    0.139271  -0.149057   0.000000   0.000000  -0.346040
   48  O  3 XZ    0.000000   0.000000   0.558927   0.274953   0.000000
   49  O  3 YZ    0.000000   0.000000   0.433514   0.651729   0.000000

                     41         42         43         44         45
                    2.0965     2.1468     2.1525     2.2399     2.4525
                     A          A          A          A          A   
    1  S  1  S    0.000035   0.000000   0.000000  -0.001151  -0.025072
    2  S  1  S    0.000037   0.000000   0.000000   0.009115   0.187531
    3  S  1  S    0.005130   0.000000   0.000000  -0.068336  -0.335980
    4  S  1  S   -0.038486   0.000000   0.000000   0.156625  -0.721345
    5  S  1  X   -0.000000   0.000000   0.000000  -0.000000   0.000000
    6  S  1  Y    0.000713   0.000000   0.000000  -0.030988   0.122691
    7  S  1  Z    0.000000  -0.000000  -0.036638   0.000000   0.000000
    8  S  1  X    0.000002   0.000000   0.000000   0.000000  -0.000000
    9  S  1  Y   -0.006853   0.000000   0.000000   0.097352  -0.566653
   10  S  1  Z    0.000000   0.000002   0.112088   0.000000   0.000000
   11  S  1  X   -0.000001   0.000000   0.000000   0.000000  -0.000002
   12  S  1  Y   -0.024482   0.000000   0.000000   0.156863  -0.178698
   13  S  1  Z    0.000000   0.000001   0.089190   0.000000   0.000000
   14  S  1 XX    0.021359   0.000000   0.000000  -0.277699  -0.310520
   15  S  1 YY    0.027044   0.000000   0.000000   0.303767  -0.057195
   16  S  1 ZZ   -0.048402   0.000000   0.000000  -0.026068   0.367714
   17  S  1 XY   -0.000000   0.000000   0.000000   0.000000  -0.000001
   18  S  1 XZ    0.000000  -0.269984   0.000004   0.000000   0.000000
   19  S  1 YZ    0.000000   0.000003   0.223169   0.000000   0.000000
   20  O  2  S    0.002860   0.000000   0.000000  -0.002941   0.014182
   21  O  2  S   -0.030854   0.000000   0.000000   0.071370  -0.473609
   22  O  2  S    0.040679   0.000000   0.000000  -0.148767   0.865269
   23  O  2  X    0.017032   0.000000   0.000000  -0.023047   0.069646
   24  O  2  Y    0.000069   0.000000   0.000000   0.032183   0.056282
   25  O  2  Z    0.000000  -0.036364   0.047326   0.000000   0.000000
   26  O  2  X   -0.028683   0.000000   0.000000   0.092441  -0.430162
   27  O  2  Y    0.001032   0.000000   0.000000  -0.076057  -0.304761
   28  O  2  Z    0.000000   0.069982  -0.102509   0.000000   0.000000
   29  O  2 XX   -0.234805   0.000000   0.000000  -0.588848   0.344570
   30  O  2 YY   -0.380895   0.000000   0.000000   0.605972   0.023110
   31  O  2 ZZ    0.615700   0.000000   0.000000  -0.017124  -0.367680
   32  O  2 XY    0.337213   0.000000   0.000000   0.204919   0.614327
   33  O  2 XZ    0.000000  -0.438446   0.657633   0.000000   0.000000
   34  O  2 YZ    0.000000  -0.562093   0.281021   0.000000   0.000000
   35  O  3  S    0.002860   0.000000   0.000000  -0.002941   0.014182
   36  O  3  S   -0.030858   0.000000   0.000000   0.071370  -0.473608
   37  O  3  S    0.040683   0.000000   0.000000  -0.148768   0.865266
   38  O  3  X   -0.017036   0.000000   0.000000   0.023048  -0.069646
   39  O  3  Y    0.000068   0.000000   0.000000   0.032183   0.056282
   40  O  3  Z    0.000000   0.036366   0.047325   0.000000   0.000000
   41  O  3  X    0.028690   0.000000   0.000000  -0.092441   0.430162
   42  O  3  Y    0.001033   0.000000   0.000000  -0.076057  -0.304759
   43  O  3  Z    0.000000  -0.069985  -0.102507   0.000000   0.000000
   44  O  3 XX   -0.234766   0.000000   0.000000  -0.588847   0.344569
   45  O  3 YY   -0.380854   0.000000   0.000000   0.605971   0.023110
   46  O  3 ZZ    0.615620   0.000000   0.000000  -0.017124  -0.367679
   47  O  3 XY   -0.337168   0.000000   0.000000  -0.204919  -0.614325
   48  O  3 XZ    0.000000  -0.438464  -0.657620   0.000000   0.000000
   49  O  3 YZ    0.000000   0.562100   0.281006   0.000000   0.000000

                     46
                    2.5918
                     A   
    1  S  1  S    0.000000
    2  S  1  S   -0.000000
    3  S  1  S    0.000002
    4  S  1  S   -0.000006
    5  S  1  X   -0.164329
    6  S  1  Y    0.000000
    7  S  1  Z    0.000000
    8  S  1  X    0.757098
    9  S  1  Y   -0.000001
   10  S  1  Z    0.000000
   11  S  1  X    0.157974
   12  S  1  Y   -0.000003
   13  S  1  Z    0.000000
   14  S  1 XX   -0.000001
   15  S  1 YY   -0.000001
   16  S  1 ZZ    0.000001
   17  S  1 XY    0.608986
   18  S  1 XZ    0.000000
   19  S  1 YZ    0.000000
   20  O  2  S   -0.007677
   21  O  2  S    0.420573
   22  O  2  S   -0.770055
   23  O  2  X   -0.051317
   24  O  2  Y   -0.031953
   25  O  2  Z    0.000000
   26  O  2  X    0.418423
   27  O  2  Y    0.329075
   28  O  2  Z    0.000000
   29  O  2 XX   -0.335377
   30  O  2 YY   -0.033309
   31  O  2 ZZ    0.368686
   32  O  2 XY   -0.651319
   33  O  2 XZ    0.000000
   34  O  2 YZ    0.000000
   35  O  3  S    0.007677
   36  O  3  S   -0.420577
   37  O  3  S    0.770064
   38  O  3  X   -0.051317
   39  O  3  Y    0.031953
   40  O  3  Z    0.000000
   41  O  3  X    0.418427
   42  O  3  Y   -0.329077
   43  O  3  Z    0.000000
   44  O  3 XX    0.335379
   45  O  3 YY    0.033309
   46  O  3 ZZ   -0.368688
   47  O  3 XY   -0.651321
   48  O  3 XZ    0.000000
   49  O  3 YZ    0.000000
 ...... END OF RHF CALCULATION ......
 STEP CPU TIME =     2.50 TOTAL CPU TIME =          2.6 (      0.0 MIN)
 TOTAL WALL CLOCK TIME=          2.7 SECONDS, CPU UTILIZATION IS    98.51%

     ---------------------------------------------------------------------
     PROPERTIES FOR THE PBE      DFT FUNCTIONAL (RHF  TYPE) DENSITY MATRIX
     ---------------------------------------------------------------------

          -----------------
          ENERGY COMPONENTS
          -----------------

         WAVEFUNCTION NORMALIZATION =       1.0000000000

                ONE ELECTRON ENERGY =    -939.0386527268
                TWO ELECTRON ENERGY =     298.6052599619
           NUCLEAR REPULSION ENERGY =      92.2434130580
                                      ------------------
                       TOTAL ENERGY =    -548.1899797069

 ELECTRON-ELECTRON POTENTIAL ENERGY =     298.6052599619
  NUCLEUS-ELECTRON POTENTIAL ENERGY =   -1485.7995463178
   NUCLEUS-NUCLEUS POTENTIAL ENERGY =      92.2434130580
                                      ------------------
             TOTAL POTENTIAL ENERGY =   -1094.9508732978
               TOTAL KINETIC ENERGY =     546.7608935910
                 VIRIAL RATIO (V/T) =       2.0026137314

          ---------------------------------------
          MULLIKEN AND LOWDIN POPULATION ANALYSES
          ---------------------------------------

     ATOMIC MULLIKEN POPULATION IN EACH MOLECULAR ORBITAL

                      1          2          3          4          5

                  2.000000   2.000000   2.000000   2.000000   2.000000

    1             1.999982   0.001087   0.000537   2.000419   2.000273
    2             0.000009   0.994335   1.004853  -0.000210  -0.000136
    3             0.000009   1.004578   0.994610  -0.000210  -0.000136

                      6          7          8          9         10

                  2.000000   2.000000   2.000000   2.000000   2.000000

    1             2.000006   2.000176   0.592095   0.211970   1.252662
    2            -0.000003  -0.000088   0.703947   0.894022   0.373668
    3            -0.000003  -0.000088   0.703958   0.894008   0.373670

                     11         12         13         14         15

                  2.000000   2.000000   2.000000   2.000000   2.000000

    1             0.649832   1.024088   1.186324   0.040427   0.198797
    2             0.675084   0.487955   0.406837   0.979787   0.900589
    3             0.675085   0.487957   0.406839   0.979786   0.900614

                     16

                  2.000000

    1             0.106520
    2             0.946755
    3             0.946725

               ----- POPULATIONS IN EACH AO -----
                             MULLIKEN      LOWDIN
              1  S  1  S      1.99984     1.99927
              2  S  1  S      1.99255     1.88829
              3  S  1  S      1.36268     0.69992
              4  S  1  S      0.52346     0.46419
              5  S  1  X      1.99347     1.95740
              6  S  1  Y      1.99449     1.96422
              7  S  1  Z      1.99404     1.96224
              8  S  1  X      0.81107     0.70317
              9  S  1  Y      0.98511     0.89789
             10  S  1  Z      0.91888     0.83243
             11  S  1  X      0.08832     0.22413
             12  S  1  Y      0.12476     0.28282
             13  S  1  Z      0.26589     0.37152
             14  S  1 XX      0.01960     0.28921
             15  S  1 YY      0.06681     0.28956
             16  S  1 ZZ      0.07626     0.28588
             17  S  1 XY      0.04043     0.09142
             18  S  1 XZ      0.00752     0.04695
             19  S  1 YZ      0.00000     0.00733
             20  O  2  S      1.99570     1.97302
             21  O  2  S      0.96733     0.71161
             22  O  2  S      0.98725     0.55937
             23  O  2  X      0.90444     0.86592
             24  O  2  Y      0.97860     0.94603
             25  O  2  Z      0.82876     0.79800
             26  O  2  X      0.53174     0.61660
             27  O  2  Y      0.60720     0.67533
             28  O  2  Z      0.55472     0.58756
             29  O  2 XX      0.00147     0.20867
             30  O  2 YY      0.00276     0.20622
             31  O  2 ZZ      0.00429     0.21071
             32  O  2 XY      0.00191     0.00784
             33  O  2 XZ      0.00122     0.00261
             34  O  2 YZ      0.00000     0.00160
             35  O  3  S      1.99570     1.97302
             36  O  3  S      0.96733     0.71161
             37  O  3  S      0.98725     0.55937
             38  O  3  X      0.90444     0.86592
             39  O  3  Y      0.97860     0.94603
             40  O  3  Z      0.82877     0.79800
             41  O  3  X      0.53174     0.61660
             42  O  3  Y      0.60720     0.67532
             43  O  3  Z      0.55473     0.58756
             44  O  3 XX      0.00147     0.20867
             45  O  3 YY      0.00276     0.20622
             46  O  3 ZZ      0.00429     0.21071
             47  O  3 XY      0.00191     0.00784
             48  O  3 XZ      0.00122     0.00261
             49  O  3 YZ      0.00000     0.00160

          ----- MULLIKEN ATOMIC OVERLAP POPULATIONS -----
          (OFF-DIAGONAL ELEMENTS NEED TO BE MULTIPLIED BY 2)

             1           2           3

    1   14.6997419
    2    0.2827238   8.1234054
    3    0.2827290  -0.0387251   8.1233971

          TOTAL MULLIKEN AND LOWDIN ATOMIC POPULATIONS
       ATOM         MULL.POP.    CHARGE          LOW.POP.     CHARGE
    1 S            15.265195    0.734805        15.257836    0.742164
    2 O             8.367404   -0.367404         8.371083   -0.371083
    3 O             8.367401   -0.367401         8.371082   -0.371082

          MULLIKEN SPHERICAL HARMONIC POPULATIONS
       ATOM           S       P       D      F      G      H      I    TOTAL
    1 S             5.88    9.18    0.21   0.00   0.00   0.00   0.00   15.27
    2 O             3.95    4.41    0.01   0.00   0.00   0.00   0.00    8.37
    3 O             3.95    4.41    0.01   0.00   0.00   0.00   0.00    8.37

          -------------------------------
          BOND ORDER AND VALENCE ANALYSIS     BOND ORDER THRESHOLD=0.050
          -------------------------------

                   BOND                       BOND                       BOND
  ATOM PAIR DIST  ORDER      ATOM PAIR DIST  ORDER      ATOM PAIR DIST  ORDER
    1   2  1.700  1.657        1   3  1.700  1.657        2   3  2.697  0.447

                       TOTAL       BONDED        FREE
      ATOM            VALENCE     VALENCE     VALENCE
    1 S                 3.315       3.315       0.000
    2 O                 2.104       2.104      -0.000
    3 O                 2.104       2.104      -0.000

          ---------------------
          ELECTROSTATIC MOMENTS
          ---------------------

 POINT   1           X           Y           Z (BOHR)    CHARGE
                 0.000000   -0.000000    0.000000       -0.00 (A.U.)
         DX          DY          DZ         /D/  (DEBYE)
    -0.000002   -2.686560    0.000000    2.686560
 ...... END OF PROPERTY EVALUATION ......
 STEP CPU TIME =     0.00 TOTAL CPU TIME =          2.6 (      0.0 MIN)
 TOTAL WALL CLOCK TIME=          2.7 SECONDS, CPU UTILIZATION IS    98.15%
                580000  WORDS OF DYNAMIC MEMORY USED
 EXECUTION OF GAMESS TERMINATED NORMALLY Sun Sep 29 10:53:57 2019
 DDI: 263640 bytes (0.3 MB / 0 MWords) used by master data server.

 ----------------------------------------
 CPU timing information for all processes
 ========================================
 0: 2.577 + 0.82 = 2.659
 ----------------------------------------
 ddikick.x: exited gracefully.
----- accounting info -----
Files used on the master node crcfe02.crc.nd.edu were:
-rw-r--r-- 1 cdrisko campus     208 Sep 29 10:53 /afs/crc.nd.edu/user/c/cdrisko/SO2.F05
-rw-r--r-- 1 cdrisko campus   37566 Sep 29 10:53 /afs/crc.nd.edu/user/c/cdrisko/SO2.F07
-rw-r--r-- 1 cdrisko campus 4140368 Sep 29 10:53 /afs/crc.nd.edu/user/c/cdrisko/SO2.F08
-rw-r--r-- 1 cdrisko campus 1766880 Sep 29 10:53 /afs/crc.nd.edu/user/c/cdrisko/SO2.F10
Sun Sep 29 10:54:00 EDT 2019
0.448u 0.234s 0:06.35 10.5%	0+0k 0+24io 0pf+0w
