----- GAMESS execution script 'rungms' -----
This job is running on host crcfe01.crc.nd.edu
under operating system Linux at Fri Oct 18 07:43:39 EDT 2019
Available scratch disk space (Kbyte units) at beginning of the job is
Filesystem      1K-blocks  Used  Available Use% Mounted on
AFS            2147483647     0 2147483647   0% /afs
GAMESS temporary binary files will be written to /afs/crc.nd.edu/user/c/cdrisko
GAMESS supplementary output files will be written to /afs/crc.nd.edu/user/c/cdrisko/scr
Copying input file vinylAlcohol-F_vib.inp to your run's scratch directory...

 Distributed Data Interface kickoff program.
 Initiating 1 compute processes on 1 nodes to run the following command:
 /afs/crc.nd.edu/x86_64_linux/g/gamess/nov-2017/gamess/gamess.00.x vinylAlcohol-F_vib 

          ******************************************************
          *         GAMESS VERSION = 11 NOV 2017 (R3)         *
          *             FROM IOWA STATE UNIVERSITY             *
          * M.W.SCHMIDT, K.K.BALDRIDGE, J.A.BOATZ, S.T.ELBERT, *
          *   M.S.GORDON, J.H.JENSEN, S.KOSEKI, N.MATSUNAGA,   *
          *          K.A.NGUYEN, S.J.SU, T.L.WINDUS,           *
          *       TOGETHER WITH M.DUPUIS, J.A.MONTGOMERY       *
          *         J.COMPUT.CHEM.  14, 1347-1363(1993)        *
          **************** 64 BIT INTEL VERSION ****************

  SINCE 1993, STUDENTS AND POSTDOCS WORKING AT IOWA STATE UNIVERSITY
  AND ALSO IN THEIR VARIOUS JOBS AFTER LEAVING ISU HAVE MADE IMPORTANT
  CONTRIBUTIONS TO THE CODE:
     IVANA ADAMOVIC, CHRISTINE AIKENS, YURI ALEXEEV, POOJA ARORA,
     ANDREY ASADCHEV, ROB BELL, PRADIPTA BANDYOPADHYAY, JONATHAN BENTZ,
     BRETT BODE, KURT BRORSEN, CALEB CARLIN, GALINA CHABAN, WEI CHEN,
     CHEOL HO CHOI, PAUL DAY, ALBERT DEFUSCO, NUWAN DESILVA, TIM DUDLEY,
     DMITRI FEDOROV, ALEX FINDLATER, GRAHAM FLETCHER, MARK FREITAG,
     KURT GLAESEMANN, ANASTASIA GUININA,
     DAN KEMP, GRANT MERRILL, NORIYUKI MINEZAWA, JONATHAN MULLIN,
     TAKESHI NAGATA, SEAN NEDD, HEATHER NETZLOFF, BOSILJKA NJEGIC, RYAN OLSON,
     MIKE PAK, BUU PHAM,
     SPENCER PRUITT, LUKE ROSKOP, JIM SHOEMAKER, LYUDMILA SLIPCHENKO,
     TONY SMITH, SAROM SOK LEANG, JIE SONG, TETSUYA TAKETSUGU, SIMON WEBB,
     PENG XU, SOOHAENG YOO, FEDERICO ZAHARIEV

  ADDITIONAL CODE HAS BEEN PROVIDED BY COLLABORATORS IN OTHER GROUPS:
     IOWA STATE UNIVERSITY:
          JOE IVANIC, AARON WEST, LAIMUTIS BYTAUTAS, KLAUS RUEDENBERG
     UNIVERSITY OF TOKYO: KIMIHIKO HIRAO, TAKAHITO NAKAJIMA,
          TAKAO TSUNEDA, MUNEAKI KAMIYA, SUSUMU YANAGISAWA,
          KIYOSHI YAGI, MAHITO CHIBA, SEIKEN TOKURA, NAOAKI KAWAKAMI
     UNIVERSITY OF AARHUS: FRANK JENSEN
     UNIVERSITY OF IOWA: VISVALDAS KAIRYS, HUI LI
     NATIONAL INST. OF STANDARDS AND TECHNOLOGY: WALT STEVENS, DAVID GARMER
     UNIVERSITY OF PISA: BENEDETTA MENNUCCI, JACOPO TOMASI
     UNIVERSITY OF MEMPHIS: HENRY KURTZ, PRAKASHAN KORAMBATH
     UNIVERSITY OF ALBERTA: TOBY ZENG, MARIUSZ KLOBUKOWSKI
     UNIVERSITY OF NEW ENGLAND: MARK SPACKMAN
     MIE UNIVERSITY: HIROAKI UMEDA
     NAT. INST. OF ADVANCED INDUSTRIAL SCIENCE AND TECHNOLOGY: KAZUO KITAURA
     MICHIGAN STATE UNIVERSITY:
          KAROL KOWALSKI, MARTA WLOCH, JEFFREY GOUR, JESSE LUTZ,
          WEI LI, PIOTR PIECUCH
     UNIVERSITY OF SILESIA: MONIKA MUSIAL, STANISLAW KUCHARSKI
     FACULTES UNIVERSITAIRES NOTRE-DAME DE LA PAIX:
          OLIVIER QUINET, BENOIT CHAMPAGNE
     UNIVERSITY OF CALIFORNIA - SANTA BARBARA: BERNARD KIRTMAN
     INSTITUTE FOR MOLECULAR SCIENCE:
          KAZUYA ISHIMURA, MICHIO KATOUDA, AND SHIGERU NAGASE
     UNIVERSITY OF NOTRE DAME: ANNA POMOGAEVA, DAN CHIPMAN
     KYUSHU UNIVERSITY:
          HARUYUKI NAKANO,
          FENG LONG GU, JACEK KORCHOWIEC, MARCIN MAKOWSKI, AND YURIKO AOKI,
          HIROTOSHI MORI AND EISAKU MIYOSHI
     PENNSYLVANIA STATE UNIVERSITY:
          TZVETELIN IORDANOV, CHET SWALINA, JONATHAN SKONE,
          SHARON HAMMES-SCHIFFER
     WASEDA UNIVERSITY:
          MASATO KOBAYASHI, TOMOKO AKAMA, TSUGUKI TOUMA,
          TAKESHI YOSHIKAWA, YASUHIRO IKABATA, JUNJI SEINO,
          YUYA NAKAJIMA, HIROMI NAKAI
     NANJING UNIVERSITY: SHUHUA LI
     UNIVERSITY OF NEBRASKA:
          PEIFENG SU, DEJUN SI, NANDUN THELLAMUREGE, YALI WANG, HUI LI
     UNIVERSITY OF ZURICH: ROBERTO PEVERATI, KIM BALDRIDGE
     N. COPERNICUS UNIVERSITY AND JACKSON STATE UNIVERSITY:
          MARIA BARYSZ
     UNIVERSITY OF COPENHAGEN: Jimmy Kromann, CASPER STEINMANN
     TOKYO INSTITUTE OF TECHNOLOGY: HIROYA NAKATA
     NAGOYA UNIVERSITY: YOSHIO NISHIMOTO, STEPHAN IRLE
     MOSCOW STATE UNIVERSITY: VLADIMIR MIRONOV

 EXECUTION OF GAMESS BEGUN Fri Oct 18 07:43:39 2019

            ECHO OF THE FIRST FEW INPUT CARDS -
 INPUT CARD> $CONTRL SCFTYP= RHF RUNTYP=HESSIAN DFTTYP=B3LYP                                
 INPUT CARD>       ISPHER=1 MULT=1 COORD=CART $END                                          
 INPUT CARD> $SCF DIRSCF=.TRUE. $END                                                        
 INPUT CARD> $BASIS GBASIS=N31 NGAUSS=6 NDFUNC=1 $END                                       
 INPUT CARD> $FORCE METHOD=SEMINUM $END                                                     
 INPUT CARD> $DATA                                                                          
 INPUT CARD>C2H3OF                                                                          
 INPUT CARD>C1 1                                                                            
 INPUT CARD>C 6 0.00000000 0.00000000 0.00000000                                            
 INPUT CARD>C 6 1.08876021 -0.76739403 0.00000000                                           
 INPUT CARD>O 8 2.38275866 -0.32762973 0.00000000                                           
 INPUT CARD>H 1 2.39427669 0.64355738 0.00000000                                            
 INPUT CARD>H 1 1.02257074 -1.84997063 0.00000000                                           
 INPUT CARD>F 9 -1.23673154 -0.55285390 0.00000000                                          
 INPUT CARD>H 1 -0.01384716 1.08690269 0.00000000                                           
 INPUT CARD> $END                                                                           
    1000000 WORDS OF MEMORY AVAILABLE


                    * * * WARNING * * *
 OLD KEYWORD COORD=CART SELECTED, AUTOMATICALLY CHANGED TO COORD=PRINAXIS.
 YOUR MOLECULE'S COORDINATES WILL BE CHANGED TO PRINCIPAL AXES BY
   A) TRANSLATION TO THE CENTER OF MASS, THEN
   B) ROTATION TO HAVE A DIAGONAL MOMENT OF INERTIA TENSOR.

 HOWEVER, NOTHING ELSE IN YOUR INPUT WILL BE ROTATED IN THE SAME WAY,
 SO IF YOU HAVE A $VEC, $VIB, $GRAD, $HESS, EFP PARTICLE COORDINATES,
 OR ANYTHING ELSE THAT DEPENDS ON THE INITIAL ORIENTATION, THAT DATA
 WILL NOT BE USED CORRECTLY IN THIS RUN.

 THE PURPOSE OF COORD=PRINAXIS IS TO BE USED ONCE, ONLY AT THE VERY
 BEGINNING OF A SERIES OF COMPUTATIONS, PERHAPS TO FIND THE SYMMETRY
 UNIQUE ATOMS FROM AN ARBITRARY INITIAL ORIENTATION.

 AFTER THE FIRST RUN, YOU SHOULD USE ONLY COORD=UNIQUE, TO ENSURE THAT
 THE COORDINATES WHICH YOU READ IN ARE THE COORDINATES THAT ARE USED.


     BASIS OPTIONS
     -------------
     GBASIS=N31          IGAUSS=       6      POLAR=POPN31  
     NDFUNC=       1     NFFUNC=       0     DIFFSP=       F
     NPFUNC=       0      DIFFS=       F     BASNAM=        


     RUN TITLE
     ---------
 C2H3OF                                                                          

 THE POINT GROUP OF THE MOLECULE IS C1      
 THE ORDER OF THE PRINCIPAL AXIS IS     1

 THE MOMENTS OF INERTIA ARE (AMU-ANGSTROM**2)
 IXX=     9.449   IYY=   125.382   IZZ=   134.830

 ATOM      ATOMIC                      COORDINATES (BOHR)
           CHARGE         X                   Y                   Z
 C           6.0     0.9300233144       -0.7857676671        0.0000000000
 C           6.0    -1.0932729884        0.7116916164        0.0000000000
 O           8.0    -3.5571789921       -0.0624460133        0.0000000000
 H           1.0    -3.6214740913       -1.8967261101        0.0000000000
 H           1.0    -0.9208130801        2.7540163446        0.0000000000
 F           9.0     3.2906925970        0.2045290304        0.0000000000
 H           1.0     0.9085806102       -2.8397706838        0.0000000000

          INTERNUCLEAR DISTANCES (ANGS.)
          ------------------------------

                1 C          2 C          3 O          4 H          5 H     

   1 C       0.0000000    1.3320257 *  2.4051778 *  2.4792594 *  2.1137744 *
   2 C       1.3320257 *  0.0000000    1.3666838 *  1.9222792 *  1.0845981 *
   3 O       2.4051778 *  1.3666838 *  0.0000000    0.9712554 *  2.0414781 *
   4 H       2.4792594 *  1.9222792 *  0.9712554 *  0.0000000    2.8459197 *
   5 H       2.1137744 *  1.0845981 *  2.0414781 *  2.8459197 *  0.0000000  
   6 F       1.3546779 *  2.3353671 *  3.6264908    3.8230382    2.6051792 *
   7 H       1.0869909 *  2.1573501 *  2.7829160 *  2.4485946 *  3.1143839  

                6 F          7 H     

   1 C       1.3546779 *  1.0869909 *
   2 C       2.3353671 *  2.1573501 *
   3 O       3.6264908    2.7829160 *
   4 H       3.8230382    2.4485946 *
   5 H       2.6051792 *  3.1143839  
   6 F       0.0000000    2.0455434 *
   7 H       2.0455434 *  0.0000000  

  * ... LESS THAN  3.000


     ATOMIC BASIS SET
     ----------------
 THE CONTRACTED PRIMITIVE FUNCTIONS HAVE BEEN UNNORMALIZED
 THE CONTRACTED BASIS FUNCTIONS ARE NOW NORMALIZED TO UNITY

  SHELL TYPE  PRIMITIVE        EXPONENT          CONTRACTION COEFFICIENT(S)

 C         

      1   S       1          3047.5248800    0.001834737132
      1   S       2           457.3695180    0.014037322813
      1   S       3           103.9486850    0.068842622264
      1   S       4            29.2101553    0.232184443216
      1   S       5             9.2866630    0.467941348435
      1   S       6             3.1639270    0.362311985337

      2   L       7             7.8682723   -0.119332419775    0.068999066591
      2   L       8             1.8812885   -0.160854151696    0.316423960957
      2   L       9             0.5442493    1.143456437840    0.744308290898

      3   L      10             0.1687145    1.000000000000    1.000000000000

      4   D      11             0.8000000    1.000000000000

 C         

      5   S      12          3047.5248800    0.001834737132
      5   S      13           457.3695180    0.014037322813
      5   S      14           103.9486850    0.068842622264
      5   S      15            29.2101553    0.232184443216
      5   S      16             9.2866630    0.467941348435
      5   S      17             3.1639270    0.362311985337

      6   L      18             7.8682723   -0.119332419775    0.068999066591
      6   L      19             1.8812885   -0.160854151696    0.316423960957
      6   L      20             0.5442493    1.143456437840    0.744308290898

      7   L      21             0.1687145    1.000000000000    1.000000000000

      8   D      22             0.8000000    1.000000000000

 O         

      9   S      23          5484.6716600    0.001831074430
      9   S      24           825.2349460    0.013950172200
      9   S      25           188.0469580    0.068445078098
      9   S      26            52.9645000    0.232714335992
      9   S      27            16.8975704    0.470192897984
      9   S      28             5.7996353    0.358520852987

     10   L      29            15.5396162   -0.110777549525    0.070874268231
     10   L      30             3.5999336   -0.148026262701    0.339752839147
     10   L      31             1.0137618    1.130767015354    0.727158577316

     11   L      32             0.2700058    1.000000000000    1.000000000000

     12   D      33             0.8000000    1.000000000000

 H         

     13   S      34            18.7311370    0.033494604338
     13   S      35             2.8253944    0.234726953484
     13   S      36             0.6401217    0.813757326146

     14   S      37             0.1612778    1.000000000000

 H         

     15   S      38            18.7311370    0.033494604338
     15   S      39             2.8253944    0.234726953484
     15   S      40             0.6401217    0.813757326146

     16   S      41             0.1612778    1.000000000000

 F         

     17   S      42          7001.7130900    0.001819616901
     17   S      43          1051.3660900    0.013916079607
     17   S      44           239.2856900    0.068405324535
     17   S      45            67.3974453    0.233185760119
     17   S      46            21.5199573    0.471267439240
     17   S      47             7.4031013    0.356618546182

     18   L      48            20.8479528   -0.108506975109    0.071628724237
     18   L      49             4.8083083   -0.146451658147    0.345912102697
     18   L      50             1.3440699    1.128688581135    0.722469956367

     19   L      51             0.3581514    1.000000000000    1.000000000000

     20   D      52             0.8000000    1.000000000000

 H         

     21   S      53            18.7311370    0.033494604338
     21   S      54             2.8253944    0.234726953484
     21   S      55             0.6401217    0.813757326146

     22   S      56             0.1612778    1.000000000000

 TOTAL NUMBER OF BASIS SET SHELLS             =   22
 NUMBER OF CARTESIAN GAUSSIAN BASIS FUNCTIONS =   66
 NOTE: THIS RUN WILL RESTRICT THE MO VARIATION SPACE TO SPHERICAL HARMONICS.
 THE NUMBER OF ORBITALS KEPT IN THE VARIATIONAL SPACE WILL BE PRINTED LATER.
 NUMBER OF ELECTRONS                          =   32
 CHARGE OF MOLECULE                           =    0
 SPIN MULTIPLICITY                            =    1
 NUMBER OF OCCUPIED ORBITALS (ALPHA)          =   16
 NUMBER OF OCCUPIED ORBITALS (BETA )          =   16
 TOTAL NUMBER OF ATOMS                        =    7
 THE NUCLEAR REPULSION ENERGY IS      112.9666497623

     LEBEDEV GRID-BASED DFT OPTIONS
     ------------------------------
     DFTTYP=B3LYP   
     NRAD  =      96     NLEB  =     302
     NRAD0 =      96     NLEB0 =     302
     SWOFF =    5.00E-03 (PURE SCF -> DFT)
     SWITCH=    3.00E-04 (COARSE -> TIGHT GRID)
     THRESH=    0.00E+00 GTHRE=    1.00E+00

 GRIMME'S EMPIRICAL DISPERSION CORRECTION= F

     $CONTRL OPTIONS
     ---------------
 SCFTYP=RHF          RUNTYP=HESSIAN      EXETYP=RUN     
 MPLEVL=       0     CITYP =NONE         CCTYP =NONE         VBTYP =NONE    
 DFTTYP=B3LYP        TDDFT =NONE    
 MULT  =       1     ICHARG=       0     NZVAR =       0     COORD =PRINAXIS
 PP    =NONE         RELWFN=NONE         LOCAL =NONE         NUMGRD=       F
 ISPHER=       1     NOSYM =       0     MAXIT =      30     UNITS =ANGS    
 PLTORB=       F     MOLPLT=       F     AIMPAC=       F     FRIEND=        
 NPRINT=       7     IREST =       0     GEOM  =INPUT   
 NORMF =       0     NORMP =       0     ITOL  =      20     ICUT  =       9
 INTTYP=BEST         GRDTYP=BEST         QMTTOL= 1.0E-06

     $SYSTEM OPTIONS
     ---------------
  REPLICATED MEMORY=     1000000 WORDS (ON EVERY NODE).
 DISTRIBUTED MEMDDI=           0 MILLION WORDS IN AGGREGATE,
 MEMDDI DISTRIBUTED OVER   1 PROCESSORS IS           0 WORDS/PROCESSOR.
 TOTAL MEMORY REQUESTED ON EACH PROCESSOR=     1000000 WORDS.
 TIMLIM=      525600.00 MINUTES, OR     365.0 DAYS.
 PARALL= F  BALTYP=  DLB     KDIAG=    0  COREFL= F
 MXSEQ2=     300 MXSEQ3=     150  mem10=         0

          ----------------
          PROPERTIES INPUT
          ----------------

     MOMENTS            FIELD           POTENTIAL          DENSITY
 IEMOM =       1   IEFLD =       0   IEPOT =       0   IEDEN =       0
 WHERE =COMASS     WHERE =NUCLEI     WHERE =NUCLEI     WHERE =NUCLEI  
 OUTPUT=BOTH       OUTPUT=BOTH       OUTPUT=BOTH       OUTPUT=BOTH    
 IEMINT=       0   IEFINT=       0                     IEDINT=       0
                                                       MORB  =       0
          EXTRAPOLATION IN EFFECT
          DIIS IN EFFECT
 ORBITAL PRINTING OPTION: NPREO=     1    66     2     1

     -------------------------------
     INTEGRAL TRANSFORMATION OPTIONS
     -------------------------------
     NWORD  =            0
     CUTOFF = 1.0E-09     MPTRAN =       0
     DIRTRF =       T     AOINTS =DUP     

          ----------------------
          INTEGRAL INPUT OPTIONS
          ----------------------
 NOPK  =       1 NORDER=       0 SCHWRZ=       T

     ------------------------------------------
     THE POINT GROUP IS C1 , NAXIS= 1, ORDER= 1
     ------------------------------------------

 -- VARIATIONAL SPACE WILL BE RESTRICTED TO PURE SPHERICAL HARMONICS ONLY --
 AFTER EXCLUDING CONTAMINANT COMBINATIONS FROM THE CARTESIAN GAUSSIAN BASIS
 SET, THE NUMBER OF SPHERICAL HARMONICS KEPT IN THE VARIATION SPACE IS   62

     DIMENSIONS OF THE SYMMETRY SUBSPACES ARE
 A   =   62

 ..... DONE SETTING UP THE RUN .....
 STEP CPU TIME =     0.01 TOTAL CPU TIME =          0.0 (      0.0 MIN)
 TOTAL WALL CLOCK TIME=          0.0 SECONDS, CPU UTILIZATION IS    50.00%

     ---------------------------------
     HESSIAN MATRIX CONTROL PARAMETERS
     ---------------------------------
     METHOD=SEMINUM    NVIB  =       2   VIBSIZ= 0.01000
     RDHESS=       F   PURIFY=       F   PRTIFC=       F
     VIBANL=       T   DECOMP=       F   PROJCT=       F
     SCLFAC= 1.00000   PRTSCN=       F   NPRT  =       0
     PULCOR=       F   NPUN  =       0   REDOVB=       T
     HSSTYP=GENERAL 
     THERMOCHEMISTRY WILL BE PRINTED FOR    1 TEMPERATURES:
      298.15000

               * * * EFFICIENCY NOTE * * *
 THIS CALCULATION CAN BE RUN WITH DIFFERENTIATION METHOD=ANALYTIC
 THIS MIGHT BE MORE ACCURATE AND/OR FASTER THAN YOUR CHOICE,
 BUT THE REQUESTED CALCULATION METHOD=SEMINUM  IS PROCEEDING.

1   ATOM  0
                                        -------------------
   COORD  0                             NUCLEAR COORDINATES
                                        -------------------
     VIB  0

                       ATOM             X              Y              Z

                 1  C                0.930023      -0.785768       0.000000
                 2  C               -1.093273       0.711692       0.000000
                 3  O               -3.557179      -0.062446       0.000000
                 4  H               -3.621474      -1.896726       0.000000
                 5  H               -0.920813       2.754016       0.000000
                 6  F                3.290693       0.204529       0.000000
                 7  H                0.908581      -2.839771       0.000000

          ********************
          1 ELECTRON INTEGRALS
          ********************
 ...... END OF ONE-ELECTRON INTEGRALS ......
 STEP CPU TIME =     0.02 TOTAL CPU TIME =          0.0 (      0.0 MIN)
 TOTAL WALL CLOCK TIME=          0.0 SECONDS, CPU UTILIZATION IS   100.00%

          -------------
          GUESS OPTIONS
          -------------
          GUESS =HUCKEL            NORB  =       0          NORDER=       0
          MIX   =       F          PRTMO =       F          PUNMO =       F
          TOLZ  = 1.0E-08          TOLE  = 1.0E-05
          SYMDEN=       F          PURIFY=       F

 INITIAL GUESS ORBITALS GENERATED BY HUCKEL   ROUTINE.
 HUCKEL GUESS REQUIRES     39228 WORDS.

 STATISTICS FOR GENERATION OF SYMMETRY ORBITAL -Q- MATRIX
 NUMBER OF CARTESIAN ATOMIC ORBITALS=         66
 NUMBER OF SPHERICAL CONTAMINANTS DROPPED=     4
 NUMBER OF LINEARLY DEPENDENT MOS DROPPED=     0
 TOTAL NUMBER OF MOS IN VARIATION SPACE=      62

 SYMMETRIES FOR INITIAL GUESS ORBITALS FOLLOW.   BOTH SET(S).
    16 ORBITALS ARE OCCUPIED (    4 CORE ORBITALS).
     5=A        6=A        7=A        8=A        9=A       10=A       11=A   
    12=A       13=A       14=A       15=A       16=A       17=A       18=A   
    19=A       20=A       21=A       22=A       23=A       24=A       25=A   
    26=A   
 ...... END OF INITIAL ORBITAL SELECTION ......
 STEP CPU TIME =     0.00 TOTAL CPU TIME =          0.0 (      0.0 MIN)
 TOTAL WALL CLOCK TIME=          0.0 SECONDS, CPU UTILIZATION IS    75.00%

                    ----------------------
                    AO INTEGRAL TECHNOLOGY
                    ----------------------
     S,P,L SHELL ROTATED AXIS INTEGRALS, REPROGRAMMED BY
        KAZUYA ISHIMURA (IMS) AND JOSE SIERRA (SYNSTAR).
     S,P,D,L SHELL ROTATED AXIS INTEGRALS PROGRAMMED BY
        KAZUYA ISHIMURA (INSTITUTE FOR MOLECULAR SCIENCE).
     S,P,D,F,G SHELL TO TOTAL QUARTET ANGULAR MOMENTUM SUM 5,
        ERIC PROGRAM BY GRAHAM FLETCHER (ELORET AND NASA ADVANCED
        SUPERCOMPUTING DIVISION, AMES RESEARCH CENTER).
     S,P,D,F,G,L SHELL GENERAL RYS QUADRATURE PROGRAMMED BY
        MICHEL DUPUIS (PACIFIC NORTHWEST NATIONAL LABORATORY).

          --------------------
          2 ELECTRON INTEGRALS
          --------------------

 DIRECT SCF METHOD SKIPS INTEGRAL STORAGE ON DISK.
 DIRECT TRANSFORMATION SKIPS AO INTEGRAL STORAGE ON DISK.
  ...... END OF TWO-ELECTRON INTEGRALS .....
 STEP CPU TIME =     0.01 TOTAL CPU TIME =          0.0 (      0.0 MIN)
 TOTAL WALL CLOCK TIME=          0.1 SECONDS, CPU UTILIZATION IS    80.00%

          --------------------------
             R-B3LYP SCF CALCULATION
          --------------------------

     NUCLEAR ENERGY =       112.9666497623
     MAXIT =   30     NPUNCH=    2
     EXTRAP=T  DAMP=F  SHIFT=F  RSTRCT=F  DIIS=T  DEM=F  SOSCF=F
         DENSITY MATRIX CONVERGENCE THRESHOLD=  2.00E-05
     COARSE -> FINE DFT GRID SWITCH THRESHOLD=  3.00E-04 (SWITCH IN $DFT)
                   HF -> DFT SWITCH THRESHOLD=  5.00E-03 (SWOFF IN $DFT)
     MEMORY REQUIRED FOR RHF ITERS=    335322 WORDS.

 DIRECT SCF CALCULATION, SCHWRZ=T   FDIFF=T,  DIRTHR=  0.00E+00 NITDIR=10
 SCHWARZ INEQUALITY OVERHEAD:      2200 INTEGRALS, T=        0.00

     EXCHANGE FUNCTIONAL   =B88&HFX   
     CORRELATION FUNCTIONAL=LYP88&VWN5
     DFT THRESHOLD         =.493E-08
 FOR AN EULER-MACLAURIN QUADRATURE USING  96 RADIAL POINTS:
 SMALLEST GAUSSIAN PRIMITIVE EXPONENT=        0.1612777588 OF TYPE -S-
 ON ATOM NUMBER   4 HAS RADIAL NORMALIZATION=  1.000000
  LARGEST GAUSSIAN PRIMITIVE EXPONENT=     7001.7130900000 OF TYPE -S-
 ON ATOM NUMBER   6 HAS RADIAL NORMALIZATION=  1.000000
 DFT IS SWITCHED OFF, PERFORMING PURE SCF UNTIL SWOFF THRESHOLD IS REACHED.

                                                                                   NONZERO     BLOCKS
 ITER EX DEM     TOTAL ENERGY        E CHANGE  DENSITY CHANGE    DIIS ERROR      INTEGRALS    SKIPPED
   1  0  0     -251.0588211344  -251.0588211344   0.243442168   0.621358911        1178843       3034
          * * *   INITIATING DIIS PROCEDURE   * * *
   2  1  0     -251.6895549369    -0.6307338025   0.068355536   0.075816456        1178970       3237
   3  2  0     -251.7197290348    -0.0301740979   0.021583853   0.018551133        1175884       3714
   4  3  0     -251.7230057219    -0.0032766870   0.009011134   0.008941683        1171075       4139
   5  4  0     -251.7236287866    -0.0006230648   0.002186213   0.001886300        1164690       4527
 CONVERGED TO SWOFF, SO DFT CALCULATION IS NOW SWITCHED ON.
          * * *   INITIATING DIIS PROCEDURE   * * *
   6  5  0     -252.8827900084    -1.1591612218   0.109002854   0.060257970        1179426       3024
   7  6  0     -252.8997368436    -0.0169468352   0.035577515   0.024372870        1176948       3567
   8  7  0     -252.9000334944    -0.0002966508   0.019764110   0.020370572        1173036       3993
   9  8  0     -252.9029545449    -0.0029210505   0.003770541   0.004909406        1169169       4293
  10  9  0     -252.9030422397    -0.0000876948   0.000418497   0.000305270        1148897       5161
  11 10  0     -252.9030426777    -0.0000004380   0.000180445   0.000131734        1126839       6255
  12 11  0     -252.9030427366    -0.0000000588   0.000080299   0.000062179        1106531       7116
  13 12  0     -252.9030427604    -0.0000000238   0.000027366   0.000017008        1094492       7625
  14 13  0     -252.9030427615    -0.0000000011   0.000006683   0.000006982        1054640       9166
  15 14  0     -252.9030427616    -0.0000000001   0.000000438   0.000000579        1022589      10193

          -----------------
          DENSITY CONVERGED
          -----------------
     TIME TO FORM FOCK OPERATORS=       8.1 SECONDS (       0.5 SEC/ITER)
     FOCK TIME ON FIRST ITERATION=       0.1, LAST ITERATION=       0.7
     TIME TO SOLVE SCF EQUATIONS=       0.0 SECONDS (       0.0 SEC/ITER)

 FINAL R-B3LYP ENERGY IS     -252.9030427616 AFTER  15 ITERATIONS
 DFT EXCHANGE + CORRELATION ENERGY =       -24.9721232936
 TOTAL ELECTRON NUMBER             =        32.0000835760

          ------------
          EIGENVECTORS
          ------------

                      1          2          3          4          5
                  -24.6856   -19.1781   -10.2465   -10.2374    -1.1994
                     A          A          A          A          A   
    1  C  1  S   -0.000077   0.000042   0.994070  -0.042306  -0.062728
    2  C  1  S    0.000386   0.000088   0.035437  -0.003843   0.111929
    3  C  1  X    0.001146   0.000194   0.001893   0.001392   0.092719
    4  C  1  Y    0.000329  -0.000268   0.001363  -0.001379   0.040996
    5  C  1  Z    0.000000   0.000000   0.000000   0.000000   0.000000
    6  C  1  S    0.006515  -0.002793  -0.018472   0.009106   0.015695
    7  C  1  X    0.004012   0.002953   0.004659  -0.002038  -0.004876
    8  C  1  Y    0.005254   0.002522   0.001685   0.004145  -0.028221
    9  C  1  Z    0.000000   0.000000   0.000000   0.000000   0.000000
   10  C  1 XX    0.000680  -0.000307   0.001777  -0.000673   0.015426
   11  C  1 YY    0.000007   0.000290  -0.000221  -0.000076  -0.004989
   12  C  1 ZZ   -0.000687   0.000017  -0.001555   0.000750  -0.010437
   13  C  1 XY    0.000459   0.000029   0.000331   0.001078   0.013285
   14  C  1 XZ    0.000000   0.000000   0.000000   0.000000   0.000000
   15  C  1 YZ    0.000000   0.000000   0.000000   0.000000   0.000000
   16  C  2  S    0.000055   0.000015   0.042085   0.994088  -0.010463
   17  C  2  S    0.000201  -0.000043  -0.000680   0.035531   0.018965
   18  C  2  X   -0.000145  -0.000488  -0.001450  -0.001106   0.016035
   19  C  2  Y    0.000273  -0.000036   0.001212  -0.001084  -0.006286
   20  C  2  Z    0.000000   0.000000   0.000000   0.000000   0.000000
   21  C  2  S   -0.003154   0.008355   0.006077  -0.019606   0.027573
   22  C  2  X   -0.003169  -0.005623   0.001262  -0.006252   0.025109
   23  C  2  Y   -0.002200  -0.005531  -0.003695  -0.000986   0.005498
   24  C  2  Z    0.000000   0.000000   0.000000   0.000000   0.000000
   25  C  2 XX   -0.000223  -0.000122  -0.000586   0.001710   0.004009
   26  C  2 YY    0.000149   0.000368  -0.000056  -0.000273  -0.001703
   27  C  2 ZZ    0.000074  -0.000246   0.000642  -0.001437  -0.002306
   28  C  2 XY    0.000052  -0.000018   0.001025  -0.000164  -0.002178
   29  C  2 XZ    0.000000   0.000000   0.000000   0.000000   0.000000
   30  C  2 YZ    0.000000   0.000000   0.000000   0.000000   0.000000
   31  O  3  S    0.000009   0.995137   0.000005   0.000142  -0.002863
   32  O  3  S    0.000170   0.029661  -0.000032   0.001111   0.005077
   33  O  3  X   -0.000071   0.001649  -0.000156  -0.000456   0.002512
   34  O  3  Y    0.000027  -0.000836  -0.000018  -0.000081  -0.000948
   35  O  3  Z    0.000000   0.000000   0.000000   0.000000   0.000000
   36  O  3  S   -0.001452  -0.019993  -0.000994  -0.004346   0.015102
   37  O  3  X   -0.000053  -0.005450  -0.000115  -0.003585   0.002420
   38  O  3  Y   -0.000076   0.000816   0.000187  -0.001588   0.002127
   39  O  3  Z    0.000000   0.000000   0.000000   0.000000   0.000000
   40  O  3 XX    0.000076  -0.000507   0.000010  -0.001991  -0.000040
   41  O  3 YY    0.000023   0.000045   0.000136   0.000676   0.000010
   42  O  3 ZZ   -0.000099   0.000462  -0.000146   0.001315   0.000030
   43  O  3 XY    0.000029  -0.000186  -0.000034  -0.001293  -0.000062
   44  O  3 XZ    0.000000   0.000000   0.000000   0.000000   0.000000
   45  O  3 YZ    0.000000   0.000000   0.000000   0.000000   0.000000
   46  H  4  S   -0.000118   0.000655  -0.000153  -0.000048   0.002133
   47  H  4  S    0.000323   0.002223   0.000522   0.000033  -0.000855
   48  H  5  S    0.000362  -0.000097  -0.000121  -0.001055   0.001842
   49  H  5  S    0.001467   0.001777   0.001394   0.005175  -0.003481
   50  F  6  S    0.994979   0.000007   0.000115   0.000004  -0.225184
   51  F  6  S    0.027814   0.000178   0.001540  -0.000075   0.481596
   52  F  6  X   -0.001360   0.000067  -0.000091   0.000109  -0.087750
   53  F  6  Y   -0.000518  -0.000059  -0.000095  -0.000006  -0.036474
   54  F  6  Z    0.000000   0.000000   0.000000   0.000000   0.000000
   55  F  6  S   -0.015161  -0.001122  -0.004207  -0.000659   0.517728
   56  F  6  X    0.004267  -0.000080   0.003911  -0.000084  -0.050517
   57  F  6  Y    0.001407   0.000190   0.001888  -0.000049  -0.018261
   58  F  6  Z    0.000000   0.000000   0.000000   0.000000   0.000000
   59  F  6 XX   -0.000826   0.000099  -0.001972   0.000192   0.010850
   60  F  6 YY    0.000383   0.000017   0.000543   0.000069  -0.003873
   61  F  6 ZZ    0.000442  -0.000116   0.001429  -0.000261  -0.006977
   62  F  6 XY   -0.000565   0.000037  -0.001653  -0.000001   0.007844
   63  F  6 XZ    0.000000   0.000000   0.000000   0.000000   0.000000
   64  F  6 YZ    0.000000   0.000000   0.000000   0.000000   0.000000
   65  H  7  S    0.000044   0.000415  -0.001079  -0.000021   0.014175
   66  H  7  S    0.001577   0.001274   0.005122   0.001031  -0.011575

                      6          7          8          9         10
                   -1.0600    -0.7505    -0.6254    -0.5387    -0.5161
                     A          A          A          A          A   
    1  C  1  S   -0.014850  -0.148302   0.099509  -0.028648  -0.007415
    2  C  1  S    0.027819   0.294608  -0.202467   0.068117   0.005144
    3  C  1  X   -0.030469  -0.128879  -0.040064   0.214021  -0.242646
    4  C  1  Y    0.007676   0.062002   0.092224  -0.245016  -0.213834
    5  C  1  Z    0.000000   0.000000   0.000000   0.000000   0.000000
    6  C  1  S    0.025281   0.198403  -0.175097   0.068256   0.031025
    7  C  1  X   -0.021767  -0.041512   0.021023   0.050736  -0.035573
    8  C  1  Y   -0.009842  -0.029490   0.047036  -0.081275  -0.048591
    9  C  1  Z    0.000000   0.000000   0.000000   0.000000   0.000000
   10  C  1 XX    0.002884  -0.000353  -0.000251   0.005506  -0.010116
   11  C  1 YY   -0.000930   0.009557  -0.006957   0.000281   0.007012
   12  C  1 ZZ   -0.001953  -0.009204   0.007207  -0.005787   0.003104
   13  C  1 XY   -0.003341  -0.010263  -0.002606   0.008009  -0.014460
   14  C  1 XZ    0.000000   0.000000   0.000000   0.000000   0.000000
   15  C  1 YZ    0.000000   0.000000   0.000000   0.000000   0.000000
   16  C  2  S   -0.078644  -0.144728  -0.089798   0.039169  -0.010864
   17  C  2  S    0.147950   0.286045   0.186200  -0.074252   0.021161
   18  C  2  X   -0.106980   0.138977  -0.151812  -0.254871  -0.056649
   19  C  2  Y   -0.045405  -0.053059   0.143118   0.027929  -0.211239
   20  C  2  Z    0.000000   0.000000   0.000000   0.000000   0.000000
   21  C  2  S    0.032011   0.201452   0.166605  -0.049082   0.001310
   22  C  2  X    0.014307   0.043053  -0.027747  -0.078130  -0.026400
   23  C  2  Y    0.020956   0.019002   0.027453   0.000494  -0.098491
   24  C  2  Z    0.000000   0.000000   0.000000   0.000000   0.000000
   25  C  2 XX    0.016862  -0.000037   0.008542   0.014273  -0.002167
   26  C  2 YY   -0.004280   0.009260   0.000445  -0.011561   0.002000
   27  C  2 ZZ   -0.012582  -0.009223  -0.008987  -0.002712   0.000167
   28  C  2 XY    0.012623  -0.011884   0.004096   0.002898  -0.000308
   29  C  2 XZ    0.000000   0.000000   0.000000   0.000000   0.000000
   30  C  2 YZ    0.000000   0.000000   0.000000   0.000000   0.000000
   31  O  3  S   -0.204184   0.056563   0.010073  -0.020110   0.028100
   32  O  3  S    0.448464  -0.134322  -0.020126   0.055836  -0.063211
   33  O  3  X    0.101665   0.084946   0.170618   0.124605   0.162941
   34  O  3  Y   -0.062911   0.082491   0.288829   0.273679  -0.019158
   35  O  3  Z    0.000000   0.000000   0.000000   0.000000   0.000000
   36  O  3  S    0.453608  -0.139871  -0.041304   0.042968  -0.111577
   37  O  3  X    0.054026   0.050518   0.074854   0.041594   0.093869
   38  O  3  Y   -0.033752   0.040645   0.141568   0.140460  -0.012393
   39  O  3  Z    0.000000   0.000000   0.000000   0.000000   0.000000
   40  O  3 XX    0.003508   0.012955   0.015745   0.008389   0.010684
   41  O  3 YY    0.011660  -0.012676  -0.018973  -0.014229  -0.007316
   42  O  3 ZZ   -0.015168  -0.000279   0.003228   0.005840  -0.003369
   43  O  3 XY    0.001226  -0.000094   0.009512   0.006450  -0.010266
   44  O  3 XZ    0.000000   0.000000   0.000000   0.000000   0.000000
   45  O  3 YZ    0.000000   0.000000   0.000000   0.000000   0.000000
   46  H  4  S    0.124437  -0.075715  -0.164003  -0.139753  -0.013943
   47  H  4  S   -0.004420  -0.012949  -0.070553  -0.080136  -0.002808
   48  H  5  S    0.021534   0.081285   0.126612  -0.035640  -0.096588
   49  H  5  S   -0.007341   0.006509   0.060737  -0.025502  -0.042678
   50  F  6  S    0.008222   0.053077  -0.037499   0.025208  -0.042071
   51  F  6  S   -0.019449  -0.122875   0.086381  -0.052272   0.088646
   52  F  6  X   -0.000427  -0.111355   0.140839  -0.113767   0.428853
   53  F  6  Y    0.001432  -0.019709   0.107641  -0.269490   0.060246
   54  F  6  Z    0.000000   0.000000   0.000000   0.000000   0.000000
   55  F  6  S   -0.012146  -0.144789   0.113020  -0.097556   0.155651
   56  F  6  X   -0.001196  -0.070955   0.088688  -0.063964   0.264109
   57  F  6  Y   -0.001519  -0.011764   0.064278  -0.167116   0.032287
   58  F  6  Z    0.000000   0.000000   0.000000   0.000000   0.000000
   59  F  6 XX   -0.000093   0.008501  -0.005633  -0.002278  -0.014847
   60  F  6 YY   -0.000097  -0.003803   0.000825   0.005699   0.007682
   61  F  6 ZZ    0.000189  -0.004699   0.004808  -0.003421   0.007165
   62  F  6 XY    0.000029   0.003281  -0.007967   0.013621  -0.003801
   63  F  6 XZ    0.000000   0.000000   0.000000   0.000000   0.000000
   64  F  6 YZ    0.000000   0.000000   0.000000   0.000000   0.000000
   65  H  7  S    0.003676   0.079425  -0.122536   0.146685   0.120080
   66  H  7  S   -0.002445   0.002601  -0.050891   0.084905   0.096451

                     11         12         13         14         15
                   -0.4407    -0.4398    -0.3951    -0.3812    -0.3555
                     A          A          A          A          A   
    1  C  1  S    0.000000  -0.001333  -0.042631   0.000000   0.015151
    2  C  1  S    0.000000   0.002741   0.083349   0.000000  -0.043095
    3  C  1  X    0.000000  -0.007095  -0.100409   0.000000   0.131620
    4  C  1  Y    0.000000  -0.181808  -0.058081   0.000000  -0.224811
    5  C  1  Z    0.232177   0.000000   0.000000   0.044671   0.000000
    6  C  1  S    0.000000   0.009786   0.199338   0.000000  -0.008405
    7  C  1  X    0.000000   0.049063  -0.076621   0.000000  -0.051356
    8  C  1  Y    0.000000  -0.050062   0.073446   0.000000  -0.005226
    9  C  1  Z    0.149570   0.000000   0.000000   0.002031   0.000000
   10  C  1 XX    0.000000  -0.014918  -0.016767   0.000000  -0.018130
   11  C  1 YY    0.000000   0.014822   0.016984   0.000000   0.021667
   12  C  1 ZZ    0.000000   0.000096  -0.000217   0.000000  -0.003537
   13  C  1 XY    0.000000  -0.013131   0.004707   0.000000   0.015889
   14  C  1 XZ    0.012877   0.000000   0.000000  -0.016463   0.000000
   15  C  1 YZ    0.010322   0.000000   0.000000   0.000884   0.000000
   16  C  2  S    0.000000  -0.018185   0.043831   0.000000   0.014859
   17  C  2  S    0.000000   0.036771  -0.092664   0.000000  -0.029804
   18  C  2  X    0.000000   0.116835   0.084504   0.000000  -0.188112
   19  C  2  Y    0.000000   0.331773  -0.051682   0.000000   0.182458
   20  C  2  Z    0.140655   0.000000   0.000000   0.252748   0.000000
   21  C  2  S    0.000000   0.100196  -0.189531   0.000000  -0.169289
   22  C  2  X    0.000000  -0.002892  -0.054058   0.000000  -0.012967
   23  C  2  Y    0.000000   0.089345   0.030340   0.000000   0.084822
   24  C  2  Z    0.061155   0.000000   0.000000   0.158153   0.000000
   25  C  2 XX    0.000000  -0.024366   0.006808   0.000000  -0.011671
   26  C  2 YY    0.000000   0.023747  -0.010474   0.000000   0.014137
   27  C  2 ZZ    0.000000   0.000620   0.003666   0.000000  -0.002466
   28  C  2 XY    0.000000  -0.005717  -0.017073   0.000000   0.013404
   29  C  2 XZ    0.002830   0.000000   0.000000  -0.017568   0.000000
   30  C  2 YZ   -0.005248   0.000000   0.000000  -0.008753   0.000000
   31  O  3  S    0.000000  -0.006456  -0.062383   0.000000   0.035801
   32  O  3  S    0.000000   0.015065   0.143850   0.000000  -0.087039
   33  O  3  X    0.000000  -0.287674  -0.306038   0.000000   0.202166
   34  O  3  Y    0.000000  -0.052258   0.309579   0.000000  -0.173935
   35  O  3  Z    0.123437   0.000000   0.000000   0.521023   0.000000
   36  O  3  S    0.000000  -0.009750   0.239566   0.000000  -0.116040
   37  O  3  X    0.000000  -0.183392  -0.210888   0.000000   0.167073
   38  O  3  Y    0.000000  -0.023401   0.188184   0.000000  -0.101745
   39  O  3  Z    0.080061   0.000000   0.000000   0.361669   0.000000
   40  O  3 XX    0.000000  -0.016644  -0.005225   0.000000   0.002448
   41  O  3 YY    0.000000   0.014388  -0.006817   0.000000   0.005612
   42  O  3 ZZ    0.000000   0.002256   0.012042   0.000000  -0.008060
   43  O  3 XY    0.000000   0.013494   0.018366   0.000000  -0.007646
   44  O  3 XZ    0.007911   0.000000   0.000000   0.024786   0.000000
   45  O  3 YZ   -0.003219   0.000000   0.000000  -0.014817   0.000000
   46  H  4  S    0.000000   0.061010  -0.135512   0.000000   0.089549
   47  H  4  S    0.000000   0.061477  -0.080268   0.000000   0.085567
   48  H  5  S    0.000000   0.232049  -0.087133   0.000000   0.112100
   49  H  5  S    0.000000   0.181499  -0.059463   0.000000   0.137301
   50  F  6  S    0.000000  -0.004885  -0.001347   0.000000   0.000621
   51  F  6  S    0.000000   0.010653   0.001603   0.000000  -0.005203
   52  F  6  X    0.000000   0.258321  -0.022941   0.000000  -0.181223
   53  F  6  Y    0.000000  -0.138994   0.378755   0.000000   0.416794
   54  F  6  Z    0.553294   0.000000   0.000000  -0.246783   0.000000
   55  F  6  S    0.000000   0.001919  -0.001497   0.000000   0.017444
   56  F  6  X    0.000000   0.174609  -0.014749   0.000000  -0.128755
   57  F  6  Y    0.000000  -0.090211   0.257484   0.000000   0.288855
   58  F  6  Z    0.370631   0.000000   0.000000  -0.175697   0.000000
   59  F  6 XX    0.000000  -0.010981   0.004480   0.000000   0.004397
   60  F  6 YY    0.000000   0.008858  -0.005550   0.000000  -0.004528
   61  F  6 ZZ    0.000000   0.002123   0.001070   0.000000   0.000131
   62  F  6 XY    0.000000   0.002971  -0.009588   0.000000  -0.006182
   63  F  6 XZ   -0.021486   0.000000   0.000000   0.006652   0.000000
   64  F  6 YZ   -0.008794   0.000000   0.000000   0.003262   0.000000
   65  H  7  S    0.000000   0.123222   0.102072   0.000000   0.160722
   66  H  7  S    0.000000   0.114364   0.105356   0.000000   0.207173

                     16         17         18         19         20
                   -0.2206     0.0439     0.0561     0.1104     0.1535
                     A          A          A          A          A   
    1  C  1  S    0.000000   0.000000   0.040992   0.027732   0.106318
    2  C  1  S    0.000000   0.000000  -0.101503  -0.018816  -0.161316
    3  C  1  X    0.000000   0.000000  -0.116906   0.183504  -0.188102
    4  C  1  Y    0.000000   0.000000   0.008645   0.299167   0.190415
    5  C  1  Z    0.394647  -0.444125   0.000000   0.000000   0.000000
    6  C  1  S    0.000000   0.000000  -0.005626  -0.804788  -1.581819
    7  C  1  X    0.000000   0.000000  -0.442096   0.420232  -0.080888
    8  C  1  Y    0.000000   0.000000   0.228411   0.469906   0.783768
    9  C  1  Z    0.263950  -0.592762   0.000000   0.000000   0.000000
   10  C  1 XX    0.000000   0.000000   0.020629  -0.027063   0.017422
   11  C  1 YY    0.000000   0.000000  -0.016570   0.019379  -0.003534
   12  C  1 ZZ    0.000000   0.000000  -0.004059   0.007685  -0.013888
   13  C  1 XY    0.000000   0.000000   0.014940  -0.016623   0.011311
   14  C  1 XZ   -0.022325  -0.013306   0.000000   0.000000   0.000000
   15  C  1 YZ    0.004731   0.025207   0.000000   0.000000   0.000000
   16  C  2  S    0.000000   0.000000  -0.018390  -0.031980   0.035607
   17  C  2  S    0.000000   0.000000   0.052861   0.042868  -0.042928
   18  C  2  X    0.000000   0.000000  -0.110921   0.131157   0.126703
   19  C  2  Y    0.000000   0.000000  -0.058450   0.216761  -0.203727
   20  C  2  Z    0.320872   0.472366   0.000000   0.000000   0.000000
   21  C  2  S    0.000000   0.000000  -0.248964   0.703731  -0.745883
   22  C  2  X    0.000000   0.000000  -0.398292   0.412297   0.003221
   23  C  2  Y    0.000000   0.000000   0.103059   0.395718  -0.818758
   24  C  2  Z    0.221924   0.627984   0.000000   0.000000   0.000000
   25  C  2 XX    0.000000   0.000000  -0.015112   0.034310   0.002318
   26  C  2 YY    0.000000   0.000000   0.008566  -0.032070   0.004982
   27  C  2 ZZ    0.000000   0.000000   0.006546  -0.002240  -0.007300
   28  C  2 XY    0.000000   0.000000  -0.014713   0.010426   0.011332
   29  C  2 XZ    0.028692  -0.009706   0.000000   0.000000   0.000000
   30  C  2 YZ   -0.007411   0.022670   0.000000   0.000000   0.000000
   31  O  3  S    0.000000   0.000000   0.080314  -0.007888  -0.030136
   32  O  3  S    0.000000   0.000000  -0.158026   0.034318   0.072484
   33  O  3  X    0.000000   0.000000  -0.106433   0.141891   0.007833
   34  O  3  Y    0.000000   0.000000   0.268041   0.092884  -0.033485
   35  O  3  Z   -0.348407  -0.206432   0.000000   0.000000   0.000000
   36  O  3  S    0.000000   0.000000  -0.922068   0.030934   0.254251
   37  O  3  X    0.000000   0.000000  -0.117254   0.201732   0.004425
   38  O  3  Y    0.000000   0.000000   0.409835   0.156762  -0.017693
   39  O  3  Z   -0.293697  -0.245254   0.000000   0.000000   0.000000
   40  O  3 XX    0.000000   0.000000   0.004855  -0.001729   0.002150
   41  O  3 YY    0.000000   0.000000  -0.011244  -0.001555  -0.003782
   42  O  3 ZZ    0.000000   0.000000   0.006390   0.003283   0.001632
   43  O  3 XY    0.000000   0.000000   0.007520   0.007348  -0.015404
   44  O  3 XZ   -0.002554   0.011174   0.000000   0.000000   0.000000
   45  O  3 YZ    0.012647   0.017298   0.000000   0.000000   0.000000
   46  H  4  S    0.000000   0.000000   0.125385   0.049670  -0.085658
   47  H  4  S    0.000000   0.000000   1.221810   0.416271  -0.435251
   48  H  5  S    0.000000   0.000000  -0.015328  -0.115354   0.055792
   49  H  5  S    0.000000   0.000000  -0.047489  -1.084465   1.210722
   50  F  6  S    0.000000   0.000000  -0.028575   0.031986  -0.028012
   51  F  6  S    0.000000   0.000000   0.061367  -0.070317   0.067538
   52  F  6  X    0.000000   0.000000  -0.135290   0.150411  -0.146733
   53  F  6  Y    0.000000   0.000000  -0.063817   0.021082  -0.132187
   54  F  6  Z   -0.266971   0.167893   0.000000   0.000000   0.000000
   55  F  6  S    0.000000   0.000000   0.240573  -0.270479   0.197612
   56  F  6  X    0.000000   0.000000  -0.143763   0.185363  -0.151311
   57  F  6  Y    0.000000   0.000000  -0.105679   0.014507  -0.173861
   58  F  6  Z   -0.216900   0.175160   0.000000   0.000000   0.000000
   59  F  6 XX    0.000000   0.000000  -0.001437   0.002918  -0.002806
   60  F  6 YY    0.000000   0.000000   0.000950  -0.001437   0.005168
   61  F  6 ZZ    0.000000   0.000000   0.000487  -0.001482  -0.002362
   62  F  6 XY    0.000000   0.000000   0.003656  -0.005775  -0.006865
   63  F  6 XZ   -0.001763   0.007287   0.000000   0.000000   0.000000
   64  F  6 YZ    0.000668   0.007807   0.000000   0.000000   0.000000
   65  H  7  S    0.000000   0.000000  -0.045003   0.066170   0.070005
   66  H  7  S    0.000000   0.000000   0.258863   1.133383   1.698621

                     21         22         23         24         25
                    0.1777     0.2991     0.3842     0.5291     0.5293
                     A          A          A          A          A   
    1  C  1  S    0.082036   0.012481  -0.097587   0.028918   0.000000
    2  C  1  S   -0.133499  -0.113101   0.141898   0.236206   0.000000
    3  C  1  X   -0.154748   0.243257   0.009702  -0.599595   0.000000
    4  C  1  Y   -0.124397   0.099067   0.365652   0.074881   0.000000
    5  C  1  Z    0.000000   0.000000   0.000000   0.000000   0.755262
    6  C  1  S   -0.629568  -0.417268   3.264855   0.041123   0.000000
    7  C  1  X   -0.486661   1.476906  -1.906110   1.280991   0.000000
    8  C  1  Y   -0.295900   0.656126   1.957641  -0.393118   0.000000
    9  C  1  Z    0.000000   0.000000   0.000000   0.000000  -0.751926
   10  C  1 XX    0.014082   0.025794  -0.025909   0.042165   0.000000
   11  C  1 YY   -0.001979  -0.042815   0.003077   0.014727   0.000000
   12  C  1 ZZ   -0.012103   0.017021   0.022832  -0.056892   0.000000
   13  C  1 XY    0.002860  -0.000643   0.002120  -0.021529   0.000000
   14  C  1 XZ    0.000000   0.000000   0.000000   0.000000  -0.024754
   15  C  1 YZ    0.000000   0.000000   0.000000   0.000000   0.036904
   16  C  2  S   -0.119212  -0.079390   0.080072   0.016027   0.000000
   17  C  2  S    0.223668   0.017293  -0.119243   0.237251   0.000000
   18  C  2  X   -0.072215  -0.299034  -0.063532   0.490580   0.000000
   19  C  2  Y    0.129614  -0.274244   0.199890  -0.171818   0.000000
   20  C  2  Z    0.000000   0.000000   0.000000   0.000000   0.665708
   21  C  2  S    1.470405   1.699636  -2.858200   0.682592   0.000000
   22  C  2  X   -0.187873  -1.136946  -2.870021  -0.951894   0.000000
   23  C  2  Y    0.652309  -1.327026   1.399457   0.175442   0.000000
   24  C  2  Z    0.000000   0.000000   0.000000   0.000000  -0.607604
   25  C  2 XX   -0.034717  -0.007649   0.031489   0.056595   0.000000
   26  C  2 YY    0.026591  -0.019535  -0.023905   0.000731   0.000000
   27  C  2 ZZ    0.008126   0.027183  -0.007584  -0.057327   0.000000
   28  C  2 XY   -0.007185  -0.001496  -0.017644  -0.040090   0.000000
   29  C  2 XZ    0.000000   0.000000   0.000000   0.000000   0.024840
   30  C  2 YZ    0.000000   0.000000   0.000000   0.000000  -0.036333
   31  O  3  S    0.012443   0.073211   0.015205   0.012010   0.000000
   32  O  3  S   -0.051250  -0.124997   0.012210   0.031147   0.000000
   33  O  3  X   -0.231511  -0.233268   0.067618   0.237490   0.000000
   34  O  3  Y   -0.193596  -0.159081  -0.171522   0.000142   0.000000
   35  O  3  Z    0.000000   0.000000   0.000000   0.000000   0.105251
   36  O  3  S   -0.007119  -1.209982  -0.591961  -0.593423   0.000000
   37  O  3  X   -0.289330  -0.826425  -0.177720  -0.154207   0.000000
   38  O  3  Y   -0.406892  -0.266788  -0.487127  -0.045283   0.000000
   39  O  3  Z    0.000000   0.000000   0.000000   0.000000   0.033170
   40  O  3 XX    0.003747  -0.011826  -0.043314  -0.060681   0.000000
   41  O  3 YY    0.000593  -0.004118   0.040522   0.050322   0.000000
   42  O  3 ZZ   -0.004340   0.015944   0.002792   0.010359   0.000000
   43  O  3 XY    0.005963   0.005397  -0.019486  -0.005641   0.000000
   44  O  3 XZ    0.000000   0.000000   0.000000   0.000000   0.022396
   45  O  3 YZ    0.000000   0.000000   0.000000   0.000000   0.014295
   46  H  4  S   -0.074367  -0.029541   0.074367   0.218083   0.000000
   47  H  4  S   -0.634447  -0.331424  -0.588460   0.039457   0.000000
   48  H  5  S    0.004389  -0.118854  -0.027761   0.005892   0.000000
   49  H  5  S   -1.453961   0.677801  -0.363713  -0.132296   0.000000
   50  F  6  S   -0.053702   0.052506   0.004804  -0.004422   0.000000
   51  F  6  S    0.113498  -0.063496  -0.012620   0.087801   0.000000
   52  F  6  X   -0.210283   0.035704   0.145319  -0.216251   0.000000
   53  F  6  Y   -0.034506   0.117205  -0.025848   0.084493   0.000000
   54  F  6  Z    0.000000   0.000000   0.000000   0.000000   0.064247
   55  F  6  S    0.508943  -0.806342   0.002215  -0.400909   0.000000
   56  F  6  X   -0.306893   0.299269   0.179776   0.002169   0.000000
   57  F  6  Y   -0.097960   0.185374  -0.180502   0.123526   0.000000
   58  F  6  Z    0.000000   0.000000   0.000000   0.000000   0.076486
   59  F  6 XX    0.003465  -0.020737   0.021187  -0.036475   0.000000
   60  F  6 YY   -0.000944   0.008535  -0.019943   0.017269   0.000000
   61  F  6 ZZ   -0.002521   0.012202  -0.001245   0.019205   0.000000
   62  F  6 XY    0.005841  -0.005614   0.022781  -0.028247   0.000000
   63  F  6 XZ    0.000000   0.000000   0.000000   0.000000  -0.027920
   64  F  6 YZ    0.000000   0.000000   0.000000   0.000000  -0.015824
   65  H  7  S    0.068467  -0.118735  -0.043101   0.097780   0.000000
   66  H  7  S    0.196297   0.691868   0.945633  -0.318942   0.000000

                     26         27         28         29         30
                    0.5840     0.6090     0.6236     0.6492     0.7826
                     A          A          A          A          A   
    1  C  1  S   -0.012680   0.036618   0.000000   0.039172   0.013471
    2  C  1  S   -0.816018  -0.197929   0.000000   0.015898  -0.204488
    3  C  1  X   -0.543729   0.477648   0.000000   0.134247   0.126459
    4  C  1  Y   -0.363433  -0.122961   0.000000  -0.443381   0.097204
    5  C  1  Z    0.000000   0.000000   0.702494   0.000000   0.000000
    6  C  1  S    1.427803  -0.538754   0.000000   0.342534  -0.120227
    7  C  1  X    0.471102   0.134633   0.000000  -0.661420  -0.023762
    8  C  1  Y    1.113168  -0.299180   0.000000   1.283467  -0.528589
    9  C  1  Z    0.000000   0.000000  -1.233307   0.000000   0.000000
   10  C  1 XX    0.019652  -0.013374   0.000000  -0.017211  -0.005386
   11  C  1 YY   -0.053977   0.017947   0.000000   0.094348   0.003691
   12  C  1 ZZ    0.034325  -0.004573   0.000000  -0.077137   0.001695
   13  C  1 XY    0.102781  -0.064667   0.000000  -0.045861  -0.018479
   14  C  1 XZ    0.000000   0.000000   0.030831   0.000000   0.000000
   15  C  1 YZ    0.000000   0.000000   0.012450   0.000000   0.000000
   16  C  2  S    0.026444  -0.022354   0.000000  -0.041336  -0.039204
   17  C  2  S   -0.620023  -0.601121   0.000000  -0.113856   0.076622
   18  C  2  X   -0.060586   0.832009   0.000000   0.082796   0.074068
   19  C  2  Y    0.432619   0.199243   0.000000  -0.337019   0.157037
   20  C  2  Z    0.000000   0.000000  -0.785558   0.000000   0.000000
   21  C  2  S    0.127950   1.615548   0.000000  -0.279872  -0.237772
   22  C  2  X   -0.577453  -0.693622   0.000000  -0.659565   0.446366
   23  C  2  Y   -0.424909  -0.961470   0.000000   0.933130  -0.409161
   24  C  2  Z    0.000000   0.000000   1.320739   0.000000   0.000000
   25  C  2 XX   -0.006855   0.007827   0.000000   0.017918  -0.029482
   26  C  2 YY   -0.010627  -0.039693   0.000000  -0.104752  -0.044665
   27  C  2 ZZ    0.017482   0.031866   0.000000   0.086834   0.074147
   28  C  2 XY   -0.005912   0.100088   0.000000   0.056980  -0.089670
   29  C  2 XZ    0.000000   0.000000   0.034926   0.000000   0.000000
   30  C  2 YZ    0.000000   0.000000   0.016197   0.000000   0.000000
   31  O  3  S   -0.005334  -0.008217   0.000000   0.027594   0.009537
   32  O  3  S    0.049661   0.066971   0.000000  -0.123398  -0.096603
   33  O  3  X    0.081213   0.155855   0.000000   0.106993  -0.445671
   34  O  3  Y   -0.020556   0.036894   0.000000  -0.106419   0.404771
   35  O  3  Z    0.000000   0.000000  -0.096491   0.000000   0.000000
   36  O  3  S   -0.309112  -0.632066   0.000000  -0.190147   0.427702
   37  O  3  X   -0.079125  -0.232728   0.000000  -0.185914   0.631247
   38  O  3  Y   -0.024608  -0.009928   0.000000  -0.078371   0.056754
   39  O  3  Z    0.000000   0.000000  -0.127300   0.000000   0.000000
   40  O  3 XX   -0.049569  -0.091798   0.000000  -0.016249  -0.057647
   41  O  3 YY    0.023394  -0.001060   0.000000   0.005169   0.145171
   42  O  3 ZZ    0.026175   0.092858   0.000000   0.011080  -0.087524
   43  O  3 XY   -0.008468  -0.116800   0.000000   0.009522   0.022379
   44  O  3 XZ    0.000000   0.000000  -0.045755   0.000000   0.000000
   45  O  3 YZ    0.000000   0.000000   0.004663   0.000000   0.000000
   46  H  4  S    0.020266  -0.124395   0.000000   0.083838   0.892898
   47  H  4  S   -0.158048  -0.201891   0.000000   0.022855  -0.786548
   48  H  5  S   -0.140131  -0.035710   0.000000  -0.582515  -0.318821
   49  H  5  S    0.016610   0.249928   0.000000  -0.161074   0.642114
   50  F  6  S    0.015203  -0.008463   0.000000  -0.011115  -0.004073
   51  F  6  S    0.019783   0.021313   0.000000   0.043610   0.003066
   52  F  6  X   -0.212656   0.005047   0.000000   0.037020   0.004402
   53  F  6  Y   -0.160141   0.123697   0.000000  -0.187680   0.023594
   54  F  6  Z    0.000000   0.000000   0.053357   0.000000   0.000000
   55  F  6  S   -0.617473   0.104705   0.000000   0.040724   0.101197
   56  F  6  X    0.214159  -0.071440   0.000000  -0.016265  -0.046395
   57  F  6  Y    0.009113   0.019256   0.000000  -0.091389   0.017499
   58  F  6  Z    0.000000   0.000000   0.119385   0.000000   0.000000
   59  F  6 XX   -0.094317   0.014747   0.000000  -0.001939   0.004361
   60  F  6 YY    0.020857   0.007161   0.000000   0.011861   0.005135
   61  F  6 ZZ    0.073461  -0.021908   0.000000  -0.009922  -0.009496
   62  F  6 XY   -0.072111   0.044212   0.000000  -0.007010   0.004966
   63  F  6 XZ    0.000000   0.000000  -0.046031   0.000000   0.000000
   64  F  6 YZ    0.000000   0.000000   0.001635   0.000000   0.000000
   65  H  7  S   -0.214180  -0.084216   0.000000   0.575955   0.004326
   66  H  7  S    0.373179  -0.169624   0.000000   0.312734  -0.293234

                     31         32         33         34         35
                    0.8524     0.8725     0.9324     1.0047     1.0177
                     A          A          A          A          A   
    1  C  1  S   -0.026704  -0.003265   0.000000  -0.008818  -0.002348
    2  C  1  S    0.728951  -0.597183   0.000000  -0.533861   0.495213
    3  C  1  X    0.109925   0.100301   0.000000   0.006004  -0.171955
    4  C  1  Y   -0.877648   0.103967   0.000000   0.074706   0.069667
    5  C  1  Z    0.000000   0.000000   0.019836   0.000000   0.000000
    6  C  1  S   -0.528385   1.966545   0.000000   2.605744  -2.850542
    7  C  1  X   -0.492113  -0.881450   0.000000  -0.876869   0.274493
    8  C  1  Y    2.526264  -0.523282   0.000000  -0.411864  -2.511106
    9  C  1  Z    0.000000   0.000000   0.172617   0.000000   0.000000
   10  C  1 XX    0.116769   0.041580   0.000000   0.041551  -0.062049
   11  C  1 YY   -0.130412  -0.060815   0.000000  -0.021996  -0.067641
   12  C  1 ZZ    0.013643   0.019235   0.000000  -0.019555   0.129690
   13  C  1 XY   -0.064392  -0.007106   0.000000  -0.068887  -0.032237
   14  C  1 XZ    0.000000   0.000000  -0.004941   0.000000   0.000000
   15  C  1 YZ    0.000000   0.000000  -0.049541   0.000000   0.000000
   16  C  2  S    0.003907   0.023049   0.000000  -0.003214  -0.025593
   17  C  2  S    0.359243  -0.903779   0.000000   0.407658  -0.780657
   18  C  2  X    0.203527  -0.008930   0.000000   0.221159  -0.228966
   19  C  2  Y   -0.149941  -0.912437   0.000000  -0.159764  -0.106659
   20  C  2  Z    0.000000   0.000000   0.131216   0.000000   0.000000
   21  C  2  S   -1.778979   1.079415   0.000000  -2.508114   3.628021
   22  C  2  X   -1.021998  -0.001726   0.000000   0.040229   2.159040
   23  C  2  Y    0.264997   2.803544   0.000000   1.869964   0.642426
   24  C  2  Z    0.000000   0.000000  -0.580933   0.000000   0.000000
   25  C  2 XX   -0.086912  -0.080850   0.000000  -0.085297   0.080927
   26  C  2 YY    0.094065   0.086669   0.000000  -0.002669  -0.144641
   27  C  2 ZZ   -0.007152  -0.005819   0.000000   0.087966   0.063714
   28  C  2 XY    0.009492   0.038095   0.000000  -0.044873  -0.068250
   29  C  2 XZ    0.000000   0.000000  -0.012395   0.000000   0.000000
   30  C  2 YZ    0.000000   0.000000  -0.043382   0.000000   0.000000
   31  O  3  S   -0.007659  -0.009095   0.000000  -0.063739  -0.006735
   32  O  3  S    0.065969   0.004919   0.000000   0.476263   0.071848
   33  O  3  X   -0.079006  -0.086969   0.000000  -0.539466   0.207296
   34  O  3  Y    0.027202   0.178060   0.000000  -0.464513  -0.107321
   35  O  3  Z    0.000000   0.000000  -0.940850   0.000000   0.000000
   36  O  3  S   -0.122725   0.272372   0.000000   0.097011   0.318706
   37  O  3  X    0.211416   0.332796   0.000000   1.349714  -0.204682
   38  O  3  Y    0.015026  -0.357737   0.000000   0.547180   0.140900
   39  O  3  Z    0.000000   0.000000   1.209033   0.000000   0.000000
   40  O  3 XX   -0.001063   0.005802   0.000000   0.038091  -0.024470
   41  O  3 YY    0.025690   0.014379   0.000000  -0.056361   0.027063
   42  O  3 ZZ   -0.024626  -0.020181   0.000000   0.018270  -0.002592
   43  O  3 XY   -0.007726  -0.058847   0.000000   0.022166   0.076006
   44  O  3 XZ    0.000000   0.000000  -0.024155   0.000000   0.000000
   45  O  3 YZ    0.000000   0.000000  -0.037863   0.000000   0.000000
   46  H  4  S    0.153137   0.142504   0.000000  -0.463462   0.061978
   47  H  4  S   -0.097068  -0.045606   0.000000   1.200891   0.063724
   48  H  5  S    0.208055   0.535466   0.000000  -0.332150  -0.603073
   49  H  5  S   -0.191183  -2.512361   0.000000  -0.356445  -0.531675
   50  F  6  S    0.012895  -0.001936   0.000000   0.000397  -0.054051
   51  F  6  S   -0.040993  -0.003459   0.000000  -0.015762   0.236556
   52  F  6  X    0.000633   0.040930   0.000000  -0.011669   0.173672
   53  F  6  Y    0.004152  -0.005933   0.000000   0.022496   0.270593
   54  F  6  Z    0.000000   0.000000   0.022256   0.000000   0.000000
   55  F  6  S   -0.133759   0.113106   0.000000   0.040864   0.588851
   56  F  6  X    0.142156  -0.014056   0.000000   0.021188  -0.599848
   57  F  6  Y   -0.148671   0.008898   0.000000   0.008426  -0.200365
   58  F  6  Z    0.000000   0.000000  -0.039031   0.000000   0.000000
   59  F  6 XX   -0.054259  -0.006188   0.000000  -0.044995   0.054823
   60  F  6 YY    0.049411  -0.009170   0.000000   0.022360   0.036768
   61  F  6 ZZ    0.004848   0.015358   0.000000   0.022634  -0.091591
   62  F  6 XY    0.074736  -0.019643   0.000000  -0.000687   0.018567
   63  F  6 XZ    0.000000   0.000000   0.011224   0.000000   0.000000
   64  F  6 YZ    0.000000   0.000000  -0.017703   0.000000   0.000000
   65  H  7  S   -0.647852  -0.034116   0.000000  -0.148329  -0.633841
   66  H  7  S    2.409257  -0.512728   0.000000  -0.720754  -0.398065

                     36         37         38         39         40
                    1.0424     1.2229     1.2286     1.2613     1.3583
                     A          A          A          A          A   
    1  C  1  S   -0.018085   0.000000  -0.016854   0.008458   0.000000
    2  C  1  S   -1.266004   0.000000  -0.355276   0.271806   0.000000
    3  C  1  X    0.300853   0.000000  -0.004132   0.280068   0.000000
    4  C  1  Y   -0.012597   0.000000  -0.072547   0.165751   0.000000
    5  C  1  Z    0.000000   0.048235   0.000000   0.000000  -0.107257
    6  C  1  S    4.078193   0.000000   3.127183  -0.035457   0.000000
    7  C  1  X   -1.703385   0.000000  -1.119339  -0.240322   0.000000
    8  C  1  Y    0.157557   0.000000   1.021982  -0.802426   0.000000
    9  C  1  Z    0.000000  -0.355364   0.000000   0.000000  -0.042822
   10  C  1 XX    0.033809   0.000000   0.007373   0.162704   0.000000
   11  C  1 YY   -0.084476   0.000000  -0.050369  -0.079714   0.000000
   12  C  1 ZZ    0.050667   0.000000   0.042996  -0.082990   0.000000
   13  C  1 XY   -0.094351   0.000000  -0.054168   0.146309   0.000000
   14  C  1 XZ    0.000000   0.221580   0.000000   0.000000  -0.317650
   15  C  1 YZ    0.000000   0.109309   0.000000   0.000000   0.377405
   16  C  2  S    0.011075   0.000000   0.020900  -0.009586   0.000000
   17  C  2  S    1.129697   0.000000   0.468606  -0.200977   0.000000
   18  C  2  X    0.116312   0.000000   0.145175  -0.049014   0.000000
   19  C  2  Y   -0.162160   0.000000  -0.076036  -0.099721   0.000000
   20  C  2  Z    0.000000   0.053746   0.000000   0.000000  -0.026423
   21  C  2  S   -3.703482   0.000000  -1.932584   0.844264   0.000000
   22  C  2  X   -0.715853   0.000000  -2.246576   0.614069   0.000000
   23  C  2  Y    1.280044   0.000000   1.696684   0.664528   0.000000
   24  C  2  Z    0.000000   0.083799   0.000000   0.000000  -0.036183
   25  C  2 XX    0.013881   0.000000   0.110286   0.009910   0.000000
   26  C  2 YY    0.000896   0.000000  -0.144142  -0.055192   0.000000
   27  C  2 ZZ   -0.014776   0.000000   0.033857   0.045282   0.000000
   28  C  2 XY    0.123417   0.000000   0.022124  -0.014507   0.000000
   29  C  2 XZ    0.000000  -0.047337   0.000000   0.000000   0.520387
   30  C  2 YZ    0.000000   0.175553   0.000000   0.000000  -0.140068
   31  O  3  S    0.014587   0.000000  -0.024511  -0.014512   0.000000
   32  O  3  S   -0.116577   0.000000   0.337575   0.222795   0.000000
   33  O  3  X    0.392862   0.000000   0.044888   0.121617   0.000000
   34  O  3  Y   -0.126957   0.000000   0.701924  -0.022429   0.000000
   35  O  3  Z    0.000000  -0.036541   0.000000   0.000000   0.002574
   36  O  3  S    0.519496   0.000000  -0.570359  -0.064939   0.000000
   37  O  3  X   -0.351202   0.000000  -0.292830  -0.104614   0.000000
   38  O  3  Y    0.231735   0.000000  -1.939366   0.026612   0.000000
   39  O  3  Z    0.000000   0.032627   0.000000   0.000000   0.136087
   40  O  3 XX    0.098330   0.000000   0.023939   0.010146   0.000000
   41  O  3 YY    0.062096   0.000000  -0.122540   0.031273   0.000000
   42  O  3 ZZ   -0.160426   0.000000   0.098601  -0.041419   0.000000
   43  O  3 XY   -0.013758   0.000000   0.211188   0.058856   0.000000
   44  O  3 XZ    0.000000  -0.004249   0.000000   0.000000  -0.304118
   45  O  3 YZ    0.000000   0.062362   0.000000   0.000000  -0.225796
   46  H  4  S    0.299455   0.000000  -0.505153   0.042957   0.000000
   47  H  4  S   -0.199551   0.000000  -0.515420   0.077532   0.000000
   48  H  5  S   -0.069099   0.000000  -0.249345  -0.215066   0.000000
   49  H  5  S    0.066077   0.000000  -0.302915  -0.393408   0.000000
   50  F  6  S   -0.009989   0.000000  -0.005499   0.045898   0.000000
   51  F  6  S    0.064581   0.000000   0.069930  -0.368629   0.000000
   52  F  6  X    0.001991   0.000000  -0.006852  -0.724379   0.000000
   53  F  6  Y    0.016559   0.000000  -0.036894  -0.138050   0.000000
   54  F  6  Z    0.000000  -0.871614   0.000000   0.000000  -0.152430
   55  F  6  S   -0.008269   0.000000  -0.165710   0.375058   0.000000
   56  F  6  X    0.033747   0.000000   0.063747   1.054306   0.000000
   57  F  6  Y   -0.028763   0.000000   0.001172   0.299712   0.000000
   58  F  6  Z    0.000000   1.012074   0.000000   0.000000   0.240477
   59  F  6 XX   -0.070247   0.000000  -0.058425   0.118295   0.000000
   60  F  6 YY    0.014352   0.000000  -0.011426  -0.021081   0.000000
   61  F  6 ZZ    0.055896   0.000000   0.069851  -0.097214   0.000000
   62  F  6 XY    0.037646   0.000000   0.042184   0.064966   0.000000
   63  F  6 XZ    0.000000  -0.059334   0.000000   0.000000   0.078828
   64  F  6 YZ    0.000000  -0.017664   0.000000   0.000000   0.161203
   65  H  7  S   -0.311563   0.000000  -0.132114  -0.142778   0.000000
   66  H  7  S   -0.456544   0.000000   0.257957  -0.332948   0.000000

                     41         42         43         44         45
                    1.3865     1.4537     1.5906     1.6695     1.7262
                     A          A          A          A          A   
    1  C  1  S   -0.008957   0.000000   0.000000  -0.028591   0.010082
    2  C  1  S   -0.164585   0.000000   0.000000  -0.264506  -0.077300
    3  C  1  X    0.031980   0.000000   0.000000  -0.017448   0.066393
    4  C  1  Y   -0.234894   0.000000   0.000000   0.029214   0.035437
    5  C  1  Z    0.000000  -0.097343  -0.122788   0.000000   0.000000
    6  C  1  S    1.167576   0.000000   0.000000   2.152640  -0.231427
    7  C  1  X   -0.858445   0.000000   0.000000  -1.130569  -0.081837
    8  C  1  Y    1.987836   0.000000   0.000000  -0.748216   0.361366
    9  C  1  Z    0.000000   0.241137   0.052396   0.000000   0.000000
   10  C  1 XX   -0.116943   0.000000   0.000000   0.029924  -0.012220
   11  C  1 YY    0.094608   0.000000   0.000000   0.128797  -0.360103
   12  C  1 ZZ    0.022335   0.000000   0.000000  -0.158720   0.372323
   13  C  1 XY    0.062124   0.000000   0.000000   0.095442  -0.155809
   14  C  1 XZ    0.000000   0.392375   0.182203   0.000000   0.000000
   15  C  1 YZ    0.000000   0.224792   0.500537   0.000000   0.000000
   16  C  2  S    0.009132   0.000000   0.000000   0.017667   0.020667
   17  C  2  S    0.221395   0.000000   0.000000   0.361054   0.181034
   18  C  2  X   -0.027150   0.000000   0.000000   0.108802  -0.055935
   19  C  2  Y   -0.052122   0.000000   0.000000  -0.106911  -0.038642
   20  C  2  Z    0.000000   0.148295  -0.089892   0.000000   0.000000
   21  C  2  S   -1.984011   0.000000   0.000000  -2.491751  -1.299534
   22  C  2  X   -1.096514   0.000000   0.000000   0.757109   0.913157
   23  C  2  Y    0.180780   0.000000   0.000000   2.308580  -0.364635
   24  C  2  Z    0.000000  -0.170158  -0.014421   0.000000   0.000000
   25  C  2 XX    0.004073   0.000000   0.000000  -0.000505  -0.133724
   26  C  2 YY   -0.015788   0.000000   0.000000   0.154601  -0.217012
   27  C  2 ZZ    0.011715   0.000000   0.000000  -0.154095   0.350736
   28  C  2 XY    0.073995   0.000000   0.000000   0.081195  -0.251105
   29  C  2 XZ    0.000000   0.209968  -0.106266   0.000000   0.000000
   30  C  2 YZ    0.000000   0.483737  -0.439776   0.000000   0.000000
   31  O  3  S   -0.002307   0.000000   0.000000   0.027230  -0.000556
   32  O  3  S    0.166793   0.000000   0.000000  -1.436011  -0.487495
   33  O  3  X   -0.038484   0.000000   0.000000  -0.214306   0.047452
   34  O  3  Y    0.039160   0.000000   0.000000   0.067964  -0.117920
   35  O  3  Z    0.000000  -0.008234  -0.039578   0.000000   0.000000
   36  O  3  S   -0.411029   0.000000   0.000000   3.229378   1.335190
   37  O  3  X   -0.041151   0.000000   0.000000   1.128732   0.452017
   38  O  3  Y   -0.111926   0.000000   0.000000  -0.408508   0.455868
   39  O  3  Z    0.000000   0.131460  -0.010181   0.000000   0.000000
   40  O  3 XX    0.046574   0.000000   0.000000  -0.147653  -0.329086
   41  O  3 YY   -0.008260   0.000000   0.000000  -0.156801  -0.078997
   42  O  3 ZZ   -0.038314   0.000000   0.000000   0.304454   0.408083
   43  O  3 XY   -0.006275   0.000000   0.000000  -0.052826   0.239701
   44  O  3 XZ    0.000000  -0.317700   0.389133   0.000000   0.000000
   45  O  3 YZ    0.000000   0.027415  -0.206758   0.000000   0.000000
   46  H  4  S    0.024701   0.000000   0.000000  -0.302032   0.024141
   47  H  4  S   -0.016860   0.000000   0.000000  -0.251682   0.092740
   48  H  5  S    0.098494   0.000000   0.000000  -0.341635   0.371560
   49  H  5  S    0.149139   0.000000   0.000000  -0.663564   0.288017
   50  F  6  S    0.001149   0.000000   0.000000   0.002915  -0.026781
   51  F  6  S   -0.005939   0.000000   0.000000  -0.054463   0.357506
   52  F  6  X   -0.239982   0.000000   0.000000  -0.071103  -0.182508
   53  F  6  Y    0.781735   0.000000   0.000000   0.038892   0.063280
   54  F  6  Z    0.000000   0.274792   0.041874   0.000000   0.000000
   55  F  6  S   -0.104861   0.000000   0.000000   0.230139  -0.388170
   56  F  6  X    0.409830   0.000000   0.000000   0.144113   0.247295
   57  F  6  Y   -1.232525   0.000000   0.000000  -0.043582  -0.138546
   58  F  6  Z    0.000000  -0.481387  -0.138975   0.000000   0.000000
   59  F  6 XX    0.104659   0.000000   0.000000   0.158212  -0.070189
   60  F  6 YY   -0.189144   0.000000   0.000000   0.035515  -0.160301
   61  F  6 ZZ    0.084485   0.000000   0.000000  -0.193727   0.230490
   62  F  6 XY   -0.183412   0.000000   0.000000  -0.161894   0.288231
   63  F  6 XZ    0.000000  -0.336676  -0.436629   0.000000   0.000000
   64  F  6 YZ    0.000000  -0.130050   0.016968   0.000000   0.000000
   65  H  7  S    0.206392   0.000000   0.000000  -0.478476   0.367524
   66  H  7  S    0.836537   0.000000   0.000000  -0.451845   0.108118

                     46         47         48         49         50
                    1.7325     1.7929     1.8669     1.8742     1.9337
                     A          A          A          A          A   
    1  C  1  S    0.000000  -0.004984   0.000000  -0.009524   0.011913
    2  C  1  S    0.000000  -0.406944   0.000000  -0.118484  -0.174155
    3  C  1  X    0.000000   0.241831   0.000000  -0.056849   0.189539
    4  C  1  Y    0.000000  -0.114089   0.000000   0.197155  -0.102006
    5  C  1  Z   -0.039879   0.000000   0.083001   0.000000   0.000000
    6  C  1  S    0.000000   0.117377   0.000000   0.760450  -1.031745
    7  C  1  X    0.000000  -0.623301   0.000000  -0.804443   0.869964
    8  C  1  Y    0.000000   0.572840   0.000000   0.421626  -0.955672
    9  C  1  Z    0.197785   0.000000   0.091643   0.000000   0.000000
   10  C  1 XX    0.000000   0.182529   0.000000   0.513869   0.278532
   11  C  1 YY    0.000000   0.099796   0.000000  -0.381278   0.039194
   12  C  1 ZZ    0.000000  -0.282325   0.000000  -0.132590  -0.317726
   13  C  1 XY    0.000000  -0.196842   0.000000  -0.030314   0.500643
   14  C  1 XZ   -0.178797   0.000000  -0.021748   0.000000   0.000000
   15  C  1 YZ    0.286083   0.000000  -0.123891   0.000000   0.000000
   16  C  2  S    0.000000   0.003002   0.000000   0.000805  -0.021880
   17  C  2  S    0.000000  -0.230275   0.000000  -0.217519   0.140233
   18  C  2  X    0.000000  -0.059163   0.000000  -0.148844   0.245150
   19  C  2  Y    0.000000   0.037008   0.000000   0.212588  -0.117149
   20  C  2  Z   -0.064237   0.000000   0.056448   0.000000   0.000000
   21  C  2  S    0.000000  -0.455039   0.000000  -0.681294   1.351884
   22  C  2  X    0.000000  -0.043884   0.000000   0.110177   0.730170
   23  C  2  Y    0.000000  -0.592091   0.000000   1.226025  -0.724862
   24  C  2  Z   -0.201021   0.000000  -0.127987   0.000000   0.000000
   25  C  2 XX    0.000000   0.177212   0.000000  -0.216489  -0.143644
   26  C  2 YY    0.000000  -0.062132   0.000000   0.480667   0.161601
   27  C  2 ZZ    0.000000  -0.115080   0.000000  -0.264179  -0.017957
   28  C  2 XY    0.000000  -0.276818   0.000000  -0.065081  -0.168454
   29  C  2 XZ   -0.079492   0.000000  -0.146083   0.000000   0.000000
   30  C  2 YZ   -0.059246   0.000000   0.306384   0.000000   0.000000
   31  O  3  S    0.000000  -0.000406   0.000000  -0.012421  -0.013108
   32  O  3  S    0.000000  -0.010733   0.000000  -0.210096   0.193819
   33  O  3  X    0.000000   0.079053   0.000000   0.057463   0.168162
   34  O  3  Y    0.000000  -0.095340   0.000000   0.125370  -0.068308
   35  O  3  Z   -0.044658   0.000000  -0.018210   0.000000   0.000000
   36  O  3  S    0.000000   0.013269   0.000000   0.802235  -0.176411
   37  O  3  X    0.000000  -0.164067   0.000000   0.237609  -0.186884
   38  O  3  Y    0.000000   0.139848   0.000000  -0.436095   0.310942
   39  O  3  Z    0.122804   0.000000   0.030885   0.000000   0.000000
   40  O  3 XX    0.000000  -0.211809   0.000000   0.048467  -0.247043
   41  O  3 YY    0.000000   0.152301   0.000000   0.051776   0.142196
   42  O  3 ZZ    0.000000   0.059508   0.000000  -0.100243   0.104847
   43  O  3 XY    0.000000   0.469691   0.000000  -0.207320   0.385283
   44  O  3 XZ   -0.075192   0.000000   0.066891   0.000000   0.000000
   45  O  3 YZ    0.876427   0.000000  -0.285973   0.000000   0.000000
   46  H  4  S    0.000000  -0.067016   0.000000  -0.257966   0.018399
   47  H  4  S    0.000000  -0.135469   0.000000  -0.047729   0.095295
   48  H  5  S    0.000000   0.327465   0.000000  -0.610851  -0.063381
   49  H  5  S    0.000000   0.176471   0.000000  -0.388518   0.242852
   50  F  6  S    0.000000   0.027925   0.000000   0.028292   0.026842
   51  F  6  S    0.000000  -0.463900   0.000000  -0.317212  -0.134469
   52  F  6  X    0.000000   0.056000   0.000000   0.097149   0.330851
   53  F  6  Y    0.000000   0.167450   0.000000   0.281737  -0.043473
   54  F  6  Z    0.042316   0.000000   0.029800   0.000000   0.000000
   55  F  6  S    0.000000   0.625578   0.000000   0.362874  -0.092910
   56  F  6  X    0.000000  -0.096485   0.000000   0.020592  -0.248150
   57  F  6  Y    0.000000  -0.316237   0.000000  -0.407378   0.265074
   58  F  6  Z   -0.077253   0.000000  -0.046167   0.000000   0.000000
   59  F  6 XX    0.000000  -0.189281   0.000000  -0.295597   0.249821
   60  F  6 YY    0.000000   0.508590   0.000000   0.078886  -0.548810
   61  F  6 ZZ    0.000000  -0.319309   0.000000   0.216710   0.298989
   62  F  6 XY    0.000000  -0.151656   0.000000   0.338864  -0.120083
   63  F  6 XZ   -0.110699   0.000000  -0.192677   0.000000   0.000000
   64  F  6 YZ    0.297642   0.000000   0.876723   0.000000   0.000000
   65  H  7  S    0.000000   0.091657   0.000000   0.433232  -0.156073
   66  H  7  S    0.000000   0.167858   0.000000   0.000763  -0.370918

                     51         52         53         54         55
                    1.9833     2.0239     2.1395     2.2162     2.3265
                     A          A          A          A          A   
    1  C  1  S    0.002475   0.016846   0.000000   0.024285  -0.054976
    2  C  1  S    0.045662   0.510476   0.000000   0.070776  -0.531466
    3  C  1  X    0.014866  -0.013264   0.000000   0.382188  -0.142929
    4  C  1  Y   -0.106859   0.193541   0.000000  -0.115677  -0.079174
    5  C  1  Z    0.000000   0.000000   0.111995   0.000000   0.000000
    6  C  1  S   -0.986036  -1.241841   0.000000  -1.082278   2.478933
    7  C  1  X    0.295158  -0.996111   0.000000  -0.020534  -0.825694
    8  C  1  Y   -0.347320  -1.634861   0.000000  -1.054953   0.868968
    9  C  1  Z    0.000000   0.000000   0.372470   0.000000   0.000000
   10  C  1 XX   -0.093592  -0.166715   0.000000  -0.215740   0.190277
   11  C  1 YY    0.318791   0.082179   0.000000  -0.017914   0.526357
   12  C  1 ZZ   -0.225199   0.084537   0.000000   0.233655  -0.716633
   13  C  1 XY   -0.119343   0.007475   0.000000  -0.365872  -0.303119
   14  C  1 XZ    0.000000   0.000000  -0.137789   0.000000   0.000000
   15  C  1 YZ    0.000000   0.000000   0.566607   0.000000   0.000000
   16  C  2  S   -0.023553   0.004083   0.000000  -0.020197   0.032871
   17  C  2  S   -0.614549   0.078254   0.000000  -0.177002   0.210527
   18  C  2  X   -0.035809  -0.024526   0.000000   0.070333  -0.521541
   19  C  2  Y   -0.001072  -0.132954   0.000000  -0.036079   0.067429
   20  C  2  Z    0.000000   0.000000  -0.133436   0.000000   0.000000
   21  C  2  S    1.391171   0.332274   0.000000   1.056762  -1.879278
   22  C  2  X    0.454853   1.043147   0.000000   1.073752  -0.807412
   23  C  2  Y   -0.519217   0.980810   0.000000   0.314369   0.755020
   24  C  2  Z    0.000000   0.000000  -0.410613   0.000000   0.000000
   25  C  2 XX    0.578760  -0.067695   0.000000  -0.043017  -0.046254
   26  C  2 YY   -0.156829  -0.263620   0.000000   0.229117  -0.310029
   27  C  2 ZZ   -0.421931   0.331315   0.000000  -0.186100   0.356282
   28  C  2 XY    0.151852   0.084777   0.000000  -0.631724  -0.289925
   29  C  2 XZ    0.000000   0.000000   0.012072   0.000000   0.000000
   30  C  2 YZ    0.000000   0.000000   0.616360   0.000000   0.000000
   31  O  3  S    0.029173  -0.000320   0.000000  -0.021041  -0.005730
   32  O  3  S   -0.324950  -0.200875   0.000000  -0.306335   0.244276
   33  O  3  X   -0.259539   0.032854   0.000000   0.094513   0.129668
   34  O  3  Y   -0.138281  -0.003378   0.000000   0.075632   0.097605
   35  O  3  Z    0.000000   0.000000  -0.086419   0.000000   0.000000
   36  O  3  S    0.137161   0.839143   0.000000   1.128198  -0.285312
   37  O  3  X    0.063718   0.195475   0.000000   0.205391  -0.213733
   38  O  3  Y    0.143714   0.088084   0.000000  -0.472342  -0.319915
   39  O  3  Z    0.000000   0.000000   0.276232   0.000000   0.000000
   40  O  3 XX    0.059712  -0.005785   0.000000  -0.017697  -0.016826
   41  O  3 YY    0.114303  -0.142564   0.000000   0.404112  -0.238755
   42  O  3 ZZ   -0.174015   0.148349   0.000000  -0.386415   0.255581
   43  O  3 XY    0.207188  -0.113664   0.000000  -0.173782  -0.531498
   44  O  3 XZ    0.000000   0.000000   0.593007   0.000000   0.000000
   45  O  3 YZ    0.000000   0.000000  -0.015790   0.000000   0.000000
   46  H  4  S   -0.061531   0.140272   0.000000  -0.639434   0.166662
   47  H  4  S   -0.073819  -0.064930   0.000000  -0.035896  -0.144325
   48  H  5  S    0.140624  -0.021928   0.000000  -0.222078   0.221757
   49  H  5  S   -0.068175  -0.474683   0.000000  -0.227991  -0.210845
   50  F  6  S   -0.011141   0.046064   0.000000  -0.014435  -0.002117
   51  F  6  S    0.080660  -1.201928   0.000000  -0.033386   0.131763
   52  F  6  X   -0.106915   0.088114   0.000000  -0.132030  -0.002918
   53  F  6  Y   -0.008782  -0.003285   0.000000  -0.156983   0.056100
   54  F  6  Z    0.000000   0.000000   0.114038   0.000000   0.000000
   55  F  6  S    0.023857   2.285546   0.000000   0.441994  -0.346270
   56  F  6  X    0.048965  -0.563684   0.000000  -0.073991   0.135239
   57  F  6  Y    0.003357  -0.088046   0.000000   0.248721  -0.138977
   58  F  6  Z    0.000000   0.000000  -0.245847   0.000000   0.000000
   59  F  6 XX   -0.178356  -0.467613   0.000000   0.136746   0.106872
   60  F  6 YY   -0.299200  -0.011767   0.000000  -0.355869  -0.123392
   61  F  6 ZZ    0.477556   0.479380   0.000000   0.219124   0.016520
   62  F  6 XY    0.369237  -0.186817   0.000000  -0.418878   0.213605
   63  F  6 XZ    0.000000   0.000000   0.495102   0.000000   0.000000
   64  F  6 YZ    0.000000   0.000000  -0.052152   0.000000   0.000000
   65  H  7  S   -0.243994  -0.234490   0.000000  -0.122607  -0.399258
   66  H  7  S    0.037686  -0.470046   0.000000  -0.312163   0.224108

                     56         57         58         59         60
                    2.4773     2.4848     2.5495     2.6670     2.8609
                     A          A          A          A          A   
    1  C  1  S    0.000000   0.005811   0.000000   0.004560   0.052592
    2  C  1  S    0.000000   0.203354   0.000000  -0.300593  -0.343831
    3  C  1  X    0.000000   0.284410   0.000000  -0.247330   0.574490
    4  C  1  Y    0.000000   0.077086   0.000000  -0.131686  -0.410020
    5  C  1  Z   -0.136546   0.000000  -0.030458   0.000000   0.000000
    6  C  1  S    0.000000  -1.250624   0.000000   0.013622  -1.629797
    7  C  1  X    0.000000   0.418773   0.000000  -0.277376   0.701249
    8  C  1  Y    0.000000  -0.487313   0.000000  -0.503959  -0.352402
    9  C  1  Z   -0.165094   0.000000   0.009968   0.000000   0.000000
   10  C  1 XX    0.000000   0.034010   0.000000   0.360846  -0.466618
   11  C  1 YY    0.000000  -0.049106   0.000000  -0.442921   0.039217
   12  C  1 ZZ    0.000000   0.015096   0.000000   0.082075   0.427401
   13  C  1 XY    0.000000  -0.336687   0.000000  -0.200668   0.932755
   14  C  1 XZ   -0.408502   0.000000   0.864325   0.000000   0.000000
   15  C  1 YZ   -0.462839   0.000000  -0.191554   0.000000   0.000000
[...]
                               H         
                          X        Y        Z
  7   H            X 0.062986-0.000507 0.000000
                   Y-0.000507 0.361201-0.000000
                   Z 0.000000-0.000000 0.018344

          ------------------------          ----------------
          DIPOLE DERIVATIVE TENSOR          (DEBYE/ANGSTROM)
          ------------------------          ----------------

        ATOM                 MU-X           MU-Y           MU-Z
     C          D/DX     4.053286701    0.202584292    0.000000000
                D/DY     2.382183146    1.450839219    0.000000000
                D/DZ     0.000000000    0.000000000   -0.611135523
     C          D/DX     5.076927064   -0.191814441    0.000000000
                D/DY     1.560851802    0.968082978    0.000000000
                D/DZ     0.000000000    0.000000000   -0.095164649
     O          D/DX    -5.793937123   -0.073016136    0.000000000
                D/DY    -1.950386525   -1.025190565    0.000000000
                D/DZ    -0.000000000    0.000000000   -2.013832295
     H          D/DX     1.455630185    0.397117813    0.000000000
                D/DY     0.231439104    0.507097334    0.000000000
                D/DZ     0.000000000    0.000000000    1.728228317
     H          D/DX     0.222390605   -0.050218919    0.000000000
                D/DY    -0.162489360   -0.148646532    0.000000000
                D/DZ     0.000000000   -0.000000000    0.788588563
     F          D/DX    -5.041167413   -0.175540873    0.000000000
                D/DY    -1.846630099   -1.286519278    0.000000000
                D/DZ    -0.000000000    0.000000000   -0.595797743
     H          D/DX     0.037921691   -0.117457904    0.000000000
                D/DY    -0.216980524   -0.464794739    0.000000000
                D/DZ     0.000000000   -0.000000000    0.798962452

          --------------------------------------------------------
          NORMAL COORDINATE ANALYSIS IN THE HARMONIC APPROXIMATION
          --------------------------------------------------------

     *******************************************************
     * THIS IS NOT A STATIONARY POINT ON THE MOLECULAR PES *
     *     THE VIBRATIONAL ANALYSIS IS NOT VALID !!!       *
     *******************************************************

          ATOMIC WEIGHTS (AMU)

    1     C                12.00000
    2     C                12.00000
    3     O                15.99491
    4     H                 1.00782
    5     H                 1.00782
    6     F                18.99840
    7     H                 1.00782

 MODES    1 TO    6 ARE TAKEN AS ROTATIONS AND TRANSLATIONS.

 ANALYZING SYMMETRY OF NORMAL MODES...

     FREQUENCIES IN CM**-1, IR INTENSITIES IN DEBYE**2/AMU-ANGSTROM**2,
     REDUCED MASSES IN AMU.

     *******************************************************
     * THIS IS NOT A STATIONARY POINT ON THE MOLECULAR PES *
     *     THE VIBRATIONAL ANALYSIS IS NOT VALID !!!       *
     *******************************************************

                            1           2           3           4           5
       FREQUENCY:        10.93        1.85        0.16        0.06        0.10  
        SYMMETRY:         A           A           A           A           A   
    REDUCED MASS:      2.55380     8.10078     8.83865     8.84030     8.63628
    IR INTENSITY:      0.13008     0.02342     0.00002     0.00000     0.00009

  1   C            X  0.00000000  0.03369461  0.12743676 -0.00000000 -0.00430984
                   Y  0.00000000  0.05114615  0.00282974 -0.00000000  0.12406682
                   Z  0.13265471 -0.00000000  0.00000000  0.12629771  0.00000000
  2   C            X -0.00000000 -0.03453944  0.12653375 -0.00000000 -0.00013360
                   Y -0.00000000 -0.04109214  0.00160144 -0.00000000  0.12972759
                   Z -0.12709673 -0.00000000  0.00000000  0.12769984  0.00000000
  3   O            X  0.00000000  0.00111209  0.12697790 -0.00000000 -0.00231521
                   Y -0.00000000 -0.15476246  0.00006696 -0.00000000  0.13668478
                   Z -0.09681204 -0.00000000  0.00000000  0.12840933  0.00000000
  4   H            X  0.00000000  0.08574070  0.12811484 -0.00000000 -0.00748907
                   Y -0.00000000 -0.15780231  0.00003222 -0.00000000  0.13687264
                   Z  0.15303212 -0.00000000  0.00000000  0.12777295  0.00000000
  5   H            X -0.00000000 -0.12856353  0.12523267 -0.00000000  0.00563498
                   Y -0.00000000 -0.03316133  0.00172379 -0.00000000  0.12923773
                   Z -0.39410594 -0.00000000  0.00000000  0.12839424  0.00000000
  6   F            X -0.00000000 -0.01074301  0.12682902 -0.00000000 -0.00158039
                   Y  0.00000000  0.15667639  0.00421406 -0.00000000  0.11759548
                   Z  0.07224515 -0.00000000  0.00000000  0.12570569  0.00000000
  7   H            X  0.00000000  0.12570910  0.12862189 -0.00000000 -0.00995421
                   Y  0.00000000  0.05012518  0.00282920 -0.00000000  0.12412656
                   Z  0.40557706 -0.00000000  0.00000000  0.12553104  0.00000000

 TRANS. SAYVETZ    X -0.00000000 -0.11291533  7.87315289 -0.00000014 -0.13227842
                   Y -0.00000000  0.47989678  0.13892674 -0.00000011  7.85921009
                   Z  0.05652875 -0.00000001  0.00000014  7.87475826  0.00000011
               TOTAL  0.05652875  0.49300181  7.87437852  7.87475826  7.86032320

   ROT. SAYVETZ    X -4.50600788 -0.00000000  0.00000000  0.01275830  0.00000000
                   Y-13.35136860  0.00000001  0.00000000  0.18358275  0.00000000
                   Z  0.00000000 21.89914675  0.29150932  0.00000004 -1.34235770
               TOTAL 14.09124375 21.89914675  0.29150932  0.18402555  1.34235770

                            6           7           8           9          10
       FREQUENCY:         9.94      300.92      320.65      415.96      561.30  
        SYMMETRY:         A           A           A           A           A   
    REDUCED MASS:      3.21447     2.25128     4.35158     1.84638     6.29701
    IR INTENSITY:      0.15802     0.48595     0.40386     2.20354     0.14426

  1   C            X  0.00000000 -0.00000000 -0.04128605  0.00000000  0.05827912
                   Y  0.00000000  0.00000000  0.13211715 -0.00000000  0.05453728
                   Z -0.04835169 -0.14905880  0.00000000  0.04026018 -0.00000000
  2   C            X -0.00000000 -0.00000000 -0.04070698 -0.00000000 -0.06848786
                   Y -0.00000000  0.00000000  0.13365405 -0.00000000 -0.05829597
                   Z  0.03863185 -0.09642551  0.00000000  0.12821099 -0.00000000
  3   O            X  0.00000000  0.00000000  0.02221051 -0.00000000 -0.14347396
                   Y -0.00000000 -0.00000000 -0.09672326  0.00000000  0.01906203
                   Z -0.13668021  0.05473722 -0.00000000 -0.12070464  0.00000000
  4   H            X  0.00000000  0.00000000  0.21921153 -0.00000000 -0.26142687
                   Y -0.00000000 -0.00000000 -0.10411240  0.00000000  0.02120544
                   Z -0.35141904  0.58727582 -0.00000000  0.68790054 -0.00000000
  5   H            X -0.00000000 -0.00000000 -0.19137294 -0.00000000 -0.12816811
                   Y -0.00000000  0.00000000  0.14495169 -0.00000000 -0.05155551
                   Z  0.26674642 -0.10396918  0.00000000  0.16345617  0.00000000
  6   F            X -0.00000000  0.00000000  0.04176459  0.00000000  0.14205264
                   Y  0.00000000 -0.00000000 -0.09554685  0.00000000 -0.01495730
                   Z  0.14231799  0.09459861 -0.00000000 -0.04553299  0.00000000
  7   H            X  0.00000000 -0.00000000 -0.19185778  0.00000000  0.11025976
                   Y  0.00000000  0.00000000  0.13062341 -0.00000000  0.05439731
                   Z -0.27143641 -0.21219540  0.00000000 -0.08350493  0.00000000

 TRANS. SAYVETZ    X -0.00000000 -0.00000000 -0.00050357 -0.00000000 -0.00010616
                   Y  0.00000000 -0.00000000 -0.00025820 -0.00000000 -0.00013833
                   Z  0.04209284  0.00016012  0.00000000 -0.00019946 -0.00000000
               TOTAL  0.04209284  0.00016012  0.00056591  0.00019946  0.00017437

   ROT. SAYVETZ    X  3.66435572  0.09102630  0.00000000  0.03667710  0.00000000
                   Y-16.41415744 -0.15996390 -0.00000000 -0.04949240 -0.00000000
                   Z  0.00000001 -0.00000000 -0.16468005  0.00000000 -0.01523715
               TOTAL 16.81820643  0.18404955  0.16468005  0.06160119  0.01523715

                           11          12          13          14          15
       FREQUENCY:       776.48      939.09     1123.26     1178.49     1285.51  
        SYMMETRY:         A           A           A           A           A   
    REDUCED MASS:      1.74417     1.13171     2.65705     4.07660     1.70198
    IR INTENSITY:      0.15623     1.38430     0.69200     7.22261     0.18831

  1   C            X -0.00000000 -0.00000000 -0.05247863  0.13676567 -0.05406143
                   Y  0.00000000 -0.00000000 -0.12755832  0.07935383  0.06462093
                   Z -0.15323633 -0.01123761 -0.00000000 -0.00000000 -0.00000000
  2   C            X  0.00000000  0.00000000  0.03236927  0.09309541 -0.13040661
                   Y -0.00000000 -0.00000000  0.10600476  0.02458317 -0.08435849
                   Z  0.11776724 -0.09886873 -0.00000000 -0.00000000 -0.00000000
  3   O            X  0.00000000  0.00000000 -0.10648605 -0.09859050  0.04461426
                   Y  0.00000000  0.00000000 -0.02460736 -0.01997172  0.04093428
                   Z -0.02003337  0.00312670 -0.00000000 -0.00000000 -0.00000000
  4   H            X -0.00000000 -0.00000000  0.45974771  0.12779052  0.48024988
                   Y  0.00000000  0.00000000 -0.05469357 -0.03411050  0.01912246
                   Z -0.04863067  0.09236162  0.00000000  0.00000000  0.00000000
  5   H            X -0.00000000 -0.00000000  0.29699719  0.22347577  0.37486694
                   Y  0.00000000  0.00000000  0.08668179  0.01621091 -0.12851583
                   Z -0.23486152  0.81030246  0.00000000  0.00000000  0.00000000
  6   F            X -0.00000000 -0.00000000  0.06202764 -0.09880308  0.01241779
                   Y -0.00000000  0.00000000  0.03966059 -0.05206340 -0.01965548
                   Z  0.01764035 -0.00519489  0.00000000 -0.00000000 -0.00000000
  7   H            X -0.00000000 -0.00000000  0.00344066  0.33842359  0.39977242
                   Y  0.00000000 -0.00000000 -0.13262717  0.07879768  0.06525409
                   Z  0.69119415  0.45668142  0.00000000  0.00000000  0.00000000

 TRANS. SAYVETZ    X  0.00000000 -0.00000000  0.00001293 -0.00062698  0.00061152
                   Y  0.00000000  0.00000000 -0.00017384  0.00005142 -0.00001789
                   Z -0.00003043  0.00002306  0.00000000  0.00000000  0.00000000
               TOTAL  0.00003043  0.00002306  0.00017432  0.00062908  0.00061178

   ROT. SAYVETZ    X  0.00211558  0.00375872 -0.00000000 -0.00000000 -0.00000000
                   Y -0.01585895  0.00190071 -0.00000000  0.00000000  0.00000000
                   Z -0.00000000 -0.00000000  0.00871010 -0.00131180  0.00125846
               TOTAL  0.01599943  0.00421197  0.00871010  0.00131180  0.00125846

                           16          17          18          19          20
       FREQUENCY:      1327.30     1399.16     1768.46     3203.24     3243.20  
        SYMMETRY:         A           A           A           A           A   
    REDUCED MASS:      1.17056     1.30046     5.67013     1.09330     1.09378
    IR INTENSITY:      0.02997     1.40172     0.17335     0.48382     0.12066

  1   C            X -0.01783359  0.08433385 -0.17013803  0.00684647 -0.00572310
                   Y  0.07803221  0.00749346  0.07027876 -0.08377440  0.00633923
                   Z  0.00000000  0.00000000 -0.00000000 -0.00000000 -0.00000000
  2   C            X  0.03277908  0.00346198  0.17867947 -0.00679832 -0.00081401
                   Y -0.05693244 -0.08621345 -0.08268828  0.00021164 -0.08407443
                   Z -0.00000000  0.00000000  0.00000000 -0.00000000  0.00000000
  3   O            X -0.01679919 -0.02980720 -0.03271129  0.00048878 -0.00044715
                   Y -0.02847542  0.05528796  0.00475541 -0.00017586  0.00215739
                   Z  0.00000000  0.00000000 -0.00000000  0.00000000  0.00000000
  4   H            X -0.14914517  0.60007195  0.09178572  0.00546188  0.00696457
                   Y -0.02395269  0.01503951 -0.00751266  0.00370281 -0.02393446
                   Z -0.00000000 -0.00000000  0.00000000 -0.00000000 -0.00000000
  5   H            X  0.66155603 -0.37265186 -0.21658360  0.00390029  0.06941249
                   Y -0.11139904 -0.06451035 -0.08478003  0.04188330  0.94893177
                   Z  0.00000000 -0.00000000 -0.00000000 -0.00000000 -0.00000000
  6   F            X  0.00943393 -0.01608156  0.01993220 -0.00062158  0.00046714
                   Y  0.01328142  0.00585023  0.00293629  0.00002670  0.00005638
                   Z -0.00000000  0.00000000  0.00000000  0.00000000  0.00000000
  7   H            X -0.60164665 -0.49675123  0.16636696 -0.00607524 -0.00034459
                   Y  0.08571664 -0.00095025  0.10935943  0.95168347 -0.03469208
                   Z -0.00000000 -0.00000000  0.00000000 -0.00000000 -0.00000000

 TRANS. SAYVETZ    X -0.00006011 -0.00017604 -0.00014257 -0.00010060 -0.00009519
                   Y  0.00003760  0.00001540  0.00013327  0.00001443  0.00002795
                   Z -0.00000000 -0.00000000  0.00000000  0.00000000 -0.00000000
               TOTAL  0.00007090  0.00017672  0.00019516  0.00010163  0.00009921

   ROT. SAYVETZ    X  0.00000000  0.00000000 -0.00000000 -0.00000000  0.00000000
                   Y -0.00000000 -0.00000000 -0.00000000 -0.00000000  0.00000000
                   Z -0.00718590 -0.00311687  0.00075093  0.00076548 -0.00012370
               TOTAL  0.00718590  0.00311687  0.00075093  0.00076548  0.00012370

                           21
       FREQUENCY:      3727.42  
        SYMMETRY:         A   
    REDUCED MASS:      1.06572
    IR INTENSITY:      0.52046

  1   C            X  0.00006354
                   Y  0.00096247
                   Z -0.00000000
  2   C            X  0.00134578
                   Y -0.00366949
                   Z -0.00000000
  3   O            X -0.00456909
                   Y -0.05993390
                   Z  0.00000000
  4   H            X  0.05334033
                   Y  0.96506347
                   Z  0.00000000
  5   H            X -0.00010434
                   Y  0.02200469
                   Z -0.00000000
  6   F            X  0.00027849
                   Y  0.00002104
                   Z  0.00000000
  7   H            X -0.00280405
                   Y -0.00405447
                   Z  0.00000000

 TRANS. SAYVETZ    X -0.00005287
                   Y -0.00001611
                   Z  0.00000000
               TOTAL  0.00005527

   ROT. SAYVETZ    X -0.00000000
                   Y  0.00000000
                   Z  0.00149681
               TOTAL  0.00149681

 REFERENCE ON SAYVETZ CONDITIONS - A. SAYVETZ, J.CHEM.PHYS., 7, 383-389(1939).

 NOTE - THE MODES J,K ARE ORTHONORMALIZED ACCORDING TO
 SUM ON I   M(I) * (X(I,J)*X(I,K) + Y(I,J)*Y(I,K) + Z(I,J)*Z(I,K)) = DELTA(J,K)

  MODE FREQ(CM**-1)  SYMMETRY  RED. MASS  IR INTENS.
     1      10.932    A        2.553797    0.130085
     2       1.850    A        8.100777    0.023420
     3       0.157    A        8.838651    0.000016
     4       0.056    A        8.840304    0.000000
     5       0.103    A        8.636284    0.000094
     6       9.936    A        3.214474    0.158018
     7     300.924    A        2.251285    0.485948
     8     320.650    A        4.351578    0.403861
     9     415.956    A        1.846381    2.203542
    10     561.296    A        6.297008    0.144255
    11     776.478    A        1.744174    0.156230
    12     939.095    A        1.131712    1.384302
    13    1123.260    A        2.657050    0.691996
    14    1178.488    A        4.076602    7.222613
    15    1285.507    A        1.701981    0.188312
    16    1327.298    A        1.170561    0.029974
    17    1399.160    A        1.300462    1.401716
    18    1768.460    A        5.670126    0.173350
    19    3203.243    A        1.093299    0.483819
    20    3243.203    A        1.093779    0.120659
    21    3727.416    A        1.065723    0.520462

     -------------------------------
     THERMOCHEMISTRY AT T=  298.15 K
     -------------------------------

 USING IDEAL GAS, RIGID ROTOR, HARMONIC NORMAL MODE APPROXIMATIONS.
 P=  1.01325E+05 PASCAL.
 ALL FREQUENCIES ARE SCALED BY   1.00000
 THE MOMENTS OF INERTIA ARE (IN AMU*BOHR**2)
     33.74142   447.74560   481.48703
 THE ROTATIONAL SYMMETRY NUMBER IS  1.0
 THE ROTATIONAL CONSTANTS ARE (IN GHZ)
     53.43842     4.02704     3.74483
      7 -     21 VIBRATIONAL MODES ARE USED IN THERMOCHEMISTRY.
 THE HARMONIC ZERO POINT ENERGY IS (SCALED BY   1.000)
        0.049141 HARTREE/MOLECULE    10785.217447 CM**-1/MOLECULE 
       30.836515 KCAL/MOL              129.019979 KJ/MOL

               Q               LN Q
 ELEC.     1.00000E+00       0.000000
 TRANS.    1.91963E+07      16.770228
 ROT.      3.05303E+04      10.326475
 VIB.      2.15271E+00       0.766729
 TOT.      1.26164E+12      27.863432

              E         H         G         CV        CP        S
           KJ/MOL    KJ/MOL    KJ/MOL   J/MOL-K   J/MOL-K   J/MOL-K
 ELEC.      0.000     0.000     0.000     0.000     0.000     0.000
 TRANS.     3.718     6.197   -41.572    12.472    20.786   160.221
 ROT.       3.718     3.718   -25.599    12.472    12.472    98.330
 VIB.     132.944   132.944   127.119    33.057    33.057    19.536
 TOTAL    140.381   142.860    59.948    58.000    66.315   278.087
 VIB. THERMAL CORRECTION E(T)-E(0) = H(T)-H(0) =  3924.111 J/MOL

              E         H         G         CV        CP        S
         KCAL/MOL  KCAL/MOL  KCAL/MOL CAL/MOL-K CAL/MOL-K CAL/MOL-K
 ELEC.      0.000     0.000     0.000     0.000     0.000     0.000
 TRANS.     0.889     1.481    -9.936     2.981     4.968    38.294
 ROT.       0.889     0.889    -6.118     2.981     2.981    23.501
 VIB.      31.774    31.774    30.382     7.901     7.901     4.669
 TOTAL     33.552    34.144    14.328    13.862    15.850    66.464
 VIB. THERMAL CORRECTION E(T)-E(0) = H(T)-H(0) =   937.885 CAL/MOL

     *******************************************************
     * THIS IS NOT A STATIONARY POINT ON THE MOLECULAR PES *
     *     THE VIBRATIONAL ANALYSIS IS NOT VALID !!!       *
     *******************************************************
 ......END OF NORMAL COORDINATE ANALYSIS......
 STEP CPU TIME =     0.01 TOTAL CPU TIME =        280.6 (      4.7 MIN)
 TOTAL WALL CLOCK TIME=        282.7 SECONDS, CPU UTILIZATION IS    99.25%
                990930  WORDS OF DYNAMIC MEMORY USED
 EXECUTION OF GAMESS TERMINATED NORMALLY Fri Oct 18 07:48:22 2019
 DDI: 263640 bytes (0.3 MB / 0 MWords) used by master data server.

 ----------------------------------------
 CPU timing information for all processes
 ========================================
 0: 279.637 + 0.936 = 280.574
 ----------------------------------------
 ddikick.x: exited gracefully.
----- accounting info -----
Files used on the master node crcfe01.crc.nd.edu were:
-rw-r--r-- 1 cdrisko campus     474 Oct 18 07:43 /afs/crc.nd.edu/user/c/cdrisko/vinylAlcohol-F_vib.F05
-rw-r--r-- 1 cdrisko campus   90343 Oct 18 07:48 /afs/crc.nd.edu/user/c/cdrisko/vinylAlcohol-F_vib.F07
-rw-r--r-- 1 cdrisko campus 2061360 Oct 18 07:48 /afs/crc.nd.edu/user/c/cdrisko/vinylAlcohol-F_vib.F10
-rw-r--r-- 1 cdrisko campus 2041032 Oct 18 07:48 /afs/crc.nd.edu/user/c/cdrisko/vinylAlcohol-F_vib.F22
Fri Oct 18 07:48:25 EDT 2019
0.409u 0.212s 4:46.26 0.2%	0+0k 0+200io 0pf+0w
