----- GAMESS execution script 'rungms' -----
This job is running on host crcfe01.crc.nd.edu
under operating system Linux at Fri Oct 18 07:54:39 EDT 2019
Available scratch disk space (Kbyte units) at beginning of the job is
Filesystem      1K-blocks  Used  Available Use% Mounted on
AFS            2147483647     0 2147483647   0% /afs
GAMESS temporary binary files will be written to /afs/crc.nd.edu/user/c/cdrisko
GAMESS supplementary output files will be written to /afs/crc.nd.edu/user/c/cdrisko/scr
Copying input file vinylAlcohol-F_MP2.inp to your run's scratch directory...

 Distributed Data Interface kickoff program.
 Initiating 1 compute processes on 1 nodes to run the following command:
 /afs/crc.nd.edu/x86_64_linux/g/gamess/nov-2017/gamess/gamess.00.x vinylAlcohol-F_MP2 

          ******************************************************
          *         GAMESS VERSION = 11 NOV 2017 (R3)         *
          *             FROM IOWA STATE UNIVERSITY             *
          * M.W.SCHMIDT, K.K.BALDRIDGE, J.A.BOATZ, S.T.ELBERT, *
          *   M.S.GORDON, J.H.JENSEN, S.KOSEKI, N.MATSUNAGA,   *
          *          K.A.NGUYEN, S.J.SU, T.L.WINDUS,           *
          *       TOGETHER WITH M.DUPUIS, J.A.MONTGOMERY       *
          *         J.COMPUT.CHEM.  14, 1347-1363(1993)        *
          **************** 64 BIT INTEL VERSION ****************

  SINCE 1993, STUDENTS AND POSTDOCS WORKING AT IOWA STATE UNIVERSITY
  AND ALSO IN THEIR VARIOUS JOBS AFTER LEAVING ISU HAVE MADE IMPORTANT
  CONTRIBUTIONS TO THE CODE:
     IVANA ADAMOVIC, CHRISTINE AIKENS, YURI ALEXEEV, POOJA ARORA,
     ANDREY ASADCHEV, ROB BELL, PRADIPTA BANDYOPADHYAY, JONATHAN BENTZ,
     BRETT BODE, KURT BRORSEN, CALEB CARLIN, GALINA CHABAN, WEI CHEN,
     CHEOL HO CHOI, PAUL DAY, ALBERT DEFUSCO, NUWAN DESILVA, TIM DUDLEY,
     DMITRI FEDOROV, ALEX FINDLATER, GRAHAM FLETCHER, MARK FREITAG,
     KURT GLAESEMANN, ANASTASIA GUININA,
     DAN KEMP, GRANT MERRILL, NORIYUKI MINEZAWA, JONATHAN MULLIN,
     TAKESHI NAGATA, SEAN NEDD, HEATHER NETZLOFF, BOSILJKA NJEGIC, RYAN OLSON,
     MIKE PAK, BUU PHAM,
     SPENCER PRUITT, LUKE ROSKOP, JIM SHOEMAKER, LYUDMILA SLIPCHENKO,
     TONY SMITH, SAROM SOK LEANG, JIE SONG, TETSUYA TAKETSUGU, SIMON WEBB,
     PENG XU, SOOHAENG YOO, FEDERICO ZAHARIEV

  ADDITIONAL CODE HAS BEEN PROVIDED BY COLLABORATORS IN OTHER GROUPS:
     IOWA STATE UNIVERSITY:
          JOE IVANIC, AARON WEST, LAIMUTIS BYTAUTAS, KLAUS RUEDENBERG
     UNIVERSITY OF TOKYO: KIMIHIKO HIRAO, TAKAHITO NAKAJIMA,
          TAKAO TSUNEDA, MUNEAKI KAMIYA, SUSUMU YANAGISAWA,
          KIYOSHI YAGI, MAHITO CHIBA, SEIKEN TOKURA, NAOAKI KAWAKAMI
     UNIVERSITY OF AARHUS: FRANK JENSEN
     UNIVERSITY OF IOWA: VISVALDAS KAIRYS, HUI LI
     NATIONAL INST. OF STANDARDS AND TECHNOLOGY: WALT STEVENS, DAVID GARMER
     UNIVERSITY OF PISA: BENEDETTA MENNUCCI, JACOPO TOMASI
     UNIVERSITY OF MEMPHIS: HENRY KURTZ, PRAKASHAN KORAMBATH
     UNIVERSITY OF ALBERTA: TOBY ZENG, MARIUSZ KLOBUKOWSKI
     UNIVERSITY OF NEW ENGLAND: MARK SPACKMAN
     MIE UNIVERSITY: HIROAKI UMEDA
     NAT. INST. OF ADVANCED INDUSTRIAL SCIENCE AND TECHNOLOGY: KAZUO KITAURA
     MICHIGAN STATE UNIVERSITY:
          KAROL KOWALSKI, MARTA WLOCH, JEFFREY GOUR, JESSE LUTZ,
          WEI LI, PIOTR PIECUCH
     UNIVERSITY OF SILESIA: MONIKA MUSIAL, STANISLAW KUCHARSKI
     FACULTES UNIVERSITAIRES NOTRE-DAME DE LA PAIX:
          OLIVIER QUINET, BENOIT CHAMPAGNE
     UNIVERSITY OF CALIFORNIA - SANTA BARBARA: BERNARD KIRTMAN
     INSTITUTE FOR MOLECULAR SCIENCE:
          KAZUYA ISHIMURA, MICHIO KATOUDA, AND SHIGERU NAGASE
     UNIVERSITY OF NOTRE DAME: ANNA POMOGAEVA, DAN CHIPMAN
     KYUSHU UNIVERSITY:
          HARUYUKI NAKANO,
          FENG LONG GU, JACEK KORCHOWIEC, MARCIN MAKOWSKI, AND YURIKO AOKI,
          HIROTOSHI MORI AND EISAKU MIYOSHI
     PENNSYLVANIA STATE UNIVERSITY:
          TZVETELIN IORDANOV, CHET SWALINA, JONATHAN SKONE,
          SHARON HAMMES-SCHIFFER
     WASEDA UNIVERSITY:
          MASATO KOBAYASHI, TOMOKO AKAMA, TSUGUKI TOUMA,
          TAKESHI YOSHIKAWA, YASUHIRO IKABATA, JUNJI SEINO,
          YUYA NAKAJIMA, HIROMI NAKAI
     NANJING UNIVERSITY: SHUHUA LI
     UNIVERSITY OF NEBRASKA:
          PEIFENG SU, DEJUN SI, NANDUN THELLAMUREGE, YALI WANG, HUI LI
     UNIVERSITY OF ZURICH: ROBERTO PEVERATI, KIM BALDRIDGE
     N. COPERNICUS UNIVERSITY AND JACKSON STATE UNIVERSITY:
          MARIA BARYSZ
     UNIVERSITY OF COPENHAGEN: Jimmy Kromann, CASPER STEINMANN
     TOKYO INSTITUTE OF TECHNOLOGY: HIROYA NAKATA
     NAGOYA UNIVERSITY: YOSHIO NISHIMOTO, STEPHAN IRLE
     MOSCOW STATE UNIVERSITY: VLADIMIR MIRONOV

 EXECUTION OF GAMESS BEGUN Fri Oct 18 07:54:39 2019

            ECHO OF THE FIRST FEW INPUT CARDS -
 INPUT CARD> $CONTRL SCFTYP=RHF MPLEVL=2 RUNTYP=ENERGY                                      
 INPUT CARD>       ICHARG=0 MULT=1 COORD=CART $END                                          
 INPUT CARD> $BASIS GBASIS=N31 NGAUSS=6 NDFUNC=1 $END                                       
 INPUT CARD> $DATA                                                                          
 INPUT CARD>C2H3OF                                                                          
 INPUT CARD>C1 1                                                                            
 INPUT CARD>C 6 0.00000000 0.00000000 0.00000000                                            
 INPUT CARD>C 6 1.08876021 -0.76739403 0.00000000                                           
 INPUT CARD>O 8 2.38275866 -0.32762973 0.00000000                                           
 INPUT CARD>H 1 2.39427669 0.64355738 0.00000000                                            
 INPUT CARD>H 1 1.02257074 -1.84997063 0.00000000                                           
 INPUT CARD>F 9 -1.23673154 -0.55285390 0.00000000                                          
 INPUT CARD>H 1 -0.01384716 1.08690269 0.00000000                                           
 INPUT CARD> $END                                                                           
    1000000 WORDS OF MEMORY AVAILABLE


                    * * * WARNING * * *
 OLD KEYWORD COORD=CART SELECTED, AUTOMATICALLY CHANGED TO COORD=PRINAXIS.
 YOUR MOLECULE'S COORDINATES WILL BE CHANGED TO PRINCIPAL AXES BY
   A) TRANSLATION TO THE CENTER OF MASS, THEN
   B) ROTATION TO HAVE A DIAGONAL MOMENT OF INERTIA TENSOR.

 HOWEVER, NOTHING ELSE IN YOUR INPUT WILL BE ROTATED IN THE SAME WAY,
 SO IF YOU HAVE A $VEC, $VIB, $GRAD, $HESS, EFP PARTICLE COORDINATES,
 OR ANYTHING ELSE THAT DEPENDS ON THE INITIAL ORIENTATION, THAT DATA
 WILL NOT BE USED CORRECTLY IN THIS RUN.

 THE PURPOSE OF COORD=PRINAXIS IS TO BE USED ONCE, ONLY AT THE VERY
 BEGINNING OF A SERIES OF COMPUTATIONS, PERHAPS TO FIND THE SYMMETRY
 UNIQUE ATOMS FROM AN ARBITRARY INITIAL ORIENTATION.

 AFTER THE FIRST RUN, YOU SHOULD USE ONLY COORD=UNIQUE, TO ENSURE THAT
 THE COORDINATES WHICH YOU READ IN ARE THE COORDINATES THAT ARE USED.


     BASIS OPTIONS
     -------------
     GBASIS=N31          IGAUSS=       6      POLAR=POPN31  
     NDFUNC=       1     NFFUNC=       0     DIFFSP=       F
     NPFUNC=       0      DIFFS=       F     BASNAM=        


     RUN TITLE
     ---------
 C2H3OF                                                                          

 THE POINT GROUP OF THE MOLECULE IS C1      
 THE ORDER OF THE PRINCIPAL AXIS IS     1

 THE MOMENTS OF INERTIA ARE (AMU-ANGSTROM**2)
 IXX=     9.449   IYY=   125.382   IZZ=   134.830

 ATOM      ATOMIC                      COORDINATES (BOHR)
           CHARGE         X                   Y                   Z
 C           6.0     0.9300233144       -0.7857676671        0.0000000000
 C           6.0    -1.0932729884        0.7116916164        0.0000000000
 O           8.0    -3.5571789921       -0.0624460133        0.0000000000
 H           1.0    -3.6214740913       -1.8967261101        0.0000000000
 H           1.0    -0.9208130801        2.7540163446        0.0000000000
 F           9.0     3.2906925970        0.2045290304        0.0000000000
 H           1.0     0.9085806102       -2.8397706838        0.0000000000

          INTERNUCLEAR DISTANCES (ANGS.)
          ------------------------------

                1 C          2 C          3 O          4 H          5 H     

   1 C       0.0000000    1.3320257 *  2.4051778 *  2.4792594 *  2.1137744 *
   2 C       1.3320257 *  0.0000000    1.3666838 *  1.9222792 *  1.0845981 *
   3 O       2.4051778 *  1.3666838 *  0.0000000    0.9712554 *  2.0414781 *
   4 H       2.4792594 *  1.9222792 *  0.9712554 *  0.0000000    2.8459197 *
   5 H       2.1137744 *  1.0845981 *  2.0414781 *  2.8459197 *  0.0000000  
   6 F       1.3546779 *  2.3353671 *  3.6264908    3.8230382    2.6051792 *
   7 H       1.0869909 *  2.1573501 *  2.7829160 *  2.4485946 *  3.1143839  

                6 F          7 H     

   1 C       1.3546779 *  1.0869909 *
   2 C       2.3353671 *  2.1573501 *
   3 O       3.6264908    2.7829160 *
   4 H       3.8230382    2.4485946 *
   5 H       2.6051792 *  3.1143839  
   6 F       0.0000000    2.0455434 *
   7 H       2.0455434 *  0.0000000  

  * ... LESS THAN  3.000


     ATOMIC BASIS SET
     ----------------
 THE CONTRACTED PRIMITIVE FUNCTIONS HAVE BEEN UNNORMALIZED
 THE CONTRACTED BASIS FUNCTIONS ARE NOW NORMALIZED TO UNITY

  SHELL TYPE  PRIMITIVE        EXPONENT          CONTRACTION COEFFICIENT(S)

 C         

      1   S       1          3047.5248800    0.001834737132
      1   S       2           457.3695180    0.014037322813
      1   S       3           103.9486850    0.068842622264
      1   S       4            29.2101553    0.232184443216
      1   S       5             9.2866630    0.467941348435
      1   S       6             3.1639270    0.362311985337

      2   L       7             7.8682723   -0.119332419775    0.068999066591
      2   L       8             1.8812885   -0.160854151696    0.316423960957
      2   L       9             0.5442493    1.143456437840    0.744308290898

      3   L      10             0.1687145    1.000000000000    1.000000000000

      4   D      11             0.8000000    1.000000000000

 C         

      5   S      12          3047.5248800    0.001834737132
      5   S      13           457.3695180    0.014037322813
      5   S      14           103.9486850    0.068842622264
      5   S      15            29.2101553    0.232184443216
      5   S      16             9.2866630    0.467941348435
      5   S      17             3.1639270    0.362311985337

      6   L      18             7.8682723   -0.119332419775    0.068999066591
      6   L      19             1.8812885   -0.160854151696    0.316423960957
      6   L      20             0.5442493    1.143456437840    0.744308290898

      7   L      21             0.1687145    1.000000000000    1.000000000000

      8   D      22             0.8000000    1.000000000000

 O         

      9   S      23          5484.6716600    0.001831074430
      9   S      24           825.2349460    0.013950172200
      9   S      25           188.0469580    0.068445078098
      9   S      26            52.9645000    0.232714335992
      9   S      27            16.8975704    0.470192897984
      9   S      28             5.7996353    0.358520852987

     10   L      29            15.5396162   -0.110777549525    0.070874268231
     10   L      30             3.5999336   -0.148026262701    0.339752839147
     10   L      31             1.0137618    1.130767015354    0.727158577316

     11   L      32             0.2700058    1.000000000000    1.000000000000

     12   D      33             0.8000000    1.000000000000

 H         

     13   S      34            18.7311370    0.033494604338
     13   S      35             2.8253944    0.234726953484
     13   S      36             0.6401217    0.813757326146

     14   S      37             0.1612778    1.000000000000

 H         

     15   S      38            18.7311370    0.033494604338
     15   S      39             2.8253944    0.234726953484
     15   S      40             0.6401217    0.813757326146

     16   S      41             0.1612778    1.000000000000

 F         

     17   S      42          7001.7130900    0.001819616901
     17   S      43          1051.3660900    0.013916079607
     17   S      44           239.2856900    0.068405324535
     17   S      45            67.3974453    0.233185760119
     17   S      46            21.5199573    0.471267439240
     17   S      47             7.4031013    0.356618546182

     18   L      48            20.8479528   -0.108506975109    0.071628724237
     18   L      49             4.8083083   -0.146451658147    0.345912102697
     18   L      50             1.3440699    1.128688581135    0.722469956367

     19   L      51             0.3581514    1.000000000000    1.000000000000

     20   D      52             0.8000000    1.000000000000

 H         

     21   S      53            18.7311370    0.033494604338
     21   S      54             2.8253944    0.234726953484
     21   S      55             0.6401217    0.813757326146

     22   S      56             0.1612778    1.000000000000

 TOTAL NUMBER OF BASIS SET SHELLS             =   22
 NUMBER OF CARTESIAN GAUSSIAN BASIS FUNCTIONS =   66
 NUMBER OF ELECTRONS                          =   32
 CHARGE OF MOLECULE                           =    0
 SPIN MULTIPLICITY                            =    1
 NUMBER OF OCCUPIED ORBITALS (ALPHA)          =   16
 NUMBER OF OCCUPIED ORBITALS (BETA )          =   16
 TOTAL NUMBER OF ATOMS                        =    7
 THE NUCLEAR REPULSION ENERGY IS      112.9666497623

     $CONTRL OPTIONS
     ---------------
 SCFTYP=RHF          RUNTYP=ENERGY       EXETYP=RUN     
 MPLEVL=       2     CITYP =NONE         CCTYP =NONE         VBTYP =NONE    
 DFTTYP=NONE         TDDFT =NONE    
 MULT  =       1     ICHARG=       0     NZVAR =       0     COORD =PRINAXIS
 PP    =NONE         RELWFN=NONE         LOCAL =NONE         NUMGRD=       F
 ISPHER=      -1     NOSYM =       0     MAXIT =      30     UNITS =ANGS    
 PLTORB=       F     MOLPLT=       F     AIMPAC=       F     FRIEND=        
 NPRINT=       7     IREST =       0     GEOM  =INPUT   
 NORMF =       0     NORMP =       0     ITOL  =      20     ICUT  =       9
 INTTYP=BEST         GRDTYP=BEST         QMTTOL= 1.0E-06

     $SYSTEM OPTIONS
     ---------------
  REPLICATED MEMORY=     1000000 WORDS (ON EVERY NODE).
 DISTRIBUTED MEMDDI=           0 MILLION WORDS IN AGGREGATE,
 MEMDDI DISTRIBUTED OVER   1 PROCESSORS IS           0 WORDS/PROCESSOR.
 TOTAL MEMORY REQUESTED ON EACH PROCESSOR=     1000000 WORDS.
 TIMLIM=      525600.00 MINUTES, OR     365.0 DAYS.
 PARALL= F  BALTYP=  DLB     KDIAG=    0  COREFL= F
 MXSEQ2=     300 MXSEQ3=     150  mem10=         0

          ----------------
          PROPERTIES INPUT
          ----------------

     MOMENTS            FIELD           POTENTIAL          DENSITY
 IEMOM =       1   IEFLD =       0   IEPOT =       0   IEDEN =       0
 WHERE =COMASS     WHERE =NUCLEI     WHERE =NUCLEI     WHERE =NUCLEI  
 OUTPUT=BOTH       OUTPUT=BOTH       OUTPUT=BOTH       OUTPUT=BOTH    
 IEMINT=       0   IEFINT=       0                     IEDINT=       0
                                                       MORB  =       0
          EXTRAPOLATION IN EFFECT
          SOSCF IN EFFECT
 ORBITAL PRINTING OPTION: NPREO=     1    66     2     1

     -------------------------------
     INTEGRAL TRANSFORMATION OPTIONS
     -------------------------------
     NWORD  =            0
     CUTOFF = 1.0E-09     MPTRAN =       0
     DIRTRF =       F     AOINTS =DUP     

          ----------------------
          INTEGRAL INPUT OPTIONS
          ----------------------
 NOPK  =       1 NORDER=       0 SCHWRZ=       T

          -----------------------
          MP2 CONTROL INFORMATION
          -----------------------
          NACORE =        4  NBCORE =        4
          LMOMP2 =        F  AOINTS = DUP     
          METHOD =        2  NWORD  =               0
          MP2PRP =        F  OSPT   = NONE    
          CUTOFF = 1.00E-09  CPHFBS = BASISAO 
          CODE   = IMS     

          NUMBER OF CORE -A-  ORBITALS =     4
          NUMBER OF CORE -B-  ORBITALS =     4
          NUMBER OF OCC. -A-  ORBITALS =    16
          NUMBER OF OCC. -B-  ORBITALS =    16
          NUMBER OF MOLECULAR ORBITALS =    66
          NUMBER OF   BASIS  FUNCTIONS =    66


     ------------------------------------------
     THE POINT GROUP IS C1 , NAXIS= 1, ORDER= 1
     ------------------------------------------

     DIMENSIONS OF THE SYMMETRY SUBSPACES ARE
 A   =   66

 ..... DONE SETTING UP THE RUN .....
 STEP CPU TIME =     0.01 TOTAL CPU TIME =          0.0 (      0.0 MIN)
 TOTAL WALL CLOCK TIME=          0.0 SECONDS, CPU UTILIZATION IS    50.00%

          ********************
          1 ELECTRON INTEGRALS
          ********************
 ...... END OF ONE-ELECTRON INTEGRALS ......
 STEP CPU TIME =     0.00 TOTAL CPU TIME =          0.0 (      0.0 MIN)
 TOTAL WALL CLOCK TIME=          0.0 SECONDS, CPU UTILIZATION IS    33.33%

          -------------
          GUESS OPTIONS
          -------------
          GUESS =HUCKEL            NORB  =       0          NORDER=       0
          MIX   =       F          PRTMO =       F          PUNMO =       F
          TOLZ  = 1.0E-08          TOLE  = 1.0E-05
          SYMDEN=       F          PURIFY=       F

 INITIAL GUESS ORBITALS GENERATED BY HUCKEL   ROUTINE.
 HUCKEL GUESS REQUIRES     39228 WORDS.

 SYMMETRIES FOR INITIAL GUESS ORBITALS FOLLOW.   BOTH SET(S).
    16 ORBITALS ARE OCCUPIED (    4 CORE ORBITALS).
     5=A        6=A        7=A        8=A        9=A       10=A       11=A   
    12=A       13=A       14=A       15=A       16=A       17=A       18=A   
    19=A       20=A       21=A       22=A       23=A       24=A       25=A   
    26=A   
 ...... END OF INITIAL ORBITAL SELECTION ......
 STEP CPU TIME =     0.01 TOTAL CPU TIME =          0.0 (      0.0 MIN)
 TOTAL WALL CLOCK TIME=          0.0 SECONDS, CPU UTILIZATION IS    50.00%

                    ----------------------
                    AO INTEGRAL TECHNOLOGY
                    ----------------------
     S,P,L SHELL ROTATED AXIS INTEGRALS, REPROGRAMMED BY
        KAZUYA ISHIMURA (IMS) AND JOSE SIERRA (SYNSTAR).
     S,P,D,L SHELL ROTATED AXIS INTEGRALS PROGRAMMED BY
        KAZUYA ISHIMURA (INSTITUTE FOR MOLECULAR SCIENCE).
     S,P,D,F,G SHELL TO TOTAL QUARTET ANGULAR MOMENTUM SUM 5,
        ERIC PROGRAM BY GRAHAM FLETCHER (ELORET AND NASA ADVANCED
        SUPERCOMPUTING DIVISION, AMES RESEARCH CENTER).
     S,P,D,F,G,L SHELL GENERAL RYS QUADRATURE PROGRAMMED BY
        MICHEL DUPUIS (PACIFIC NORTHWEST NATIONAL LABORATORY).

          --------------------
          2 ELECTRON INTEGRALS
          --------------------

 THE -PK- OPTION IS OFF, THE INTEGRALS ARE NOT IN SUPERMATRIX FORM.
 STORING   15000 INTEGRALS/RECORD ON DISK, USING 12 BYTES/INTEGRAL.
 TWO ELECTRON INTEGRAL EVALUATION REQUIRES   90649 WORDS OF MEMORY.
 SCHWARZ INEQUALITY OVERHEAD:      2200 INTEGRALS, T=        0.00
 II,JST,KST,LST =  1  1  1  1 NREC =         1 INTLOC =    1
 II,JST,KST,LST =  2  1  1  1 NREC =         1 INTLOC =    2
 II,JST,KST,LST =  3  1  1  1 NREC =         1 INTLOC =   34
 II,JST,KST,LST =  4  1  1  1 NREC =         1 INTLOC =  214
 II,JST,KST,LST =  5  1  1  1 NREC =         1 INTLOC = 1189
 II,JST,KST,LST =  6  1  1  1 NREC =         1 INTLOC = 2364
 II,JST,KST,LST =  7  1  1  1 NREC =         1 INTLOC = 9259
 II,JST,KST,LST =  8  1  1  1 NREC =         2 INTLOC = 6298
 II,JST,KST,LST =  9  1  1  1 NREC =         4 INTLOC = 7025
 II,JST,KST,LST = 10  1  1  1 NREC =         4 INTLOC =14432
 II,JST,KST,LST = 11  1  1  1 NREC =         7 INTLOC = 8761
 II,JST,KST,LST = 12  1  1  1 NREC =        11 INTLOC = 4393
 II,JST,KST,LST = 13  1  1  1 NREC =        19 INTLOC = 1156
 II,JST,KST,LST = 14  1  1  1 NREC =        20 INTLOC =12975
 II,JST,KST,LST = 15  1  1  1 NREC =        22 INTLOC =12019
 II,JST,KST,LST = 16  1  1  1 NREC =        24 INTLOC =12998
 II,JST,KST,LST = 17  1  1  1 NREC =        27 INTLOC = 1370
 II,JST,KST,LST = 18  1  1  1 NREC =        28 INTLOC = 8309
 II,JST,KST,LST = 19  1  1  1 NREC =        35 INTLOC =13585
 II,JST,KST,LST = 20  1  1  1 NREC =        47 INTLOC =10272
 II,JST,KST,LST = 21  1  1  1 NREC =        66 INTLOC = 9798
 II,JST,KST,LST = 22  1  1  1 NREC =        71 INTLOC = 5137
 SCHWARZ INEQUALITY TEST SKIPPED        3291 INTEGRAL BLOCKS.
 TOTAL NUMBER OF NONZERO TWO-ELECTRON INTEGRALS =             1132206
         76 INTEGRAL RECORDS WERE STORED ON DISK FILE  8.
  ...... END OF TWO-ELECTRON INTEGRALS .....
 STEP CPU TIME =     0.19 TOTAL CPU TIME =          0.2 (      0.0 MIN)
 TOTAL WALL CLOCK TIME=          0.2 SECONDS, CPU UTILIZATION IS    95.45%

          --------------------------
                 RHF SCF CALCULATION
          --------------------------

     NUCLEAR ENERGY =       112.9666497623
     MAXIT =   30     NPUNCH=    2
     EXTRAP=T  DAMP=F  SHIFT=F  RSTRCT=F  DIIS=F  DEM=F  SOSCF=T
     DENSITY MATRIX CONV=  1.00E-06
     SOSCF WILL OPTIMIZE     800 ORBITAL ROTATIONS, SOGTOL=   0.250
     MEMORY REQUIRED FOR RHF ITERS=     64616 WORDS.

 ITER EX DEM     TOTAL ENERGY        E CHANGE  DENSITY CHANGE     ORB. GRAD
   1  0  0     -251.0434251008  -251.0434251008   0.232142947   0.000000000
          ---------------START SECOND ORDER SCF---------------
   2  1  0     -251.6922867062    -0.6488616055   0.071701856   0.040931980
   3  2  0     -251.7223618439    -0.0300751377   0.034365502   0.013784958
   4  3  0     -251.7255279591    -0.0031661152   0.008921599   0.005169704
   5  4  0     -251.7257876612    -0.0002597021   0.001386801   0.001091258
   6  5  0     -251.7258086012    -0.0000209401   0.000709019   0.000248292
   7  6  0     -251.7258105372    -0.0000019360   0.000257379   0.000090820
   8  7  0     -251.7258106635    -0.0000001263   0.000053290   0.000021395
   9  8  0     -251.7258106693    -0.0000000058   0.000018886   0.000010089
  10  9  0     -251.7258106706    -0.0000000013   0.000002947   0.000001002
  11 10  0     -251.7258106706    -0.0000000000   0.000000721   0.000000257
  12 11  0     -251.7258106706    -0.0000000000   0.000000249   0.000000118

          -----------------
          DENSITY CONVERGED
          -----------------
     TIME TO FORM FOCK OPERATORS=       0.2 SECONDS (       0.0 SEC/ITER)
     TIME TO SOLVE SCF EQUATIONS=       0.0 SECONDS (       0.0 SEC/ITER)

 FINAL RHF ENERGY IS     -251.7258106706 AFTER  12 ITERATIONS

          ------------
          EIGENVECTORS
          ------------

                      1          2          3          4          5
                  -26.3010   -20.6092   -11.3144   -11.3073    -1.6067
                     A          A          A          A          A   
    1  C  1  S   -0.000014   0.000004   0.988828  -0.116901  -0.056331
    2  C  1  S    0.000269   0.000070   0.026425  -0.003462   0.097245
    3  C  1  X    0.000514   0.000039   0.001621  -0.000047   0.080353
    4  C  1  Y    0.000244  -0.000008   0.000673  -0.000288   0.035588
    5  C  1  Z    0.000000   0.000000   0.000000   0.000000   0.000000
    6  C  1  S    0.000327  -0.000995  -0.008568   0.005468   0.021512
    7  C  1  X   -0.000304   0.000216   0.002018  -0.001428   0.004340
    8  C  1  Y    0.000223  -0.000359   0.000683   0.001837  -0.013695
    9  C  1  Z    0.000000   0.000000   0.000000   0.000000   0.000000
   10  C  1 XX    0.000278  -0.000122  -0.000926  -0.000201   0.017380
   11  C  1 YY    0.000031   0.000013  -0.001615  -0.000093  -0.003772
   12  C  1 ZZ   -0.000073  -0.000006  -0.002338   0.000164  -0.009726
   13  C  1 XY    0.000117  -0.000011   0.000128  -0.000082   0.013566
   14  C  1 XZ    0.000000   0.000000   0.000000   0.000000   0.000000
   15  C  1 YZ    0.000000   0.000000   0.000000   0.000000   0.000000
   16  C  2  S    0.000006  -0.000020   0.116227   0.988869  -0.009050
   17  C  2  S    0.000109   0.000332   0.002822   0.026711   0.016495
   18  C  2  X   -0.000024  -0.000329  -0.000269  -0.001061   0.014093
   19  C  2  Y    0.000015  -0.000082   0.000109  -0.000504  -0.005836
   20  C  2  Z    0.000000   0.000000   0.000000   0.000000   0.000000
   21  C  2  S   -0.000466   0.000470   0.002868  -0.009861   0.020153
   22  C  2  X   -0.000314   0.000743   0.000660  -0.002550   0.014190
   23  C  2  Y    0.000179  -0.000593  -0.001975   0.000098  -0.001285
   24  C  2  Z    0.000000   0.000000   0.000000   0.000000   0.000000
   25  C  2 XX   -0.000109  -0.000081  -0.000425  -0.001023   0.004408
   26  C  2 YY   -0.000030  -0.000045  -0.000416  -0.001683  -0.000608
   27  C  2 ZZ    0.000006  -0.000093  -0.000390  -0.002444  -0.000821
   28  C  2 XY    0.000024  -0.000042  -0.000110  -0.000031  -0.002104
   29  C  2 XZ    0.000000   0.000000   0.000000   0.000000   0.000000
   30  C  2 YZ    0.000000   0.000000   0.000000   0.000000   0.000000
   31  O  3  S    0.000003   0.994642   0.000016  -0.000092  -0.002280
   32  O  3  S    0.000007   0.021155   0.000118   0.000586   0.004638
   33  O  3  X    0.000008   0.001109   0.000010   0.000130   0.001863
   34  O  3  Y    0.000010  -0.000809  -0.000004   0.000038  -0.000501
   35  O  3  Z    0.000000   0.000000   0.000000   0.000000   0.000000
   36  O  3  S   -0.000066   0.004154  -0.000912  -0.001419   0.008275
   37  O  3  X    0.000016  -0.000454  -0.000281  -0.001409   0.000554
   38  O  3  Y   -0.000051   0.000548   0.000111  -0.000590   0.001366
   39  O  3  Z    0.000000   0.000000   0.000000   0.000000   0.000000
   40  O  3 XX    0.000031  -0.004134   0.000111  -0.000679  -0.000359
   41  O  3 YY    0.000011  -0.004137   0.000075   0.000090  -0.000079
   42  O  3 ZZ    0.000004  -0.003898   0.000054   0.000445  -0.000103
   43  O  3 XY    0.000009  -0.000043  -0.000064  -0.000439  -0.000155
   44  O  3 XZ    0.000000   0.000000   0.000000   0.000000   0.000000
   45  O  3 YZ    0.000000   0.000000   0.000000   0.000000   0.000000
   46  H  4  S   -0.000012   0.000436   0.000003   0.000076   0.001501
   47  H  4  S   -0.000013  -0.000223   0.000209   0.000011  -0.000637
   48  H  5  S    0.000033   0.000022  -0.000002  -0.000085   0.002268
   49  H  5  S   -0.000075   0.000182   0.000779   0.002044   0.000439
   50  F  6  S    0.994427  -0.000015   0.000019   0.000022  -0.221387
   51  F  6  S    0.017767  -0.000085   0.001072  -0.000062   0.516485
   52  F  6  X   -0.000872   0.000005  -0.000368   0.000057  -0.059992
   53  F  6  Y   -0.000350  -0.000000  -0.000172   0.000007  -0.025003
   54  F  6  Z    0.000000   0.000000   0.000000   0.000000   0.000000
   55  F  6  S    0.008130   0.000328  -0.002797  -0.000238   0.437010
   56  F  6  X    0.000616  -0.000111   0.001849  -0.000182  -0.038285
   57  F  6  Y    0.000212  -0.000021   0.000875  -0.000136  -0.014105
   58  F  6  Z    0.000000   0.000000   0.000000   0.000000   0.000000
   59  F  6 XX   -0.004985  -0.000025  -0.000444   0.000267   0.036333
   60  F  6 YY   -0.004598  -0.000060   0.000480   0.000019   0.023935
   61  F  6 ZZ   -0.004539  -0.000055   0.000853  -0.000110   0.020961
   62  F  6 XY   -0.000212   0.000030  -0.000619   0.000060   0.006723
   63  F  6 XZ    0.000000   0.000000   0.000000   0.000000   0.000000
   64  F  6 YZ    0.000000   0.000000   0.000000   0.000000   0.000000
   65  H  7  S   -0.000006  -0.000008  -0.000112  -0.000004   0.013136
   66  H  7  S    0.000044  -0.000040   0.002189   0.000178  -0.005849

                      6          7          8          9         10
                   -1.4087    -1.0317    -0.8471    -0.7479    -0.7214
                     A          A          A          A          A   
    1  C  1  S   -0.015225  -0.150224   0.094785   0.014908  -0.009009
    2  C  1  S    0.029731   0.298707  -0.188421  -0.031908   0.016604
    3  C  1  X   -0.028690  -0.127517  -0.071547  -0.210658  -0.203926
    4  C  1  Y    0.008964   0.065201   0.107871   0.192608  -0.209578
    5  C  1  Z    0.000000   0.000000   0.000000   0.000000   0.000000
    6  C  1  S    0.024401   0.198604  -0.181646  -0.024099   0.052021
    7  C  1  X   -0.017123  -0.043759   0.014738  -0.059345  -0.029396
    8  C  1  Y   -0.005727  -0.034931   0.043146   0.086759  -0.066561
    9  C  1  Z    0.000000   0.000000   0.000000   0.000000   0.000000
   10  C  1 XX    0.003010   0.001973  -0.005035  -0.010746  -0.013048
   11  C  1 YY   -0.000783   0.009550  -0.011142  -0.003886   0.010064
   12  C  1 ZZ   -0.000988  -0.010531   0.009666   0.003367   0.002450
   13  C  1 XY   -0.003451  -0.013383  -0.004694  -0.010837  -0.021103
   14  C  1 XZ    0.000000   0.000000   0.000000   0.000000   0.000000
   15  C  1 YZ    0.000000   0.000000   0.000000   0.000000   0.000000
   16  C  2  S   -0.075812  -0.140384  -0.097649  -0.019005  -0.015011
   17  C  2  S    0.140631   0.278801   0.196849   0.038046   0.031318
   18  C  2  X   -0.099303   0.146930  -0.111397   0.226194  -0.055373
   19  C  2  Y   -0.042036  -0.060172   0.135567  -0.089342  -0.174963
   20  C  2  Z    0.000000   0.000000   0.000000   0.000000   0.000000
   21  C  2  S    0.033729   0.202736   0.179041   0.011145   0.005264
   22  C  2  X    0.007481   0.050523   0.000742   0.043519  -0.018409
   23  C  2  Y    0.016219   0.018651   0.030802  -0.023447  -0.080935
   24  C  2  Z    0.000000   0.000000   0.000000   0.000000   0.000000
   25  C  2 XX    0.021712   0.001647   0.009475  -0.014704  -0.001583
   26  C  2 YY   -0.002693   0.010126   0.008804   0.006748  -0.002745
   27  C  2 ZZ   -0.011327  -0.010395  -0.011055   0.001264  -0.001728
   28  C  2 XY    0.012915  -0.015385   0.004929  -0.007615   0.001507
   29  C  2 XZ    0.000000   0.000000   0.000000   0.000000   0.000000
   30  C  2 YZ    0.000000   0.000000   0.000000   0.000000   0.000000
   31  O  3  S   -0.202585   0.055231   0.016309   0.017532   0.026989
   32  O  3  S    0.456297  -0.130853  -0.037856  -0.045046  -0.063285
   33  O  3  X    0.079207   0.086316   0.156827  -0.091193   0.171826
   34  O  3  Y   -0.042226   0.054792   0.244892  -0.289562  -0.039609
   35  O  3  Z    0.000000   0.000000   0.000000   0.000000   0.000000
   36  O  3  S    0.433739  -0.138610  -0.050893  -0.055110  -0.105049
   37  O  3  X    0.046446   0.049497   0.087541  -0.042645   0.109722
   38  O  3  Y   -0.028733   0.031686   0.140199  -0.176189  -0.022553
   39  O  3  Z    0.000000   0.000000   0.000000   0.000000   0.000000
   40  O  3 XX    0.014906   0.010875   0.018018  -0.011062   0.013649
   41  O  3 YY    0.021930  -0.014512  -0.024611   0.022132  -0.005107
   42  O  3 ZZ   -0.002420  -0.002940   0.000544  -0.005111  -0.004340
   43  O  3 XY    0.001941   0.000015   0.009719  -0.011184  -0.007922
   44  O  3 XZ    0.000000   0.000000   0.000000   0.000000   0.000000
   45  O  3 YZ    0.000000   0.000000   0.000000   0.000000   0.000000
   46  H  4  S    0.114743  -0.060178  -0.142507   0.146131  -0.002162
   47  H  4  S   -0.005463  -0.009374  -0.044322   0.061900  -0.000514
   48  H  5  S    0.021847   0.076403   0.137182  -0.015574  -0.077998
   49  H  5  S   -0.005441   0.000596   0.061941  -0.002334  -0.034864
   50  F  6  S    0.007121   0.048038  -0.034436  -0.021448  -0.032304
   51  F  6  S   -0.018855  -0.114550   0.079573   0.041046   0.066500
   52  F  6  X   -0.002333  -0.127151   0.162158   0.086565   0.445491
   53  F  6  Y    0.000721  -0.023043   0.153412   0.342605  -0.056777
   54  F  6  Z    0.000000   0.000000   0.000000   0.000000   0.000000
   55  F  6  S   -0.008679  -0.129614   0.113320   0.093419   0.130949
   56  F  6  X   -0.001425  -0.081645   0.108555   0.055734   0.304635
   57  F  6  Y   -0.001341  -0.014974   0.096507   0.225317  -0.038080
   58  F  6  Z    0.000000   0.000000   0.000000   0.000000   0.000000
   59  F  6 XX   -0.001614   0.008689  -0.009432  -0.004244  -0.028904
   60  F  6 YY   -0.001788  -0.006438  -0.000186  -0.010511   0.005063
   61  F  6 ZZ   -0.001588  -0.007434   0.005488  -0.000212   0.003352
   62  F  6 XY    0.000036   0.005180  -0.011345  -0.016054  -0.004989
   63  F  6 XZ    0.000000   0.000000   0.000000   0.000000   0.000000
   64  F  6 YZ    0.000000   0.000000   0.000000   0.000000   0.000000
   65  H  7  S    0.004399   0.078905  -0.128694  -0.108212   0.122373
   66  H  7  S   -0.001309  -0.002776  -0.056403  -0.052300   0.081245

                     11         12         13         14         15
                   -0.6765    -0.6304    -0.6015    -0.5830    -0.5450
                     A          A          A          A          A   
    1  C  1  S    0.000000  -0.010280   0.041789   0.000000   0.018234
    2  C  1  S    0.000000   0.019977  -0.081651   0.000000  -0.049609
    3  C  1  X    0.000000   0.020598   0.088698   0.000000   0.151280
    4  C  1  Y    0.000000   0.017096   0.172763   0.000000  -0.262275
    5  C  1  Z    0.160614   0.000000   0.000000   0.071938   0.000000
    6  C  1  S    0.000000   0.022628  -0.166182   0.000000  -0.006183
    7  C  1  X    0.000000  -0.031881   0.050784   0.000000  -0.020270
    8  C  1  Y    0.000000   0.032464   0.028355   0.000000  -0.097462
    9  C  1  Z    0.101058   0.000000   0.000000   0.035544   0.000000
   10  C  1 XX    0.000000   0.004257   0.024655   0.000000  -0.018754
   11  C  1 YY    0.000000  -0.002502  -0.028530   0.000000   0.027302
   12  C  1 ZZ    0.000000  -0.002472   0.000777   0.000000  -0.001873
   13  C  1 XY    0.000000   0.016545   0.001455   0.000000   0.014470
   14  C  1 XZ    0.013486   0.000000   0.000000  -0.013677   0.000000
   15  C  1 YZ    0.010689   0.000000   0.000000   0.003720   0.000000
   16  C  2  S    0.000000   0.033659  -0.034806   0.000000   0.003529
   17  C  2  S    0.000000  -0.068090   0.072953   0.000000  -0.010266
   18  C  2  X    0.000000  -0.178107  -0.087599   0.000000  -0.177058
   19  C  2  Y    0.000000  -0.276717  -0.060794   0.000000   0.257510
   20  C  2  Z    0.076961   0.000000   0.000000   0.205602   0.000000
   21  C  2  S    0.000000  -0.172831   0.104771   0.000000  -0.062466
   22  C  2  X    0.000000  -0.025045   0.006579   0.000000  -0.004247
   23  C  2  Y    0.000000  -0.108364  -0.054025   0.000000   0.147916
   24  C  2  Z    0.033195   0.000000   0.000000   0.119333   0.000000
   25  C  2 XX    0.000000   0.027000   0.007650   0.000000  -0.017199
   26  C  2 YY    0.000000  -0.030450  -0.000511   0.000000   0.026258
   27  C  2 ZZ    0.000000  -0.001404  -0.005032   0.000000  -0.002201
   28  C  2 XY    0.000000   0.006168   0.018377   0.000000   0.020000
   29  C  2 XZ    0.004768   0.000000   0.000000  -0.016733   0.000000
   30  C  2 YZ   -0.004743   0.000000   0.000000  -0.011263   0.000000
   31  O  3  S    0.000000  -0.002757   0.048794   0.000000   0.038274
   32  O  3  S    0.000000  -0.002515  -0.114747   0.000000  -0.096244
   33  O  3  X    0.000000   0.261336   0.338106   0.000000   0.186893
   34  O  3  Y    0.000000   0.130629  -0.259285   0.000000  -0.229088
   35  O  3  Z    0.061774   0.000000   0.000000   0.566404   0.000000
   36  O  3  S    0.000000   0.044763  -0.200476   0.000000  -0.131298
   37  O  3  X    0.000000   0.182404   0.238242   0.000000   0.165201
   38  O  3  Y    0.000000   0.092528  -0.180708   0.000000  -0.164009
   39  O  3  Z    0.039316   0.000000   0.000000   0.413653   0.000000
   40  O  3 XX    0.000000   0.018697   0.015278   0.000000   0.003154
   41  O  3 YY    0.000000  -0.023802   0.009341   0.000000   0.014383
   42  O  3 ZZ    0.000000  -0.005046  -0.010364   0.000000  -0.009391
   43  O  3 XY    0.000000  -0.004820  -0.018600   0.000000  -0.007986
   44  O  3 XZ    0.004056   0.000000   0.000000   0.026881   0.000000
   45  O  3 YZ   -0.001287   0.000000   0.000000  -0.014915   0.000000
   46  H  4  S    0.000000  -0.090573   0.101026   0.000000   0.112218
   47  H  4  S    0.000000  -0.060148   0.042879   0.000000   0.088434
   48  H  5  S    0.000000  -0.212352  -0.001671   0.000000   0.165843
   49  H  5  S    0.000000  -0.126519  -0.007747   0.000000   0.138156
   50  F  6  S    0.000000   0.002014   0.003766   0.000000  -0.000312
   51  F  6  S    0.000000  -0.007484  -0.005195   0.000000  -0.012674
   52  F  6  X    0.000000  -0.240198  -0.073163   0.000000  -0.106021
   53  F  6  Y    0.000000   0.309025  -0.328247   0.000000   0.266752
   54  F  6  Z    0.610896   0.000000   0.000000  -0.136898   0.000000
   55  F  6  S    0.000000   0.002058  -0.019194   0.000000   0.038140
   56  F  6  X    0.000000  -0.175573  -0.053443   0.000000  -0.086633
   57  F  6  Y    0.000000   0.220557  -0.243282   0.000000   0.203024
   58  F  6  Z    0.427589   0.000000   0.000000  -0.106451   0.000000
   59  F  6 XX    0.000000   0.011974   0.005301   0.000000  -0.003454
   60  F  6 YY    0.000000  -0.010083   0.005270   0.000000  -0.008022
   61  F  6 ZZ    0.000000  -0.002393  -0.000560   0.000000  -0.005238
   62  F  6 XY    0.000000  -0.006102   0.011017   0.000000  -0.003811
   63  F  6 XZ   -0.023016   0.000000   0.000000   0.003485   0.000000
   64  F  6 YZ   -0.009756   0.000000   0.000000   0.001660   0.000000
   65  H  7  S    0.000000  -0.000429  -0.167167   0.000000   0.166206
   66  H  7  S    0.000000   0.002295  -0.131725   0.000000   0.160522

                     16         17         18         19         20
                   -0.3507     0.1994     0.2026     0.2595     0.2988
                     A          A          A          A          A   
    1  C  1  S    0.000000   0.000000   0.037565   0.049108   0.071939
    2  C  1  S    0.000000   0.000000  -0.074832  -0.033695  -0.073552
    3  C  1  X    0.000000   0.000000  -0.065977   0.116898  -0.100383
    4  C  1  Y    0.000000   0.000000   0.049139   0.237614   0.174834
    5  C  1  Z    0.396482  -0.378440   0.000000   0.000000   0.000000
    6  C  1  S    0.000000   0.000000  -0.073938  -1.161365  -1.396319
    7  C  1  X    0.000000   0.000000  -0.406754   0.447203   0.132134
    8  C  1  Y    0.000000   0.000000   0.391544   0.526430   1.005293
    9  C  1  Z    0.301079  -0.715112   0.000000   0.000000   0.000000
   10  C  1 XX    0.000000   0.000000   0.012402  -0.015686   0.018270
   11  C  1 YY    0.000000   0.000000  -0.013542   0.021682  -0.000742
   12  C  1 ZZ    0.000000   0.000000  -0.001498   0.009508  -0.002936
   13  C  1 XY    0.000000   0.000000   0.010049  -0.013645   0.009474
   14  C  1 XZ   -0.029429  -0.014008   0.000000   0.000000   0.000000
   15  C  1 YZ    0.011512   0.025636   0.000000   0.000000   0.000000
   16  C  2  S    0.000000   0.000000  -0.013835  -0.047965   0.062994
   17  C  2  S    0.000000   0.000000   0.041521   0.056474  -0.066181
   18  C  2  X    0.000000   0.000000  -0.075221   0.114910   0.094669
   19  C  2  Y    0.000000   0.000000  -0.028559   0.182236  -0.212135
   20  C  2  Z    0.329847   0.406759   0.000000   0.000000   0.000000
   21  C  2  S    0.000000   0.000000  -0.252609   1.006678  -1.210360
   22  C  2  X    0.000000   0.000000  -0.439135   0.461287  -0.084515
   23  C  2  Y    0.000000   0.000000   0.115640   0.430467  -1.214339
   24  C  2  Z    0.259608   0.764234   0.000000   0.000000   0.000000
   25  C  2 XX    0.000000   0.000000  -0.009537   0.022545   0.012792
   26  C  2 YY    0.000000   0.000000   0.004854  -0.027147   0.001201
   27  C  2 ZZ    0.000000   0.000000   0.006533  -0.005727  -0.002814
   28  C  2 XY    0.000000   0.000000  -0.010467   0.010242   0.011282
   29  C  2 XZ    0.035289  -0.010524   0.000000   0.000000   0.000000
   30  C  2 YZ   -0.014335   0.022283   0.000000   0.000000   0.000000
   31  O  3  S    0.000000   0.000000   0.085636  -0.017678  -0.025277
   32  O  3  S    0.000000   0.000000  -0.072613   0.047379   0.064338
   33  O  3  X    0.000000   0.000000  -0.058804   0.087935   0.040804
   34  O  3  Y    0.000000   0.000000   0.227498   0.013282   0.002293
   35  O  3  Z   -0.285669  -0.167031   0.000000   0.000000   0.000000
   36  O  3  S    0.000000   0.000000  -1.171145   0.178084   0.166614
   37  O  3  X    0.000000   0.000000  -0.105350   0.164462   0.013351
   38  O  3  Y    0.000000   0.000000   0.481727   0.024345   0.070088
   39  O  3  Z   -0.272087  -0.258724   0.000000   0.000000   0.000000
   40  O  3 XX    0.000000   0.000000   0.045610   0.002671  -0.002300
   41  O  3 YY    0.000000   0.000000   0.028434   0.003031  -0.004136
   42  O  3 ZZ    0.000000   0.000000   0.048763   0.004078   0.002445
   43  O  3 XY    0.000000   0.000000   0.006612   0.006574  -0.013420
   44  O  3 XZ   -0.002230   0.011612   0.000000   0.000000   0.000000
   45  O  3 YZ    0.009782   0.015806   0.000000   0.000000   0.000000
   46  H  4  S    0.000000   0.000000   0.075515   0.006518  -0.046614
   47  H  4  S    0.000000   0.000000   1.393589   0.097243  -0.330962
   48  H  5  S    0.000000   0.000000  -0.021970  -0.063840   0.014849
   49  H  5  S    0.000000   0.000000  -0.117466  -1.263441   1.822807
   50  F  6  S    0.000000   0.000000  -0.021966   0.024413  -0.005854
   51  F  6  S    0.000000   0.000000   0.032715  -0.028422   0.036795
   52  F  6  X    0.000000   0.000000  -0.085198   0.086184  -0.064378
   53  F  6  Y    0.000000   0.000000  -0.046880   0.007435  -0.088496
   54  F  6  Z   -0.210598   0.134016   0.000000   0.000000   0.000000
   55  F  6  S    0.000000   0.000000   0.208709  -0.255621  -0.041350
   56  F  6  X    0.000000   0.000000  -0.106977   0.140298  -0.034406
   57  F  6  Y    0.000000   0.000000  -0.107905  -0.004654  -0.135894
   58  F  6  Z   -0.196365   0.179846   0.000000   0.000000   0.000000
   59  F  6 XX    0.000000   0.000000  -0.005952   0.010669   0.001797
   60  F  6 YY    0.000000   0.000000  -0.003931   0.008775   0.014104
   61  F  6 ZZ    0.000000   0.000000  -0.005372   0.008599   0.006788
   62  F  6 XY    0.000000   0.000000   0.004415  -0.005726  -0.005452
   63  F  6 XZ   -0.001650   0.006608   0.000000   0.000000   0.000000
   64  F  6 YZ    0.000735   0.007495   0.000000   0.000000   0.000000
   65  H  7  S    0.000000   0.000000  -0.044073   0.046263   0.001817
   66  H  7  S    0.000000   0.000000   0.473103   1.384317   1.693303

                     21         22         23         24         25
                    0.3562     0.4807     0.5597     0.7213     0.7390
                     A          A          A          A          A   
    1  C  1  S   -0.092208   0.007828  -0.105633   0.043940   0.000000
    2  C  1  S    0.108752  -0.137979   0.112703   0.524416   0.000000
    3  C  1  X    0.191907   0.139776   0.017730  -0.433574   0.000000
    4  C  1  Y    0.079913   0.051441   0.292915   0.194041   0.000000
    5  C  1  Z    0.000000   0.000000   0.000000   0.000000   0.768104
    6  C  1  S    0.704423  -0.054281   3.694888  -0.655858   0.000000
    7  C  1  X    0.937827   1.635524  -1.987321   1.037880   0.000000
    8  C  1  Y    0.061032   0.834156   2.208094  -0.735223   0.000000
    9  C  1  Z    0.000000   0.000000   0.000000   0.000000  -0.749980
   10  C  1 XX   -0.019152   0.029513  -0.026241   0.086666   0.000000
   11  C  1 YY    0.007919  -0.043917   0.010424   0.080447   0.000000
   12  C  1 ZZ    0.015078   0.016260   0.017071  -0.019699   0.000000
   13  C  1 XY   -0.004943   0.005928  -0.008191  -0.036331   0.000000
   14  C  1 XZ    0.000000   0.000000   0.000000   0.000000  -0.034705
   15  C  1 YZ    0.000000   0.000000   0.000000   0.000000   0.044297
   16  C  2  S    0.082820  -0.077789   0.092777   0.025529   0.000000
   17  C  2  S   -0.145562  -0.052176  -0.112056   0.503176   0.000000
   18  C  2  X    0.038383  -0.207109   0.025330   0.386892   0.000000
   19  C  2  Y   -0.022500  -0.183208   0.183202  -0.291023   0.000000
   20  C  2  Z    0.000000   0.000000   0.000000   0.000000   0.670487
   21  C  2  S   -0.769081   1.963237  -3.260322   0.197738   0.000000
   22  C  2  X    0.481788  -1.676368  -3.016150  -0.451311   0.000000
   23  C  2  Y   -0.501079  -1.368778   1.628988   0.309754   0.000000
   24  C  2  Z    0.000000   0.000000   0.000000   0.000000  -0.602778
   25  C  2 XX    0.035139  -0.000409   0.039890   0.104576   0.000000
   26  C  2 YY   -0.035729  -0.021879  -0.029962   0.063637   0.000000
   27  C  2 ZZ   -0.002814   0.020908  -0.005273  -0.019650   0.000000
   28  C  2 XY    0.004245  -0.000473  -0.006226  -0.040162   0.000000
   29  C  2 XZ    0.000000   0.000000   0.000000   0.000000   0.035565
   30  C  2 YZ    0.000000   0.000000   0.000000   0.000000  -0.044904
   31  O  3  S   -0.005732   0.084770   0.011464   0.007830   0.000000
   32  O  3  S    0.057432  -0.060877   0.056679   0.031644   0.000000
   33  O  3  X    0.206237  -0.167713   0.112793   0.154991   0.000000
   34  O  3  Y    0.156776  -0.148473  -0.117810   0.006313   0.000000
   35  O  3  Z    0.000000   0.000000   0.000000   0.000000   0.088214
   36  O  3  S   -0.056559  -1.657525  -0.622264  -0.307333   0.000000
   37  O  3  X    0.332169  -0.998438  -0.086557  -0.009497   0.000000
   38  O  3  Y    0.466058  -0.370947  -0.494242   0.018273   0.000000
   39  O  3  Z    0.000000   0.000000   0.000000   0.000000   0.047619
   40  O  3 XX    0.011809   0.000602  -0.029414  -0.030973   0.000000
   41  O  3 YY    0.011435   0.035999   0.062753   0.040299   0.000000
   42  O  3 ZZ    0.017377   0.052224   0.022175  -0.002556   0.000000
   43  O  3 XY    0.006856  -0.000120  -0.022983   0.005868   0.000000
   44  O  3 XZ    0.000000   0.000000   0.000000   0.000000   0.025874
   45  O  3 YZ    0.000000   0.000000   0.000000   0.000000   0.014513
   46  H  4  S    0.065789  -0.001911   0.111608   0.171158   0.000000
   47  H  4  S    0.828762  -0.409255  -0.535165   0.199973   0.000000
   48  H  5  S   -0.072636  -0.118147  -0.039663   0.057419   0.000000
   49  H  5  S    0.900665   0.553599  -0.429698  -0.020177   0.000000
   50  F  6  S    0.072003   0.064331   0.013577  -0.001309   0.000000
   51  F  6  S   -0.097968   0.067848  -0.008164   0.138772   0.000000
   52  F  6  X    0.221854  -0.003804   0.143323  -0.118164   0.000000
   53  F  6  Y    0.066899   0.107633  -0.023532   0.098171   0.000000
   54  F  6  Z    0.000000   0.000000   0.000000   0.000000   0.050588
   55  F  6  S   -0.805371  -1.200604  -0.124857  -0.302065   0.000000
   56  F  6  X    0.421049   0.337814   0.247321  -0.082107   0.000000
   57  F  6  Y    0.192643   0.213604  -0.184841   0.122258   0.000000
   58  F  6  Z    0.000000   0.000000   0.000000   0.000000   0.085322
   59  F  6 XX    0.011313   0.044947   0.028413   0.035766   0.000000
   60  F  6 YY    0.017811   0.082144  -0.003483   0.057631   0.000000
   61  F  6 ZZ    0.022304   0.088590   0.012289   0.046205   0.000000
   62  F  6 XY   -0.009647  -0.007370   0.022188  -0.014526   0.000000
   63  F  6 XZ    0.000000   0.000000   0.000000   0.000000  -0.032513
   64  F  6 YZ    0.000000   0.000000   0.000000   0.000000  -0.016783
   65  H  7  S   -0.042466  -0.128875  -0.035139   0.151401   0.000000
   66  H  7  S   -0.527319   0.669954   0.971704  -0.336767   0.000000

                     26         27         28         29         30
                    0.8241     0.8474     0.8512     0.8617     1.0457
                     A          A          A          A          A   
    1  C  1  S    0.006873   0.019625   0.000000   0.064899  -0.010944
    2  C  1  S   -0.749052   0.088246   0.000000   0.013129   0.226805
    3  C  1  X   -0.654102   0.501720   0.000000   0.215739  -0.131580
    4  C  1  Y   -0.262457   0.199840   0.000000  -0.421725  -0.208560
    5  C  1  Z    0.000000   0.000000   0.733497   0.000000   0.000000
    6  C  1  S    1.247728  -1.218383   0.000000  -0.396893   0.163526
    7  C  1  X    0.767760   0.385659   0.000000  -0.337132  -0.007077
    8  C  1  Y    0.319158  -1.222171   0.000000   0.836325   0.997956
    9  C  1  Z    0.000000   0.000000  -1.183037   0.000000   0.000000
   10  C  1 XX    0.004247  -0.041984   0.000000   0.019694   0.049798
   11  C  1 YY   -0.067854   0.012013   0.000000   0.133332   0.007996
   12  C  1 ZZ   -0.031530   0.003021   0.000000  -0.058009   0.017996
   13  C  1 XY    0.077294  -0.082175   0.000000  -0.077919   0.026780
   14  C  1 XZ    0.000000   0.000000   0.041614   0.000000   0.000000
   15  C  1 YZ    0.000000   0.000000   0.005299   0.000000   0.000000
   16  C  2  S    0.024557  -0.013847   0.000000  -0.060891   0.053181
   17  C  2  S   -0.602549  -0.418186   0.000000  -0.319154  -0.166560
   18  C  2  X    0.350061   0.741326   0.000000   0.332807  -0.008495
   19  C  2  Y    0.318893   0.222803   0.000000  -0.282934  -0.157112
   20  C  2  Z    0.000000   0.000000  -0.828888   0.000000   0.000000
   21  C  2  S    0.734801   1.830095   0.000000   0.781196   0.020130
   22  C  2  X   -0.621553  -0.015208   0.000000  -0.504011  -0.767063
   23  C  2  Y   -0.245804  -1.167723   0.000000   0.557272   0.352824
   24  C  2  Z    0.000000   0.000000   1.276235   0.000000   0.000000
   25  C  2 XX   -0.014675   0.006065   0.000000  -0.025979   0.044734
   26  C  2 YY   -0.024616  -0.034262   0.000000  -0.155127   0.089012
   27  C  2 ZZ   -0.039399  -0.023680   0.000000   0.049308  -0.075694
   28  C  2 XY   -0.010171   0.079164   0.000000   0.095950   0.115648
   29  C  2 XZ    0.000000   0.000000   0.044576   0.000000   0.000000
   30  C  2 YZ    0.000000   0.000000   0.011044   0.000000   0.000000
   31  O  3  S   -0.012950  -0.020048   0.000000   0.006539  -0.021893
   32  O  3  S    0.100064   0.092249   0.000000  -0.153407   0.053445
   33  O  3  X    0.156247   0.095112   0.000000   0.147665   0.445234
   34  O  3  Y    0.038599   0.081200   0.000000  -0.063548  -0.328207
   35  O  3  Z    0.000000   0.000000  -0.066064   0.000000   0.000000
   36  O  3  S   -0.407263  -0.361986   0.000000  -0.089740  -0.293722
   37  O  3  X    0.046533  -0.067258   0.000000  -0.186113  -0.620321
   38  O  3  Y    0.031994   0.087650   0.000000  -0.068264  -0.212627
   39  O  3  Z    0.000000   0.000000  -0.133261   0.000000   0.000000
   40  O  3 XX   -0.077659  -0.086708   0.000000  -0.096958   0.007411
   41  O  3 YY    0.053732  -0.008834   0.000000  -0.055356  -0.178423
   42  O  3 ZZ    0.049838   0.076473   0.000000  -0.011633   0.068362
   43  O  3 XY   -0.040142  -0.111662   0.000000  -0.028132  -0.046619
   44  O  3 XZ    0.000000   0.000000  -0.057060   0.000000   0.000000
   45  O  3 YZ    0.000000   0.000000  -0.000003   0.000000   0.000000
   46  H  4  S    0.110469  -0.110022   0.000000   0.041867  -0.856548
   47  H  4  S   -0.108622  -0.126747   0.000000  -0.033774   0.550648
   48  H  5  S   -0.035663   0.161418   0.000000  -0.538053   0.422788
   49  H  5  S   -0.205014   0.315628   0.000000  -0.180538  -0.665806
   50  F  6  S   -0.001711   0.000336   0.000000  -0.007663   0.003985
   51  F  6  S    0.095561   0.023362   0.000000   0.101643  -0.037432
   52  F  6  X   -0.267146   0.066576   0.000000   0.026012  -0.020450
   53  F  6  Y   -0.084279   0.193850   0.000000  -0.111874  -0.034175
   54  F  6  Z    0.000000   0.000000   0.029509   0.000000   0.000000
   55  F  6  S   -0.557329   0.152466   0.000000  -0.028729  -0.101278
   56  F  6  X    0.064654  -0.127567   0.000000  -0.065478   0.101061
   57  F  6  Y    0.036356   0.080747   0.000000  -0.083108  -0.031371
   58  F  6  Z    0.000000   0.000000   0.121104   0.000000   0.000000
   59  F  6 XX   -0.091162   0.083960   0.000000   0.038382  -0.040235
   60  F  6 YY    0.033509   0.022484   0.000000   0.054702  -0.021219
   61  F  6 ZZ    0.079027  -0.015200   0.000000   0.018248  -0.001043
   62  F  6 XY   -0.075940   0.063119   0.000000   0.001413  -0.005311
   63  F  6 XZ    0.000000   0.000000  -0.054221   0.000000   0.000000
   64  F  6 YZ    0.000000   0.000000  -0.002705   0.000000   0.000000
   65  H  7  S   -0.146141  -0.158708   0.000000   0.549712  -0.039292
   66  H  7  S   -0.143917  -0.509549   0.000000   0.166300   0.622039

                     31         32         33         34         35
                    1.0942     1.1150     1.2087     1.2332     1.2375
                     A          A          A          A          A   
    1  C  1  S   -0.001100  -0.012623   0.000000  -0.007395  -0.005640
    2  C  1  S    0.753945  -0.147498   0.000000  -0.252864   0.903892
    3  C  1  X    0.085865   0.135826   0.000000  -0.040164  -0.264596
    4  C  1  Y   -0.896503  -0.142340   0.000000   0.017862  -0.042534
    5  C  1  Z    0.000000   0.000000   0.019989   0.000000   0.000000
    6  C  1  S   -1.341852   1.149688   0.000000   1.655252  -3.926653
    7  C  1  X    0.044377  -0.873951   0.000000  -0.509402   1.089807
    8  C  1  Y    2.674310  -0.178277   0.000000  -0.312038  -1.757613
    9  C  1  Z    0.000000   0.000000   0.151211   0.000000   0.000000
   10  C  1 XX    0.173356   0.091553   0.000000  -0.001809  -0.087316
   11  C  1 YY   -0.026981  -0.120704   0.000000  -0.025278  -0.054677
   12  C  1 ZZ    0.055076   0.019317   0.000000   0.003048   0.146287
   13  C  1 XY   -0.046062  -0.061273   0.000000  -0.071842   0.000830
   14  C  1 XZ    0.000000   0.000000  -0.010182   0.000000   0.000000
   15  C  1 YZ    0.000000   0.000000  -0.050472   0.000000   0.000000
   16  C  2  S   -0.003831  -0.002173   0.000000  -0.015435  -0.024415
   17  C  2  S    0.503165  -0.658043   0.000000   0.380426  -0.825416
   18  C  2  X    0.243679   0.050615   0.000000   0.151530  -0.291074
   19  C  2  Y    0.273447  -0.945594   0.000000  -0.006291   0.117804
   20  C  2  Z    0.000000   0.000000   0.117409   0.000000   0.000000
   21  C  2  S   -1.774053   0.858679   0.000000  -1.260232   4.121708
   22  C  2  X   -1.067541   0.064017   0.000000  -0.354201   1.928762
   23  C  2  Y   -1.146048   2.776664   0.000000   1.195311  -0.573494
   24  C  2  Z    0.000000   0.000000  -0.533480   0.000000   0.000000
   25  C  2 XX   -0.066436  -0.195462   0.000000  -0.059978   0.079273
   26  C  2 YY    0.085623   0.038126   0.000000  -0.092236  -0.146117
   27  C  2 ZZ    0.031803  -0.048564   0.000000   0.101151   0.003227
   28  C  2 XY    0.004584   0.014567   0.000000  -0.047768  -0.087045
   29  C  2 XZ    0.000000   0.000000  -0.002961   0.000000   0.000000
   30  C  2 YZ    0.000000   0.000000  -0.043556   0.000000   0.000000
   31  O  3  S    0.006726  -0.001993   0.000000   0.010896   0.000238
   32  O  3  S    0.086516   0.165981   0.000000   0.839957  -0.044562
   33  O  3  X   -0.118108  -0.202021   0.000000  -0.351351   0.266371
   34  O  3  Y    0.034941   0.134355   0.000000  -0.417039  -0.007299
   35  O  3  Z    0.000000   0.000000  -0.953135   0.000000   0.000000
   36  O  3  S   -0.463593  -0.032654   0.000000  -1.525373   0.185737
   37  O  3  X    0.120152   0.552219   0.000000   0.654613  -0.447742
   38  O  3  Y    0.149636  -0.211431   0.000000   0.228221   0.044063
   39  O  3  Z    0.000000   0.000000   1.198031   0.000000   0.000000
   40  O  3 XX    0.004469   0.096493   0.000000   0.310404  -0.071314
   41  O  3 YY    0.067336   0.081019   0.000000   0.180789   0.001771
   42  O  3 ZZ    0.026262   0.031806   0.000000   0.306753   0.004857
   43  O  3 XY   -0.002872  -0.042469   0.000000   0.073087   0.076472
   44  O  3 XZ    0.000000   0.000000  -0.026892   0.000000   0.000000
   45  O  3 YZ    0.000000   0.000000  -0.037519   0.000000   0.000000
   46  H  4  S    0.171092   0.152904   0.000000  -0.584530   0.079631
   47  H  4  S   -0.138255   0.142386   0.000000   1.139869  -0.142285
   48  H  5  S    0.058378   0.414727   0.000000  -0.534337  -0.447371
   49  H  5  S    0.812852  -2.301659   0.000000   0.012574  -0.050542
   50  F  6  S    0.004190   0.002117   0.000000   0.001688   0.017872
   51  F  6  S   -0.142516   0.017629   0.000000   0.113209   0.596449
   52  F  6  X   -0.056676   0.052989   0.000000  -0.002566   0.191199
   53  F  6  Y   -0.014841   0.045040   0.000000   0.064504   0.212621
   54  F  6  Z    0.000000   0.000000   0.025655   0.000000   0.000000
   55  F  6  S    0.000384   0.101730   0.000000  -0.163843  -0.713321
   56  F  6  X    0.207743  -0.023343   0.000000  -0.045412  -0.482199
   57  F  6  Y   -0.115634  -0.035325   0.000000  -0.029732  -0.124679
   58  F  6  Z    0.000000   0.000000  -0.038062   0.000000   0.000000
   59  F  6 XX   -0.139967   0.005783   0.000000   0.019420   0.349078
   60  F  6 YY   -0.013059   0.035776   0.000000   0.072776   0.312665
   61  F  6 ZZ   -0.056221   0.015728   0.000000   0.060003   0.204324
   62  F  6 XY    0.069411   0.022811   0.000000   0.014749   0.017778
   63  F  6 XZ    0.000000   0.000000   0.013069   0.000000   0.000000
   64  F  6 YZ    0.000000   0.000000  -0.016982   0.000000   0.000000
   65  H  7  S   -0.460133  -0.336166   0.000000  -0.191928  -0.548056
   66  H  7  S    2.323251   0.152785   0.000000  -0.448095   0.168701

                     36         37         38         39         40
                    1.2681     1.4705     1.4905     1.5267     1.6153
                     A          A          A          A          A   
    1  C  1  S   -0.035710   0.022544   0.000970   0.000000   0.000000
    2  C  1  S   -1.037127   0.301986  -0.154648   0.000000   0.000000
    3  C  1  X    0.263384   0.192427   0.131423   0.000000   0.000000
    4  C  1  Y   -0.145619   0.213937  -0.032762   0.000000   0.000000
    5  C  1  Z    0.000000   0.000000   0.000000   0.046293  -0.129981
    6  C  1  S    3.790357  -1.817278   1.882508   0.000000   0.000000
    7  C  1  X   -1.593457  -0.194404  -0.946078   0.000000   0.000000
    8  C  1  Y    0.232160  -2.009412   0.488623   0.000000   0.000000
    9  C  1  Z    0.000000   0.000000   0.000000  -0.293583  -0.046422
   10  C  1 XX   -0.032323   0.178942   0.084428   0.000000   0.000000
   11  C  1 YY   -0.156378  -0.017930  -0.051310   0.000000   0.000000
   12  C  1 ZZ    0.016001  -0.068674   0.013064   0.000000   0.000000
   13  C  1 XY   -0.133623   0.131644   0.032295   0.000000   0.000000
   14  C  1 XZ    0.000000   0.000000   0.000000   0.285792  -0.279008
   15  C  1 YZ    0.000000   0.000000   0.000000   0.101229   0.396432
   16  C  2  S    0.021859  -0.027935   0.018005   0.000000   0.000000
   17  C  2  S    0.985039  -0.350413   0.171809   0.000000   0.000000
   18  C  2  X    0.159603  -0.091878   0.082433   0.000000   0.000000
   19  C  2  Y   -0.189143  -0.073146  -0.087047   0.000000   0.000000
   20  C  2  Z    0.000000   0.000000   0.000000   0.079979  -0.025805
   21  C  2  S   -3.629587   1.858996  -0.370713   0.000000   0.000000
   22  C  2  X   -0.568073   2.000108  -1.756585   0.000000   0.000000
   23  C  2  Y    1.397888   0.336934   1.218953   0.000000   0.000000
   24  C  2  Z    0.000000   0.000000   0.000000   0.047244  -0.037962
   25  C  2 XX    0.066440  -0.033977   0.172926   0.000000   0.000000
   26  C  2 YY    0.038163  -0.017694  -0.143020   0.000000   0.000000
   27  C  2 ZZ    0.045245  -0.008099   0.048990   0.000000   0.000000
   28  C  2 XY    0.129815  -0.016415   0.047478   0.000000   0.000000
   29  C  2 XZ    0.000000   0.000000   0.000000  -0.078764   0.523514
   30  C  2 YZ    0.000000   0.000000   0.000000   0.232004  -0.096082
   31  O  3  S   -0.009248  -0.009229   0.026558   0.000000   0.000000
   32  O  3  S   -0.208420  -0.043149   0.493224   0.000000   0.000000
   33  O  3  X    0.387117   0.149836   0.273667   0.000000   0.000000
   34  O  3  Y   -0.148308  -0.421020   0.699089   0.000000   0.000000
   35  O  3  Z    0.000000   0.000000   0.000000  -0.045421   0.007745
   36  O  3  S    0.927468   0.616562  -1.359813   0.000000   0.000000
   37  O  3  X   -0.234561   0.057431  -0.806577   0.000000   0.000000
   38  O  3  Y    0.227182   0.939043  -1.676336   0.000000   0.000000
   39  O  3  Z    0.000000   0.000000   0.000000   0.042350   0.138873
   40  O  3 XX   -0.001814  -0.013475   0.157726   0.000000   0.000000
   41  O  3 YY   -0.026929   0.061192   0.091062   0.000000   0.000000
   42  O  3 ZZ   -0.206120  -0.118566   0.171215   0.000000   0.000000
   43  O  3 XY   -0.025828  -0.038916   0.187229   0.000000   0.000000
   44  O  3 XZ    0.000000   0.000000   0.000000   0.002209  -0.315854
   45  O  3 YZ    0.000000   0.000000   0.000000   0.086546  -0.211090
   46  H  4  S    0.246474   0.242606  -0.228826   0.000000   0.000000
   47  H  4  S   -0.174602   0.278253  -0.582073   0.000000   0.000000
   48  H  5  S   -0.127572  -0.253115  -0.260706   0.000000   0.000000
   49  H  5  S   -0.000971  -0.404046  -0.328278   0.000000   0.000000
   50  F  6  S    0.014498  -0.072053  -0.024380   0.000000   0.000000
   51  F  6  S    0.333307  -0.955031  -0.324513   0.000000   0.000000
   52  F  6  X    0.087126  -0.509970  -0.312593   0.000000   0.000000
   53  F  6  Y    0.065324  -0.072771  -0.063175   0.000000   0.000000
   54  F  6  Z    0.000000   0.000000   0.000000  -0.829739  -0.218972
   55  F  6  S   -0.610340   2.487504   0.725668   0.000000   0.000000
   56  F  6  X   -0.081932   0.466296   0.398712   0.000000   0.000000
   57  F  6  Y   -0.078907   0.186353   0.071633   0.000000   0.000000
   58  F  6  Z    0.000000   0.000000   0.000000   0.925015   0.306990
   59  F  6 XX    0.091102  -0.376875  -0.175751   0.000000   0.000000
   60  F  6 YY    0.188919  -0.438482  -0.181885   0.000000   0.000000
   61  F  6 ZZ    0.198732  -0.581212  -0.147340   0.000000   0.000000
   62  F  6 XY    0.058498   0.017928   0.057018   0.000000   0.000000
   63  F  6 XZ    0.000000   0.000000   0.000000  -0.095290   0.062746
   64  F  6 YZ    0.000000   0.000000   0.000000  -0.040707   0.155058
   65  H  7  S   -0.450049  -0.228347  -0.149101   0.000000   0.000000
   66  H  7  S   -0.219530  -0.697780   0.172572   0.000000   0.000000

                     41         42         43         44         45
                    1.6813     1.7225     1.8185     1.8659     1.9802
                     A          A          A          A          A   
    1  C  1  S    0.002128   0.000000  -0.029734   0.000000  -0.021411
    2  C  1  S   -0.064409   0.000000  -0.295067   0.000000   0.052780
    3  C  1  X    0.047833   0.000000  -0.016931   0.000000  -0.050915
    4  C  1  Y   -0.228697   0.000000   0.006886   0.000000  -0.050005
    5  C  1  Z    0.000000   0.097881   0.000000  -0.130604   0.000000
    6  C  1  S    0.261253   0.000000   2.488577   0.000000  -0.118815
    7  C  1  X   -0.286683   0.000000  -1.723377   0.000000  -0.630725
    8  C  1  Y    1.884718   0.000000  -0.442954   0.000000  -0.669854
    9  C  1  Z    0.000000  -0.272731   0.000000   0.059747   0.000000
   10  C  1 XX   -0.137281   0.000000   0.056389   0.000000  -0.026662
   11  C  1 YY    0.109220   0.000000   0.042713   0.000000   0.338856
   12  C  1 ZZ    0.049318   0.000000  -0.088462   0.000000  -0.403880
   13  C  1 XY    0.071372   0.000000   0.043167   0.000000   0.011815
   14  C  1 XZ    0.000000  -0.378693   0.000000   0.184153   0.000000
   15  C  1 YZ    0.000000  -0.200212   0.000000   0.501893   0.000000
   16  C  2  S    0.005465   0.000000   0.013193   0.000000  -0.024096
   17  C  2  S    0.060627   0.000000   0.448997   0.000000  -0.165992
   18  C  2  X   -0.059378   0.000000   0.119453   0.000000   0.029174
   19  C  2  Y   -0.038195   0.000000  -0.122458   0.000000   0.030672
   20  C  2  Z    0.000000  -0.158486   0.000000  -0.095811   0.000000
   21  C  2  S   -0.718219   0.000000  -3.593839   0.000000   0.971049
   22  C  2  X   -1.152267   0.000000   0.903189   0.000000  -0.479878
   23  C  2  Y   -0.648746   0.000000   2.855386   0.000000   0.630746
   24  C  2  Z    0.000000   0.184141   0.000000  -0.011593   0.000000
   25  C  2 XX    0.017443   0.000000  -0.052482   0.000000   0.163826
   26  C  2 YY   -0.007684   0.000000   0.055402   0.000000   0.139479
   27  C  2 ZZ    0.035241   0.000000  -0.068844   0.000000  -0.383003
   28  C  2 XY    0.085687   0.000000   0.005844   0.000000   0.158598
   29  C  2 XZ    0.000000  -0.196288   0.000000  -0.105202   0.000000
   30  C  2 YZ    0.000000  -0.474822   0.000000  -0.440765   0.000000
   31  O  3  S    0.045264   0.000000  -0.105133   0.000000   0.015757
   32  O  3  S    0.521991   0.000000  -1.481074   0.000000   0.183521
   33  O  3  X    0.061951   0.000000  -0.314772   0.000000  -0.041956
   34  O  3  Y   -0.019389   0.000000   0.112267   0.000000   0.096683
   35  O  3  Z    0.000000   0.006375   0.000000  -0.044040   0.000000
   36  O  3  S   -1.751581   0.000000   4.717121   0.000000  -0.675370
   37  O  3  X   -0.487289   0.000000   1.556069   0.000000  -0.312054
   38  O  3  Y    0.137721   0.000000  -0.555978   0.000000  -0.437396
   39  O  3  Z    0.000000  -0.125444   0.000000  -0.006424   0.000000
   40  O  3 XX    0.230954   0.000000  -0.527307   0.000000   0.250351
   41  O  3 YY    0.195568   0.000000  -0.554626   0.000000   0.107705
   42  O  3 ZZ    0.047024   0.000000  -0.098612   0.000000  -0.262473
   43  O  3 XY   -0.036771   0.000000   0.039997   0.000000  -0.120197
   44  O  3 XZ    0.000000   0.301077   0.000000   0.382868   0.000000
   45  O  3 YZ    0.000000  -0.032089   0.000000  -0.212432   0.000000
   46  H  4  S    0.187955   0.000000  -0.428405   0.000000  -0.064797
   47  H  4  S    0.085797   0.000000  -0.315138   0.000000  -0.205628
   48  H  5  S    0.183397   0.000000  -0.341688   0.000000  -0.322176
   49  H  5  S    0.341668   0.000000  -0.769513   0.000000  -0.395313
   50  F  6  S    0.009722   0.000000  -0.024801   0.000000  -0.061139
   51  F  6  S    0.077297   0.000000  -0.255610   0.000000  -0.983682
   52  F  6  X   -0.226924   0.000000  -0.139641   0.000000   0.341950
   53  F  6  Y    0.741641   0.000000   0.280272   0.000000   0.058305
   54  F  6  Z    0.000000  -0.365890   0.000000   0.048613   0.000000
   55  F  6  S   -0.352700   0.000000   0.853984   0.000000   2.326674
   56  F  6  X    0.379627   0.000000   0.182599   0.000000  -0.691115
   57  F  6  Y   -1.118610   0.000000  -0.432003   0.000000  -0.129699
   58  F  6  Z    0.000000   0.581704   0.000000  -0.147705   0.000000
   59  F  6 XX    0.155019   0.000000  -0.026203   0.000000  -0.455514
   60  F  6 YY   -0.156190   0.000000  -0.141741   0.000000  -0.064435
   61  F  6 ZZ    0.128554   0.000000  -0.196272   0.000000  -0.605734
   62  F  6 XY   -0.173993   0.000000  -0.137359   0.000000  -0.322768
   63  F  6 XZ    0.000000   0.327988   0.000000  -0.434933   0.000000
   64  F  6 YZ    0.000000   0.133700   0.000000   0.020197   0.000000
   65  H  7  S    0.268289   0.000000  -0.406923   0.000000  -0.383884
   66  H  7  S    0.847551   0.000000  -0.305586   0.000000  -0.187315

                     46         47         48         49         50
                    2.0193     2.0599     2.1579     2.1707     2.2374
                     A          A          A          A          A   
    1  C  1  S    0.000000  -0.003453   0.000000  -0.006899   0.033033
    2  C  1  S    0.000000  -0.234686   0.000000   0.185377   0.519734
    3  C  1  X    0.000000   0.195910   0.000000  -0.121955  -0.091840
    4  C  1  Y    0.000000  -0.049088   0.000000   0.243340   0.131230
    5  C  1  Z   -0.037907   0.000000   0.091003   0.000000   0.000000
    6  C  1  S    0.000000  -0.593438   0.000000  -0.190180  -1.804906
    7  C  1  X    0.000000  -0.847532   0.000000  -0.870459  -0.741898
    8  C  1  Y    0.000000   0.377248   0.000000  -0.231409  -1.802563
    9  C  1  Z    0.193236   0.000000   0.082111   0.000000   0.000000
   10  C  1 XX    0.000000   0.092074   0.000000   0.290188  -0.395207
   11  C  1 YY    0.000000  -0.102882   0.000000  -0.374363   0.151075
   12  C  1 ZZ    0.000000  -0.082965   0.000000  -0.004290   0.377873
   13  C  1 XY    0.000000  -0.311523   0.000000  -0.068315  -0.058028
   14  C  1 XZ   -0.178663   0.000000  -0.021965   0.000000   0.000000
   15  C  1 YZ    0.283822   0.000000  -0.131018   0.000000   0.000000
   16  C  2  S    0.000000  -0.000356   0.000000  -0.005068   0.012899
   17  C  2  S    0.000000  -0.178318   0.000000  -0.241456   0.088199
   18  C  2  X    0.000000  -0.106187   0.000000  -0.143450   0.022384
   19  C  2  Y    0.000000   0.013900   0.000000   0.176731  -0.201705
   20  C  2  Z   -0.072713   0.000000   0.059640   0.000000   0.000000
   21  C  2  S    0.000000  -0.455007   0.000000  -0.077446   0.593869
   22  C  2  X    0.000000   0.424864   0.000000   0.487859   1.038982
   23  C  2  Y    0.000000  -0.577800   0.000000   1.245778   0.646536
   24  C  2  Z   -0.190876   0.000000  -0.122443   0.000000   0.000000
   25  C  2 XX    0.000000   0.078988   0.000000  -0.163379   0.025071
   26  C  2 YY    0.000000  -0.203122   0.000000   0.323228  -0.395372
   27  C  2 ZZ    0.000000   0.023924   0.000000  -0.170230   0.471574
   28  C  2 XY    0.000000  -0.338999   0.000000  -0.011883   0.133602
   29  C  2 XZ   -0.087712   0.000000  -0.142242   0.000000   0.000000
   30  C  2 YZ   -0.055752   0.000000   0.308793   0.000000   0.000000
   31  O  3  S    0.000000  -0.009628   0.000000  -0.025887  -0.000361
   32  O  3  S    0.000000  -0.076001   0.000000  -0.203605  -0.179531
   33  O  3  X    0.000000   0.123779   0.000000   0.026120  -0.018520
   34  O  3  Y    0.000000  -0.131444   0.000000   0.118079  -0.028156
   35  O  3  Z   -0.047240   0.000000  -0.018935   0.000000   0.000000
   36  O  3  S    0.000000   0.380860   0.000000   0.953948   0.700278
   37  O  3  X    0.000000  -0.068547   0.000000   0.260059   0.176638
   38  O  3  Y    0.000000   0.292472   0.000000  -0.375775   0.189155
   39  O  3  Z    0.118666   0.000000   0.030552   0.000000   0.000000
   40  O  3 XX    0.000000  -0.275770   0.000000   0.063038   0.004452
   41  O  3 YY    0.000000   0.087908   0.000000  -0.039112  -0.192212
   42  O  3 ZZ    0.000000   0.136925   0.000000  -0.178655   0.127526
   43  O  3 XY    0.000000   0.465081   0.000000  -0.288863  -0.139727
   44  O  3 XZ   -0.072978   0.000000   0.068708   0.000000   0.000000
   45  O  3 YZ    0.871152   0.000000  -0.299790   0.000000   0.000000
   46  H  4  S    0.000000  -0.024554   0.000000  -0.195785   0.208592
   47  H  4  S    0.000000  -0.095254   0.000000  -0.055855  -0.041070
   48  H  5  S    0.000000   0.420686   0.000000  -0.583757   0.152078
   49  H  5  S    0.000000   0.157796   0.000000  -0.461219  -0.366163
   50  F  6  S    0.000000  -0.044819   0.000000  -0.033202  -0.086531
   51  F  6  S    0.000000  -0.715849   0.000000  -0.659017  -1.171381
   52  F  6  X    0.000000   0.066220   0.000000   0.128232   0.071651
   53  F  6  Y    0.000000   0.246331   0.000000   0.266858  -0.100998
   54  F  6  Z    0.048325   0.000000   0.031492   0.000000   0.000000
   55  F  6  S    0.000000   1.740222   0.000000   1.593428   3.227628
   56  F  6  X    0.000000  -0.299606   0.000000  -0.266531  -0.725232
   57  F  6  Y    0.000000  -0.485534   0.000000  -0.423699   0.002437
   58  F  6  Z   -0.082289   0.000000  -0.045267   0.000000   0.000000
   59  F  6 XX    0.000000  -0.569506   0.000000  -0.621273  -0.716349
   60  F  6 YY    0.000000   0.132008   0.000000  -0.308969  -0.522866
   61  F  6 ZZ    0.000000  -0.328216   0.000000   0.247086   0.012633
   62  F  6 XY    0.000000   0.009090   0.000000   0.368310  -0.196192
   63  F  6 XZ   -0.114329   0.000000  -0.191313   0.000000   0.000000
   64  F  6 YZ    0.311559   0.000000   0.870957   0.000000   0.000000
   65  H  7  S    0.000000   0.283036   0.000000   0.371188  -0.298055
   66  H  7  S    0.000000   0.144934   0.000000  -0.131406  -0.439072

                     51         52         53         54         55
                    2.2486     2.2962     2.4480     2.5363     2.6479
                     A          A          A          A          A   
    1  C  1  S    0.001568  -0.004582   0.000000   0.014622  -0.072708
    2  C  1  S   -0.027512   0.090265   0.000000   0.102986  -0.361371
    3  C  1  X    0.198595  -0.042139   0.000000   0.364321  -0.149939
    4  C  1  Y   -0.133884  -0.116679   0.000000  -0.146526  -0.075584
    5  C  1  Z    0.000000   0.000000   0.122874   0.000000   0.000000
    6  C  1  S   -1.419129  -0.535420   0.000000  -0.974136   2.449939
    7  C  1  X    0.716508   0.236906   0.000000   0.013272  -0.819632
    8  C  1  Y   -1.194041   0.049561   0.000000  -0.953549   0.817546
    9  C  1  Z    0.000000   0.000000   0.357767   0.000000   0.000000
   10  C  1 XX    0.146879  -0.229491   0.000000  -0.264961   0.114948
   11  C  1 YY    0.110659   0.309408   0.000000  -0.083612   0.447340
   12  C  1 ZZ   -0.389666  -0.124161   0.000000   0.218832  -0.786174
   13  C  1 XY    0.408228  -0.252729   0.000000  -0.372710  -0.295757
   14  C  1 XZ    0.000000   0.000000  -0.142494   0.000000   0.000000
   15  C  1 YZ    0.000000   0.000000   0.565060   0.000000   0.000000
   16  C  2  S   -0.023289  -0.032735   0.000000  -0.026370   0.028573
   17  C  2  S   -0.054849  -0.480358   0.000000  -0.107475   0.238550
   18  C  2  X    0.227609  -0.082774   0.000000   0.104835  -0.504640
   19  C  2  Y   -0.147665   0.015528   0.000000  -0.034887   0.069152
   20  C  2  Z    0.000000   0.000000  -0.147503   0.000000   0.000000
   21  C  2  S    1.702056   0.903889   0.000000   0.963718  -1.841654
   22  C  2  X    0.901630   0.158291   0.000000   0.978292  -0.753115
   23  C  2  Y   -0.722614  -0.465409   0.000000   0.266242   0.776344
   24  C  2  Z    0.000000   0.000000  -0.393048   0.000000   0.000000
   25  C  2 XX    0.056170   0.551242   0.000000  -0.065267  -0.081202
   26  C  2 YY    0.085678  -0.285764   0.000000   0.182929  -0.351537
   27  C  2 ZZ   -0.085247  -0.447338   0.000000  -0.197889   0.359723
   28  C  2 XY   -0.113647   0.180045   0.000000  -0.638391  -0.306688
   29  C  2 XZ    0.000000   0.000000   0.006327   0.000000   0.000000
   30  C  2 YZ    0.000000   0.000000   0.612808   0.000000   0.000000
   31  O  3  S   -0.003597   0.016399   0.000000  -0.037349   0.005359
   32  O  3  S    0.088269  -0.320157   0.000000  -0.262505   0.201064
   33  O  3  X    0.095277  -0.333686   0.000000   0.100839   0.142574
   34  O  3  Y   -0.112526  -0.136156   0.000000   0.076344   0.101951
   35  O  3  Z    0.000000   0.000000  -0.088174   0.000000   0.000000
   36  O  3  S   -0.084434   0.178777   0.000000   1.162353  -0.282484
   37  O  3  X   -0.169206   0.141865   0.000000   0.210434  -0.186550
   38  O  3  Y    0.345219   0.107356   0.000000  -0.470492  -0.315833
   39  O  3  Z    0.000000   0.000000   0.271363   0.000000   0.000000
   40  O  3 XX   -0.225905   0.093826   0.000000  -0.035278   0.047743
   41  O  3 YY    0.156425   0.014715   0.000000   0.356112  -0.209377
   42  O  3 ZZ    0.070669  -0.249193   0.000000  -0.457512   0.274106
   43  O  3 XY    0.414580   0.117740   0.000000  -0.163468  -0.537857
   44  O  3 XZ    0.000000   0.000000   0.594255   0.000000   0.000000
   45  O  3 YZ    0.000000   0.000000  -0.016861   0.000000   0.000000
   46  H  4  S    0.018332  -0.046766   0.000000  -0.642745   0.159545
   47  H  4  S    0.052053  -0.071113   0.000000  -0.037665  -0.134165
   48  H  5  S   -0.005103   0.230582   0.000000  -0.192939   0.234246
   49  H  5  S    0.151187  -0.061535   0.000000  -0.201584  -0.230650
   50  F  6  S    0.002999  -0.013264   0.000000  -0.022499   0.009563
   51  F  6  S   -0.304785   0.316001   0.000000  -0.002752   0.128771
   52  F  6  X    0.336444  -0.257379   0.000000  -0.146960  -0.010501
   53  F  6  Y   -0.046105  -0.040375   0.000000  -0.173618   0.055688
   54  F  6  Z    0.000000   0.000000   0.120593   0.000000   0.000000
   55  F  6  S    0.488099  -0.393273   0.000000   0.419641  -0.415404
   56  F  6  X   -0.371841   0.221136   0.000000  -0.072961   0.134161
   57  F  6  Y    0.228672  -0.001127   0.000000   0.257422  -0.137830
   58  F  6  Z    0.000000   0.000000  -0.247730   0.000000   0.000000
   59  F  6 XX    0.049136  -0.092548   0.000000   0.180217   0.135129
   60  F  6 YY   -0.700775  -0.102966   0.000000  -0.384436  -0.075161
   61  F  6 ZZ    0.393125   0.349909   0.000000   0.144707   0.068335
   62  F  6 XY   -0.038555   0.358758   0.000000  -0.406296   0.203868
   63  F  6 XZ    0.000000   0.000000   0.494904   0.000000   0.000000
   64  F  6 YZ    0.000000   0.000000  -0.053281   0.000000   0.000000
   65  H  7  S   -0.263804  -0.223964   0.000000  -0.099851  -0.399620
   66  H  7  S   -0.382076   0.175262   0.000000  -0.289532   0.200340

                     56         57         58         59         60
                    2.8045     2.8146     2.8771     3.0180     3.2169
                     A          A          A          A          A   
    1  C  1  S    0.000000   0.007204   0.000000  -0.011412   0.055329
    2  C  1  S    0.000000   0.183820   0.000000  -0.174307  -0.392284
    3  C  1  X    0.000000   0.262325   0.000000  -0.271918   0.544219
    4  C  1  Y    0.000000   0.073867   0.000000  -0.116592  -0.437721
    5  C  1  Z   -0.144706   0.000000  -0.031082   0.000000   0.000000
    6  C  1  S    0.000000  -1.259989   0.000000   0.052247  -1.664702
    7  C  1  X    0.000000   0.405532   0.000000  -0.266217   0.667472
    8  C  1  Y    0.000000  -0.504667   0.000000  -0.474564  -0.376845
    9  C  1  Z   -0.158922   0.000000   0.014398   0.000000   0.000000
   10  C  1 XX    0.000000   0.032519   0.000000   0.331688  -0.452987
   11  C  1 YY    0.000000  -0.049720   0.000000  -0.515252   0.015916
   12  C  1 ZZ    0.000000   0.027827   0.000000   0.017426   0.452019
   13  C  1 XY    0.000000  -0.360397   0.000000  -0.199599   0.907662
   14  C  1 XZ   -0.404345   0.000000   0.864696   0.000000   0.000000
   15  C  1 YZ   -0.460435   0.000000  -0.188362   0.000000   0.000000
   16  C  2  S    0.000000  -0.059995   0.000000   0.011621  -0.073283
   17  C  2  S    0.000000  -0.176957   0.000000  -0.457489   0.416822
   18  C  2  X    0.000000  -0.272611   0.000000   0.608154   0.453519
   19  C  2  Y    0.000000   0.109367   0.000000   0.280779  -0.424174
   20  C  2  Z   -0.077826   0.000000   0.070649   0.000000   0.000000
   21  C  2  S    0.000000   2.123653   0.000000  -0.760424   1.930475
   22  C  2  X    0.000000   0.215610   0.000000   0.726230   0.514077
   23  C  2  Y    0.000000  -0.967257   0.000000   0.442696  -0.593880
   24  C  2  Z   -0.099837   0.000000   0.016557   0.000000   0.000000
   25  C  2 XX    0.000000  -0.007051   0.000000  -0.079396   0.606446
   26  C  2 YY    0.000000   0.370500   0.000000  -0.385179  -0.164631
   27  C  2 ZZ    0.000000  -0.599313   0.000000   0.266788  -0.574567
   28  C  2 XY    0.000000   0.098667   0.000000  -0.276392  -0.900775
   29  C  2 XZ    0.671140   0.000000   0.698790   0.000000   0.000000
   30  C  2 YZ    0.224460   0.000000  -0.317636   0.000000   0.000000
   31  O  3  S    0.000000   0.048113   0.000000  -0.029213   0.021546
   32  O  3  S    0.000000   0.643298   0.000000  -0.559562   0.169510
   33  O  3  X    0.000000   0.070028   0.000000  -0.076525   0.018183
   34  O  3  Y    0.000000  -0.075927   0.000000  -0.065067  -0.022249
   35  O  3  Z   -0.036785   0.000000  -0.006383   0.000000   0.000000
   36  O  3  S    0.000000  -1.971732   0.000000   1.655330  -0.624392
   37  O  3  X    0.000000  -0.672999   0.000000   1.079014  -0.255650
   38  O  3  Y    0.000000   0.745829   0.000000   0.497895   0.031412
   39  O  3  Z    0.254392   0.000000   0.126223   0.000000   0.000000
   40  O  3 XX    0.000000   0.118694   0.000000   0.929385   0.173555
   41  O  3 YY    0.000000  -0.651937   0.000000  -0.696107  -0.291146
   42  O  3 ZZ    0.000000   0.789115   0.000000  -0.362800   0.230436
   43  O  3 XY    0.000000   0.051192   0.000000   0.200275  -0.343082
   44  O  3 XZ    0.602447   0.000000   0.314244   0.000000   0.000000
   45  O  3 YZ    0.172887   0.000000   0.208097   0.000000   0.000000
[...]
   63  F  6 XZ   -0.582454   0.000000   0.460631   0.000000   0.000000
   64  F  6 YZ   -0.165881   0.000000   0.323107   0.000000   0.000000
   65  H  7  S    0.000000   0.030056   0.000000   0.191471   0.041924
   66  H  7  S    0.000000  -0.142486   0.000000  -0.343193   0.033115

                     61         62         63         64         65
                    3.3378     3.4869     4.2056     4.5144     4.6454
                     A          A          A          A          A   
    1  C  1  S    0.053121   0.086758   0.004373   0.321031   0.054800
    2  C  1  S   -0.359956  -0.785114  -0.033870  -2.193706  -0.272599
    3  C  1  X   -0.541904  -0.697172  -0.024413   0.155042  -0.359792
    4  C  1  Y   -0.261182  -0.251688   0.047768  -0.018376   0.121560
    5  C  1  Z    0.000000   0.000000   0.000000   0.000000   0.000000
    6  C  1  S   -1.380586  -1.650690   0.267397  -1.260779  -2.150171
    7  C  1  X    0.150539  -0.357732  -0.476998  -0.265541  -0.891911
    8  C  1  Y   -0.550617  -0.593415  -0.447761  -0.232386  -1.274800
    9  C  1  Z    0.000000   0.000000   0.000000   0.000000   0.000000
   10  C  1 XX    0.127941  -0.848059   0.069096   1.436313   0.189717
   11  C  1 YY   -0.385124   0.783402  -0.022452   1.190244   0.267141
   12  C  1 ZZ    0.394725   0.549411   0.051297   1.278835   0.336940
   13  C  1 XY   -0.331481  -0.442809   0.003384   0.067886  -0.227170
   14  C  1 XZ    0.000000   0.000000   0.000000   0.000000   0.000000
   15  C  1 YZ    0.000000   0.000000   0.000000   0.000000   0.000000
   16  C  2  S   -0.081237   0.006102  -0.014367   0.272619  -0.289910
   17  C  2  S    0.485600  -0.277213   0.067141  -1.901328   1.787965
   18  C  2  X   -0.550106   0.153294  -0.023928  -0.199525   0.042754
   19  C  2  Y   -0.097840  -0.015356  -0.024738   0.032739   0.053754
   20  C  2  Z    0.000000   0.000000   0.000000   0.000000   0.000000
   21  C  2  S    2.177239   0.359327  -1.600892  -0.155886   1.546950
   22  C  2  X   -0.384273   0.780009   1.181830  -0.015507   0.891532
   23  C  2  Y   -0.505728  -0.148278   0.888863  -0.016999   0.523858
   24  C  2  Z    0.000000   0.000000   0.000000   0.000000   0.000000
   25  C  2 XX    0.700830  -0.540942   0.064228   1.268147  -1.385574
   26  C  2 YY   -0.615280   0.616432  -0.126095   0.987176  -1.165619
   27  C  2 ZZ   -0.511931   0.045835   0.058726   1.049391  -1.025999
   28  C  2 XY    0.380621  -0.160427  -0.000001   0.094129   0.053919
   29  C  2 XZ    0.000000   0.000000   0.000000   0.000000   0.000000
   30  C  2 YZ    0.000000   0.000000   0.000000   0.000000   0.000000
   31  O  3  S    0.047065  -0.019787  -0.538180   0.008555  -0.010940
   32  O  3  S    0.433444  -0.033675  -0.185545   0.051374  -0.093487
   33  O  3  X   -0.112418   0.126979  -0.196446  -0.080631   0.109757
   34  O  3  Y   -0.015055   0.003878   0.024397  -0.014730   0.016947
   35  O  3  Z    0.000000   0.000000   0.000000   0.000000   0.000000
   36  O  3  S   -1.771677   0.518721   5.756318  -0.180854   0.483286
   37  O  3  X   -1.081332   0.230269   1.018234  -0.247817   0.211584
   38  O  3  Y   -0.449855   0.368999  -0.056990  -0.135847   0.119789
   39  O  3  Z    0.000000   0.000000   0.000000   0.000000   0.000000
   40  O  3 XX   -0.686605   0.176407  -1.620888  -0.208282   0.187905
   41  O  3 YY    0.404125  -0.135603  -1.791051   0.022118  -0.022087
   42  O  3 ZZ    0.345532  -0.050085  -1.871623   0.076091  -0.062536
   43  O  3 XY   -0.436643   0.314846   0.046790  -0.149193   0.135526
   44  O  3 XZ    0.000000   0.000000   0.000000   0.000000   0.000000
   45  O  3 YZ    0.000000   0.000000   0.000000   0.000000   0.000000
   46  H  4  S   -0.127427   0.149475   0.041068   0.000482   0.029671
   47  H  4  S   -0.125187   0.008074  -0.548635  -0.044818  -0.069753
   48  H  5  S    0.108585  -0.260538   0.056030  -0.115584   0.027590
   49  H  5  S   -0.074067   0.158248  -0.283117   0.156503  -0.590270
   50  F  6  S    0.018518   0.008308  -0.009438  -0.251271  -0.552472
   51  F  6  S   -0.704822  -0.818123  -0.055365  -0.697393  -1.758338
   52  F  6  X    0.188177   0.045379  -0.021899   0.152806   0.222590
   53  F  6  Y   -0.010681   0.042539   0.022331   0.039458   0.085462
   54  F  6  Z    0.000000   0.000000   0.000000   0.000000   0.000000
   55  F  6  S    1.287131   1.809906   0.299831   3.141881   7.495106
   56  F  6  X   -0.906398  -1.085291   0.025925  -0.181023  -1.002944
   57  F  6  Y   -0.058938  -0.543068  -0.052389   0.017638  -0.346044
   58  F  6  Z    0.000000   0.000000   0.000000   0.000000   0.000000
   59  F  6 XX    0.703145   0.685396  -0.070957  -1.105044  -1.960024
   60  F  6 YY   -0.284628  -0.074847  -0.037286  -1.062913  -2.279949
   61  F  6 ZZ   -0.257643  -0.302982   0.004003  -0.977685  -2.255771
   62  F  6 XY    0.102898   0.726492   0.000508  -0.130754   0.159997
   63  F  6 XZ    0.000000   0.000000   0.000000   0.000000   0.000000
   64  F  6 YZ    0.000000   0.000000   0.000000   0.000000   0.000000
   65  H  7  S    0.233458  -0.234257  -0.077619  -0.099273  -0.010923
   66  H  7  S   -0.172913   0.075408  -0.163601   0.198395  -0.297357

                     66
                    4.8467
                     A   
    1  C  1  S   -0.328287
    2  C  1  S    1.923622
    3  C  1  X   -0.135718
    4  C  1  Y   -0.345583
    5  C  1  Z    0.000000
    6  C  1  S    0.123944
    7  C  1  X   -1.057743
    8  C  1  Y   -0.826131
    9  C  1  Z    0.000000
   10  C  1 XX   -1.884248
   11  C  1 YY   -1.453895
   12  C  1 ZZ   -1.029432
   13  C  1 XY    0.013771
   14  C  1 XZ    0.000000
   15  C  1 YZ    0.000000
   16  C  2  S    0.236222
   17  C  2  S   -1.429719
   18  C  2  X    0.160658
   19  C  2  Y   -0.310527
   20  C  2  Z    0.000000
   21  C  2  S   -0.542787
   22  C  2  X    0.033766
   23  C  2  Y    0.339291
   24  C  2  Z    0.000000
   25  C  2 XX    1.385969
   26  C  2 YY    1.057510
   27  C  2 ZZ    0.834522
   28  C  2 XY   -0.175593
   29  C  2 XZ    0.000000
   30  C  2 YZ    0.000000
   31  O  3  S    0.004819
   32  O  3  S    0.127933
   33  O  3  X   -0.032179
   34  O  3  Y   -0.018311
   35  O  3  Z    0.000000
   36  O  3  S   -0.134188
   37  O  3  X   -0.351114
   38  O  3  Y   -0.104708
   39  O  3  Z    0.000000
   40  O  3 XX   -0.281142
   41  O  3 YY   -0.021968
   42  O  3 ZZ    0.140477
   43  O  3 XY   -0.121905
   44  O  3 XZ    0.000000
   45  O  3 YZ    0.000000
   46  H  4  S    0.072859
   47  H  4  S   -0.135408
   48  H  5  S   -0.143380
   49  H  5  S    0.031075
   50  F  6  S   -0.375755
   51  F  6  S   -1.460619
   52  F  6  X    0.150808
   53  F  6  Y    0.047802
   54  F  6  Z    0.000000
   55  F  6  S    5.554202
   56  F  6  X   -1.190271
   57  F  6  Y   -0.430416
   58  F  6  Z    0.000000
   59  F  6 XX   -0.943106
   60  F  6 YY   -1.541875
   61  F  6 ZZ   -1.707827
   62  F  6 XY    0.326894
   63  F  6 XZ    0.000000
   64  F  6 YZ    0.000000
   65  H  7  S    0.141081
   66  H  7  S   -0.549559
 ...... END OF RHF CALCULATION ......
 STEP CPU TIME =     0.23 TOTAL CPU TIME =          0.4 (      0.0 MIN)
 TOTAL WALL CLOCK TIME=          0.5 SECONDS, CPU UTILIZATION IS    93.62%

     ----------------------------------------------------------------
     PROPERTY VALUES FOR THE RHF   SELF-CONSISTENT FIELD WAVEFUNCTION
     ----------------------------------------------------------------

          -----------------
          ENERGY COMPONENTS
          -----------------

         WAVEFUNCTION NORMALIZATION =       1.0000000000

                ONE ELECTRON ENERGY =    -570.8201004352
                TWO ELECTRON ENERGY =     206.1276400024
           NUCLEAR REPULSION ENERGY =     112.9666497623
                                      ------------------
                       TOTAL ENERGY =    -251.7258106706

 ELECTRON-ELECTRON POTENTIAL ENERGY =     206.1276400024
  NUCLEUS-ELECTRON POTENTIAL ENERGY =    -821.8756793416
   NUCLEUS-NUCLEUS POTENTIAL ENERGY =     112.9666497623
                                      ------------------
             TOTAL POTENTIAL ENERGY =    -502.7813895769
               TOTAL KINETIC ENERGY =     251.0555789063
                 VIRIAL RATIO (V/T) =       2.0026696549

  ...... PI ENERGY ANALYSIS ......

 ENERGY ANALYSIS:
            FOCK ENERGY=   -158.5648227734
          BARE H ENERGY=   -570.8201004352
     ELECTRONIC ENERGY =   -364.6924616043
         KINETIC ENERGY=    251.0555789063
          N-N REPULSION=    112.9666497623
           TOTAL ENERGY=   -251.7258118421
        SIGMA PART(1+2)=   -326.5819856920
               (K,V1,2)=    237.9740797375   -735.7935962941    171.2375308646
           PI PART(1+2)=    -38.1104759124
               (K,V1,2)=     13.0814991688    -86.0820830474     34.8901079663
  SIGMA SKELETON, ERROR=   -213.6153359297     -0.0000000000
             MIXED PART= 0.00000E+00 0.00000E+00 0.00000E+00 0.00000E+00
 ...... END OF PI ENERGY ANALYSIS ......

          ---------------------------------------
          MULLIKEN AND LOWDIN POPULATION ANALYSES
          ---------------------------------------

     ATOMIC MULLIKEN POPULATION IN EACH MOLECULAR ORBITAL

                      1          2          3          4          5

                  2.000000   2.000000   2.000000   2.000000   2.000000

    1             0.000042  -0.000017   1.971848   0.028514   0.150611
    2            -0.000014  -0.000034   0.028400   1.971694   0.016380
    3             0.000000   2.000048  -0.000023  -0.000594   0.000374
    4            -0.000000  -0.000001   0.000004   0.000001  -0.000005
    5            -0.000000   0.000004   0.000043   0.000390   0.000130
    6             1.999971  -0.000000  -0.000702  -0.000006   1.833354
    7             0.000001  -0.000000   0.000431   0.000001  -0.000844

                      6          7          8          9         10

                  2.000000   2.000000   2.000000   2.000000   2.000000

    1             0.029513   0.787103   0.358219   0.419906   0.420009
    2             0.220355   0.768813   0.424407   0.259691   0.207170
    3             1.651802   0.170453   0.491804   0.481355   0.194633
    4             0.095664   0.021802   0.126042   0.128327  -0.000013
    5             0.001049   0.037524   0.155667   0.001227   0.046634
    6             0.001648   0.177337   0.306929   0.623794   1.000111
    7            -0.000030   0.036968   0.136933   0.085701   0.131457

                     11         12         13         14         15

                  2.000000   2.000000   2.000000   2.000000   2.000000

    1             0.211793   0.005812   0.225749   0.035018   0.343084
    2             0.041342   0.563968   0.067909   0.304575   0.367333
    3             0.020535   0.381436   0.969041   1.581324   0.454560
    4             0.000000   0.053403   0.045737   0.000000   0.074440
    5             0.000000   0.325384   0.000749   0.000000   0.205921
    6             1.726329   0.670103   0.482788   0.079084   0.334375
    7             0.000000  -0.000106   0.208028   0.000000   0.220287

                     16

                  2.000000

    1             0.892137
    2             0.649183
    3             0.314485
    4             0.000000
    5             0.000000
    6             0.144195
    7             0.000000

               ----- POPULATIONS IN EACH AO -----
                             MULLIKEN      LOWDIN
              1  C  1  S      1.99644     1.97836
              2  C  1  S      0.65028     0.34829
              3  C  1  X      0.56526     0.50497
              4  C  1  Y      0.70944     0.62513
              5  C  1  Z      0.62831     0.58037
              6  C  1  S      0.46412     0.30485
              7  C  1  X      0.08639     0.22193
              8  C  1  Y      0.20470     0.37769
              9  C  1  Z      0.49069     0.52134
             10  C  1 XX      0.02638     0.19535
             11  C  1 YY      0.03394     0.18792
             12  C  1 ZZ     -0.01884     0.09902
             13  C  1 XY      0.02228     0.04412
             14  C  1 XZ      0.01668     0.03404
             15  C  1 YZ      0.00327     0.00476
             16  C  2  S      1.99648     1.97855
             17  C  2  S      0.66432     0.35016
             18  C  2  X      0.63966     0.56566
             19  C  2  Y      0.74501     0.66124
             20  C  2  Z      0.54426     0.49799
             21  C  2  S      0.45509     0.29777
             22  C  2  X      0.07744     0.24920
             23  C  2  Y      0.25471     0.39310
             24  C  2  Z      0.42606     0.47009
             25  C  2 XX      0.03227     0.19657
             26  C  2 YY      0.03282     0.18206
             27  C  2 ZZ     -0.02129     0.09722
             28  C  2 XY      0.01956     0.03688
             29  C  2 XZ      0.02086     0.04220
             30  C  2 YZ      0.00392     0.00536
             31  O  3  S      1.99532     1.97720
             32  O  3  S      0.90388     0.70786
             33  O  3  X      0.89051     0.83848
             34  O  3  Y      0.87067     0.81571
             35  O  3  Z      1.13147     1.10590
             36  O  3  S      0.91044     0.44410
             37  O  3  X      0.58849     0.60734
             38  O  3  Y      0.56676     0.59727
             39  O  3  Z      0.77990     0.78345
             40  O  3 XX      0.02058     0.18351
             41  O  3 YY      0.04222     0.20141
             42  O  3 ZZ      0.00333     0.16238
             43  O  3 XY      0.00269     0.00716
             44  O  3 XZ      0.00442     0.00853
             45  O  3 YZ      0.00056     0.00118
             46  H  4  S      0.45452     0.42659
             47  H  4  S      0.09088     0.20057
             48  H  5  S      0.52252     0.48489
             49  H  5  S      0.25220     0.33477
             50  F  6  S      1.99538     1.97788
             51  F  6  S      0.97661     0.85592
             52  F  6  X      0.94674     0.89636
             53  F  6  Y      1.15309     1.11935
             54  F  6  Z      1.18969     1.16208
             55  F  6  S      0.87178     0.50649
             56  F  6  X      0.64236     0.65505
             57  F  6  Y      0.73117     0.75794
             58  F  6  Z      0.75587     0.77239
             59  F  6 XX      0.04843     0.17151
             60  F  6 YY      0.03089     0.16338
             61  F  6 ZZ      0.02796     0.16067
             62  F  6 XY      0.00528     0.00830
             63  F  6 XZ      0.00355     0.00913
             64  F  6 YZ      0.00049     0.00119
             65  H  7  S      0.52613     0.48673
             66  H  7  S      0.29270     0.35519

          ----- MULLIKEN ATOMIC OVERLAP POPULATIONS -----
          (OFF-DIAGONAL ELEMENTS NEED TO BE MULTIPLIED BY 2)

             1           2           3           4           5

    1    4.7133744
    2    0.6207495   4.7600960
    3   -0.0377209   0.2428923   8.2756554
    4   -0.0005656  -0.0334361   0.2620606   0.3094699
    5   -0.0416627   0.3932049  -0.0330537   0.0043100   0.4491728
    6    0.2282778  -0.0271364   0.0006318  -0.0000002   0.0003448
    7    0.3968883  -0.0651970   0.0007668   0.0035611   0.0024048

             6           7

    6    9.2062711
    7   -0.0290803   0.5094807

          TOTAL MULLIKEN AND LOWDIN ATOMIC POPULATIONS
       ATOM         MULL.POP.    CHARGE          LOW.POP.     CHARGE
    1 C             5.879341    0.120659         6.028123   -0.028123
    2 C             5.891173    0.108827         6.024037   -0.024037
    3 O             8.711232   -0.711232         8.441487   -0.441487
    4 H             0.545400    0.454600         0.627162    0.372838
    5 H             0.774721    0.225279         0.819657    0.180343
    6 F             9.379309   -0.379309         9.217620   -0.217620
    7 H             0.818824    0.181176         0.841914    0.158086

          -------------------------------
          BOND ORDER AND VALENCE ANALYSIS     BOND ORDER THRESHOLD=0.050
          -------------------------------

                   BOND                       BOND                       BOND
  ATOM PAIR DIST  ORDER      ATOM PAIR DIST  ORDER      ATOM PAIR DIST  ORDER
    1   2  1.332  1.846        1   3  2.405  0.061        1   6  1.355  0.847
    1   7  1.087  0.942        2   3  1.367  0.929        2   5  1.085  0.934
    3   4  0.971  0.756

                       TOTAL       BONDED        FREE
      ATOM            VALENCE     VALENCE     VALENCE
    1 C                 3.680       3.680      -0.000
    2 C                 3.732       3.732       0.000
    3 O                 1.742       1.742      -0.000
    4 H                 0.766       0.766      -0.000
    5 H                 0.919       0.919      -0.000
    6 F                 0.906       0.906      -0.000
    7 H                 0.930       0.930      -0.000

          ---------------------
          ELECTROSTATIC MOMENTS
          ---------------------

 POINT   1           X           Y           Z (BOHR)    CHARGE
                 0.000000   -0.000000    0.000000       -0.00 (A.U.)
         DX          DY          DZ         /D/  (DEBYE)
    -0.858004   -1.699124    0.000000    1.903468
 ...... END OF PROPERTY EVALUATION ......
 STEP CPU TIME =     0.00 TOTAL CPU TIME =          0.4 (      0.0 MIN)
 TOTAL WALL CLOCK TIME=          0.5 SECONDS, CPU UTILIZATION IS    91.67%

 --------------------------   -----------------------------
 RHF-MP2 ENERGY CALCULATION   PROGRAM WRITTEN BY K.ISHIMURA
 --------------------------   -----------------------------
 NUMBER OF OCCUPIED ORBITALS            =   16
 NUMBER OF CORRELATED OCCUPIED ORBITALS =   12
 NUMBER OF VIRTUAL ORBITALS             =   50
 NUMBER OF BASIS FUNCTIONS              =   66
 NUMBER OF BASIS SHELLS                 =   22
 AO-TRANSFORMED INTEGRAL THRESHOLD      = 1.00E-09
 HALF-TRANSFORMED INTEGRAL THRESHOLD    = 1.78E-11
 TOTAL DISK REQUIRED (ALL PROCESSORS)=              2 MBYTES
                  DISK SPACE PER CORE=              2 MBYTES, USING P=    1
 MEMORY REQUIRED FOR TRANSFORMATION OF 1ST THREE INDICES=       84934
 MEMORY REQUIRED FOR    4TH INDEX TRANSF. AND MP2 ENERGY=      275342
 BEGINNING MP2 INTEGRAL TRANSFORMATION...
 BEGINNING    1ST SHELL LOOP...

 RESULTS OF MOLLER-PLESSET 2ND ORDER CORRECTION ARE
               E(0)=      -251.7258106706
               E(1)=         0.0
               E(2)=        -0.6006592293
             E(MP2)=      -252.3264698999
 SPIN-COMPONENT-SCALED MP2 RESULTS ARE
              E(2S)=        -0.4419916149
              E(2T)=        -0.1586676145
             E(2ST)=        -0.5832791427 = 6/5 * E(2S) + 1/3 * E(2T)
            SCS-MP2=      -252.3090898132
 ..... DONE WITH MP2 ENERGY .....
 STEP CPU TIME =     0.80 TOTAL CPU TIME =          1.2 (      0.0 MIN)
 TOTAL WALL CLOCK TIME=          1.3 SECONDS, CPU UTILIZATION IS    94.66%
                580000  WORDS OF DYNAMIC MEMORY USED
 EXECUTION OF GAMESS TERMINATED NORMALLY Fri Oct 18 07:54:40 2019
 DDI: 263640 bytes (0.3 MB / 0 MWords) used by master data server.

 ----------------------------------------
 CPU timing information for all processes
 ========================================
 0: 1.06 + 0.249 = 1.256
 ----------------------------------------
 ddikick.x: exited gracefully.
----- accounting info -----
Files used on the master node crcfe01.crc.nd.edu were:
-rw-r--r-- 1 cdrisko campus      415 Oct 18 07:54 /afs/crc.nd.edu/user/c/cdrisko/vinylAlcohol-F_MP2.F05
-rw-r--r-- 1 cdrisko campus    72586 Oct 18 07:54 /afs/crc.nd.edu/user/c/cdrisko/vinylAlcohol-F_MP2.F07
-rw-r--r-- 1 cdrisko campus 13681216 Oct 18 07:54 /afs/crc.nd.edu/user/c/cdrisko/vinylAlcohol-F_MP2.F08
-rw-r--r-- 1 cdrisko campus  1636000 Oct 18 07:54 /afs/crc.nd.edu/user/c/cdrisko/vinylAlcohol-F_MP2.F10
Fri Oct 18 07:54:44 EDT 2019
0.370u 0.228s 0:04.89 12.0%	0+0k 0+192io 0pf+0w
