----- GAMESS execution script 'rungms' -----
This job is running on host crcfe01.crc.nd.edu
under operating system Linux at Thu Oct 17 23:48:18 EDT 2019
Available scratch disk space (Kbyte units) at beginning of the job is
Filesystem      1K-blocks  Used  Available Use% Mounted on
AFS            2147483647     0 2147483647   0% /afs
GAMESS temporary binary files will be written to /afs/crc.nd.edu/user/c/cdrisko
GAMESS supplementary output files will be written to /afs/crc.nd.edu/user/c/cdrisko/scr
Copying input file vinylAlcohol_opt.inp to your run's scratch directory...

 Distributed Data Interface kickoff program.
 Initiating 1 compute processes on 1 nodes to run the following command:
 /afs/crc.nd.edu/x86_64_linux/g/gamess/nov-2017/gamess/gamess.00.x vinylAlcohol_opt 

          ******************************************************
          *         GAMESS VERSION = 11 NOV 2017 (R3)         *
          *             FROM IOWA STATE UNIVERSITY             *
          * M.W.SCHMIDT, K.K.BALDRIDGE, J.A.BOATZ, S.T.ELBERT, *
          *   M.S.GORDON, J.H.JENSEN, S.KOSEKI, N.MATSUNAGA,   *
          *          K.A.NGUYEN, S.J.SU, T.L.WINDUS,           *
          *       TOGETHER WITH M.DUPUIS, J.A.MONTGOMERY       *
          *         J.COMPUT.CHEM.  14, 1347-1363(1993)        *
          **************** 64 BIT INTEL VERSION ****************

  SINCE 1993, STUDENTS AND POSTDOCS WORKING AT IOWA STATE UNIVERSITY
  AND ALSO IN THEIR VARIOUS JOBS AFTER LEAVING ISU HAVE MADE IMPORTANT
  CONTRIBUTIONS TO THE CODE:
     IVANA ADAMOVIC, CHRISTINE AIKENS, YURI ALEXEEV, POOJA ARORA,
     ANDREY ASADCHEV, ROB BELL, PRADIPTA BANDYOPADHYAY, JONATHAN BENTZ,
     BRETT BODE, KURT BRORSEN, CALEB CARLIN, GALINA CHABAN, WEI CHEN,
     CHEOL HO CHOI, PAUL DAY, ALBERT DEFUSCO, NUWAN DESILVA, TIM DUDLEY,
     DMITRI FEDOROV, ALEX FINDLATER, GRAHAM FLETCHER, MARK FREITAG,
     KURT GLAESEMANN, ANASTASIA GUININA,
     DAN KEMP, GRANT MERRILL, NORIYUKI MINEZAWA, JONATHAN MULLIN,
     TAKESHI NAGATA, SEAN NEDD, HEATHER NETZLOFF, BOSILJKA NJEGIC, RYAN OLSON,
     MIKE PAK, BUU PHAM,
     SPENCER PRUITT, LUKE ROSKOP, JIM SHOEMAKER, LYUDMILA SLIPCHENKO,
     TONY SMITH, SAROM SOK LEANG, JIE SONG, TETSUYA TAKETSUGU, SIMON WEBB,
     PENG XU, SOOHAENG YOO, FEDERICO ZAHARIEV

  ADDITIONAL CODE HAS BEEN PROVIDED BY COLLABORATORS IN OTHER GROUPS:
     IOWA STATE UNIVERSITY:
          JOE IVANIC, AARON WEST, LAIMUTIS BYTAUTAS, KLAUS RUEDENBERG
     UNIVERSITY OF TOKYO: KIMIHIKO HIRAO, TAKAHITO NAKAJIMA,
          TAKAO TSUNEDA, MUNEAKI KAMIYA, SUSUMU YANAGISAWA,
          KIYOSHI YAGI, MAHITO CHIBA, SEIKEN TOKURA, NAOAKI KAWAKAMI
     UNIVERSITY OF AARHUS: FRANK JENSEN
     UNIVERSITY OF IOWA: VISVALDAS KAIRYS, HUI LI
     NATIONAL INST. OF STANDARDS AND TECHNOLOGY: WALT STEVENS, DAVID GARMER
     UNIVERSITY OF PISA: BENEDETTA MENNUCCI, JACOPO TOMASI
     UNIVERSITY OF MEMPHIS: HENRY KURTZ, PRAKASHAN KORAMBATH
     UNIVERSITY OF ALBERTA: TOBY ZENG, MARIUSZ KLOBUKOWSKI
     UNIVERSITY OF NEW ENGLAND: MARK SPACKMAN
     MIE UNIVERSITY: HIROAKI UMEDA
     NAT. INST. OF ADVANCED INDUSTRIAL SCIENCE AND TECHNOLOGY: KAZUO KITAURA
     MICHIGAN STATE UNIVERSITY:
          KAROL KOWALSKI, MARTA WLOCH, JEFFREY GOUR, JESSE LUTZ,
          WEI LI, PIOTR PIECUCH
     UNIVERSITY OF SILESIA: MONIKA MUSIAL, STANISLAW KUCHARSKI
     FACULTES UNIVERSITAIRES NOTRE-DAME DE LA PAIX:
          OLIVIER QUINET, BENOIT CHAMPAGNE
     UNIVERSITY OF CALIFORNIA - SANTA BARBARA: BERNARD KIRTMAN
     INSTITUTE FOR MOLECULAR SCIENCE:
          KAZUYA ISHIMURA, MICHIO KATOUDA, AND SHIGERU NAGASE
     UNIVERSITY OF NOTRE DAME: ANNA POMOGAEVA, DAN CHIPMAN
     KYUSHU UNIVERSITY:
          HARUYUKI NAKANO,
          FENG LONG GU, JACEK KORCHOWIEC, MARCIN MAKOWSKI, AND YURIKO AOKI,
          HIROTOSHI MORI AND EISAKU MIYOSHI
     PENNSYLVANIA STATE UNIVERSITY:
          TZVETELIN IORDANOV, CHET SWALINA, JONATHAN SKONE,
          SHARON HAMMES-SCHIFFER
     WASEDA UNIVERSITY:
          MASATO KOBAYASHI, TOMOKO AKAMA, TSUGUKI TOUMA,
          TAKESHI YOSHIKAWA, YASUHIRO IKABATA, JUNJI SEINO,
          YUYA NAKAJIMA, HIROMI NAKAI
     NANJING UNIVERSITY: SHUHUA LI
     UNIVERSITY OF NEBRASKA:
          PEIFENG SU, DEJUN SI, NANDUN THELLAMUREGE, YALI WANG, HUI LI
     UNIVERSITY OF ZURICH: ROBERTO PEVERATI, KIM BALDRIDGE
     N. COPERNICUS UNIVERSITY AND JACKSON STATE UNIVERSITY:
          MARIA BARYSZ
     UNIVERSITY OF COPENHAGEN: Jimmy Kromann, CASPER STEINMANN
     TOKYO INSTITUTE OF TECHNOLOGY: HIROYA NAKATA
     NAGOYA UNIVERSITY: YOSHIO NISHIMOTO, STEPHAN IRLE
     MOSCOW STATE UNIVERSITY: VLADIMIR MIRONOV

 EXECUTION OF GAMESS BEGUN Thu Oct 17 23:48:19 2019

            ECHO OF THE FIRST FEW INPUT CARDS -
 INPUT CARD> $CONTRL SCFTYP= RHF RUNTYP=OPTIMIZE DFTTYP=B3LYP                               
 INPUT CARD>       ICHARG=0 MULT=1 COORD=CART $END                                          
 INPUT CARD> $STATPT METHOD=RFO OPTTOL=0.0001 HESS=GUESS NSTEP=50 $END                      
 INPUT CARD> $BASIS GBASIS=N31 NGAUSS=6 NDFUNC=1 $END                                       
 INPUT CARD> $DATA                                                                          
 INPUT CARD>Title Geometry Optimization of Vinyl Alcohol                                    
 INPUT CARD>C1 1                                                                            
 INPUT CARD>C 6 0.00000000 0.00000000 0.00000000                                            
 INPUT CARD>C 6 -1.10778691 0.74408174 0.00000000                                           
 INPUT CARD>O 8 -2.39773857 0.30325825 -0.00000000                                          
 INPUT CARD>H 1 -2.39428798 -0.66855655 -0.00000000                                         
 INPUT CARD>H 1 -1.08530802 1.83064414 0.00000000                                           
 INPUT CARD>F 9 0.97454291 0.47399434 -0.00000000                                           
 INPUT CARD>H 1 -0.02820469 -1.08786806 -0.00000000                                         
 INPUT CARD> $END                                                                           
    1000000 WORDS OF MEMORY AVAILABLE


                    * * * WARNING * * *
 OLD KEYWORD COORD=CART SELECTED, AUTOMATICALLY CHANGED TO COORD=PRINAXIS.
 YOUR MOLECULE'S COORDINATES WILL BE CHANGED TO PRINCIPAL AXES BY
   A) TRANSLATION TO THE CENTER OF MASS, THEN
   B) ROTATION TO HAVE A DIAGONAL MOMENT OF INERTIA TENSOR.

 HOWEVER, NOTHING ELSE IN YOUR INPUT WILL BE ROTATED IN THE SAME WAY,
 SO IF YOU HAVE A $VEC, $VIB, $GRAD, $HESS, EFP PARTICLE COORDINATES,
 OR ANYTHING ELSE THAT DEPENDS ON THE INITIAL ORIENTATION, THAT DATA
 WILL NOT BE USED CORRECTLY IN THIS RUN.

 THE PURPOSE OF COORD=PRINAXIS IS TO BE USED ONCE, ONLY AT THE VERY
 BEGINNING OF A SERIES OF COMPUTATIONS, PERHAPS TO FIND THE SYMMETRY
 UNIQUE ATOMS FROM AN ARBITRARY INITIAL ORIENTATION.

 AFTER THE FIRST RUN, YOU SHOULD USE ONLY COORD=UNIQUE, TO ENSURE THAT
 THE COORDINATES WHICH YOU READ IN ARE THE COORDINATES THAT ARE USED.


     BASIS OPTIONS
     -------------
     GBASIS=N31          IGAUSS=       6      POLAR=POPN31  
     NDFUNC=       1     NFFUNC=       0     DIFFSP=       F
     NPFUNC=       0      DIFFS=       F     BASNAM=        


     RUN TITLE
     ---------
 Title Geometry Optimization of Vinyl Alcohol                                    

 THE POINT GROUP OF THE MOLECULE IS C1      
 THE ORDER OF THE PRINCIPAL AXIS IS     1

 THE MOMENTS OF INERTIA ARE (AMU-ANGSTROM**2)
 IXX=     8.976   IYY=   110.017   IZZ=   118.993

 ATOM      ATOMIC                      COORDINATES (BOHR)
           CHARGE         X                   Y                   Z
 C           6.0    -1.1144018543        0.7010935993        0.0000000000
 C           6.0     0.9732771934       -0.7135173679        0.0000000000
 O           8.0     3.4142994076        0.1095996472        0.0000000000
 H           1.0     3.4152460021        1.9460746624        0.0000000000
 H           1.0     0.9224496966       -2.7666328759        0.0000000000
 F           9.0    -2.9596477614       -0.1871302461        0.0000000000
 H           1.0    -1.0527442214        2.7566324308        0.0000000000

          INTERNUCLEAR DISTANCES (ANGS.)
          ------------------------------

                1 C          2 C          3 O          4 H          5 H     

   1 C       0.0000000    1.3344847 *  2.4168400 *  2.4858767 *  2.1281803 *
   2 C       1.3344847 *  0.0000000    1.3631950 *  1.9106627 *  1.0867949 *
   3 O       2.4168400 *  1.3631950 *  0.0000000    0.9718209 *  2.0137978 *
   4 H       2.4858767 *  1.9106627 *  0.9718209 *  0.0000000    2.8212466 *
   5 H       2.1281803 *  1.0867949 *  2.0137978 *  2.8212466 *  0.0000000  
   6 F       1.0836995 *  2.0997725 *  3.3766008    3.5573085    2.4664721 *
   7 H       1.0882336 *  2.1263908 *  2.7477124 *  2.4029507 *  3.1040588  

                6 F          7 H     

   1 C       1.0836995 *  1.0882336 *
   2 C       2.0997725 *  2.1263908 *
   3 O       3.3766008    2.7477124 *
   4 H       3.5573085    2.4029507 *
   5 H       2.4664721 *  3.1040588  
   6 F       0.0000000    1.8560487 *
   7 H       1.8560487 *  0.0000000  

  * ... LESS THAN  3.000


     ATOMIC BASIS SET
     ----------------
 THE CONTRACTED PRIMITIVE FUNCTIONS HAVE BEEN UNNORMALIZED
 THE CONTRACTED BASIS FUNCTIONS ARE NOW NORMALIZED TO UNITY

  SHELL TYPE  PRIMITIVE        EXPONENT          CONTRACTION COEFFICIENT(S)

 C         

      1   S       1          3047.5248800    0.001834737132
      1   S       2           457.3695180    0.014037322813
      1   S       3           103.9486850    0.068842622264
      1   S       4            29.2101553    0.232184443216
      1   S       5             9.2866630    0.467941348435
      1   S       6             3.1639270    0.362311985337

      2   L       7             7.8682723   -0.119332419775    0.068999066591
      2   L       8             1.8812885   -0.160854151696    0.316423960957
      2   L       9             0.5442493    1.143456437840    0.744308290898

      3   L      10             0.1687145    1.000000000000    1.000000000000

      4   D      11             0.8000000    1.000000000000

 C         

      5   S      12          3047.5248800    0.001834737132
      5   S      13           457.3695180    0.014037322813
      5   S      14           103.9486850    0.068842622264
      5   S      15            29.2101553    0.232184443216
      5   S      16             9.2866630    0.467941348435
      5   S      17             3.1639270    0.362311985337

      6   L      18             7.8682723   -0.119332419775    0.068999066591
      6   L      19             1.8812885   -0.160854151696    0.316423960957
      6   L      20             0.5442493    1.143456437840    0.744308290898

      7   L      21             0.1687145    1.000000000000    1.000000000000

      8   D      22             0.8000000    1.000000000000

 O         

      9   S      23          5484.6716600    0.001831074430
      9   S      24           825.2349460    0.013950172200
      9   S      25           188.0469580    0.068445078098
      9   S      26            52.9645000    0.232714335992
      9   S      27            16.8975704    0.470192897984
      9   S      28             5.7996353    0.358520852987

     10   L      29            15.5396162   -0.110777549525    0.070874268231
     10   L      30             3.5999336   -0.148026262701    0.339752839147
     10   L      31             1.0137618    1.130767015354    0.727158577316

     11   L      32             0.2700058    1.000000000000    1.000000000000

     12   D      33             0.8000000    1.000000000000

 H         

     13   S      34            18.7311370    0.033494604338
     13   S      35             2.8253944    0.234726953484
     13   S      36             0.6401217    0.813757326146

     14   S      37             0.1612778    1.000000000000

 H         

     15   S      38            18.7311370    0.033494604338
     15   S      39             2.8253944    0.234726953484
     15   S      40             0.6401217    0.813757326146

     16   S      41             0.1612778    1.000000000000

 F         

     17   S      42          7001.7130900    0.001819616901
     17   S      43          1051.3660900    0.013916079607
     17   S      44           239.2856900    0.068405324535
     17   S      45            67.3974453    0.233185760119
     17   S      46            21.5199573    0.471267439240
     17   S      47             7.4031013    0.356618546182

     18   L      48            20.8479528   -0.108506975109    0.071628724237
     18   L      49             4.8083083   -0.146451658147    0.345912102697
     18   L      50             1.3440699    1.128688581135    0.722469956367

     19   L      51             0.3581514    1.000000000000    1.000000000000

     20   D      52             0.8000000    1.000000000000

 H         

     21   S      53            18.7311370    0.033494604338
     21   S      54             2.8253944    0.234726953484
     21   S      55             0.6401217    0.813757326146

     22   S      56             0.1612778    1.000000000000

 TOTAL NUMBER OF BASIS SET SHELLS             =   22
 NUMBER OF CARTESIAN GAUSSIAN BASIS FUNCTIONS =   66
 NUMBER OF ELECTRONS                          =   32
 CHARGE OF MOLECULE                           =    0
 SPIN MULTIPLICITY                            =    1
 NUMBER OF OCCUPIED ORBITALS (ALPHA)          =   16
 NUMBER OF OCCUPIED ORBITALS (BETA )          =   16
 TOTAL NUMBER OF ATOMS                        =    7
 THE NUCLEAR REPULSION ENERGY IS      120.8558202188

     LEBEDEV GRID-BASED DFT OPTIONS
     ------------------------------
     DFTTYP=B3LYP   
     NRAD  =      96     NLEB  =     302
     NRAD0 =      24     NLEB0 =     110
     SWOFF =    5.00E-03 (PURE SCF -> DFT)
     SWITCH=    3.00E-04 (COARSE -> TIGHT GRID)
     THRESH=    0.00E+00 GTHRE=    1.00E+00

 GRIMME'S EMPIRICAL DISPERSION CORRECTION= F

     $CONTRL OPTIONS
     ---------------
 SCFTYP=RHF          RUNTYP=OPTIMIZE     EXETYP=RUN     
 MPLEVL=       0     CITYP =NONE         CCTYP =NONE         VBTYP =NONE    
 DFTTYP=B3LYP        TDDFT =NONE    
 MULT  =       1     ICHARG=       0     NZVAR =       0     COORD =PRINAXIS
 PP    =NONE         RELWFN=NONE         LOCAL =NONE         NUMGRD=       F
 ISPHER=      -1     NOSYM =       0     MAXIT =      30     UNITS =ANGS    
 PLTORB=       F     MOLPLT=       F     AIMPAC=       F     FRIEND=        
 NPRINT=       7     IREST =       0     GEOM  =INPUT   
 NORMF =       0     NORMP =       0     ITOL  =      20     ICUT  =       9
 INTTYP=BEST         GRDTYP=BEST         QMTTOL= 1.0E-06

     $SYSTEM OPTIONS
     ---------------
  REPLICATED MEMORY=     1000000 WORDS (ON EVERY NODE).
 DISTRIBUTED MEMDDI=           0 MILLION WORDS IN AGGREGATE,
 MEMDDI DISTRIBUTED OVER   1 PROCESSORS IS           0 WORDS/PROCESSOR.
 TOTAL MEMORY REQUESTED ON EACH PROCESSOR=     1000000 WORDS.
 TIMLIM=      525600.00 MINUTES, OR     365.0 DAYS.
 PARALL= F  BALTYP=  DLB     KDIAG=    0  COREFL= F
 MXSEQ2=     300 MXSEQ3=     150  mem10=         0

          ----------------
          PROPERTIES INPUT
          ----------------

     MOMENTS            FIELD           POTENTIAL          DENSITY
 IEMOM =       1   IEFLD =       0   IEPOT =       0   IEDEN =       0
 WHERE =COMASS     WHERE =NUCLEI     WHERE =NUCLEI     WHERE =NUCLEI  
 OUTPUT=BOTH       OUTPUT=BOTH       OUTPUT=BOTH       OUTPUT=BOTH    
 IEMINT=       0   IEFINT=       0                     IEDINT=       0
                                                       MORB  =       0
          EXTRAPOLATION IN EFFECT
          DIIS IN EFFECT
 ORBITAL PRINTING OPTION: NPREO=     1    66     2     1

     -------------------------------
     INTEGRAL TRANSFORMATION OPTIONS
     -------------------------------
     NWORD  =            0
     CUTOFF = 1.0E-09     MPTRAN =       0
     DIRTRF =       F     AOINTS =DUP     

          ----------------------
          INTEGRAL INPUT OPTIONS
          ----------------------
 NOPK  =       1 NORDER=       0 SCHWRZ=       T

     ------------------------------------------
     THE POINT GROUP IS C1 , NAXIS= 1, ORDER= 1
     ------------------------------------------

     DIMENSIONS OF THE SYMMETRY SUBSPACES ARE
 A   =   66

 ..... DONE SETTING UP THE RUN .....
 STEP CPU TIME =     0.01 TOTAL CPU TIME =          0.0 (      0.0 MIN)
 TOTAL WALL CLOCK TIME=          0.0 SECONDS, CPU UTILIZATION IS    50.00%


          -----------------------------
          STATIONARY POINT LOCATION RUN
          -----------------------------

 OBTAINING INITIAL HESSIAN, HESS=GUESS   
 CARTESIAN COORDINATE OPTIMIZATION USING BADGER'S RULE FORCE CONSTANT GUESS

          PARAMETERS CONTROLLING GEOMETRY SEARCH ARE
          METHOD =RFO                 UPHESS =BFGS    
          NNEG   =         0          NFRZ   =         0
          NSTEP  =        50          IFOLOW =         1
          HESS   =GUESS               RESTAR =         F
          IHREP  =         0          HSSEND =         F
          NPRT   =         0          NPUN   =         0
          OPTTOL = 1.000E-04          RMIN   = 1.500E-03
          RMAX   = 1.000E-01          RLIM   = 7.000E-02
          DXMAX  = 3.000E-01          PURIFY =         F
          MOVIE  =         F          TRUPD  =         T
          TRMAX  = 5.000E-01          TRMIN  = 5.000E-02
          ITBMAT =         5          STPT   =         F
          STSTEP = 1.000E-02          PROJCT=          T

 BEGINNING GEOMETRY SEARCH POINT NSERCH=   0 ...

 COORDINATES OF ALL ATOMS ARE (ANGS)
   ATOM   CHARGE       X              Y              Z
 ------------------------------------------------------------
 C           6.0  -0.5897161078   0.3710027823   0.0000000000
 C           6.0   0.5150361480  -0.3775771581   0.0000000000
 O           8.0   1.8067695686   0.0579976398   0.0000000000
 H           1.0   1.8072704849   1.0298184367   0.0000000000
 H           1.0   0.4881393930  -1.4640391749   0.0000000000
 F           9.0  -1.5661782611  -0.0990250689   0.0000000000
 H           1.0  -0.5570882912   1.4587471669   0.0000000000

          ********************
          1 ELECTRON INTEGRALS
          ********************
 ...... END OF ONE-ELECTRON INTEGRALS ......
 STEP CPU TIME =     0.00 TOTAL CPU TIME =          0.0 (      0.0 MIN)
 TOTAL WALL CLOCK TIME=          0.0 SECONDS, CPU UTILIZATION IS    50.00%

          -------------
          GUESS OPTIONS
          -------------
          GUESS =HUCKEL            NORB  =       0          NORDER=       0
          MIX   =       F          PRTMO =       F          PUNMO =       F
          TOLZ  = 1.0E-08          TOLE  = 1.0E-05
          SYMDEN=       F          PURIFY=       F

 INITIAL GUESS ORBITALS GENERATED BY HUCKEL   ROUTINE.
 HUCKEL GUESS REQUIRES     39228 WORDS.

 SYMMETRIES FOR INITIAL GUESS ORBITALS FOLLOW.   BOTH SET(S).
    16 ORBITALS ARE OCCUPIED (    4 CORE ORBITALS).
     5=A        6=A        7=A        8=A        9=A       10=A       11=A   
    12=A       13=A       14=A       15=A       16=A       17=A       18=A   
    19=A       20=A       21=A       22=A       23=A       24=A       25=A   
    26=A   
 ...... END OF INITIAL ORBITAL SELECTION ......
 STEP CPU TIME =     0.01 TOTAL CPU TIME =          0.0 (      0.0 MIN)
 TOTAL WALL CLOCK TIME=          0.0 SECONDS, CPU UTILIZATION IS    66.67%

                    ----------------------
                    AO INTEGRAL TECHNOLOGY
                    ----------------------
     S,P,L SHELL ROTATED AXIS INTEGRALS, REPROGRAMMED BY
        KAZUYA ISHIMURA (IMS) AND JOSE SIERRA (SYNSTAR).
     S,P,D,L SHELL ROTATED AXIS INTEGRALS PROGRAMMED BY
        KAZUYA ISHIMURA (INSTITUTE FOR MOLECULAR SCIENCE).
     S,P,D,F,G SHELL TO TOTAL QUARTET ANGULAR MOMENTUM SUM 5,
        ERIC PROGRAM BY GRAHAM FLETCHER (ELORET AND NASA ADVANCED
        SUPERCOMPUTING DIVISION, AMES RESEARCH CENTER).
     S,P,D,F,G,L SHELL GENERAL RYS QUADRATURE PROGRAMMED BY
        MICHEL DUPUIS (PACIFIC NORTHWEST NATIONAL LABORATORY).

          --------------------
          2 ELECTRON INTEGRALS
          --------------------

 THE -PK- OPTION IS OFF, THE INTEGRALS ARE NOT IN SUPERMATRIX FORM.
 STORING   15000 INTEGRALS/RECORD ON DISK, USING 12 BYTES/INTEGRAL.
 TWO ELECTRON INTEGRAL EVALUATION REQUIRES   90649 WORDS OF MEMORY.
 SCHWARZ INEQUALITY OVERHEAD:      2205 INTEGRALS, T=        0.01
 II,JST,KST,LST =  1  1  1  1 NREC =         1 INTLOC =    1
 II,JST,KST,LST =  2  1  1  1 NREC =         1 INTLOC =    2
 II,JST,KST,LST =  3  1  1  1 NREC =         1 INTLOC =   34
 II,JST,KST,LST =  4  1  1  1 NREC =         1 INTLOC =  214
 II,JST,KST,LST =  5  1  1  1 NREC =         1 INTLOC = 1189
 II,JST,KST,LST =  6  1  1  1 NREC =         1 INTLOC = 2364
 II,JST,KST,LST =  7  1  1  1 NREC =         1 INTLOC = 9259
 II,JST,KST,LST =  8  1  1  1 NREC =         2 INTLOC = 6298
 II,JST,KST,LST =  9  1  1  1 NREC =         4 INTLOC = 7025
 II,JST,KST,LST = 10  1  1  1 NREC =         4 INTLOC =14385
 II,JST,KST,LST = 11  1  1  1 NREC =         7 INTLOC = 8632
 II,JST,KST,LST = 12  1  1  1 NREC =        11 INTLOC = 4222
 II,JST,KST,LST = 13  1  1  1 NREC =        19 INTLOC =  832
 II,JST,KST,LST = 14  1  1  1 NREC =        20 INTLOC =12691
 II,JST,KST,LST = 15  1  1  1 NREC =        22 INTLOC =11727
 II,JST,KST,LST = 16  1  1  1 NREC =        24 INTLOC =12697
 II,JST,KST,LST = 17  1  1  1 NREC =        27 INTLOC = 1053
 II,JST,KST,LST = 18  1  1  1 NREC =        28 INTLOC =10156
 II,JST,KST,LST = 19  1  1  1 NREC =        36 INTLOC = 6384
 II,JST,KST,LST = 20  1  1  1 NREC =        48 INTLOC = 7662
 II,JST,KST,LST = 21  1  1  1 NREC =        69 INTLOC = 2233
 II,JST,KST,LST = 22  1  1  1 NREC =        73 INTLOC =14212
 SCHWARZ INEQUALITY TEST SKIPPED        2774 INTEGRAL BLOCKS.
 TOTAL NUMBER OF NONZERO TWO-ELECTRON INTEGRALS =             1172621
         79 INTEGRAL RECORDS WERE STORED ON DISK FILE  8.
  ...... END OF TWO-ELECTRON INTEGRALS .....
 STEP CPU TIME =     0.19 TOTAL CPU TIME =          0.2 (      0.0 MIN)
 TOTAL WALL CLOCK TIME=          0.2 SECONDS, CPU UTILIZATION IS    95.45%

          --------------------------
             R-B3LYP SCF CALCULATION
          --------------------------

     NUCLEAR ENERGY =       120.8558202188
     MAXIT =   30     NPUNCH=    2
     EXTRAP=T  DAMP=F  SHIFT=F  RSTRCT=F  DIIS=T  DEM=F  SOSCF=F
         DENSITY MATRIX CONVERGENCE THRESHOLD=  1.00E-05
     COARSE -> FINE DFT GRID SWITCH THRESHOLD=  3.00E-04 (SWITCH IN $DFT)
                   HF -> DFT SWITCH THRESHOLD=  5.00E-03 (SWOFF IN $DFT)
     MEMORY REQUIRED FOR RHF ITERS=    319420 WORDS.

 DFT CODE IS SWITCHING FROM THE FINE GRID NRAD= 96,  NLEB=  302
                      TO THE COARSE GRID NRAD0= 24, NLEB0=  110

     EXCHANGE FUNCTIONAL   =B88&HFX   
     CORRELATION FUNCTIONAL=LYP88&VWN5
     DFT THRESHOLD         =.197E-07
     GRID CHANGE THRESHOLD =.300E-03
 FOR AN EULER-MACLAURIN QUADRATURE USING  96 RADIAL POINTS:
 SMALLEST GAUSSIAN PRIMITIVE EXPONENT=        0.1612777588 OF TYPE -S-
 ON ATOM NUMBER   4 HAS RADIAL NORMALIZATION=  1.000000
  LARGEST GAUSSIAN PRIMITIVE EXPONENT=     7001.7130900000 OF TYPE -S-
 ON ATOM NUMBER   6 HAS RADIAL NORMALIZATION=  1.000000
 DFT IS SWITCHED OFF, PERFORMING PURE SCF UNTIL SWOFF THRESHOLD IS REACHED.

 ITER EX DEM     TOTAL ENERGY        E CHANGE  DENSITY CHANGE    DIIS ERROR
   1  0  0     -250.8332171360  -250.8332171360   0.218285966   0.690370252
          * * *   INITIATING DIIS PROCEDURE   * * *
   2  1  0     -251.5858643995    -0.7526472635   0.132380515   0.092034678
   3  2  0     -251.6253065454    -0.0394421459   0.033608211   0.032883103
   4  3  0     -251.6319891261    -0.0066825806   0.012246741   0.012634491
   5  4  0     -251.6328681857    -0.0008790597   0.004029731   0.002817758
 CONVERGED TO SWOFF, SO DFT CALCULATION IS NOW SWITCHED ON.
          * * *   INITIATING DIIS PROCEDURE   * * *
   6  5  0     -252.7882535706    -1.1553853849   0.117312901   0.091989581
   7  6  0     -252.8070049166    -0.0187513460   0.034895595   0.019668719
   8  7  0     -252.8074469354    -0.0004420189   0.015507523   0.019279483
   9  8  0     -252.8094565536    -0.0020096182   0.003239806   0.003042701
  10  9  0     -252.8095072651    -0.0000507115   0.000508078   0.000342212
  11 10  0     -252.8095080894    -0.0000008243   0.000255650   0.000175737
 DFT CODE IS SWITCHING BACK TO THE FINE GRID
          * * *   INITIATING DIIS PROCEDURE   * * *
  12 11  0     -252.8072118525     0.0022962369   0.002842931   0.002818600
  13 12  0     -252.8072322829    -0.0000204304   0.001488044   0.000628820
  14 13  0     -252.8072326472    -0.0000003643   0.000764724   0.000651783
  15 14  0     -252.8072351500    -0.0000025028   0.000230904   0.000096112
  16 15  0     -252.8072352106    -0.0000000606   0.000089305   0.000058377
  17 16  0     -252.8072352292    -0.0000000185   0.000018317   0.000015922
  18 17  0     -252.8072352303    -0.0000000011   0.000003551   0.000002795
  19 18  0     -252.8072352303    -0.0000000000   0.000000217   0.000000222

          -----------------
          DENSITY CONVERGED
          -----------------
     TIME TO FORM FOCK OPERATORS=       6.7 SECONDS (       0.4 SEC/ITER)
     TIME TO SOLVE SCF EQUATIONS=       0.0 SECONDS (       0.0 SEC/ITER)

 FINAL R-B3LYP ENERGY IS     -252.8072352303 AFTER  19 ITERATIONS
 DFT EXCHANGE + CORRELATION ENERGY =       -25.1039436472
 TOTAL ELECTRON NUMBER             =        31.9999823954

          ------------
          EIGENVECTORS
          ------------

                      1          2          3          4          5
                  -24.7427   -19.1569   -10.2483   -10.2049    -1.3846
                     A          A          A          A          A   
    1  C  1  S    0.000082  -0.000006   0.992738  -0.010128  -0.101573
    2  C  1  S    0.000591   0.000049   0.053068  -0.001124   0.182634
    3  C  1  X    0.000074  -0.000001  -0.004634  -0.000285  -0.180290
    4  C  1  Y   -0.000060  -0.000029  -0.002001   0.000340  -0.086098
    5  C  1  Z    0.000000   0.000000   0.000000   0.000000   0.000000
    6  C  1  S   -0.001213  -0.000968  -0.007048   0.005567   0.049536
    7  C  1  X    0.001715   0.000301  -0.003565   0.001378   0.001653
    8  C  1  Y    0.000808   0.000899  -0.001747  -0.002365   0.018002
    9  C  1  Z    0.000000   0.000000   0.000000   0.000000   0.000000
   10  C  1 XX   -0.000954  -0.000142  -0.008005  -0.000138   0.025549
   11  C  1 YY   -0.000106  -0.000015  -0.009796  -0.000141  -0.012916
   12  C  1 ZZ   -0.000039   0.000009  -0.010797  -0.000058  -0.026313
   13  C  1 XY   -0.000603   0.000005   0.001097  -0.000033   0.030942
   14  C  1 XZ    0.000000   0.000000   0.000000   0.000000   0.000000
   15  C  1 YZ    0.000000   0.000000   0.000000   0.000000   0.000000
   16  C  2  S   -0.000003  -0.000011   0.009653   0.992666  -0.008019
   17  C  2  S    0.000086   0.000306   0.000011   0.049039   0.016667
   18  C  2  X    0.000090   0.000377   0.000268   0.000957  -0.018361
   19  C  2  Y    0.000049   0.000114  -0.000272   0.000326   0.005829
   20  C  2  Z    0.000000   0.000000   0.000000   0.000000   0.000000
   21  C  2  S   -0.000326  -0.001413   0.003331  -0.011457   0.007807
   22  C  2  X   -0.000046  -0.002278  -0.000574   0.002844  -0.012888
   23  C  2  Y   -0.000560  -0.000321   0.002167   0.000019  -0.001353
   24  C  2  Z    0.000000   0.000000   0.000000   0.000000   0.000000
   25  C  2 XX   -0.000311   0.000073  -0.000268  -0.008727   0.005823
   26  C  2 YY    0.000108  -0.000046  -0.000297  -0.009372  -0.000133
   27  C  2 ZZ   -0.000032  -0.000026  -0.000258  -0.009851  -0.001130
   28  C  2 XY   -0.000016  -0.000042  -0.000042   0.000063  -0.003795
   29  C  2 XZ    0.000000   0.000000   0.000000   0.000000   0.000000
   30  C  2 YZ    0.000000   0.000000   0.000000   0.000000   0.000000
   31  O  3  S    0.000002   0.992745   0.000013  -0.000026  -0.000668
   32  O  3  S    0.000005   0.025866   0.000023   0.000312   0.000930
   33  O  3  X   -0.000046  -0.000813   0.000042   0.000110  -0.000866
   34  O  3  Y   -0.000014   0.000698   0.000013   0.000009   0.000315
   35  O  3  Z    0.000000   0.000000   0.000000   0.000000   0.000000
   36  O  3  S    0.000138   0.012534  -0.000720  -0.001142   0.006960
   37  O  3  X   -0.000011  -0.000637   0.000041   0.001211  -0.000332
   38  O  3  Y   -0.000010  -0.000465  -0.000133   0.000641  -0.001954
   39  O  3  Z    0.000000   0.000000   0.000000   0.000000   0.000000
   40  O  3 XX    0.000039  -0.008075   0.000134  -0.000619  -0.000619
   41  O  3 YY    0.000009  -0.008104   0.000037   0.000070  -0.000388
   42  O  3 ZZ    0.000021  -0.008053  -0.000041   0.000377   0.000011
   43  O  3 XY    0.000070   0.000032  -0.000034  -0.000434  -0.000075
   44  O  3 XZ    0.000000   0.000000   0.000000   0.000000   0.000000
   45  O  3 YZ    0.000000   0.000000   0.000000   0.000000   0.000000
   46  H  4  S    0.000030   0.000432  -0.000053   0.000020   0.000871
   47  H  4  S   -0.000112  -0.001077   0.000298   0.000096  -0.001022
   48  H  5  S   -0.000042   0.000061   0.000068  -0.000312   0.001760
   49  H  5  S   -0.000258  -0.000043   0.000673   0.002252   0.001083
   50  F  6  S    0.992763  -0.000031  -0.000124   0.000065  -0.211585
   51  F  6  S    0.019246  -0.000163   0.002298   0.000334   0.480428
   52  F  6  X    0.001288   0.000027   0.000261   0.000068   0.147047
   53  F  6  Y    0.000624  -0.000005   0.000131   0.000009   0.070926
   54  F  6  Z    0.000000   0.000000   0.000000   0.000000   0.000000
   55  F  6  S    0.018913   0.000872  -0.010633  -0.001442   0.325377
   56  F  6  X    0.000322   0.000048  -0.004820  -0.000113   0.019384
   57  F  6  Y    0.000196   0.000099  -0.002404   0.000035   0.007712
   58  F  6  Z    0.000000   0.000000   0.000000   0.000000   0.000000
   59  F  6 XX   -0.008586  -0.000131  -0.000055   0.000341   0.022990
   60  F  6 YY   -0.008683  -0.000105   0.001121   0.000237   0.016487
   61  F  6 ZZ   -0.008717  -0.000079   0.001727   0.000147   0.013535
   62  F  6 XY    0.000103   0.000048  -0.000953  -0.000045   0.005183
   63  F  6 XZ    0.000000   0.000000   0.000000   0.000000   0.000000
   64  F  6 YZ    0.000000   0.000000   0.000000   0.000000   0.000000
   65  H  7  S   -0.000108  -0.000083  -0.000262  -0.000012   0.014578
   66  H  7  S   -0.000231  -0.000189   0.002323   0.000560  -0.015164

                      6          7          8          9         10
                   -1.0353    -0.7373    -0.6508    -0.5903    -0.5700
                     A          A          A          A          A   
    1  C  1  S   -0.014283  -0.146119  -0.069275   0.029011  -0.052822
    2  C  1  S    0.025596   0.284826   0.149143  -0.052266   0.090827
    3  C  1  X    0.032909   0.118085  -0.236600  -0.099260   0.260296
    4  C  1  Y   -0.005979  -0.081953   0.115564  -0.314467   0.054072
    5  C  1  Z    0.000000   0.000000   0.000000   0.000000   0.000000
    6  C  1  S    0.020716   0.174132   0.100438  -0.072276   0.105238
    7  C  1  X    0.021998   0.058683  -0.002544   0.036489   0.048472
    8  C  1  Y    0.008748   0.041499   0.050118  -0.060461   0.015378
    9  C  1  Z    0.000000   0.000000   0.000000   0.000000   0.000000
   10  C  1 XX    0.002755  -0.010779   0.012061  -0.003183  -0.019482
   11  C  1 YY   -0.000499   0.004774  -0.011723  -0.001735   0.013625
   12  C  1 ZZ   -0.001484  -0.014750  -0.014230  -0.004637   0.002848
   13  C  1 XY   -0.003087  -0.006453   0.009484   0.026388  -0.013583
   14  C  1 XZ    0.000000   0.000000   0.000000   0.000000   0.000000
   15  C  1 YZ    0.000000   0.000000   0.000000   0.000000   0.000000
   16  C  2  S   -0.078985  -0.130709   0.097360   0.040483   0.026192
   17  C  2  S    0.147091   0.259180  -0.193058  -0.081770  -0.060873
   18  C  2  X    0.105584  -0.139622   0.004137  -0.091469  -0.232331
   19  C  2  Y    0.046525   0.044616   0.047380  -0.040582   0.179048
   20  C  2  Z    0.000000   0.000000   0.000000   0.000000   0.000000
   21  C  2  S    0.037949   0.179627  -0.159713  -0.105253  -0.062574
   22  C  2  X   -0.010087  -0.049247   0.024512  -0.034935  -0.056833
   23  C  2  Y   -0.017778  -0.029407   0.008002  -0.049493   0.052063
   24  C  2  Z    0.000000   0.000000   0.000000   0.000000   0.000000
   25  C  2 XX    0.016059  -0.003739   0.004309   0.001658  -0.015331
   26  C  2 YY   -0.004184   0.002607  -0.000535  -0.002336   0.004717
   27  C  2 ZZ   -0.013146  -0.013090   0.010924   0.004992   0.005077
   28  C  2 XY    0.012893  -0.012823   0.000441   0.001528  -0.005975
   29  C  2 XZ    0.000000   0.000000   0.000000   0.000000   0.000000
   30  C  2 YZ    0.000000   0.000000   0.000000   0.000000   0.000000
   31  O  3  S   -0.202961   0.050459  -0.023354  -0.022465   0.016064
   32  O  3  S    0.449790  -0.121728   0.058389   0.044682  -0.040634
   33  O  3  X   -0.103778  -0.065989   0.090743   0.123243   0.124750
   34  O  3  Y    0.060434  -0.068312   0.127319   0.124701   0.322874
   35  O  3  Z    0.000000   0.000000   0.000000   0.000000   0.000000
   36  O  3  S    0.437199  -0.113643   0.056429   0.104532  -0.044316
   37  O  3  X   -0.051077  -0.043949   0.052319   0.050103   0.043929
   38  O  3  Y    0.031847  -0.035076   0.064799   0.061054   0.159084
   39  O  3  Z    0.000000   0.000000   0.000000   0.000000   0.000000
   40  O  3 XX    0.006757   0.010993  -0.010564  -0.012136  -0.007584
   41  O  3 YY    0.015436  -0.012022   0.012294   0.009305   0.017824
   42  O  3 ZZ   -0.011572  -0.001368   0.001556  -0.002445  -0.003471
   43  O  3 XY    0.000552   0.001076  -0.004856  -0.000398  -0.012932
   44  O  3 XZ    0.000000   0.000000   0.000000   0.000000   0.000000
   45  O  3 YZ    0.000000   0.000000   0.000000   0.000000   0.000000
   46  H  4  S    0.125441  -0.063463   0.082972   0.078816   0.166121
   47  H  4  S   -0.001216  -0.011610   0.025036   0.031705   0.090544
   48  H  5  S    0.022565   0.070265  -0.090572  -0.016892  -0.098879
   49  H  5  S   -0.005409  -0.000599  -0.044920  -0.014862  -0.044368
   50  F  6  S    0.005331   0.074067   0.063864   0.020305  -0.018369
   51  F  6  S   -0.016308  -0.173382  -0.128766  -0.040428   0.019328
   52  F  6  X    0.002231   0.244162   0.258070   0.388171  -0.178414
   53  F  6  Y   -0.003662   0.022266   0.361702  -0.238134  -0.193474
   54  F  6  Z    0.000000   0.000000   0.000000   0.000000   0.000000
   55  F  6  S    0.002570  -0.207306  -0.268677  -0.094979   0.142741
   56  F  6  X    0.002123   0.142305   0.120983   0.208344  -0.069841
   57  F  6  Y    0.001392   0.013131   0.194663  -0.157040  -0.100911
   58  F  6  Z    0.000000   0.000000   0.000000   0.000000   0.000000
   59  F  6 XX   -0.001536   0.013756   0.007017   0.022255  -0.006868
   60  F  6 YY   -0.002408  -0.008165   0.012878  -0.015995  -0.010313
   61  F  6 ZZ   -0.001772  -0.008686  -0.000990  -0.002161  -0.005131
   62  F  6 XY   -0.000294   0.005412   0.019476  -0.009855  -0.006280
   63  F  6 XZ    0.000000   0.000000   0.000000   0.000000   0.000000
   64  F  6 YZ    0.000000   0.000000   0.000000   0.000000   0.000000
   65  H  7  S    0.004354   0.069379   0.089966  -0.158353   0.080191
   66  H  7  S   -0.000554  -0.008096   0.029451  -0.104387   0.052785

                     11         12         13         14         15
                   -0.5578    -0.4352    -0.3916    -0.3597    -0.3326
                     A          A          A          A          A   
    1  C  1  S    0.000000  -0.014301  -0.039811   0.000000  -0.023003
    2  C  1  S    0.000000   0.028068   0.078194   0.000000   0.055706
    3  C  1  X    0.000000   0.018913   0.030733   0.000000   0.172415
    4  C  1  Y    0.000000  -0.001941   0.176178   0.000000  -0.237251
    5  C  1  Z    0.262635   0.000000   0.000000   0.072747   0.000000
    6  C  1  S    0.000000   0.052269   0.197517   0.000000   0.074843
    7  C  1  X    0.000000   0.066945   0.025815   0.000000  -0.001054
    8  C  1  Y    0.000000   0.001921  -0.008951   0.000000  -0.049229
    9  C  1  Z    0.104009   0.000000   0.000000   0.037046   0.000000
   10  C  1 XX    0.000000  -0.000627  -0.025471   0.000000   0.016106
   11  C  1 YY    0.000000  -0.002194   0.028818   0.000000  -0.028195
   12  C  1 ZZ    0.000000  -0.002881   0.000363   0.000000   0.001723
   13  C  1 XY    0.000000   0.016929   0.005816   0.000000  -0.017323
   14  C  1 XZ   -0.028588   0.000000   0.000000   0.014821   0.000000
   15  C  1 YZ   -0.015562   0.000000   0.000000  -0.002333   0.000000
   16  C  2  S    0.000000   0.040030   0.057382   0.000000  -0.017751
   17  C  2  S    0.000000  -0.077515  -0.121519   0.000000   0.037279
   18  C  2  X    0.000000   0.185789  -0.032683   0.000000  -0.227065
   19  C  2  Y    0.000000   0.338115  -0.090505   0.000000   0.212216
   20  C  2  Z    0.066064   0.000000   0.000000   0.273478   0.000000
   21  C  2  S    0.000000  -0.163105  -0.191948   0.000000   0.126838
   22  C  2  X    0.000000   0.049715   0.058198   0.000000  -0.009812
   23  C  2  Y    0.000000   0.089583  -0.071739   0.000000   0.074006
   24  C  2  Z    0.022355   0.000000   0.000000   0.171609   0.000000
   25  C  2 XX    0.000000   0.023714   0.004872   0.000000   0.013878
   26  C  2 YY    0.000000  -0.025104  -0.001399   0.000000  -0.019667
   27  C  2 ZZ    0.000000  -0.001151   0.005963   0.000000   0.001360
   28  C  2 XY    0.000000   0.005303  -0.013846   0.000000  -0.015049
   29  C  2 XZ   -0.006204   0.000000   0.000000   0.016353   0.000000
   30  C  2 YZ    0.003057   0.000000   0.000000   0.009199   0.000000
   31  O  3  S    0.000000  -0.003823  -0.065139   0.000000  -0.045610
   32  O  3  S    0.000000   0.009946   0.139333   0.000000   0.099273
   33  O  3  X    0.000000  -0.286788   0.336637   0.000000   0.244198
   34  O  3  Y    0.000000  -0.165604  -0.282852   0.000000  -0.203633
   35  O  3  Z    0.021464   0.000000   0.000000   0.537222   0.000000
   36  O  3  S    0.000000   0.035229   0.264695   0.000000   0.182506
   37  O  3  X    0.000000  -0.171464   0.225103   0.000000   0.191478
   38  O  3  Y    0.000000  -0.085330  -0.169903   0.000000  -0.117018
   39  O  3  Z    0.010297   0.000000   0.000000   0.373683   0.000000
   40  O  3 XX    0.000000   0.017183  -0.019237   0.000000  -0.008623
   41  O  3 YY    0.000000  -0.021620  -0.010142   0.000000  -0.013294
   42  O  3 ZZ    0.000000  -0.001928   0.003176   0.000000   0.002939
   43  O  3 XY    0.000000  -0.009159   0.020916   0.000000   0.009131
   44  O  3 XZ   -0.002040   0.000000   0.000000  -0.025944   0.000000
   45  O  3 YZ    0.000411   0.000000   0.000000   0.014675   0.000000
   46  H  4  S    0.000000  -0.111038  -0.117163   0.000000  -0.111108
   47  H  4  S    0.000000  -0.090307  -0.065239   0.000000  -0.110204
   48  H  5  S    0.000000  -0.254004  -0.008452   0.000000  -0.140172
   49  H  5  S    0.000000  -0.194863   0.009930   0.000000  -0.172733
   50  F  6  S    0.000000  -0.005804   0.006459   0.000000   0.000737
   51  F  6  S    0.000000   0.007799  -0.012563   0.000000   0.004821
   52  F  6  X    0.000000   0.140624   0.054732   0.000000  -0.156132
   53  F  6  Y    0.000000  -0.198367  -0.285804   0.000000   0.286343
   54  F  6  Z    0.586825   0.000000   0.000000  -0.124819   0.000000
   55  F  6  S    0.000000   0.046822  -0.037037   0.000000  -0.021202
   56  F  6  X    0.000000   0.091483   0.046195   0.000000  -0.106109
   57  F  6  Y    0.000000  -0.129854  -0.196246   0.000000   0.211725
   58  F  6  Z    0.361928   0.000000   0.000000  -0.096283   0.000000
   59  F  6 XX    0.000000   0.004061   0.005511   0.000000   0.003756
   60  F  6 YY    0.000000  -0.010861  -0.001734   0.000000   0.004361
   61  F  6 ZZ    0.000000  -0.001694   0.001795   0.000000   0.002433
   62  F  6 XY    0.000000  -0.003638  -0.005279   0.000000   0.002795
   63  F  6 XZ    0.029050   0.000000   0.000000  -0.002174   0.000000
   64  F  6 YZ    0.014367   0.000000   0.000000  -0.002109   0.000000
   65  H  7  S    0.000000   0.015603   0.187953   0.000000  -0.179650
   66  H  7  S    0.000000   0.003494   0.184146   0.000000  -0.241512

                     16         17         18         19         20
                   -0.1835     0.0777     0.0777     0.1302     0.1769
                     A          A          A          A          A   
    1  C  1  S    0.000000   0.024416   0.000000   0.072140   0.048836
    2  C  1  S    0.000000  -0.062075   0.000000  -0.090972  -0.047967
    3  C  1  X    0.000000   0.021366   0.000000  -0.069316   0.059942
    4  C  1  Y    0.000000  -0.085519   0.000000  -0.290540  -0.235931
    5  C  1  Z    0.362454   0.000000   0.464583   0.000000   0.000000
    6  C  1  S    0.000000  -0.010588   0.000000  -1.310106  -1.072889
    7  C  1  X    0.000000   0.381783   0.000000  -0.564004  -0.259820
    8  C  1  Y    0.000000  -0.345731   0.000000  -0.512610  -0.891649
    9  C  1  Z    0.277741   0.000000   0.672588   0.000000   0.000000
   10  C  1 XX    0.000000   0.009890   0.000000  -0.012358   0.018359
   11  C  1 YY    0.000000  -0.011377   0.000000   0.025107  -0.004518
   12  C  1 ZZ    0.000000  -0.002127   0.000000   0.007252  -0.003537
   13  C  1 XY    0.000000   0.016209   0.000000  -0.015806   0.016204
   14  C  1 XZ    0.025251   0.000000  -0.015071   0.000000   0.000000
   15  C  1 YZ   -0.004316   0.000000   0.027401   0.000000   0.000000
   16  C  2  S    0.000000  -0.015903   0.000000  -0.049323   0.084580
   17  C  2  S    0.000000   0.046677   0.000000   0.066289  -0.138620
   18  C  2  X    0.000000   0.091089   0.000000  -0.158051  -0.111380
   19  C  2  Y    0.000000   0.028668   0.000000  -0.194475   0.284159
   20  C  2  Z    0.350496   0.000000  -0.438485   0.000000   0.000000
   21  C  2  S    0.000000  -0.193565   0.000000   1.034281  -1.299628
   22  C  2  X    0.000000   0.433235   0.000000  -0.460906  -0.020426
   23  C  2  Y    0.000000  -0.135830   0.000000  -0.230883   1.229209
   24  C  2  Z    0.258034   0.000000  -0.644606   0.000000   0.000000
   25  C  2 XX    0.000000  -0.005932   0.000000   0.021918   0.017462
   26  C  2 YY    0.000000   0.002125   0.000000  -0.025454  -0.000940
   27  C  2 ZZ    0.000000   0.006497   0.000000  -0.008016  -0.002424
   28  C  2 XY    0.000000  -0.014114   0.000000   0.014810   0.009788
   29  C  2 XZ   -0.028125   0.000000  -0.009851   0.000000   0.000000
   30  C  2 YZ    0.005569   0.000000   0.024062   0.000000   0.000000
   31  O  3  S    0.000000   0.089282   0.000000  -0.023026  -0.022900
   32  O  3  S    0.000000  -0.117303   0.000000   0.064546   0.066509
   33  O  3  X    0.000000   0.072295   0.000000  -0.097079  -0.074282
   34  O  3  Y    0.000000  -0.289727   0.000000  -0.011868  -0.048654
   35  O  3  Z   -0.350132   0.000000   0.190682   0.000000   0.000000
   36  O  3  S    0.000000  -1.112932   0.000000   0.196001   0.115894
   37  O  3  X    0.000000   0.118519   0.000000  -0.133723  -0.049705
   38  O  3  Y    0.000000  -0.450177   0.000000  -0.020897  -0.158006
   39  O  3  Z   -0.302614   0.000000   0.240921   0.000000   0.000000
   40  O  3 XX    0.000000   0.038773   0.000000  -0.000648  -0.001445
   41  O  3 YY    0.000000   0.024164   0.000000   0.000716  -0.004767
   42  O  3 ZZ    0.000000   0.044264   0.000000   0.003012   0.003360
   43  O  3 XY    0.000000   0.008287   0.000000   0.004277  -0.016002
   44  O  3 XZ    0.001609   0.000000   0.009736   0.000000   0.000000
   45  O  3 YZ   -0.013042   0.000000   0.016957   0.000000   0.000000
   46  H  4  S    0.000000   0.134719   0.000000  -0.004802  -0.039659
   47  H  4  S    0.000000   1.347430   0.000000  -0.001395  -0.130739
   48  H  5  S    0.000000  -0.033920   0.000000  -0.091972   0.040712
   49  H  5  S    0.000000  -0.185635   0.000000  -1.017658   1.950657
   50  F  6  S    0.000000  -0.020004   0.000000   0.025037   0.004348
   51  F  6  S    0.000000   0.032594   0.000000  -0.017682   0.025998
   52  F  6  X    0.000000   0.037385   0.000000  -0.057243   0.015534
   53  F  6  Y    0.000000   0.043117   0.000000   0.046101   0.107394
   54  F  6  Z   -0.278247   0.000000  -0.227681   0.000000   0.000000
   55  F  6  S    0.000000   0.201405   0.000000  -0.330522  -0.188056
   56  F  6  X    0.000000   0.023840   0.000000  -0.094278  -0.041206
   57  F  6  Y    0.000000   0.101717   0.000000   0.062937   0.136339
   58  F  6  Z   -0.250500   0.000000  -0.282266   0.000000   0.000000
   59  F  6 XX    0.000000  -0.007300   0.000000   0.022648   0.009223
   60  F  6 YY    0.000000  -0.006671   0.000000   0.017033   0.015170
   61  F  6 ZZ    0.000000  -0.006870   0.000000   0.013484   0.008718
   62  F  6 XY    0.000000   0.004368   0.000000  -0.012108  -0.009019
   63  F  6 XZ    0.003695   0.000000   0.006971   0.000000   0.000000
   64  F  6 YZ   -0.001537   0.000000   0.011795   0.000000   0.000000
   65  H  7  S    0.000000  -0.041674   0.000000   0.078229  -0.003162
   66  H  7  S    0.000000   0.382111   0.000000   1.442660   1.361563

                     21         22         23         24         25
                    0.2383     0.3082     0.4226     0.5136     0.5436
                     A          A          A          A          A   
    1  C  1  S    0.066029   0.036718  -0.096095   0.000000   0.036287
    2  C  1  S   -0.092854  -0.134072   0.059119   0.000000   0.474630
    3  C  1  X    0.080635  -0.186689   0.170813   0.000000   0.392427
    4  C  1  Y   -0.042709  -0.028198  -0.332124   0.000000  -0.311855
    5  C  1  Z    0.000000   0.000000   0.000000  -0.880844   0.000000
    6  C  1  S   -1.022687   0.097673   4.001699   0.000000  -1.461096
    7  C  1  X    1.153044  -1.859696   1.312457   0.000000  -1.402437
    8  C  1  Y   -0.133953  -0.688991  -2.271441   0.000000   1.744744
    9  C  1  Z    0.000000   0.000000   0.000000   1.056999   0.000000
   10  C  1 XX    0.015899   0.040978  -0.037062   0.000000   0.041372
   11  C  1 YY   -0.007894  -0.040380  -0.003802   0.000000   0.063010
   12  C  1 ZZ   -0.013436   0.008418   0.024452   0.000000  -0.016904
   13  C  1 XY    0.013353   0.021487   0.017084   0.000000  -0.043862
   14  C  1 XZ    0.000000   0.000000   0.000000  -0.023790   0.000000
   15  C  1 YZ    0.000000   0.000000   0.000000   0.032257   0.000000
   16  C  2  S   -0.071437  -0.085404   0.093883   0.000000   0.008562
   17  C  2  S    0.165238   0.005213  -0.171385   0.000000   0.403482
   18  C  2  X    0.104839   0.291404  -0.013122   0.000000  -0.334583
   19  C  2  Y    0.064626   0.224325  -0.246017   0.000000   0.280813
   20  C  2  Z    0.000000   0.000000   0.000000  -0.439487   0.000000
   21  C  2  S    0.363189   1.967518  -2.782894   0.000000   1.391037
   22  C  2  X    0.735154   1.045479   3.281133   0.000000  -0.136504
   23  C  2  Y   -0.232278   1.366819  -1.146443   0.000000   0.069987
   24  C  2  Z    0.000000   0.000000   0.000000   0.231284   0.000000
   25  C  2 XX   -0.029028  -0.028673   0.052200   0.000000   0.109126
   26  C  2 YY    0.031340  -0.018540  -0.022086   0.000000   0.054910
   27  C  2 ZZ    0.006626   0.020705  -0.004800   0.000000  -0.030557
   28  C  2 XY   -0.010209   0.000275  -0.021230   0.000000  -0.042799
   29  C  2 XZ    0.000000   0.000000   0.000000   0.032615   0.000000
   30  C  2 YZ    0.000000   0.000000   0.000000  -0.027718   0.000000
   31  O  3  S    0.017233   0.079076   0.023450   0.000000   0.012455
   32  O  3  S   -0.061242  -0.090826   0.074802   0.000000  -0.003822
   33  O  3  X    0.257612   0.220441  -0.160146   0.000000  -0.120792
   34  O  3  Y    0.207519   0.149601   0.148005   0.000000  -0.022772
   35  O  3  Z    0.000000   0.000000   0.000000  -0.073799   0.000000
   36  O  3  S   -0.131425  -1.344927  -0.969725   0.000000  -0.263723
   37  O  3  X    0.377011   0.814003   0.213551   0.000000   0.123774
   38  O  3  Y    0.440439   0.266997   0.472228   0.000000  -0.039659
   39  O  3  Z    0.000000   0.000000   0.000000   0.003375   0.000000
   40  O  3 XX    0.000294   0.017896  -0.030013   0.000000  -0.033809
   41  O  3 YY   -0.006003   0.025894   0.081380   0.000000   0.026034
   42  O  3 ZZ   -0.005650   0.044394   0.039589   0.000000  -0.005165
   43  O  3 XY   -0.008406   0.008347  -0.021907   0.000000   0.002001
   44  O  3 XZ    0.000000   0.000000   0.000000   0.010653   0.000000
   45  O  3 YZ    0.000000   0.000000   0.000000   0.014056   0.000000
   46  H  4  S   -0.102068  -0.029049   0.126355   0.000000   0.151213
   47  H  4  S   -0.805621  -0.262940  -0.492608   0.000000   0.153675
   48  H  5  S    0.068728  -0.106109  -0.038854   0.000000   0.129398
   49  H  5  S   -0.414992   0.495030  -0.361318   0.000000  -0.010180
   50  F  6  S   -0.084101   0.076218   0.038018   0.000000  -0.014711
   51  F  6  S    0.088723   0.072301   0.029435   0.000000   0.061711
   52  F  6  X    0.110218   0.086243  -0.097759   0.000000   0.080221
   53  F  6  Y    0.051162  -0.103306   0.038140   0.000000  -0.178071
   54  F  6  Z    0.000000   0.000000   0.000000  -0.037989   0.000000
   55  F  6  S    1.178652  -1.613609  -0.818454   0.000000   0.135753
   56  F  6  X    0.286258  -0.248174  -0.371270   0.000000   0.289724
   57  F  6  Y    0.222077  -0.249944   0.173142   0.000000  -0.187244
   58  F  6  Z    0.000000   0.000000   0.000000  -0.092900   0.000000
   59  F  6 XX   -0.022862   0.052575   0.044334   0.000000   0.065093
   60  F  6 YY   -0.043895   0.091788   0.016216   0.000000  -0.004237
   61  F  6 ZZ   -0.055358   0.111095   0.063935   0.000000  -0.022800
   62  F  6 XY    0.020013  -0.021121   0.006775   0.000000  -0.021665
   63  F  6 XZ    0.000000   0.000000   0.000000  -0.070410   0.000000
   64  F  6 YZ    0.000000   0.000000   0.000000  -0.031464   0.000000
   65  H  7  S    0.060792  -0.135729  -0.070939   0.000000   0.117251
   66  H  7  S    0.844041   0.450813   0.909041   0.000000  -0.832138

                     26         27         28         29         30
                    0.6215     0.6334     0.6535     0.7917     0.8004
                     A          A          A          A          A   
    1  C  1  S    0.000000   0.049060  -0.013603  -0.067506   0.012187
    2  C  1  S    0.000000  -0.123984  -0.346313   0.008232  -0.266773
    3  C  1  X    0.000000  -0.381093   0.061446  -0.611270  -0.040663
    4  C  1  Y    0.000000   0.303949  -0.249600  -0.744908  -0.134721
    5  C  1  Z    0.452912   0.000000   0.000000   0.000000   0.000000
    6  C  1  S    0.000000  -0.449621  -0.396429   0.345390  -0.114742
    7  C  1  X    0.000000  -0.129529  -0.829083   0.482309  -0.061792
    8  C  1  Y    0.000000  -0.226429   1.447478   1.722240   0.732830
    9  C  1  Z   -0.989902   0.000000   0.000000   0.000000   0.000000
   10  C  1 XX    0.000000   0.002971  -0.047649  -0.220381  -0.027396
   11  C  1 YY    0.000000   0.070862  -0.097437   0.052972  -0.001085
   12  C  1 ZZ    0.000000  -0.037979   0.027062   0.079259  -0.022618
   13  C  1 XY    0.000000  -0.100980   0.060571  -0.141445  -0.007947
   14  C  1 XZ   -0.030824   0.000000   0.000000   0.000000   0.000000
   15  C  1 YZ   -0.000461   0.000000   0.000000   0.000000   0.000000
   16  C  2  S    0.000000  -0.045798   0.026323  -0.005133  -0.047611
   17  C  2  S    0.000000  -0.468929  -0.423473   0.048747   0.029938
   18  C  2  X    0.000000  -0.837571  -0.281580   0.216220  -0.016499
   19  C  2  Y    0.000000  -0.008151  -0.504819   0.044707  -0.149777
   20  C  2  Z   -0.938904   0.000000   0.000000   0.000000   0.000000
   21  C  2  S    0.000000   1.494974   1.460238   0.228350   0.089746
   22  C  2  X    0.000000   1.001519  -0.549737  -0.709174  -0.578315
   23  C  2  Y    0.000000   0.452185   1.392671  -0.096587   0.328498
   24  C  2  Z    1.430483   0.000000   0.000000   0.000000   0.000000
   25  C  2 XX    0.000000  -0.010206  -0.010130   0.079990  -0.045027
   26  C  2 YY    0.000000  -0.105828   0.062196  -0.087230  -0.083188
   27  C  2 ZZ    0.000000   0.024203  -0.052948   0.028936   0.051408
   28  C  2 XY    0.000000   0.110432  -0.010746   0.030942  -0.092582
   29  C  2 XZ   -0.025598   0.000000   0.000000   0.000000   0.000000
   30  C  2 YZ   -0.025628   0.000000   0.000000   0.000000   0.000000
   31  O  3  S    0.000000   0.000664  -0.025363   0.004135   0.016468
   32  O  3  S    0.000000  -0.039004   0.168341  -0.047714  -0.101262
   33  O  3  X    0.000000  -0.220309   0.017279   0.031635   0.440546
   34  O  3  Y    0.000000   0.005190  -0.122005   0.036621  -0.372786
   35  O  3  Z   -0.114949   0.000000   0.000000   0.000000   0.000000
   36  O  3  S    0.000000  -0.592119  -0.182416   0.253202   0.373465
   37  O  3  X    0.000000   0.301676  -0.068182   0.091965  -0.589419
   38  O  3  Y    0.000000   0.057580  -0.114238   0.027791  -0.082947
   39  O  3  Z   -0.137771   0.000000   0.000000   0.000000   0.000000
   40  O  3 XX    0.000000  -0.125045  -0.014733   0.032167  -0.040052
   41  O  3 YY    0.000000  -0.027164   0.022457  -0.050325   0.157682
   42  O  3 ZZ    0.000000   0.050736   0.065170  -0.006499  -0.073862
   43  O  3 XY    0.000000  -0.097844  -0.066036   0.004453   0.023871
   44  O  3 XZ    0.050642   0.000000   0.000000   0.000000   0.000000
   45  O  3 YZ    0.002165   0.000000   0.000000   0.000000   0.000000
   46  H  4  S    0.000000  -0.010016  -0.111290  -0.171013   0.893166
   47  H  4  S    0.000000  -0.206108  -0.112678   0.101370  -0.750473
   48  H  5  S    0.000000  -0.300034   0.423122  -0.090929  -0.373795
   49  H  5  S    0.000000   0.130706   0.258746   0.269429   0.578271
   50  F  6  S    0.000000  -0.004099  -0.002338   0.033076  -0.006532
   51  F  6  S    0.000000   0.071601   0.022103  -0.104094   0.037492
   52  F  6  X    0.000000  -0.007572   0.124026  -0.379073   0.009928
   53  F  6  Y    0.000000  -0.067777  -0.149472  -0.175919  -0.000236
   54  F  6  Z    0.009906   0.000000   0.000000   0.000000   0.000000
   55  F  6  S    0.000000  -0.024600  -0.025129   0.263560   0.108412
   56  F  6  X    0.000000   0.106247   0.074648   0.013917   0.069957
   57  F  6  Y    0.000000  -0.043562  -0.118682  -0.100702  -0.031299
   58  F  6  Z    0.091916   0.000000   0.000000   0.000000   0.000000
   59  F  6 XX    0.000000   0.036985   0.008495   0.219986   0.018416
   60  F  6 YY    0.000000   0.056155  -0.017392  -0.035024   0.010267
   61  F  6 ZZ    0.000000  -0.009213   0.025954  -0.057885   0.001078
   62  F  6 XY    0.000000   0.037695  -0.012947   0.083736  -0.014319
   63  F  6 XZ    0.059195   0.000000   0.000000   0.000000   0.000000
   64  F  6 YZ   -0.004258   0.000000   0.000000   0.000000   0.000000
   65  H  7  S    0.000000   0.186629  -0.481837   0.221380   0.082288
   66  H  7  S    0.000000  -0.028667  -0.673493  -1.363358  -0.501139

                     31         32         33         34         35
                    0.8356     0.8840     0.9500     0.9533     0.9966
                     A          A          A          A          A   
    1  C  1  S    0.046767   0.013783   0.064530   0.000000  -0.006517
    2  C  1  S   -0.717781   0.505667  -0.160280   0.000000   0.208467
    3  C  1  X    0.530252   0.157017  -0.439593   0.000000  -0.106008
    4  C  1  Y   -0.376178   0.104212  -0.280656   0.000000   0.061506
    5  C  1  Z    0.000000   0.000000   0.000000   0.023523   0.000000
    6  C  1  S   -0.025914  -2.165999   2.745337   0.000000  -1.308507
    7  C  1  X   -0.635346  -1.039111   0.556881   0.000000  -0.292177
    8  C  1  Y    1.803535  -0.509213  -1.326372   0.000000  -0.408410
    9  C  1  Z    0.000000   0.000000   0.000000   0.181905   0.000000
   10  C  1 XX   -0.047247  -0.031576   0.162364   0.000000  -0.033421
   11  C  1 YY    0.047462   0.096213   0.073227   0.000000  -0.013989
   12  C  1 ZZ   -0.092639  -0.004484  -0.164193   0.000000   0.035542
   13  C  1 XY    0.138441   0.041001   0.109991   0.000000   0.029449
   14  C  1 XZ    0.000000   0.000000   0.000000  -0.008776   0.000000
   15  C  1 YZ    0.000000   0.000000   0.000000   0.054523   0.000000
   16  C  2  S   -0.007366  -0.011839   0.019101   0.000000   0.018092
   17  C  2  S   -0.696009   0.731948   0.544476   0.000000  -0.137573
   18  C  2  X    0.225743   0.054652  -0.194720   0.000000   0.182698
   19  C  2  Y   -0.086757  -0.947979  -0.012726   0.000000  -0.068324
   20  C  2  Z    0.000000   0.000000   0.000000   0.128942   0.000000
   21  C  2  S    2.375965  -0.769876  -2.725634   0.000000   0.885460
   22  C  2  X   -1.037919  -0.235316   1.392728   0.000000  -0.180221
   23  C  2  Y   -0.080508   2.963431   0.030715   0.000000   1.175746
   24  C  2  Z    0.000000   0.000000   0.000000  -0.572855   0.000000
   25  C  2 XX    0.049556   0.138335  -0.061275   0.000000   0.108024
   26  C  2 YY   -0.093237  -0.032877   0.107569   0.000000   0.067130
   27  C  2 ZZ   -0.018844   0.048537  -0.017967   0.000000  -0.064975
   28  C  2 XY    0.004028  -0.028345   0.053413   0.000000   0.068215
   29  C  2 XZ    0.000000   0.000000   0.000000   0.012729   0.000000
   30  C  2 YZ    0.000000   0.000000   0.000000   0.040854   0.000000
   31  O  3  S   -0.004872   0.007343  -0.002797   0.000000   0.000813
   32  O  3  S   -0.144327  -0.051641   0.015779   0.000000  -0.755277
   33  O  3  X   -0.196335  -0.098633   0.155642   0.000000  -0.514008
   34  O  3  Y    0.069051   0.157430  -0.078426   0.000000  -0.413124
   35  O  3  Z    0.000000   0.000000   0.000000  -0.941784   0.000000
   36  O  3  S    0.308918  -0.168250  -0.154390   0.000000   1.313686
   37  O  3  X    0.278518   0.389824  -0.245732   0.000000   1.005409
   38  O  3  Y    0.019693  -0.333335   0.097372   0.000000   0.429632
   39  O  3  Z    0.000000   0.000000   0.000000   1.205202   0.000000
   40  O  3 XX   -0.078596  -0.043297   0.034095   0.000000  -0.244244
   41  O  3 YY   -0.071620  -0.027553  -0.014012   0.000000  -0.161965
   42  O  3 ZZ   -0.017758   0.002756  -0.001213   0.000000  -0.273506
   43  O  3 XY    0.009427   0.051168  -0.044696   0.000000  -0.048590
   44  O  3 XZ    0.000000   0.000000   0.000000   0.022807   0.000000
   45  O  3 YZ    0.000000   0.000000   0.000000   0.037077   0.000000
   46  H  4  S   -0.134510  -0.118362  -0.071257   0.000000   0.516078
   47  H  4  S    0.088562  -0.036162   0.046328   0.000000  -1.280062
   48  H  5  S   -0.283344  -0.521890   0.437423   0.000000   0.377808
   49  H  5  S   -0.242868   2.505693   0.118207   0.000000   0.212013
   50  F  6  S   -0.031912  -0.006968  -0.003503   0.000000   0.006067
   51  F  6  S    0.178981  -0.067358  -0.478325   0.000000  -0.014398
   52  F  6  X    0.138237   0.071678   0.318004   0.000000  -0.045202
   53  F  6  Y    0.171949   0.017746   0.272584   0.000000   0.031685
   54  F  6  Z    0.000000   0.000000   0.000000   0.041668   0.000000
   55  F  6  S    0.115050   0.057855   0.057071   0.000000  -0.034081
   56  F  6  X    0.246025   0.002988  -0.952956   0.000000  -0.025356
   57  F  6  Y   -0.012318   0.020895  -0.360904   0.000000  -0.007008
   58  F  6  Z    0.000000   0.000000   0.000000  -0.067780   0.000000
   59  F  6 XX    0.023874  -0.037022  -0.312395   0.000000   0.032499
   60  F  6 YY   -0.009995  -0.032476  -0.280612   0.000000  -0.009048
   61  F  6 ZZ    0.060167  -0.065333  -0.171104   0.000000  -0.010755
   62  F  6 XY   -0.157036   0.008857  -0.035970   0.000000   0.027882
   63  F  6 XZ    0.000000   0.000000   0.000000  -0.017373   0.000000
   64  F  6 YZ    0.000000   0.000000   0.000000   0.033087   0.000000
   65  H  7  S    0.557091   0.094973   0.659711   0.000000   0.018466
   66  H  7  S   -1.738370   0.446163  -0.313809   0.000000   0.592720

                     36         37         38         39         40
                    1.0438     1.1709     1.2330     1.2341     1.3460
                     A          A          A          A          A   
    1  C  1  S   -0.017478   0.036664   0.010502   0.000000   0.000000
    2  C  1  S   -1.431781   0.374584  -0.180876   0.000000   0.000000
    3  C  1  X   -0.129456  -0.350444  -0.048955   0.000000   0.000000
    4  C  1  Y    0.019499  -0.218317   0.017882   0.000000   0.000000
    5  C  1  Z    0.000000   0.000000   0.000000   0.027857   0.101510
    6  C  1  S    4.714240  -0.521685   2.542934   0.000000   0.000000
    7  C  1  X    1.553913   0.471640   0.852982   0.000000   0.000000
    8  C  1  Y   -0.262132   1.993695  -0.689519   0.000000   0.000000
    9  C  1  Z    0.000000   0.000000   0.000000  -0.530108  -0.093599
   10  C  1 XX    0.002833   0.165789   0.055155   0.000000   0.000000
   11  C  1 YY   -0.126706  -0.092535  -0.074973   0.000000   0.000000
   12  C  1 ZZ   -0.024803  -0.049720   0.021534   0.000000   0.000000
   13  C  1 XY   -0.080717   0.143150   0.032809   0.000000   0.000000
   14  C  1 XZ    0.000000   0.000000   0.000000   0.049480  -0.330741
   15  C  1 YZ    0.000000   0.000000   0.000000  -0.080172   0.408865
   16  C  2  S    0.021564  -0.022980   0.018211   0.000000   0.000000
   17  C  2  S    1.215864  -0.224016   0.289981   0.000000   0.000000
   18  C  2  X   -0.220807   0.065241  -0.118691   0.000000   0.000000
   19  C  2  Y    0.096129   0.162487   0.067297   0.000000   0.000000
   20  C  2  Z    0.000000   0.000000   0.000000   0.015726   0.034359
   21  C  2  S   -4.451491   1.423458  -0.812242   0.000000   0.000000
   22  C  2  X    0.976137  -1.547728   2.161821   0.000000   0.000000
   23  C  2  Y   -1.221333  -1.089445  -1.292896   0.000000   0.000000
   24  C  2  Z    0.000000   0.000000   0.000000   0.106476   0.120270
   25  C  2 XX    0.023946  -0.012435   0.129591   0.000000   0.000000
   26  C  2 YY    0.075327  -0.062285  -0.138406   0.000000   0.000000
   27  C  2 ZZ    0.033572   0.025844   0.073615   0.000000   0.000000
   28  C  2 XY    0.090824  -0.007450   0.019538   0.000000   0.000000
   29  C  2 XZ    0.000000   0.000000   0.000000  -0.051476   0.471137
   30  C  2 YZ    0.000000   0.000000   0.000000  -0.100855  -0.168951
   31  O  3  S   -0.005392  -0.001640   0.022205   0.000000   0.000000
   32  O  3  S   -0.050697   0.143054   0.562272   0.000000   0.000000
   33  O  3  X   -0.218892  -0.268436  -0.183156   0.000000   0.000000
   34  O  3  Y    0.185423   0.260734  -0.692227   0.000000   0.000000
   35  O  3  Z    0.000000   0.000000   0.000000  -0.049280   0.015404
   36  O  3  S    0.542537   0.255953  -1.515557   0.000000   0.000000
   37  O  3  X   -0.009473   0.144203   0.643109   0.000000   0.000000
   38  O  3  Y   -0.291141  -0.569994   1.841512   0.000000   0.000000
   39  O  3  Z    0.000000   0.000000   0.000000   0.074238  -0.163406
   40  O  3 XX    0.060978   0.047326   0.165050   0.000000   0.000000
   41  O  3 YY    0.011784   0.111001   0.086053   0.000000   0.000000
   42  O  3 ZZ   -0.145318  -0.073955   0.218742   0.000000   0.000000
   43  O  3 XY   -0.014870   0.027405   0.222350   0.000000   0.000000
   44  O  3 XZ    0.000000   0.000000   0.000000   0.048273  -0.243276
   45  O  3 YZ    0.000000   0.000000   0.000000  -0.024742  -0.213112
   46  H  4  S    0.131940   0.233384  -0.373905   0.000000   0.000000
   47  H  4  S    0.087773   0.214835  -0.485683   0.000000   0.000000
   48  H  5  S   -0.080648  -0.389916  -0.314056   0.000000   0.000000
   49  H  5  S    0.232827  -0.591554  -0.261953   0.000000   0.000000
   50  F  6  S    0.004192  -0.032241   0.000969   0.000000   0.000000
   51  F  6  S    0.327054  -0.365984   0.123519   0.000000   0.000000
   52  F  6  X   -0.040665   0.451609   0.146257   0.000000   0.000000
   53  F  6  Y   -0.007785   0.036259   0.018896   0.000000   0.000000
   54  F  6  Z    0.000000   0.000000   0.000000  -0.916161  -0.122808
   55  F  6  S   -0.661998   1.083048  -0.373529   0.000000   0.000000
   56  F  6  X    0.199905  -0.892927  -0.275324   0.000000   0.000000
   57  F  6  Y    0.048826  -0.416868  -0.070131   0.000000   0.000000
   58  F  6  Z    0.000000   0.000000   0.000000   1.241186   0.084170
   59  F  6 XX    0.014421  -0.165330  -0.027456   0.000000   0.000000
   60  F  6 YY    0.139803  -0.178995  -0.000857   0.000000   0.000000
   61  F  6 ZZ    0.240967  -0.316894   0.100909   0.000000   0.000000
   62  F  6 XY    0.005763  -0.003583   0.042277   0.000000   0.000000
   63  F  6 XZ    0.000000   0.000000   0.000000  -0.024174  -0.036972
   64  F  6 YZ    0.000000   0.000000   0.000000  -0.060940   0.269952
   65  H  7  S   -0.186213  -0.471984  -0.128038   0.000000   0.000000
   66  H  7  S   -0.634051  -0.716378   0.172325   0.000000   0.000000

                     41         42         43         44         45
                    1.3792     1.4938     1.5867     1.6100     1.6562
                     A          A          A          A          A   
    1  C  1  S   -0.001047   0.000000  -0.031867   0.000000   0.029829
    2  C  1  S    0.106198   0.000000  -0.358925   0.000000   0.251869
    3  C  1  X    0.059355   0.000000  -0.045367   0.000000  -0.005519
    4  C  1  Y   -0.259800   0.000000   0.013879   0.000000  -0.128781
    5  C  1  Z    0.000000   0.136311   0.000000  -0.169052   0.000000
    6  C  1  S   -0.409894   0.000000   2.965526   0.000000  -0.175371
    7  C  1  X   -0.685998   0.000000   2.169537   0.000000  -0.628327
    8  C  1  Y    2.370938   0.000000   0.218053   0.000000   0.252563
    9  C  1  Z    0.000000  -0.285434   0.000000   0.224431   0.000000
   10  C  1 XX    0.179543   0.000000   0.036643   0.000000   0.067731
   11  C  1 YY   -0.139440   0.000000   0.119460   0.000000  -0.365125
   12  C  1 ZZ   -0.073280   0.000000  -0.126721   0.000000   0.322519
   13  C  1 XY   -0.108041   0.000000   0.029523   0.000000   0.162495
   14  C  1 XZ    0.000000   0.384972   0.000000  -0.192998   0.000000
   15  C  1 YZ    0.000000   0.201298   0.000000  -0.483556   0.000000
   16  C  2  S   -0.002033   0.000000   0.016791   0.000000   0.006919
   17  C  2  S   -0.123422   0.000000   0.479140   0.000000   0.184360
   18  C  2  X   -0.030542   0.000000  -0.114078   0.000000  -0.072987
   19  C  2  Y   -0.085830   0.000000   0.126722   0.000000   0.040761
   20  C  2  Z    0.000000  -0.169868   0.000000  -0.050926   0.000000
   21  C  2  S    1.271161   0.000000  -4.036746   0.000000  -0.657768
   22  C  2  X   -1.136504   0.000000  -0.363177   0.000000  -1.308993
   23  C  2  Y   -0.395165   0.000000  -3.004619   0.000000  -0.229832
   24  C  2  Z    0.000000   0.196822   0.000000  -0.172765   0.000000
   25  C  2 XX    0.018386   0.000000  -0.004957   0.000000  -0.227881
   26  C  2 YY    0.002308   0.000000   0.076758   0.000000  -0.005898
   27  C  2 ZZ   -0.064730   0.000000  -0.139509   0.000000   0.283375
   28  C  2 XY   -0.070785   0.000000   0.071773   0.000000  -0.123643
   29  C  2 XZ    0.000000   0.187665   0.000000   0.241508   0.000000
   30  C  2 YZ    0.000000   0.578840   0.000000   0.229464   0.000000
   31  O  3  S   -0.036135   0.000000  -0.090281   0.000000  -0.044838
   32  O  3  S   -0.447506   0.000000  -1.408347   0.000000  -0.545416
   33  O  3  X    0.069252   0.000000   0.293991   0.000000   0.014886
   34  O  3  Y   -0.004618   0.000000  -0.108009   0.000000   0.057698
   35  O  3  Z    0.000000   0.005562   0.000000  -0.070880   0.000000
   36  O  3  S    1.423836   0.000000   4.372302   0.000000   1.951304
   37  O  3  X   -0.388198   0.000000  -1.449336   0.000000  -0.714678
   38  O  3  Y    0.102904   0.000000   0.589841   0.000000  -0.335127
   39  O  3  Z    0.000000  -0.138632   0.000000   0.054296   0.000000
   40  O  3 XX   -0.205075   0.000000  -0.465977   0.000000  -0.316490
   41  O  3 YY   -0.159453   0.000000  -0.499109   0.000000  -0.229500
   42  O  3 ZZ   -0.044655   0.000000  -0.098270   0.000000   0.162677
   43  O  3 XY    0.028768   0.000000   0.025984   0.000000   0.011299
   44  O  3 XZ    0.000000  -0.357607   0.000000  -0.391243   0.000000
   45  O  3 YZ    0.000000   0.056728   0.000000  -0.015820   0.000000
   46  H  4  S   -0.176921   0.000000  -0.402310   0.000000  -0.048216
   47  H  4  S   -0.060441   0.000000  -0.359234   0.000000   0.191957
   48  H  5  S   -0.156882   0.000000  -0.314407   0.000000  -0.038235
   49  H  5  S   -0.252117   0.000000  -0.799381   0.000000   0.077466
   50  F  6  S   -0.006085   0.000000  -0.029908   0.000000   0.041108
   51  F  6  S   -0.023365   0.000000  -0.391278   0.000000   0.811298
   52  F  6  X   -0.270329   0.000000   0.161025   0.000000   0.077990
   53  F  6  Y    0.691628   0.000000  -0.214896   0.000000  -0.015932
   54  F  6  Z    0.000000  -0.034418   0.000000  -0.077899   0.000000
   55  F  6  S    0.226161   0.000000   1.147186   0.000000  -1.932926
   56  F  6  X    0.474701   0.000000  -0.344204   0.000000  -0.401797
   57  F  6  Y   -1.358490   0.000000   0.416473   0.000000  -0.156339
   58  F  6  Z    0.000000   0.306927   0.000000  -0.113419   0.000000
   59  F  6 XX   -0.105698   0.000000  -0.056732   0.000000   0.263972
   60  F  6 YY    0.190483   0.000000  -0.120142   0.000000  -0.143937
   61  F  6 ZZ   -0.151076   0.000000  -0.302158   0.000000   0.661631
   62  F  6 XY    0.091048   0.000000  -0.218564   0.000000   0.329443
   63  F  6 XZ    0.000000  -0.263225   0.000000   0.493576   0.000000
   64  F  6 YZ    0.000000  -0.117857   0.000000  -0.211703   0.000000
   65  H  7  S   -0.285190   0.000000  -0.479216   0.000000   0.246391
   66  H  7  S   -1.131251   0.000000  -0.188846   0.000000  -0.155786

                     46         47         48         49         50
                    1.7260     1.7854     1.8779     1.9447     1.9824
                     A          A          A          A          A   
    1  C  1  S    0.000000   0.002272   0.000000  -0.007788   0.039720
    2  C  1  S    0.000000  -0.357822   0.000000   0.052155   0.092547
    3  C  1  X    0.000000  -0.212095   0.000000   0.215664   0.223586
    4  C  1  Y    0.000000   0.001576   0.000000  -0.342694   0.085527
    5  C  1  Z   -0.077014   0.000000  -0.185290   0.000000   0.000000
    6  C  1  S    0.000000  -0.346306   0.000000  -1.037491  -2.583005
    7  C  1  X    0.000000   0.328309   0.000000   1.431233   0.493980
    8  C  1  Y    0.000000  -0.685695   0.000000   0.901221   2.162703
    9  C  1  Z   -0.189816   0.000000  -0.049953   0.000000   0.000000
   10  C  1 XX    0.000000   0.094186   0.000000   0.118420  -0.380923
   11  C  1 YY    0.000000  -0.098841   0.000000  -0.302335   0.210577
   12  C  1 ZZ    0.000000  -0.045554   0.000000   0.154371   0.332437
   13  C  1 XY    0.000000  -0.199116   0.000000  -0.276920  -0.100944
   14  C  1 XZ   -0.224133   0.000000  -0.007200   0.000000   0.000000
   15  C  1 YZ    0.028786   0.000000  -0.306575   0.000000   0.000000
   16  C  2  S    0.000000   0.006034   0.000000  -0.008811   0.006024
   17  C  2  S    0.000000  -0.068963   0.000000  -0.323772   0.066527
   18  C  2  X    0.000000   0.087642   0.000000   0.176334  -0.088720
   19  C  2  Y    0.000000  -0.011058   0.000000  -0.134271   0.216721
   20  C  2  Z    0.026450   0.000000  -0.079698   0.000000   0.000000
   21  C  2  S    0.000000  -0.743440   0.000000   0.194829   1.152226
   22  C  2  X    0.000000  -0.557695   0.000000  -0.764451  -1.179126
   23  C  2  Y    0.000000   1.024670   0.000000  -1.429117  -0.053453
   24  C  2  Z    0.213519   0.000000   0.107355   0.000000   0.000000
   25  C  2 XX    0.000000   0.041674   0.000000  -0.138086   0.138865
   26  C  2 YY    0.000000  -0.242993   0.000000   0.208248  -0.510621
   27  C  2 ZZ    0.000000   0.137632   0.000000  -0.129667   0.446499
   28  C  2 XY    0.000000  -0.414555   0.000000  -0.102061   0.156023
   29  C  2 XZ   -0.136458   0.000000  -0.190443   0.000000   0.000000
   30  C  2 YZ    0.130159   0.000000   0.423403   0.000000   0.000000
   31  O  3  S    0.000000  -0.012533   0.000000  -0.026143   0.008158
   32  O  3  S    0.000000  -0.098688   0.000000  -0.266110  -0.109350
   33  O  3  X    0.000000  -0.144264   0.000000  -0.028037   0.019305
   34  O  3  Y    0.000000   0.145659   0.000000  -0.101659   0.100109
   35  O  3  Z    0.039459   0.000000   0.011922   0.000000   0.000000
   36  O  3  S    0.000000   0.479322   0.000000   1.172785   0.389007
   37  O  3  X    0.000000   0.013477   0.000000  -0.295078  -0.026631
   38  O  3  Y    0.000000  -0.443208   0.000000   0.367387  -0.398962
   39  O  3  Z   -0.116963   0.000000  -0.010739   0.000000   0.000000
   40  O  3 XX    0.000000  -0.375020   0.000000   0.097920  -0.051328
   41  O  3 YY    0.000000   0.095340   0.000000  -0.053848  -0.133799
   42  O  3 ZZ    0.000000   0.223601   0.000000  -0.203570   0.165847
   43  O  3 XY    0.000000   0.503137   0.000000  -0.294547   0.065232
   44  O  3 XZ   -0.151616   0.000000   0.081899   0.000000   0.000000
   45  O  3 YZ    0.829025   0.000000  -0.458240   0.000000   0.000000
   46  H  4  S    0.000000   0.005476   0.000000  -0.208270   0.266431
   47  H  4  S    0.000000  -0.027154   0.000000  -0.106852  -0.031977
   48  H  5  S    0.000000   0.526882   0.000000  -0.496749   0.327943
   49  H  5  S    0.000000   0.424013   0.000000  -0.580367  -0.159539
   50  F  6  S    0.000000   0.000156   0.000000  -0.057465  -0.067698
   51  F  6  S    0.000000  -0.105868   0.000000  -1.230652  -1.209288
   52  F  6  X    0.000000   0.097934   0.000000   0.104682   0.087834
   53  F  6  Y    0.000000  -0.215420   0.000000  -0.241176   0.269314
   54  F  6  Z   -0.104737   0.000000  -0.062544   0.000000   0.000000
   55  F  6  S    0.000000   0.211199   0.000000   3.390413   3.759554
   56  F  6  X    0.000000  -0.117409   0.000000   0.282538   0.671122
   57  F  6  Y    0.000000   0.405612   0.000000   0.524377  -0.205940
   58  F  6  Z    0.108372   0.000000   0.064130   0.000000   0.000000
   59  F  6 XX    0.000000  -0.183107   0.000000  -0.811307  -0.498874
   60  F  6 YY    0.000000   0.305822   0.000000  -0.147648  -0.513448
   61  F  6 ZZ    0.000000  -0.172286   0.000000  -0.062675   0.008204
   62  F  6 XY    0.000000   0.002608   0.000000   0.197490  -0.146912
   63  F  6 XZ   -0.016361   0.000000  -0.092283   0.000000   0.000000
   64  F  6 YZ    0.413880   0.000000   0.728174   0.000000   0.000000
   65  H  7  S    0.000000   0.306828   0.000000   0.324355  -0.355255
   66  H  7  S    0.000000   0.205521   0.000000  -0.313755  -0.527682

                     51         52         53         54         55
                    2.0365     2.1939     2.2134     2.3633     2.3766
                     A          A          A          A          A   
    1  C  1  S   -0.009498   0.003594   0.000000  -0.047998   0.063014
    2  C  1  S    0.052559   0.138312   0.000000  -0.273708  -0.091024
    3  C  1  X   -0.186197  -0.461863   0.000000  -0.047662  -0.002891
    4  C  1  Y    0.158885   0.064688   0.000000   0.191469   0.298359
    5  C  1  Z    0.000000   0.000000  -0.191583   0.000000   0.000000
    6  C  1  S   -2.082454  -1.382400   0.000000   1.976483  -1.064955
    7  C  1  X   -0.602909  -0.140376   0.000000   0.722653  -0.347951
    8  C  1  Y    1.098620   1.193999   0.000000  -0.269945   0.447711
    9  C  1  Z    0.000000   0.000000  -0.338228   0.000000   0.000000
   10  C  1 XX    0.005672   0.139934   0.000000  -0.045399  -0.383087
   11  C  1 YY    0.158532  -0.103496   0.000000   0.366469  -0.283872
   12  C  1 ZZ   -0.335198  -0.054813   0.000000  -0.568081   0.757630
   13  C  1 XY    0.064857   0.255746   0.000000  -0.374003  -0.121657
   14  C  1 XZ    0.000000   0.000000  -0.218225   0.000000   0.000000
   15  C  1 YZ    0.000000   0.000000   0.532215   0.000000   0.000000
   16  C  2  S   -0.052213  -0.001994   0.000000   0.012985  -0.006003
   17  C  2  S   -0.551557   0.245060   0.000000   0.190405  -0.055334
   18  C  2  X   -0.146355  -0.158071   0.000000   0.317005  -0.455447
   19  C  2  Y    0.042473   0.103703   0.000000   0.006869   0.075796
   20  C  2  Z    0.000000   0.000000   0.162079   0.000000   0.000000
   21  C  2  S    2.424714   1.021149   0.000000  -1.426583   0.315537
   22  C  2  X   -1.143232  -0.689795   0.000000   0.185041  -0.650498
   23  C  2  Y    0.702051   0.019109   0.000000  -0.995250  -0.060618
   24  C  2  Z    0.000000   0.000000   0.392030   0.000000   0.000000
   25  C  2 XX    0.408602  -0.420480   0.000000   0.015840   0.122635
   26  C  2 YY    0.070358   0.504135   0.000000  -0.360299  -0.067198
   27  C  2 ZZ   -0.574872   0.068095   0.000000   0.243739  -0.028456
   28  C  2 XY   -0.024545  -0.360470   0.000000  -0.569042  -0.331447
   29  C  2 XZ    0.000000   0.000000   0.087696   0.000000   0.000000
   30  C  2 YZ    0.000000   0.000000   0.634821   0.000000   0.000000
   31  O  3  S   -0.000200  -0.027223   0.000000  -0.018566  -0.036735
   32  O  3  S   -0.244793   0.259979   0.000000  -0.120416  -0.582841
   33  O  3  X    0.135659  -0.287513   0.000000  -0.098952   0.087736
   34  O  3  Y    0.146261  -0.077934   0.000000  -0.119500  -0.025008
   35  O  3  Z    0.000000   0.000000   0.083947   0.000000   0.000000
   36  O  3  S    0.383052   0.027813   0.000000   0.725949   1.618228
   37  O  3  X   -0.016235   0.234153   0.000000  -0.130940  -0.572736
   38  O  3  Y   -0.204828   0.098506   0.000000   0.612465   0.446928
   39  O  3  Z    0.000000   0.000000  -0.295462   0.000000   0.000000
   40  O  3 XX   -0.115225  -0.277318   0.000000   0.034316   0.017523
   41  O  3 YY    0.247800   0.259318   0.000000   0.052537   0.535934
   42  O  3 ZZ   -0.276304   0.028074   0.000000  -0.114025  -0.765096
   43  O  3 XY    0.395922   0.086107   0.000000  -0.572546   0.036864
   44  O  3 XZ    0.000000   0.000000   0.646545   0.000000   0.000000
   45  O  3 YZ    0.000000   0.000000   0.031543   0.000000   0.000000
   46  H  4  S   -0.183680  -0.197928   0.000000  -0.343347  -0.877653
   47  H  4  S   -0.038719   0.032531   0.000000  -0.115615   0.042227
   48  H  5  S   -0.060264  -0.373288   0.000000   0.152531   0.057493
   49  H  5  S   -0.012324   0.097341   0.000000  -0.369914  -0.060921
   50  F  6  S   -0.020190   0.003312   0.000000   0.003409  -0.014506
   51  F  6  S   -0.312153  -0.832654   0.000000   0.337578   0.284767
   52  F  6  X   -0.100667  -0.386975   0.000000   0.143045   0.263770
   53  F  6  Y   -0.006003   0.031131   0.000000   0.053010   0.177453
   54  F  6  Z    0.000000   0.000000  -0.102684   0.000000   0.000000
   55  F  6  S    0.850015   1.434906   0.000000  -0.567742   0.099187
   56  F  6  X    0.246173   0.494617   0.000000  -0.192349   0.062385
   57  F  6  Y   -0.081817  -0.299450   0.000000  -0.035047  -0.188008
   58  F  6  Z    0.000000   0.000000   0.274322   0.000000   0.000000
   59  F  6 XX   -0.165969   0.062626   0.000000   0.191977   0.262819
   60  F  6 YY   -0.579163  -0.450073   0.000000  -0.258888  -0.005752
   61  F  6 ZZ    0.437203  -0.008498   0.000000   0.255946  -0.155317
   62  F  6 XY    0.239857  -0.453570   0.000000   0.050624  -0.208822
   63  F  6 XZ    0.000000   0.000000   0.464955   0.000000   0.000000
   64  F  6 YZ    0.000000   0.000000  -0.154038   0.000000   0.000000
   65  H  7  S   -0.189922  -0.072903   0.000000  -0.429747   0.167093
   66  H  7  S   -0.247286  -0.373515   0.000000   0.027388  -0.100239

                     56         57         58         59         60
                    2.5575     2.6067     2.7588     2.7871     2.9536
                     A          A          A          A          A   
    1  C  1  S    0.000000   0.056342   0.000000  -0.053390   0.054763
    2  C  1  S    0.000000  -0.186384   0.000000   0.095759   0.026332
[...]
   41  O  3 YY    0.000000   0.000000  -0.021584  -0.006968  -0.011679
   42  O  3 ZZ    0.000000   0.000000  -0.039340  -0.011452  -0.005754
   43  O  3 XY    0.000000   0.000000  -0.007770  -0.007691  -0.015284
   44  O  3 XZ   -0.002861  -0.010767   0.000000   0.000000   0.000000
   45  O  3 YZ    0.012567  -0.017540   0.000000   0.000000   0.000000
   46  H  4  S    0.000000   0.000000  -0.125904  -0.049905  -0.085908
   47  H  4  S    0.000000   0.000000  -1.239751  -0.420641  -0.438582
   48  H  5  S    0.000000   0.000000   0.016785   0.115600   0.055555
   49  H  5  S   -0.000000   0.000000   0.044344   1.078576   1.196030
   50  F  6  S    0.000000   0.000000   0.029956  -0.034970  -0.029685
   51  F  6  S    0.000000   0.000000  -0.052471   0.057466   0.061740
   52  F  6  X    0.000000   0.000000  -0.133360   0.150981   0.144963
   53  F  6  Y    0.000000   0.000000  -0.066049   0.025656   0.136253
   54  F  6  Z    0.266837   0.167827   0.000000   0.000000  -0.000000
   55  F  6  S    0.000000   0.000000  -0.260312   0.320847   0.224920
   56  F  6  X    0.000000   0.000000  -0.141045   0.192493   0.150073
   57  F  6  Y   -0.000000   0.000000  -0.108561   0.022448   0.178360
   58  F  6  Z    0.216691   0.175008   0.000000   0.000000   0.000000
   59  F  6 XX    0.000000   0.000000   0.009260  -0.013228  -0.009017
   60  F  6 YY    0.000000   0.000000   0.006809  -0.009506  -0.000750
   61  F  6 ZZ    0.000000   0.000000   0.007598  -0.009955  -0.007763
   62  F  6 XY    0.000000   0.000000  -0.003856   0.006259  -0.007749
   63  F  6 XZ   -0.001776  -0.007102   0.000000   0.000000   0.000000
   64  F  6 YZ    0.000624  -0.007975   0.000000   0.000000   0.000000
   65  H  7  S    0.000000   0.000000   0.044125  -0.065856   0.070416
   66  H  7  S   -0.000000   0.000000  -0.268293  -1.135345   1.700642

                     21         22         23         24         25
                    0.1773     0.2967     0.3833     0.5257     0.5289
                     A          A          A          A          A   
    1  C  1  S   -0.082280   0.012597  -0.099477  -0.037025   0.000000
    2  C  1  S    0.135448  -0.116605   0.151698  -0.221240   0.000000
    3  C  1  X   -0.151179  -0.237681   0.002560  -0.582835   0.000000
    4  C  1  Y   -0.128184  -0.105052  -0.363450   0.066420   0.000000
    5  C  1  Z    0.000000   0.000000  -0.000000  -0.000000  -0.755315
    6  C  1  S    0.639206  -0.361131   3.288556   0.006472   0.000000
    7  C  1  X   -0.491731  -1.504805   1.942803   1.317433  -0.000000
    8  C  1  Y   -0.327642  -0.757313  -1.925139  -0.339584   0.000000
    9  C  1  Z    0.000000  -0.000000   0.000000   0.000000   0.751965
   10  C  1 XX   -0.017378   0.028141  -0.035908  -0.075213   0.000000
   11  C  1 YY   -0.001063  -0.039760  -0.004152  -0.047411   0.000000
   12  C  1 ZZ    0.009654   0.018629   0.016155   0.025524  -0.000000
   13  C  1 XY   -0.002459   0.000766   0.002313   0.019604   0.000000
   14  C  1 XZ    0.000000   0.000000   0.000000  -0.000000  -0.025588
   15  C  1 YZ    0.000000   0.000000   0.000000   0.000000   0.036311
   16  C  2  S    0.120672  -0.079515   0.082683  -0.023428   0.000000
   17  C  2  S   -0.230448   0.021362  -0.127676  -0.222926   0.000000
   18  C  2  X   -0.074788   0.291754   0.065134   0.485592  -0.000000
   19  C  2  Y    0.130522   0.278838  -0.200477  -0.169793   0.000000
   20  C  2  Z   -0.000000   0.000000  -0.000000  -0.000000  -0.665674
   21  C  2  S   -1.475749   1.714858  -2.860310  -0.630147   0.000000
   22  C  2  X   -0.179266   1.189636   2.925732  -0.960998   0.000000
   23  C  2  Y    0.667036   1.388984  -1.321889   0.128655  -0.000000
   24  C  2  Z   -0.000000   0.000000   0.000000   0.000000   0.607556
   25  C  2 XX    0.039777  -0.013394   0.040515  -0.088613   0.000000
   26  C  2 YY   -0.020939  -0.022341  -0.016210  -0.030450   0.000000
   27  C  2 ZZ   -0.003578   0.024185  -0.001194   0.026597   0.000000
   28  C  2 XY    0.008327  -0.001361  -0.017693   0.034632  -0.000000
   29  C  2 XZ    0.000000   0.000000   0.000000   0.000000   0.025671
   30  C  2 YZ    0.000000   0.000000   0.000000  -0.000000  -0.035739
   31  O  3  S   -0.010464   0.081358   0.019950  -0.013889   0.000000
   32  O  3  S    0.057804  -0.095736   0.033829  -0.038664   0.000000
   33  O  3  X   -0.226593   0.227651  -0.073810   0.236030  -0.000000
   34  O  3  Y   -0.197457   0.167611   0.169453   0.005883   0.000000
   35  O  3  Z    0.000000   0.000000   0.000000  -0.000000  -0.105204
   36  O  3  S   -0.030888  -1.368368  -0.680614   0.623318  -0.000000
   37  O  3  X   -0.269261   0.846903   0.177016  -0.164925   0.000000
   38  O  3  Y   -0.410386   0.291800   0.490464  -0.049567   0.000000
   39  O  3  Z    0.000000   0.000000   0.000000  -0.000000  -0.033182
   40  O  3 XX    0.002011   0.016526  -0.024152   0.057490  -0.000000
   41  O  3 YY    0.005971   0.026128   0.059903  -0.055353   0.000000
   42  O  3 ZZ    0.011327   0.045627   0.022991  -0.016178   0.000000
   43  O  3 XY   -0.006593   0.005466  -0.022277   0.009168   0.000000
   44  O  3 XZ    0.000000   0.000000   0.000000   0.000000   0.022050
   45  O  3 YZ    0.000000   0.000000   0.000000   0.000000   0.014802
   46  H  4  S    0.073663  -0.029078   0.074059  -0.213893   0.000000
   47  H  4  S    0.632143  -0.322981  -0.576178  -0.056274   0.000000
   48  H  5  S   -0.004019  -0.117627  -0.026217  -0.009261   0.000000
   49  H  5  S    1.472483   0.695675  -0.358259   0.098657  -0.000000
   50  F  6  S    0.056493   0.065712   0.007797  -0.006587   0.000000
   51  F  6  S   -0.097940   0.010550   0.007551  -0.154925   0.000000
   52  F  6  X   -0.208480  -0.032592  -0.144934  -0.209626   0.000000
   53  F  6  Y   -0.039192  -0.119144   0.022412   0.084035  -0.000000
   54  F  6  Z    0.000000   0.000000   0.000000  -0.000000  -0.064244
   55  F  6  S   -0.561038  -1.046468  -0.057053   0.592720  -0.000000
   56  F  6  X   -0.308278  -0.315775  -0.184609   0.015116  -0.000000
   57  F  6  Y   -0.105981  -0.199166   0.176196   0.131259  -0.000000
   58  F  6  Z    0.000000   0.000000   0.000000  -0.000000  -0.076459
   59  F  6 XX    0.009340   0.036975   0.036571  -0.013529   0.000000
   60  F  6 YY    0.013451   0.067841  -0.003480  -0.067852   0.000000
   61  F  6 ZZ    0.015143   0.072296   0.014031  -0.070826   0.000000
   62  F  6 XY   -0.005841  -0.007178   0.024610   0.031043  -0.000000
   63  F  6 XZ    0.000000   0.000000   0.000000  -0.000000  -0.027539
   64  F  6 YZ    0.000000   0.000000   0.000000   0.000000  -0.016463
   65  H  7  S   -0.068382  -0.118019  -0.041989  -0.102430   0.000000
   66  H  7  S   -0.182177   0.720244   0.945174   0.295313  -0.000000

                     26
                    0.5819
                     A   
    1  C  1  S   -0.018030
    2  C  1  S   -0.773512
    3  C  1  X    0.549676
    4  C  1  Y    0.368134
    5  C  1  Z    0.000000
    6  C  1  S    1.431865
    7  C  1  X   -0.483180
    8  C  1  Y   -1.058056
    9  C  1  Z    0.000000
   10  C  1 XX   -0.013279
   11  C  1 YY   -0.077730
   12  C  1 ZZ    0.004097
   13  C  1 XY    0.098745
   14  C  1 XZ    0.000000
   15  C  1 YZ    0.000000
   16  C  2  S    0.020433
   17  C  2  S   -0.592402
   18  C  2  X    0.029969
   19  C  2  Y   -0.425375
   20  C  2  Z    0.000000
   21  C  2  S    0.234040
   22  C  2  X    0.602968
   23  C  2  Y    0.434759
   24  C  2  Z    0.000000
   25  C  2 XX   -0.028753
   26  C  2 YY   -0.034687
   27  C  2 ZZ   -0.008602
   28  C  2 XY   -0.009641
   29  C  2 XZ    0.000000
   30  C  2 YZ    0.000000
   31  O  3  S   -0.002797
   32  O  3  S    0.062612
   33  O  3  X   -0.090274
   34  O  3  Y    0.016173
   35  O  3  Z    0.000000
   36  O  3  S   -0.379693
   37  O  3  X    0.081900
   38  O  3  Y    0.024866
   39  O  3  Z    0.000000
   40  O  3 XX   -0.038495
   41  O  3 YY    0.034987
   42  O  3 ZZ    0.037595
   43  O  3 XY   -0.011604
   44  O  3 XZ    0.000000
   45  O  3 YZ    0.000000
   46  H  4  S    0.028381
   47  H  4  S   -0.156275
   48  H  5  S   -0.135763
   49  H  5  S   -0.004881
   50  F  6  S    0.010977
   51  F  6  S    0.000761
   52  F  6  X    0.217140
   53  F  6  Y    0.157003
   54  F  6  Z    0.000000
   55  F  6  S   -0.556845
   56  F  6  X   -0.198609
   57  F  6  Y   -0.015058
   58  F  6  Z    0.000000
   59  F  6 XX   -0.103842
   60  F  6 YY    0.001541
   61  F  6 ZZ    0.055311
   62  F  6 XY   -0.071872
   63  F  6 XZ    0.000000
   64  F  6 YZ    0.000000
   65  H  7  S   -0.212390
   66  H  7  S    0.326944

     ---------------------------------------------------------------------
     PROPERTIES FOR THE B3LYP    DFT FUNCTIONAL (RHF  TYPE) DENSITY MATRIX
     ---------------------------------------------------------------------

          -----------------
          ENERGY COMPONENTS
          -----------------

         WAVEFUNCTION NORMALIZATION =       1.0000000000

                ONE ELECTRON ENERGY =    -571.2632763026
                TWO ELECTRON ENERGY =     205.3897166539
           NUCLEAR REPULSION ENERGY =     112.9666497778
                                      ------------------
                       TOTAL ENERGY =    -252.9069098710

 ELECTRON-ELECTRON POTENTIAL ENERGY =     205.3897166539
  NUCLEUS-ELECTRON POTENTIAL ENERGY =    -822.2677873082
   NUCLEUS-NUCLEUS POTENTIAL ENERGY =     112.9666497778
                                      ------------------
             TOTAL POTENTIAL ENERGY =    -503.9114208766
               TOTAL KINETIC ENERGY =     251.0045110056
                 VIRIAL RATIO (V/T) =       2.0075791421

          ---------------------------------------
          MULLIKEN AND LOWDIN POPULATION ANALYSES
          ---------------------------------------

     ATOMIC MULLIKEN POPULATION IN EACH MOLECULAR ORBITAL

                      1          2          3          4          5

                  2.000000   2.000000   2.000000   2.000000   2.000000

    1            -0.000064  -0.000003   1.993927   0.006312   0.178988
    2            -0.000017  -0.000480   0.006219   1.993774   0.021204
    3            -0.000000   2.000614  -0.000011  -0.000510   0.000695
    4            -0.000000  -0.000128   0.000004   0.000004   0.000003
    5            -0.000001  -0.000002   0.000031   0.000412   0.000085
    6             2.000083  -0.000000  -0.000599  -0.000000   1.800943
    7            -0.000000  -0.000001   0.000428   0.000008  -0.001918

                      6          7          8          9         10

                  2.000000   2.000000   2.000000   2.000000   2.000000

    1             0.031684   0.763814   0.342905   0.528061   0.449661
    2             0.227696   0.761557   0.435252   0.320233   0.269023
    3             1.627557   0.190600   0.576085   0.410784   0.171292
    4             0.111252   0.032430   0.171514   0.118852   0.000774
    5             0.000152   0.044620   0.135632   0.011216   0.071772
    6             0.001848   0.168017   0.214398   0.445820   0.903536
    7            -0.000190   0.038962   0.124215   0.165033   0.133942

                     11         12         13         14         15

                  2.000000   2.000000   2.000000   2.000000   2.000000

    1             0.381681   0.139673   0.102483   0.012095   0.213380
    2             0.122402   0.540495   0.082124   0.407229   0.219260
    3             0.080140   0.366528   1.005210   1.321338   0.361626
    4             0.000000   0.031234   0.082760   0.000000   0.044794
    5             0.000000   0.417013   0.044523   0.000000   0.106047
    6             1.415776   0.376999   0.609362   0.259337   0.841221
    7            -0.000000   0.128058   0.073539   0.000000   0.213672

                     16

                  2.000000

    1             0.763949
    2             0.523685
    3             0.469002
    4             0.000000
    5            -0.000000
    6             0.243364
    7             0.000000

               ----- POPULATIONS IN EACH AO -----
                             MULLIKEN      LOWDIN
              1  C  1  S      1.99160     1.97655
              2  C  1  S      0.69595     0.36001
              3  C  1  X      0.60186     0.52595
              4  C  1  Y      0.72510     0.62903
              5  C  1  Z      0.67833     0.62195
              6  C  1  S      0.46657     0.30703
              7  C  1  X      0.10326     0.22954
              8  C  1  Y      0.15002     0.36824
              9  C  1  Z      0.46256     0.49951
             10  C  1 XX      0.00856     0.19037
             11  C  1 YY      0.01503     0.18267
             12  C  1 ZZ     -0.02632     0.10113
             13  C  1 XY      0.01918     0.04095
             14  C  1 XZ      0.01464     0.03198
             15  C  1 YZ      0.00220     0.00379
             16  C  2  S      1.99163     1.97666
             17  C  2  S      0.70446     0.35941
             18  C  2  X      0.66113     0.57533
             19  C  2  Y      0.75844     0.66450
             20  C  2  Z      0.61510     0.55862
             21  C  2  S      0.45584     0.29985
             22  C  2  X      0.09844     0.25363
             23  C  2  Y      0.19289     0.38205
             24  C  2  Z      0.41824     0.46350
             25  C  2 XX      0.01160     0.18961
             26  C  2 YY      0.01382     0.17644
             27  C  2 ZZ     -0.02773     0.09941
             28  C  2 XY      0.01583     0.03311
             29  C  2 XZ      0.01765     0.03869
             30  C  2 YZ      0.00233     0.00374
             31  O  3  S      1.99236     1.97594
             32  O  3  S      0.90703     0.71347
             33  O  3  X      0.91508     0.85564
             34  O  3  Y      0.88469     0.81789
             35  O  3  Z      1.12657     1.09604
             36  O  3  S      0.95776     0.45089
             37  O  3  X      0.54613     0.58956
             38  O  3  Y      0.48154     0.56561
             39  O  3  Z      0.73822     0.75328
             40  O  3 XX      0.00536     0.17923
             41  O  3 YY      0.02902     0.19941
             42  O  3 ZZ     -0.01165     0.15871
             43  O  3 XY      0.00316     0.00757
             44  O  3 XZ      0.00508     0.00960
             45  O  3 YZ      0.00061     0.00141
             46  H  4  S      0.47474     0.43336
             47  H  4  S      0.11875     0.21226
             48  H  5  S      0.52881     0.48363
             49  H  5  S      0.30269     0.34547
             50  F  6  S      1.99321     1.97690
             51  F  6  S      0.94868     0.85199
             52  F  6  X      0.96651     0.90832
             53  F  6  Y      1.15587     1.11492
             54  F  6  Z      1.18726     1.15533
             55  F  6  S      0.96644     0.51648
             56  F  6  X      0.58798     0.63027
             57  F  6  Y      0.69027     0.73936
             58  F  6  Z      0.72644     0.75122
             59  F  6 XX      0.02933     0.16986
             60  F  6 YY      0.01143     0.16174
             61  F  6 ZZ      0.00702     0.15853
             62  F  6 XY      0.00489     0.00856
             63  F  6 XZ      0.00412     0.00978
             64  F  6 YZ      0.00066     0.00156
             65  H  7  S      0.53252     0.48608
             66  H  7  S      0.34323     0.36685

          ----- MULLIKEN ATOMIC OVERLAP POPULATIONS -----
          (OFF-DIAGONAL ELEMENTS NEED TO BE MULTIPLIED BY 2)

             1           2           3           4           5

    1    4.8047903
    2    0.5476208   4.8791618
    3   -0.0245125   0.2811481   8.1253336
    4   -0.0064002  -0.0353843   0.2407060   0.3819976
    5   -0.0485076   0.3693425  -0.0413101   0.0066441   0.5404326
    6    0.2720911  -0.0293091   0.0007215  -0.0000068   0.0000480
    7    0.3634648  -0.0829216  -0.0011349   0.0059343   0.0048517

             6           7

    6    9.0727540
    7   -0.0361952   0.6217488

          TOTAL MULLIKEN AND LOWDIN ATOMIC POPULATIONS
       ATOM         MULL.POP.    CHARGE          LOW.POP.     CHARGE
    1 C             5.908547    0.091453         6.068725   -0.068725
    2 C             5.929658    0.070342         6.074540   -0.074540
    3 O             8.580952   -0.580952         8.374271   -0.374271
    4 H             0.593491    0.406509         0.645617    0.354383
    5 H             0.831501    0.168499         0.829106    0.170894
    6 F             9.280104   -0.280104         9.154807   -0.154807
    7 H             0.875748    0.124252         0.852934    0.147066

          -------------------------------
          BOND ORDER AND VALENCE ANALYSIS     BOND ORDER THRESHOLD=0.050
          -------------------------------

                   BOND                       BOND                       BOND
  ATOM PAIR DIST  ORDER      ATOM PAIR DIST  ORDER      ATOM PAIR DIST  ORDER
    1   2  1.332  1.775        1   3  2.405  0.115        1   6  1.355  0.962
    1   7  1.087  0.927        2   3  1.367  1.019        2   5  1.085  0.928
    2   6  2.335  0.086        3   4  0.971  0.778

                       TOTAL       BONDED        FREE
      ATOM            VALENCE     VALENCE     VALENCE
    1 C                 3.769       3.769      -0.000
    2 C                 3.792       3.792       0.000
    3 O                 1.919       1.919      -0.000
    4 H                 0.800       0.800      -0.000
    5 H                 0.932       0.932      -0.000
    6 F                 1.076       1.076      -0.000
    7 H                 0.934       0.934      -0.000

          ---------------------
          ELECTROSTATIC MOMENTS
          ---------------------

 POINT   1           X           Y           Z (BOHR)    CHARGE
                -0.059929   -0.023145   -0.000000       -0.00 (A.U.)
         DX          DY          DZ         /D/  (DEBYE)
     0.757377    1.584814   -0.000000    1.756490
 ...... END OF PROPERTY EVALUATION ......
 STEP CPU TIME =     0.02 TOTAL CPU TIME =         79.4 (      1.3 MIN)
 TOTAL WALL CLOCK TIME=         79.9 SECONDS, CPU UTILIZATION IS    99.34%
  $VIB   
          IVIB=   0 IATOM=   0 ICOORD=   0 E=     -252.9069098710
  5.190864470E-05 1.491255923E-05 0.000000000E+00-1.476745761E-05 2.106638456E-05
  0.000000000E+00-2.080206911E-05-5.172918292E-06 0.000000000E+00-2.992226482E-05
 -1.840113904E-05 0.000000000E+00 1.625501471E-05 1.302347599E-05 0.000000000E+00
 -2.274607652E-05-1.880085019E-05 0.000000000E+00 2.007420867E-05-6.627512260E-06
  0.000000000E+00
  7.573770354E-01 1.584814022E+00-9.811751649E-11
 ......END OF GEOMETRY SEARCH......
 STEP CPU TIME =     0.00 TOTAL CPU TIME =         79.4 (      1.3 MIN)
 TOTAL WALL CLOCK TIME=         79.9 SECONDS, CPU UTILIZATION IS    99.32%
                998100  WORDS OF DYNAMIC MEMORY USED
 EXECUTION OF GAMESS TERMINATED NORMALLY Thu Oct 17 23:49:39 2019
 DDI: 263640 bytes (0.3 MB / 0 MWords) used by master data server.

 ----------------------------------------
 CPU timing information for all processes
 ========================================
 0: 77.852 + 1.525 = 79.377
 ----------------------------------------
 ddikick.x: exited gracefully.
----- accounting info -----
Files used on the master node crcfe01.crc.nd.edu were:
-rw-r--r-- 1 cdrisko campus      525 Oct 17 23:48 /afs/crc.nd.edu/user/c/cdrisko/vinylAlcohol_opt.F05
-rw-r--r-- 1 cdrisko campus   322691 Oct 17 23:49 /afs/crc.nd.edu/user/c/cdrisko/vinylAlcohol_opt.F07
-rw-r--r-- 1 cdrisko campus 13681216 Oct 17 23:49 /afs/crc.nd.edu/user/c/cdrisko/vinylAlcohol_opt.F08
-rw-r--r-- 1 cdrisko campus  1799600 Oct 17 23:49 /afs/crc.nd.edu/user/c/cdrisko/vinylAlcohol_opt.F10
-rw-r--r-- 1 cdrisko campus  2041032 Oct 17 23:49 /afs/crc.nd.edu/user/c/cdrisko/vinylAlcohol_opt.F22
Thu Oct 17 23:49:42 EDT 2019
0.360u 0.180s 1:23.45 0.6%	0+0k 0+16io 0pf+0w
