   1   1   0   0
  0.1728000E+04  0.1200000E-08  0.1200000E-08  0.1200000E-08  0.5000000E-15
  1.000000000000000E-004
  CAR 
 unknown system                          
      2.13226511    -25.43138703  301    -10.06465096      1.00000000
    -25.431  0.0000E+00  0.0000E+00
    -25.340  0.0000E+00  0.0000E+00
    -25.248  0.0000E+00  0.0000E+00
    -25.156  0.0000E+00  0.0000E+00
    -25.064  0.0000E+00  0.0000E+00
    -24.972  0.0000E+00  0.0000E+00
    -24.880  0.0000E+00  0.0000E+00
    -24.788  0.0000E+00  0.0000E+00
    -24.696  0.0000E+00  0.0000E+00
    -24.604  0.0000E+00  0.0000E+00
    -24.513  0.0000E+00  0.0000E+00
    -24.421  0.0000E+00  0.0000E+00
    -24.329  0.0000E+00  0.0000E+00
    -24.237  0.1208E-14  0.1110E-15
    -24.145  0.2177E+02  0.2000E+01
    -24.053  0.0000E+00  0.2000E+01
    -23.961  0.0000E+00  0.2000E+01
    -23.869  0.0000E+00  0.2000E+01
    -23.778  0.0000E+00  0.2000E+01
    -23.686  0.0000E+00  0.2000E+01
    -23.594  0.0000E+00  0.2000E+01
    -23.502  0.0000E+00  0.2000E+01
    -23.410  0.0000E+00  0.2000E+01
    -23.318  0.0000E+00  0.2000E+01
    -23.226  0.0000E+00  0.2000E+01
    -23.134  0.0000E+00  0.2000E+01
    -23.043  0.0000E+00  0.2000E+01
    -22.951  0.0000E+00  0.2000E+01
    -22.859  0.0000E+00  0.2000E+01
    -22.767  0.0000E+00  0.2000E+01
    -22.675  0.0000E+00  0.2000E+01
    -22.583  0.0000E+00  0.2000E+01
    -22.491  0.0000E+00  0.2000E+01
    -22.399  0.0000E+00  0.2000E+01
    -22.308  0.0000E+00  0.2000E+01
    -22.216  0.0000E+00  0.2000E+01
    -22.124  0.0000E+00  0.2000E+01
    -22.032  0.0000E+00  0.2000E+01
    -21.940  0.0000E+00  0.2000E+01
    -21.848  0.0000E+00  0.2000E+01
    -21.756  0.0000E+00  0.2000E+01
    -21.664  0.0000E+00  0.2000E+01
    -21.572  0.0000E+00  0.2000E+01
    -21.481  0.0000E+00  0.2000E+01
    -21.389  0.0000E+00  0.2000E+01
    -21.297  0.0000E+00  0.2000E+01
    -21.205  0.0000E+00  0.2000E+01
    -21.113  0.0000E+00  0.2000E+01
    -21.021  0.0000E+00  0.2000E+01
    -20.929  0.0000E+00  0.2000E+01
    -20.837  0.0000E+00  0.2000E+01
    -20.746  0.0000E+00  0.2000E+01
    -20.654  0.0000E+00  0.2000E+01
    -20.562  0.0000E+00  0.2000E+01
    -20.470  0.0000E+00  0.2000E+01
    -20.378  0.0000E+00  0.2000E+01
    -20.286  0.0000E+00  0.2000E+01
    -20.194  0.0000E+00  0.2000E+01
    -20.102  0.0000E+00  0.2000E+01
    -20.011  0.0000E+00  0.2000E+01
    -19.919  0.0000E+00  0.2000E+01
    -19.827  0.0000E+00  0.2000E+01
    -19.735  0.0000E+00  0.2000E+01
    -19.643  0.0000E+00  0.2000E+01
    -19.551  0.0000E+00  0.2000E+01
    -19.459  0.0000E+00  0.2000E+01
    -19.367  0.0000E+00  0.2000E+01
    -19.276  0.0000E+00  0.2000E+01
    -19.184  0.0000E+00  0.2000E+01
    -19.092  0.0000E+00  0.2000E+01
    -19.000  0.0000E+00  0.2000E+01
    -18.908  0.0000E+00  0.2000E+01
    -18.816  0.0000E+00  0.2000E+01
    -18.724  0.0000E+00  0.2000E+01
    -18.632  0.0000E+00  0.2000E+01
    -18.540  0.0000E+00  0.2000E+01
    -18.449  0.0000E+00  0.2000E+01
    -18.357  0.0000E+00  0.2000E+01
    -18.265  0.0000E+00  0.2000E+01
    -18.173  0.0000E+00  0.2000E+01
    -18.081  0.0000E+00  0.2000E+01
    -17.989  0.0000E+00  0.2000E+01
    -17.897  0.0000E+00  0.2000E+01
    -17.805  0.0000E+00  0.2000E+01
    -17.714  0.0000E+00  0.2000E+01
    -17.622  0.0000E+00  0.2000E+01
    -17.530  0.0000E+00  0.2000E+01
    -17.438  0.0000E+00  0.2000E+01
    -17.346  0.0000E+00  0.2000E+01
    -17.254  0.0000E+00  0.2000E+01
    -17.162  0.0000E+00  0.2000E+01
    -17.070  0.0000E+00  0.2000E+01
    -16.979  0.0000E+00  0.2000E+01
    -16.887  0.0000E+00  0.2000E+01
    -16.795  0.0000E+00  0.2000E+01
    -16.703  0.0000E+00  0.2000E+01
    -16.611  0.0000E+00  0.2000E+01
    -16.519  0.0000E+00  0.2000E+01
    -16.427  0.0000E+00  0.2000E+01
    -16.335  0.0000E+00  0.2000E+01
    -16.244  0.0000E+00  0.2000E+01
    -16.152  0.0000E+00  0.2000E+01
    -16.060  0.0000E+00  0.2000E+01
    -15.968  0.0000E+00  0.2000E+01
    -15.876  0.0000E+00  0.2000E+01
    -15.784  0.0000E+00  0.2000E+01
    -15.692  0.0000E+00  0.2000E+01
    -15.600  0.0000E+00  0.2000E+01
    -15.508  0.0000E+00  0.2000E+01
    -15.417  0.0000E+00  0.2000E+01
    -15.325  0.0000E+00  0.2000E+01
    -15.233  0.0000E+00  0.2000E+01
    -15.141  0.0000E+00  0.2000E+01
    -15.049  0.0000E+00  0.2000E+01
    -14.957  0.0000E+00  0.2000E+01
    -14.865  0.0000E+00  0.2000E+01
    -14.773  0.0000E+00  0.2000E+01
    -14.682  0.0000E+00  0.2000E+01
    -14.590  0.0000E+00  0.2000E+01
    -14.498  0.0000E+00  0.2000E+01
    -14.406  0.0000E+00  0.2000E+01
    -14.314  0.0000E+00  0.2000E+01
    -14.222  0.0000E+00  0.2000E+01
    -14.130  0.0000E+00  0.2000E+01
    -14.038  0.0000E+00  0.2000E+01
    -13.947  0.0000E+00  0.2000E+01
    -13.855  0.0000E+00  0.2000E+01
    -13.763  0.0000E+00  0.2000E+01
    -13.671  0.0000E+00  0.2000E+01
    -13.579  0.0000E+00  0.2000E+01
    -13.487  0.0000E+00  0.2000E+01
    -13.395  0.0000E+00  0.2000E+01
    -13.303  0.0000E+00  0.2000E+01
    -13.212  0.0000E+00  0.2000E+01
    -13.120  0.0000E+00  0.2000E+01
    -13.028  0.0000E+00  0.2000E+01
    -12.936  0.0000E+00  0.2000E+01
    -12.844  0.0000E+00  0.2000E+01
    -12.752  0.0000E+00  0.2000E+01
    -12.660  0.0000E+00  0.2000E+01
    -12.568  0.0000E+00  0.2000E+01
    -12.476  0.0000E+00  0.2000E+01
    -12.385  0.0000E+00  0.2000E+01
    -12.293  0.0000E+00  0.2000E+01
    -12.201  0.0000E+00  0.2000E+01
    -12.109  0.0000E+00  0.2000E+01
    -12.017  0.0000E+00  0.2000E+01
    -11.925  0.0000E+00  0.2000E+01
    -11.833  0.0000E+00  0.2000E+01
    -11.741  0.0000E+00  0.2000E+01
    -11.650  0.0000E+00  0.2000E+01
    -11.558  0.0000E+00  0.2000E+01
    -11.466  0.0000E+00  0.2000E+01
    -11.374  0.0000E+00  0.2000E+01
    -11.282  0.0000E+00  0.2000E+01
    -11.190  0.0000E+00  0.2000E+01
    -11.098  0.0000E+00  0.2000E+01
    -11.006  0.0000E+00  0.2000E+01
    -10.915  0.0000E+00  0.2000E+01
    -10.823  0.0000E+00  0.2000E+01
    -10.731  0.0000E+00  0.2000E+01
    -10.639  0.0000E+00  0.2000E+01
    -10.547  0.0000E+00  0.2000E+01
    -10.455  0.0000E+00  0.2000E+01
    -10.363  0.0000E+00  0.2000E+01
    -10.271  0.0000E+00  0.2000E+01
    -10.179  0.2160E+00  0.2020E+01
    -10.088  0.6509E+02  0.8000E+01
     -9.996  0.0000E+00  0.8000E+01
     -9.904  0.0000E+00  0.8000E+01
     -9.812  0.0000E+00  0.8000E+01
     -9.720  0.0000E+00  0.8000E+01
     -9.628  0.0000E+00  0.8000E+01
     -9.536  0.0000E+00  0.8000E+01
     -9.444  0.0000E+00  0.8000E+01
     -9.353  0.0000E+00  0.8000E+01
     -9.261  0.0000E+00  0.8000E+01
     -9.169  0.0000E+00  0.8000E+01
     -9.077  0.0000E+00  0.8000E+01
     -8.985  0.0000E+00  0.8000E+01
     -8.893  0.0000E+00  0.8000E+01
     -8.801  0.0000E+00  0.8000E+01
     -8.709  0.0000E+00  0.8000E+01
     -8.618  0.0000E+00  0.8000E+01
     -8.526  0.0000E+00  0.8000E+01
     -8.434  0.0000E+00  0.8000E+01
     -8.342  0.0000E+00  0.8000E+01
     -8.250  0.0000E+00  0.8000E+01
     -8.158  0.0000E+00  0.8000E+01
     -8.066  0.0000E+00  0.8000E+01
     -7.974  0.0000E+00  0.8000E+01
     -7.883  0.0000E+00  0.8000E+01
     -7.791  0.0000E+00  0.8000E+01
     -7.699  0.0000E+00  0.8000E+01
     -7.607  0.0000E+00  0.8000E+01
     -7.515  0.0000E+00  0.8000E+01
     -7.423  0.0000E+00  0.8000E+01
     -7.331  0.0000E+00  0.8000E+01
     -7.239  0.0000E+00  0.8000E+01
     -7.147  0.0000E+00  0.8000E+01
     -7.056  0.0000E+00  0.8000E+01
     -6.964  0.0000E+00  0.8000E+01
     -6.872  0.0000E+00  0.8000E+01
     -6.780  0.0000E+00  0.8000E+01
     -6.688  0.0000E+00  0.8000E+01
     -6.596  0.0000E+00  0.8000E+01
     -6.504  0.0000E+00  0.8000E+01
     -6.412  0.0000E+00  0.8000E+01
     -6.321  0.0000E+00  0.8000E+01
     -6.229  0.0000E+00  0.8000E+01
     -6.137  0.0000E+00  0.8000E+01
     -6.045  0.0000E+00  0.8000E+01
     -5.953  0.0000E+00  0.8000E+01
     -5.861  0.0000E+00  0.8000E+01
     -5.769  0.0000E+00  0.8000E+01
     -5.677  0.0000E+00  0.8000E+01
     -5.586  0.0000E+00  0.8000E+01
     -5.494  0.0000E+00  0.8000E+01
     -5.402  0.0000E+00  0.8000E+01
     -5.310  0.0000E+00  0.8000E+01
     -5.218  0.0000E+00  0.8000E+01
     -5.126  0.0000E+00  0.8000E+01
     -5.034  0.0000E+00  0.8000E+01
     -4.942  0.0000E+00  0.8000E+01
     -4.851  0.0000E+00  0.8000E+01
     -4.759  0.0000E+00  0.8000E+01
     -4.667  0.0000E+00  0.8000E+01
     -4.575  0.0000E+00  0.8000E+01
     -4.483  0.0000E+00  0.8000E+01
     -4.391  0.0000E+00  0.8000E+01
     -4.299  0.0000E+00  0.8000E+01
     -4.207  0.0000E+00  0.8000E+01
     -4.115  0.0000E+00  0.8000E+01
     -4.024  0.0000E+00  0.8000E+01
     -3.932  0.0000E+00  0.8000E+01
     -3.840  0.0000E+00  0.8000E+01
     -3.748  0.0000E+00  0.8000E+01
     -3.656  0.0000E+00  0.8000E+01
     -3.564  0.0000E+00  0.8000E+01
     -3.472  0.0000E+00  0.8000E+01
     -3.380  0.0000E+00  0.8000E+01
     -3.289  0.0000E+00  0.8000E+01
     -3.197  0.0000E+00  0.8000E+01
     -3.105  0.0000E+00  0.8000E+01
     -3.013  0.0000E+00  0.8000E+01
     -2.921  0.0000E+00  0.8000E+01
     -2.829  0.0000E+00  0.8000E+01
     -2.737  0.0000E+00  0.8000E+01
     -2.645  0.0000E+00  0.8000E+01
     -2.554  0.0000E+00  0.8000E+01
     -2.462  0.0000E+00  0.8000E+01
     -2.370  0.0000E+00  0.8000E+01
     -2.278  0.0000E+00  0.8000E+01
     -2.186  0.0000E+00  0.8000E+01
     -2.094  0.0000E+00  0.8000E+01
     -2.002  0.0000E+00  0.8000E+01
     -1.910  0.0000E+00  0.8000E+01
     -1.819  0.0000E+00  0.8000E+01
     -1.727  0.0000E+00  0.8000E+01
     -1.635  0.0000E+00  0.8000E+01
     -1.543  0.0000E+00  0.8000E+01
     -1.451  0.0000E+00  0.8000E+01
     -1.359  0.0000E+00  0.8000E+01
     -1.267  0.0000E+00  0.8000E+01
     -1.175  0.0000E+00  0.8000E+01
     -1.083  0.0000E+00  0.8000E+01
     -0.992  0.0000E+00  0.8000E+01
     -0.900  0.0000E+00  0.8000E+01
     -0.808  0.0000E+00  0.8000E+01
     -0.716  0.0000E+00  0.8000E+01
     -0.624  0.0000E+00  0.8000E+01
     -0.532  0.0000E+00  0.8000E+01
     -0.440  0.0000E+00  0.8000E+01
     -0.348  0.2479E-02  0.8000E+01
     -0.257  0.2177E+02  0.1000E+02
     -0.165  0.0000E+00  0.1000E+02
     -0.073  0.0000E+00  0.1000E+02
      0.019  0.0000E+00  0.1000E+02
      0.111  0.0000E+00  0.1000E+02
      0.203  0.0000E+00  0.1000E+02
      0.295  0.0000E+00  0.1000E+02
      0.387  0.0000E+00  0.1000E+02
      0.478  0.0000E+00  0.1000E+02
      0.570  0.1126E-11  0.1000E+02
      0.662  0.2177E+02  0.1200E+02
      0.754  0.0000E+00  0.1200E+02
      0.846  0.5011E-04  0.1200E+02
      0.938  0.4354E+02  0.1600E+02
      1.030  0.0000E+00  0.1600E+02
      1.122  0.0000E+00  0.1600E+02
      1.213  0.0000E+00  0.1600E+02
      1.305  0.0000E+00  0.1600E+02
      1.397  0.0000E+00  0.1600E+02
      1.489  0.0000E+00  0.1600E+02
      1.581  0.0000E+00  0.1600E+02
      1.673  0.0000E+00  0.1600E+02
      1.765  0.0000E+00  0.1600E+02
      1.857  0.0000E+00  0.1600E+02
      1.949  0.0000E+00  0.1600E+02
      2.040  0.0000E+00  0.1600E+02
      2.132  0.0000E+00  0.1600E+02
