    1    1    1    1
  0.1728000E+04  0.1200000E-08  0.1200000E-08  0.1200000E-08  0.5000000E-15
  1.000000000000000E-004
  CAR 
 unknown system                          
      8      1      8
 
  0.0000000E+00  0.0000000E+00  0.0000000E+00  0.1000000E+01
    1      -24.178494   1.000000
    2      -10.160297   1.000000
    3      -10.160297   1.000000
    4      -10.160297   1.000000
    5       -0.322399   0.000000
    6        0.622908   0.000000
    7        0.879372   0.000000
    8        0.879372   0.000000
