       N       E                     dE             d eps       ncg     rms          rms(c)
DAV:   1     0.688665218214E+02    0.68867E+02   -0.15093E+03    24   0.463E+02
DAV:   2     0.147603776932E+02   -0.54106E+02   -0.54106E+02    32   0.748E+01
DAV:   3     0.623917951875E+00   -0.14136E+02   -0.14136E+02    16   0.602E+01
DAV:   4    -0.145218887908E-01   -0.63844E+00   -0.63844E+00    16   0.170E+01
DAV:   5    -0.231917288525E-01   -0.86698E-02   -0.86698E-02    16   0.229E+00    0.432E-02
DAV:   6    -0.234461197275E-01   -0.25439E-03   -0.22356E-03    16   0.398E-01    0.236E-02
DAV:   7    -0.234737043104E-01   -0.27585E-04   -0.10408E-04    32   0.989E-02
   1 F= -.23473704E-01 E0= -.23473704E-01  d E =-.315152E-41
