<?xml version="1.0" encoding="ISO-8859-1"?>
<modeling>
 <generator>
  <i name="program" type="string">vasp </i>
  <i name="version" type="string">5.4.1  </i>
  <i name="subversion" type="string">05Feb16 (build Feb 08 2018 09:21:51) complex                          parallel </i>
  <i name="platform" type="string">LinuxIFC </i>
  <i name="date" type="string">2019 11 07 </i>
  <i name="time" type="string">20:22:24 </i>
 </generator>
 <incar>
  <i type="string" name="PREC">normal</i>
  <i name="ENCUT">    500.00000000</i>
  <i type="int" name="ISMEAR">     0</i>
  <i name="SIGMA">      0.01000000</i>
  <i type="logical" name="LWAVE"> F  </i>
  <i type="logical" name="LCHARG"> F  </i>
  <v type="int" name="KPOINT_BSE">    -1     0     0     0</v>
 </incar>
 <kpoints>
  <generation param="Monkhorst-Pack">
   <v type="int" name="divisions">       1        1        1 </v>
   <v name="usershift">      0.00000000       0.00000000       0.00000000 </v>
   <v name="genvec1">      1.00000000       0.00000000       0.00000000 </v>
   <v name="genvec2">      0.00000000       1.00000000       0.00000000 </v>
   <v name="genvec3">      0.00000000       0.00000000       1.00000000 </v>
   <v name="shift">      0.00000000       0.00000000       0.00000000 </v>
  </generation>
  <varray name="kpointlist" >
   <v>       0.00000000       0.00000000       0.00000000 </v>
  </varray>
  <varray name="weights" >
   <v>       1.00000000 </v>
  </varray>
 </kpoints>
 <parameters>
  <separator name="general" >
   <i type="string" name="SYSTEM">unknown system</i>
   <i type="logical" name="LCOMPAT"> F  </i>
  </separator>
  <separator name="electronic" >
   <i type="string" name="PREC">normal</i>
   <i name="ENMAX">    500.00000000</i>
   <i name="ENAUG">    482.93000000</i>
   <i name="EDIFF">      0.00010000</i>
   <i type="int" name="IALGO">    38</i>
   <i type="int" name="IWAVPR">    10</i>
   <i type="int" name="NBANDS">     8</i>
   <i name="NELECT">      8.00000000</i>
   <i type="int" name="TURBO">     0</i>
   <i type="int" name="IRESTART">     0</i>
   <i type="int" name="NREBOOT">     0</i>
   <i type="int" name="NMIN">     0</i>
   <i name="EREF">      0.00000000</i>
   <separator name="electronic smearing" >
    <i type="int" name="ISMEAR">     0</i>
    <i name="SIGMA">      0.01000000</i>
    <i name="KSPACING">      0.50000000</i>
    <i type="logical" name="KGAMMA"> T  </i>
   </separator>
   <separator name="electronic projectors" >
    <i type="logical" name="LREAL"> F  </i>
    <v name="ROPT">      0.00000000</v>
    <i type="int" name="LMAXPAW">  -100</i>
    <i type="int" name="LMAXMIX">     2</i>
    <i type="logical" name="NLSPLINE"> F  </i>
   </separator>
   <separator name="electronic startup" >
    <i type="int" name="ISTART">     0</i>
    <i type="int" name="ICHARG">     2</i>
    <i type="int" name="INIWAV">     1</i>
   </separator>
   <separator name="electronic spin" >
    <i type="int" name="ISPIN">     1</i>
    <i type="logical" name="LNONCOLLINEAR"> F  </i>
    <v name="MAGMOM">      1.00000000</v>
    <i name="NUPDOWN">     -1.00000000</i>
    <i type="logical" name="LSORBIT"> F  </i>
    <v name="SAXIS">      0.00000000      0.00000000      1.00000000</v>
    <i type="logical" name="LSPIRAL"> F  </i>
    <v name="QSPIRAL">      0.00000000      0.00000000      0.00000000</v>
    <i type="logical" name="LZEROZ"> F  </i>
   </separator>
   <separator name="electronic exchange-correlation" >
    <i type="logical" name="LASPH"> F  </i>
    <i type="logical" name="LMETAGGA"> F  </i>
   </separator>
   <separator name="electronic convergence" >
    <i type="int" name="NELM">    60</i>
    <i type="int" name="NELMDL">    -5</i>
    <i type="int" name="NELMIN">     2</i>
    <i name="ENINI">    500.00000000</i>
    <separator name="electronic convergence detail" >
     <i type="logical" name="LDIAG"> T  </i>
     <i type="logical" name="LSUBROT"> F  </i>
     <i name="WEIMIN">      0.00000000</i>
     <i name="EBREAK">      0.00000313</i>
     <i name="DEPER">      0.30000000</i>
     <i type="int" name="NRMM">     4</i>
     <i name="TIME">      0.40000000</i>
    </separator>
   </separator>
   <separator name="electronic mixer" >
    <i name="AMIX">      0.40000000</i>
    <i name="BMIX">      1.00000000</i>
    <i name="AMIN">      0.10000000</i>
    <i name="AMIX_MAG">      1.60000000</i>
    <i name="BMIX_MAG">      1.00000000</i>
    <separator name="electronic mixer details" >
     <i type="int" name="IMIX">     4</i>
     <i type="logical" name="MIXFIRST"> F  </i>
     <i type="int" name="MAXMIX">   -45</i>
     <i name="WC">    100.00000000</i>
     <i type="int" name="INIMIX">     1</i>
     <i type="int" name="MIXPRE">     1</i>
     <i type="int" name="MREMOVE">     5</i>
    </separator>
   </separator>
   <separator name="electronic dipolcorrection" >
    <i type="logical" name="LDIPOL"> F  </i>
    <i type="logical" name="LMONO"> F  </i>
    <i type="int" name="IDIPOL">     0</i>
    <i name="EPSILON">      1.00000000</i>
    <v name="DIPOL">   -100.00000000   -100.00000000   -100.00000000</v>
    <i name="EFIELD">      0.00000000</i>
   </separator>
  </separator>
  <separator name="grids" >
   <i type="int" name="NGX">    70</i>
   <i type="int" name="NGY">    70</i>
   <i type="int" name="NGZ">    70</i>
   <i type="int" name="NGXF">   140</i>
   <i type="int" name="NGYF">   140</i>
   <i type="int" name="NGZF">   140</i>
   <i type="logical" name="ADDGRID"> F  </i>
  </separator>
  <separator name="ionic" >
   <i type="int" name="NSW">     0</i>
   <i type="int" name="IBRION">    -1</i>
   <i type="int" name="ISIF">     2</i>
   <i name="PSTRESS">      0.00000000</i>
   <i name="EDIFFG">      0.00100000</i>
   <i type="int" name="NFREE">     0</i>
   <i name="POTIM">      0.50000000</i>
   <i name="SMASS">     -3.00000000</i>
   <i name="SCALEE">      1.00000000</i>
  </separator>
  <separator name="ionic md" >
   <i name="TEBEG">      0.00010000</i>
   <i name="TEEND">      0.00010000</i>
   <i type="int" name="NBLOCK">     1</i>
   <i type="int" name="KBLOCK">     1</i>
   <i type="int" name="NPACO">   256</i>
   <i name="APACO">     16.00000000</i>
  </separator>
  <separator name="symmetry" >
   <i type="int" name="ISYM">     2</i>
   <i name="SYMPREC">      0.00001000</i>
  </separator>
  <separator name="dos" >
   <i type="logical" name="LORBIT"> F  </i>
   <v name="RWIGS">     -1.00000000</v>
   <i type="int" name="NEDOS">   301</i>
   <i name="EMIN">     10.00000000</i>
   <i name="EMAX">    -10.00000000</i>
   <i name="EFERMI">      0.00000000</i>
  </separator>
  <separator name="writing" >
   <i type="int" name="NWRITE">     2</i>
   <i type="logical" name="LWAVE"> F  </i>
   <i type="logical" name="LCHARG"> F  </i>
   <i type="logical" name="LPARD"> F  </i>
   <i type="logical" name="LVTOT"> F  </i>
   <i type="logical" name="LVHAR"> F  </i>
   <i type="logical" name="LELF"> F  </i>
   <i type="logical" name="LOPTICS"> F  </i>
   <v name="STM">      0.00000000      0.00000000      0.00000000      0.00000000      0.00000000      0.00000000      0.00000000</v>
  </separator>
  <separator name="performance" >
   <i type="int" name="NPAR">     8</i>
   <i type="int" name="NSIM">     4</i>
   <i type="int" name="NBLK">    -1</i>
   <i type="logical" name="LPLANE"> T  </i>
   <i type="logical" name="LSCALAPACK"> F  </i>
   <i type="logical" name="LSCAAWARE"> F  </i>
   <i type="logical" name="LSCALU"> F  </i>
   <i type="logical" name="LASYNC"> F  </i>
   <i type="logical" name="LORBITALREAL"> F  </i>
  </separator>
  <separator name="miscellaneous" >
   <i type="int" name="IDIOT">     3</i>
   <i type="logical" name="LMUSIC"> F  </i>
   <v name="POMASS">     39.94900000</v>
   <v name="DARWINR">      0.00000000</v>
   <v name="DARWINV">      1.00000000</v>
   <i type="logical" name="LCORR"> T  </i>
  </separator>
  <i type="logical" name="GGA_COMPAT"> T  </i>
  <i type="logical" name="LBERRY"> F  </i>
  <i type="int" name="ICORELEVEL">     0</i>
  <i type="logical" name="LDAU"> F  </i>
  <i type="int" name="I_CONSTRAINED_M">     0</i>
  <separator name="electronic exchange-correlation" >
   <i type="string" name="GGA">--</i>
   <i type="int" name="VOSKOWN">     0</i>
   <i type="logical" name="LHFCALC"> F  </i>
   <i type="string" name="PRECFOCK"></i>
   <i type="logical" name="LSYMGRAD"> F  </i>
   <i type="logical" name="LHFONE"> F  </i>
   <i type="logical" name="LRHFCALC"> F  </i>
   <i type="logical" name="LTHOMAS"> F  </i>
   <i type="logical" name="LMODELHF"> F  </i>
   <i name="ENCUT4O">     -1.00000000</i>
   <i type="int" name="EXXOEP">     0</i>
   <i type="int" name="FOURORBIT">     0</i>
   <i name="AEXX">      0.00000000</i>
   <i name="HFALPHA">      0.00000000</i>
   <i name="MCALPHA">      0.00000000</i>
   <i name="ALDAX">      1.00000000</i>
   <i name="AGGAX">      1.00000000</i>
   <i name="ALDAC">      1.00000000</i>
   <i name="AGGAC">      1.00000000</i>
   <i type="int" name="NKREDX">     1</i>
   <i type="int" name="NKREDY">     1</i>
   <i type="int" name="NKREDZ">     1</i>
   <i type="logical" name="SHIFTRED"> F  </i>
   <i type="logical" name="ODDONLY"> F  </i>
   <i type="logical" name="EVENONLY"> F  </i>
   <i type="int" name="LMAXFOCK">     0</i>
   <i type="int" name="NMAXFOCKAE">     0</i>
   <i type="logical" name="LFOCKAEDFT"> F  </i>
   <i name="HFSCREEN">      0.00000000</i>
   <i name="HFSCREENC">      0.00000000</i>
   <i type="int" name="NBANDSGWLOW">     0</i>
  </separator>
  <separator name="vdW DFT" >
   <i type="logical" name="LUSE_VDW"> F  </i>
   <i name="Zab_VDW">     -0.84910000</i>
   <i name="PARAM1">      0.12340000</i>
   <i name="PARAM2">      1.00000000</i>
   <i name="PARAM3">      0.00000000</i>
  </separator>
  <separator name="model GW" >
   <i type="int" name="MODEL_GW">     0</i>
   <i name="MODEL_EPS0">   1036.80000000</i>
   <i name="MODEL_ALPHA">      1.00000000</i>
  </separator>
  <separator name="linear response parameters" >
   <i type="logical" name="LEPSILON"> F  </i>
   <i type="logical" name="LRPA"> F  </i>
   <i type="logical" name="LNABLA"> F  </i>
   <i type="logical" name="LVEL"> F  </i>
   <i type="int" name="KINTER">     0</i>
   <i name="CSHIFT">      0.10000000</i>
   <i name="OMEGAMAX">     -1.00000000</i>
   <i name="DEG_THRESHOLD">      0.00200000</i>
  </separator>
  <separator name="orbital magnetization" >
   <i type="logical" name="NUCIND"> F  </i>
   <v name="MAGPOS">      0.00000000      0.00000000      0.00000000</v>
   <i type="logical" name="LNICSALL"> T  </i>
   <i type="logical" name="ORBITALMAG"> F  </i>
   <i type="logical" name="LMAGBLOCH"> F  </i>
   <i type="logical" name="LCHIMAG"> F  </i>
   <i type="logical" name="LGAUGE"> T  </i>
   <i type="int" name="MAGATOM">     0</i>
   <v name="MAGDIPOL">      0.00000000      0.00000000      0.00000000</v>
   <v name="AVECCONST">      0.00000000      0.00000000      0.00000000</v>
  </separator>
  <separator name="response functions" >
   <i type="logical" name="LADDER"> F  </i>
   <i type="logical" name="LFXC"> F  </i>
   <i type="logical" name="LHARTREE"> T  </i>
   <i type="int" name="IBSE">     0</i>
   <v type="int" name="KPOINT">    -1     0     0     0</v>
   <i type="logical" name="LTCTE"> F  </i>
   <i type="logical" name="LTETE"> F  </i>
   <i type="logical" name="LTRIPLET"> F  </i>
   <i type="logical" name="LFXCEPS"> F  </i>
   <i type="logical" name="LFXHEG"> F  </i>
   <i type="int" name="NATURALO">     0</i>
   <i type="logical" name="L2ORDER"> F  </i>
   <i type="logical" name="LUSEW"> F  </i>
   <i name="ENCUTGW">     -2.00000000</i>
   <i name="ENCUTGWSOFT">     -2.00000000</i>
   <i name="ENCUTLF">     -1.00000000</i>
   <i type="int" name="LMAXMP2">    -1</i>
   <i name="SCISSOR">      0.00000000</i>
   <i type="int" name="NOMEGA">     0</i>
   <i type="int" name="NOMEGAR">     0</i>
   <i type="int" name="NBANDSGW">    -1</i>
   <i type="int" name="NBANDSO">    -1</i>
   <i type="int" name="NBANDSV">    -1</i>
   <i type="int" name="NELM">     1</i>
   <i type="int" name="NELMHF">     1</i>
   <i type="int" name="DIM">     3</i>
   <i type="int" name="ANTIRES">     0</i>
   <i name="OMEGAMAX">    -30.00000000</i>
   <i name="OMEGAMIN">    -30.00000000</i>
   <i name="OMEGATL">   -200.00000000</i>
   <i type="int" name="OMEGAGRID">     0</i>
   <i name="CSHIFT">     -0.10000000</i>
   <i type="logical" name="SELFENERGY"> F  </i>
   <i type="logical" name="LSPECTRAL"> F  </i>
   <i type="logical" name="LSPECTRALGW"> F  </i>
   <i type="logical" name="LSINGLES"> F  </i>
   <i type="logical" name="LFERMIGW"> F  </i>
   <i type="logical" name="ODDONLYGW"> F  </i>
   <i type="logical" name="EVENONLYGW"> F  </i>
   <i type="int" name="NKREDLFX">     1</i>
   <i type="int" name="NKREDLFY">     1</i>
   <i type="int" name="NKREDLFZ">     1</i>
   <i type="int" name="MAXMEM">  1800</i>
   <i type="int" name="TELESCOPE">     0</i>
   <i type="int" name="TAUPAR">     1</i>
   <i type="int" name="OMEGAPAR">    -1</i>
   <i name="LAMBDA">      1.00000000</i>
  </separator>
  <separator name="External order field" >
   <i name="OFIELD_KAPPA">      0.00000000</i>
   <v name="OFIELD_K">      0.00000000      0.00000000      0.00000000</v>
   <i name="OFIELD_Q6_NEAR">      0.00000000</i>
   <i name="OFIELD_Q6_FAR">      0.00000000</i>
   <i name="OFIELD_A">      0.00000000</i>
  </separator>
 </parameters>
 <atominfo>
  <atoms>       1 </atoms>
  <types>       1 </types>
  <array name="atoms" >
   <dimension dim="1">ion</dimension>
   <field type="string">element</field>
   <field type="int">atomtype</field>
   <set>
    <rc><c>Ar</c><c>   1</c></rc>
   </set>
  </array>
  <array name="atomtypes" >
   <dimension dim="1">type</dimension>
   <field type="int">atomspertype</field>
   <field type="string">element</field>
   <field>mass</field>
   <field>valence</field>
   <field type="string">pseudopotential</field>
   <set>
    <rc><c>   1</c><c>Ar</c><c>     39.94900000</c><c>      8.00000000</c><c>  PAW_PBE Ar 07Sep2000                  </c></rc>
   </set>
  </array>
 </atominfo>
 <structure name="initialpos" >
  <crystal>
   <varray name="basis" >
    <v>      12.00000000       0.00000000       0.00000000 </v>
    <v>       0.00000000      12.00000000       0.00000000 </v>
    <v>       0.00000000       0.00000000      12.00000000 </v>
   </varray>
   <i name="volume">   1728.00000000 </i>
   <varray name="rec_basis" >
    <v>       0.08333333       0.00000000       0.00000000 </v>
    <v>       0.00000000       0.08333333       0.00000000 </v>
    <v>       0.00000000       0.00000000       0.08333333 </v>
   </varray>
  </crystal>
  <varray name="positions" >
   <v>       0.50000000       0.50000000       0.50000000 </v>
  </varray>
 </structure>
 <calculation>
  <scstep>
   <time name="dav">    0.11    0.11</time>
   <time name="total">    0.36    0.36</time>
   <energy>
    <i name="alphaZ">      0.08552978 </i>
    <i name="ewald">   -108.95061336 </i>
    <i name="hartreedc">   -385.56052840 </i>
    <i name="XCdc">     29.15724608 </i>
    <i name="pawpsdc">    464.39213177 </i>
    <i name="pawaedc">   -468.88429268 </i>
    <i name="eentropy">     -0.00000000 </i>
    <i name="bandstr">    -40.41628064 </i>
    <i name="atom">    579.04332929 </i>
    <i name="e_fr_energy">     68.86652182 </i>
    <i name="e_wo_entrp">     68.86652182 </i>
    <i name="e_0_energy">     68.86652182 </i>
   </energy>
  </scstep>
  <scstep>
   <time name="dav">    0.14    0.15</time>
   <time name="total">    0.14    0.16</time>
   <energy>
    <i name="e_fr_energy">     14.76037769 </i>
    <i name="e_wo_entrp">     14.76037769 </i>
    <i name="e_0_energy">     14.76037769 </i>
   </energy>
  </scstep>
  <scstep>
   <time name="dav">    0.07    0.07</time>
   <time name="total">    0.07    0.07</time>
   <energy>
    <i name="e_fr_energy">      0.62391795 </i>
    <i name="e_wo_entrp">      0.62391795 </i>
    <i name="e_0_energy">      0.62391795 </i>
   </energy>
  </scstep>
  <scstep>
   <time name="dav">    0.08    0.08</time>
   <time name="total">    0.08    0.08</time>
   <energy>
    <i name="e_fr_energy">     -0.01452189 </i>
    <i name="e_wo_entrp">     -0.01452189 </i>
    <i name="e_0_energy">     -0.01452189 </i>
   </energy>
  </scstep>
  <scstep>
   <time name="dav">    0.07    0.07</time>
   <time name="total">    0.15    0.17</time>
   <energy>
    <i name="e_fr_energy">     -0.02319173 </i>
    <i name="e_wo_entrp">     -0.02319173 </i>
    <i name="e_0_energy">     -0.02319173 </i>
   </energy>
  </scstep>
  <scstep>
   <time name="dav">    0.07    0.07</time>
   <time name="total">    0.38    0.38</time>
   <energy>
    <i name="e_fr_energy">     -0.02344612 </i>
    <i name="e_wo_entrp">     -0.02344612 </i>
    <i name="e_0_energy">     -0.02344612 </i>
   </energy>
  </scstep>
  <scstep>
   <time name="dav">    0.12    0.12</time>
   <time name="total">    0.36    0.36</time>
   <energy>
    <i name="alphaZ">      0.08552978 </i>
    <i name="ewald">   -108.95061336 </i>
    <i name="hartreedc">   -385.54608778 </i>
    <i name="XCdc">     29.15578863 </i>
    <i name="pawpsdc">    464.36397585 </i>
    <i name="pawaedc">   -468.85662623 </i>
    <i name="eentropy">     -0.00000000 </i>
    <i name="bandstr">   -109.31876988 </i>
    <i name="atom">    579.04332929 </i>
    <i name="e_fr_energy">     -0.02347370 </i>
    <i name="e_wo_entrp">     -0.02347370 </i>
    <i name="e_0_energy">     -0.02347370 </i>
   </energy>
  </scstep>
  <structure>
   <crystal>
    <varray name="basis" >
     <v>      12.00000000       0.00000000       0.00000000 </v>
     <v>       0.00000000      12.00000000       0.00000000 </v>
     <v>       0.00000000       0.00000000      12.00000000 </v>
    </varray>
    <i name="volume">   1728.00000000 </i>
    <varray name="rec_basis" >
     <v>       0.08333333       0.00000000       0.00000000 </v>
     <v>       0.00000000       0.08333333       0.00000000 </v>
     <v>       0.00000000       0.00000000       0.08333333 </v>
    </varray>
   </crystal>
   <varray name="positions" >
    <v>       0.50000000       0.50000000       0.50000000 </v>
   </varray>
  </structure>
  <varray name="forces" >
   <v>       0.00000000       0.00000000       0.00000000 </v>
  </varray>
  <varray name="stress" >
   <v>      -0.00270381       0.00000000      -0.00000000 </v>
   <v>      -0.00000000      -0.00270381      -0.00000000 </v>
   <v>       0.00000000      -0.00000000      -0.00270381 </v>
  </varray>
  <energy>
   <i name="e_fr_energy">     -0.02347370 </i>
   <i name="e_wo_entrp">     -0.02347370 </i>
   <i name="e_0_energy">     -0.00000000 </i>
  </energy>
  <time name="totalsc">    2.26    2.32</time>
  <eigenvalues>
   <array>
    <dimension dim="1">band</dimension>
    <dimension dim="2">kpoint</dimension>
    <dimension dim="3">spin</dimension>
    <field>eigene</field>
    <field>occ</field>
    <set>
     <set comment="spin 1">
      <set comment="kpoint 1">
       <r>  -24.1785    1.0000 </r>
       <r>  -10.1603    1.0000 </r>
       <r>  -10.1603    1.0000 </r>
       <r>  -10.1603    1.0000 </r>
       <r>   -0.3224    0.0000 </r>
       <r>    0.6229    0.0000 </r>
       <r>    0.8794    0.0000 </r>
       <r>    0.8794    0.0000 </r>
      </set>
     </set>
    </set>
   </array>
  </eigenvalues>
  <separator name="orbital magnetization" >
   <v name="MAGDIPOLOUT">      0.00000000      0.00000000      0.00000000</v>
  </separator>
  <dos>
   <i name="efermi">    -10.06465096 </i>
   <total>
    <array>
     <dimension dim="1">gridpoints</dimension>
     <dimension dim="2">spin</dimension>
     <field>energy</field>
     <field>total</field>
     <field>integrated</field>
     <set>
      <set comment="spin 1">
       <r>   -25.4314     0.0000     0.0000 </r>
       <r>   -25.3395     0.0000     0.0000 </r>
       <r>   -25.2476     0.0000     0.0000 </r>
       <r>   -25.1558     0.0000     0.0000 </r>
       <r>   -25.0639     0.0000     0.0000 </r>
       <r>   -24.9720     0.0000     0.0000 </r>
       <r>   -24.8801     0.0000     0.0000 </r>
       <r>   -24.7882     0.0000     0.0000 </r>
       <r>   -24.6964     0.0000     0.0000 </r>
       <r>   -24.6045     0.0000     0.0000 </r>
       <r>   -24.5126     0.0000     0.0000 </r>
       <r>   -24.4207     0.0000     0.0000 </r>
       <r>   -24.3288     0.0000     0.0000 </r>
       <r>   -24.2370     0.0000     0.0000 </r>
       <r>   -24.1451    21.7678     2.0000 </r>
       <r>   -24.0532     0.0000     2.0000 </r>
       <r>   -23.9613     0.0000     2.0000 </r>
       <r>   -23.8694     0.0000     2.0000 </r>
       <r>   -23.7776     0.0000     2.0000 </r>
       <r>   -23.6857     0.0000     2.0000 </r>
       <r>   -23.5938     0.0000     2.0000 </r>
       <r>   -23.5019     0.0000     2.0000 </r>
       <r>   -23.4101     0.0000     2.0000 </r>
       <r>   -23.3182     0.0000     2.0000 </r>
       <r>   -23.2263     0.0000     2.0000 </r>
       <r>   -23.1344     0.0000     2.0000 </r>
       <r>   -23.0425     0.0000     2.0000 </r>
       <r>   -22.9507     0.0000     2.0000 </r>
       <r>   -22.8588     0.0000     2.0000 </r>
       <r>   -22.7669     0.0000     2.0000 </r>
       <r>   -22.6750     0.0000     2.0000 </r>
       <r>   -22.5831     0.0000     2.0000 </r>
       <r>   -22.4913     0.0000     2.0000 </r>
       <r>   -22.3994     0.0000     2.0000 </r>
       <r>   -22.3075     0.0000     2.0000 </r>
       <r>   -22.2156     0.0000     2.0000 </r>
       <r>   -22.1237     0.0000     2.0000 </r>
       <r>   -22.0319     0.0000     2.0000 </r>
       <r>   -21.9400     0.0000     2.0000 </r>
       <r>   -21.8481     0.0000     2.0000 </r>
       <r>   -21.7562     0.0000     2.0000 </r>
       <r>   -21.6644     0.0000     2.0000 </r>
       <r>   -21.5725     0.0000     2.0000 </r>
       <r>   -21.4806     0.0000     2.0000 </r>
       <r>   -21.3887     0.0000     2.0000 </r>
       <r>   -21.2968     0.0000     2.0000 </r>
       <r>   -21.2050     0.0000     2.0000 </r>
       <r>   -21.1131     0.0000     2.0000 </r>
       <r>   -21.0212     0.0000     2.0000 </r>
       <r>   -20.9293     0.0000     2.0000 </r>
       <r>   -20.8374     0.0000     2.0000 </r>
       <r>   -20.7456     0.0000     2.0000 </r>
       <r>   -20.6537     0.0000     2.0000 </r>
       <r>   -20.5618     0.0000     2.0000 </r>
       <r>   -20.4699     0.0000     2.0000 </r>
       <r>   -20.3781     0.0000     2.0000 </r>
       <r>   -20.2862     0.0000     2.0000 </r>
       <r>   -20.1943     0.0000     2.0000 </r>
       <r>   -20.1024     0.0000     2.0000 </r>
       <r>   -20.0105     0.0000     2.0000 </r>
       <r>   -19.9187     0.0000     2.0000 </r>
       <r>   -19.8268     0.0000     2.0000 </r>
       <r>   -19.7349     0.0000     2.0000 </r>
       <r>   -19.6430     0.0000     2.0000 </r>
       <r>   -19.5511     0.0000     2.0000 </r>
       <r>   -19.4593     0.0000     2.0000 </r>
       <r>   -19.3674     0.0000     2.0000 </r>
       <r>   -19.2755     0.0000     2.0000 </r>
       <r>   -19.1836     0.0000     2.0000 </r>
       <r>   -19.0917     0.0000     2.0000 </r>
       <r>   -18.9999     0.0000     2.0000 </r>
       <r>   -18.9080     0.0000     2.0000 </r>
       <r>   -18.8161     0.0000     2.0000 </r>
       <r>   -18.7242     0.0000     2.0000 </r>
       <r>   -18.6324     0.0000     2.0000 </r>
       <r>   -18.5405     0.0000     2.0000 </r>
       <r>   -18.4486     0.0000     2.0000 </r>
       <r>   -18.3567     0.0000     2.0000 </r>
       <r>   -18.2648     0.0000     2.0000 </r>
       <r>   -18.1730     0.0000     2.0000 </r>
       <r>   -18.0811     0.0000     2.0000 </r>
       <r>   -17.9892     0.0000     2.0000 </r>
       <r>   -17.8973     0.0000     2.0000 </r>
       <r>   -17.8054     0.0000     2.0000 </r>
       <r>   -17.7136     0.0000     2.0000 </r>
       <r>   -17.6217     0.0000     2.0000 </r>
       <r>   -17.5298     0.0000     2.0000 </r>
       <r>   -17.4379     0.0000     2.0000 </r>
       <r>   -17.3460     0.0000     2.0000 </r>
       <r>   -17.2542     0.0000     2.0000 </r>
       <r>   -17.1623     0.0000     2.0000 </r>
       <r>   -17.0704     0.0000     2.0000 </r>
       <r>   -16.9785     0.0000     2.0000 </r>
       <r>   -16.8867     0.0000     2.0000 </r>
       <r>   -16.7948     0.0000     2.0000 </r>
       <r>   -16.7029     0.0000     2.0000 </r>
       <r>   -16.6110     0.0000     2.0000 </r>
       <r>   -16.5191     0.0000     2.0000 </r>
       <r>   -16.4273     0.0000     2.0000 </r>
       <r>   -16.3354     0.0000     2.0000 </r>
       <r>   -16.2435     0.0000     2.0000 </r>
       <r>   -16.1516     0.0000     2.0000 </r>
       <r>   -16.0597     0.0000     2.0000 </r>
       <r>   -15.9679     0.0000     2.0000 </r>
       <r>   -15.8760     0.0000     2.0000 </r>
       <r>   -15.7841     0.0000     2.0000 </r>
       <r>   -15.6922     0.0000     2.0000 </r>
       <r>   -15.6004     0.0000     2.0000 </r>
       <r>   -15.5085     0.0000     2.0000 </r>
       <r>   -15.4166     0.0000     2.0000 </r>
       <r>   -15.3247     0.0000     2.0000 </r>
       <r>   -15.2328     0.0000     2.0000 </r>
       <r>   -15.1410     0.0000     2.0000 </r>
       <r>   -15.0491     0.0000     2.0000 </r>
       <r>   -14.9572     0.0000     2.0000 </r>
       <r>   -14.8653     0.0000     2.0000 </r>
       <r>   -14.7734     0.0000     2.0000 </r>
       <r>   -14.6816     0.0000     2.0000 </r>
       <r>   -14.5897     0.0000     2.0000 </r>
       <r>   -14.4978     0.0000     2.0000 </r>
       <r>   -14.4059     0.0000     2.0000 </r>
       <r>   -14.3140     0.0000     2.0000 </r>
       <r>   -14.2222     0.0000     2.0000 </r>
       <r>   -14.1303     0.0000     2.0000 </r>
       <r>   -14.0384     0.0000     2.0000 </r>
       <r>   -13.9465     0.0000     2.0000 </r>
       <r>   -13.8547     0.0000     2.0000 </r>
       <r>   -13.7628     0.0000     2.0000 </r>
       <r>   -13.6709     0.0000     2.0000 </r>
       <r>   -13.5790     0.0000     2.0000 </r>
       <r>   -13.4871     0.0000     2.0000 </r>
       <r>   -13.3953     0.0000     2.0000 </r>
       <r>   -13.3034     0.0000     2.0000 </r>
       <r>   -13.2115     0.0000     2.0000 </r>
       <r>   -13.1196     0.0000     2.0000 </r>
       <r>   -13.0277     0.0000     2.0000 </r>
       <r>   -12.9359     0.0000     2.0000 </r>
       <r>   -12.8440     0.0000     2.0000 </r>
       <r>   -12.7521     0.0000     2.0000 </r>
       <r>   -12.6602     0.0000     2.0000 </r>
       <r>   -12.5683     0.0000     2.0000 </r>
       <r>   -12.4765     0.0000     2.0000 </r>
       <r>   -12.3846     0.0000     2.0000 </r>
       <r>   -12.2927     0.0000     2.0000 </r>
       <r>   -12.2008     0.0000     2.0000 </r>
       <r>   -12.1090     0.0000     2.0000 </r>
       <r>   -12.0171     0.0000     2.0000 </r>
       <r>   -11.9252     0.0000     2.0000 </r>
       <r>   -11.8333     0.0000     2.0000 </r>
       <r>   -11.7414     0.0000     2.0000 </r>
       <r>   -11.6496     0.0000     2.0000 </r>
       <r>   -11.5577     0.0000     2.0000 </r>
       <r>   -11.4658     0.0000     2.0000 </r>
       <r>   -11.3739     0.0000     2.0000 </r>
       <r>   -11.2820     0.0000     2.0000 </r>
       <r>   -11.1902     0.0000     2.0000 </r>
       <r>   -11.0983     0.0000     2.0000 </r>
       <r>   -11.0064     0.0000     2.0000 </r>
       <r>   -10.9145     0.0000     2.0000 </r>
       <r>   -10.8227     0.0000     2.0000 </r>
       <r>   -10.7308     0.0000     2.0000 </r>
       <r>   -10.6389     0.0000     2.0000 </r>
       <r>   -10.5470     0.0000     2.0000 </r>
       <r>   -10.4551     0.0000     2.0000 </r>
       <r>   -10.3633     0.0000     2.0000 </r>
       <r>   -10.2714     0.0000     2.0000 </r>
       <r>   -10.1795     0.2160     2.0198 </r>
       <r>   -10.0876    65.0874     8.0000 </r>
       <r>    -9.9957     0.0000     8.0000 </r>
       <r>    -9.9039     0.0000     8.0000 </r>
       <r>    -9.8120     0.0000     8.0000 </r>
       <r>    -9.7201     0.0000     8.0000 </r>
       <r>    -9.6282     0.0000     8.0000 </r>
       <r>    -9.5363     0.0000     8.0000 </r>
       <r>    -9.4445     0.0000     8.0000 </r>
       <r>    -9.3526     0.0000     8.0000 </r>
       <r>    -9.2607     0.0000     8.0000 </r>
       <r>    -9.1688     0.0000     8.0000 </r>
       <r>    -9.0770     0.0000     8.0000 </r>
       <r>    -8.9851     0.0000     8.0000 </r>
       <r>    -8.8932     0.0000     8.0000 </r>
       <r>    -8.8013     0.0000     8.0000 </r>
       <r>    -8.7094     0.0000     8.0000 </r>
       <r>    -8.6176     0.0000     8.0000 </r>
       <r>    -8.5257     0.0000     8.0000 </r>
       <r>    -8.4338     0.0000     8.0000 </r>
       <r>    -8.3419     0.0000     8.0000 </r>
       <r>    -8.2500     0.0000     8.0000 </r>
       <r>    -8.1582     0.0000     8.0000 </r>
       <r>    -8.0663     0.0000     8.0000 </r>
       <r>    -7.9744     0.0000     8.0000 </r>
       <r>    -7.8825     0.0000     8.0000 </r>
       <r>    -7.7906     0.0000     8.0000 </r>
       <r>    -7.6988     0.0000     8.0000 </r>
       <r>    -7.6069     0.0000     8.0000 </r>
       <r>    -7.5150     0.0000     8.0000 </r>
       <r>    -7.4231     0.0000     8.0000 </r>
       <r>    -7.3313     0.0000     8.0000 </r>
       <r>    -7.2394     0.0000     8.0000 </r>
       <r>    -7.1475     0.0000     8.0000 </r>
       <r>    -7.0556     0.0000     8.0000 </r>
       <r>    -6.9637     0.0000     8.0000 </r>
       <r>    -6.8719     0.0000     8.0000 </r>
       <r>    -6.7800     0.0000     8.0000 </r>
       <r>    -6.6881     0.0000     8.0000 </r>
       <r>    -6.5962     0.0000     8.0000 </r>
       <r>    -6.5043     0.0000     8.0000 </r>
       <r>    -6.4125     0.0000     8.0000 </r>
       <r>    -6.3206     0.0000     8.0000 </r>
       <r>    -6.2287     0.0000     8.0000 </r>
       <r>    -6.1368     0.0000     8.0000 </r>
       <r>    -6.0450     0.0000     8.0000 </r>
       <r>    -5.9531     0.0000     8.0000 </r>
       <r>    -5.8612     0.0000     8.0000 </r>
       <r>    -5.7693     0.0000     8.0000 </r>
       <r>    -5.6774     0.0000     8.0000 </r>
       <r>    -5.5856     0.0000     8.0000 </r>
       <r>    -5.4937     0.0000     8.0000 </r>
       <r>    -5.4018     0.0000     8.0000 </r>
       <r>    -5.3099     0.0000     8.0000 </r>
       <r>    -5.2180     0.0000     8.0000 </r>
       <r>    -5.1262     0.0000     8.0000 </r>
       <r>    -5.0343     0.0000     8.0000 </r>
       <r>    -4.9424     0.0000     8.0000 </r>
       <r>    -4.8505     0.0000     8.0000 </r>
       <r>    -4.7586     0.0000     8.0000 </r>
       <r>    -4.6668     0.0000     8.0000 </r>
       <r>    -4.5749     0.0000     8.0000 </r>
       <r>    -4.4830     0.0000     8.0000 </r>
       <r>    -4.3911     0.0000     8.0000 </r>
       <r>    -4.2993     0.0000     8.0000 </r>
       <r>    -4.2074     0.0000     8.0000 </r>
       <r>    -4.1155     0.0000     8.0000 </r>
       <r>    -4.0236     0.0000     8.0000 </r>
       <r>    -3.9317     0.0000     8.0000 </r>
       <r>    -3.8399     0.0000     8.0000 </r>
       <r>    -3.7480     0.0000     8.0000 </r>
       <r>    -3.6561     0.0000     8.0000 </r>
       <r>    -3.5642     0.0000     8.0000 </r>
       <r>    -3.4723     0.0000     8.0000 </r>
       <r>    -3.3805     0.0000     8.0000 </r>
       <r>    -3.2886     0.0000     8.0000 </r>
       <r>    -3.1967     0.0000     8.0000 </r>
       <r>    -3.1048     0.0000     8.0000 </r>
       <r>    -3.0129     0.0000     8.0000 </r>
       <r>    -2.9211     0.0000     8.0000 </r>
       <r>    -2.8292     0.0000     8.0000 </r>
       <r>    -2.7373     0.0000     8.0000 </r>
       <r>    -2.6454     0.0000     8.0000 </r>
       <r>    -2.5536     0.0000     8.0000 </r>
       <r>    -2.4617     0.0000     8.0000 </r>
       <r>    -2.3698     0.0000     8.0000 </r>
       <r>    -2.2779     0.0000     8.0000 </r>
       <r>    -2.1860     0.0000     8.0000 </r>
       <r>    -2.0942     0.0000     8.0000 </r>
       <r>    -2.0023     0.0000     8.0000 </r>
       <r>    -1.9104     0.0000     8.0000 </r>
       <r>    -1.8185     0.0000     8.0000 </r>
       <r>    -1.7266     0.0000     8.0000 </r>
       <r>    -1.6348     0.0000     8.0000 </r>
       <r>    -1.5429     0.0000     8.0000 </r>
       <r>    -1.4510     0.0000     8.0000 </r>
       <r>    -1.3591     0.0000     8.0000 </r>
       <r>    -1.2673     0.0000     8.0000 </r>
       <r>    -1.1754     0.0000     8.0000 </r>
       <r>    -1.0835     0.0000     8.0000 </r>
       <r>    -0.9916     0.0000     8.0000 </r>
       <r>    -0.8997     0.0000     8.0000 </r>
       <r>    -0.8079     0.0000     8.0000 </r>
       <r>    -0.7160     0.0000     8.0000 </r>
       <r>    -0.6241     0.0000     8.0000 </r>
       <r>    -0.5322     0.0000     8.0000 </r>
       <r>    -0.4403     0.0000     8.0000 </r>
       <r>    -0.3485     0.0025     8.0002 </r>
       <r>    -0.2566    21.7653    10.0000 </r>
       <r>    -0.1647     0.0000    10.0000 </r>
       <r>    -0.0728     0.0000    10.0000 </r>
       <r>     0.0191     0.0000    10.0000 </r>
       <r>     0.1109     0.0000    10.0000 </r>
       <r>     0.2028     0.0000    10.0000 </r>
       <r>     0.2947     0.0000    10.0000 </r>
       <r>     0.3866     0.0000    10.0000 </r>
       <r>     0.4784     0.0000    10.0000 </r>
       <r>     0.5703     0.0000    10.0000 </r>
       <r>     0.6622    21.7678    12.0000 </r>
       <r>     0.7541     0.0000    12.0000 </r>
       <r>     0.8460     0.0001    12.0000 </r>
       <r>     0.9378    43.5355    16.0000 </r>
       <r>     1.0297     0.0000    16.0000 </r>
       <r>     1.1216     0.0000    16.0000 </r>
       <r>     1.2135     0.0000    16.0000 </r>
       <r>     1.3054     0.0000    16.0000 </r>
       <r>     1.3972     0.0000    16.0000 </r>
       <r>     1.4891     0.0000    16.0000 </r>
       <r>     1.5810     0.0000    16.0000 </r>
       <r>     1.6729     0.0000    16.0000 </r>
       <r>     1.7647     0.0000    16.0000 </r>
       <r>     1.8566     0.0000    16.0000 </r>
       <r>     1.9485     0.0000    16.0000 </r>
       <r>     2.0404     0.0000    16.0000 </r>
       <r>     2.1323     0.0000    16.0000 </r>
      </set>
     </set>
    </array>
   </total>
  </dos>
 </calculation>
 <structure name="finalpos" >
  <crystal>
   <varray name="basis" >
    <v>      12.00000000       0.00000000       0.00000000 </v>
    <v>       0.00000000      12.00000000       0.00000000 </v>
    <v>       0.00000000       0.00000000      12.00000000 </v>
   </varray>
   <i name="volume">   1728.00000000 </i>
   <varray name="rec_basis" >
    <v>       0.08333333       0.00000000       0.00000000 </v>
    <v>       0.00000000       0.08333333       0.00000000 </v>
    <v>       0.00000000       0.00000000       0.08333333 </v>
   </varray>
  </crystal>
  <varray name="positions" >
   <v>       0.50000000       0.50000000       0.50000000 </v>
  </varray>
 </structure>
</modeling>
