<?xml version="1.0" encoding="ISO-8859-1"?>
<modeling>
 <generator>
  <i name="program" type="string">vasp </i>
  <i name="version" type="string">5.4.1  </i>
  <i name="subversion" type="string">05Feb16 (build Feb 08 2018 09:21:51) complex                          parallel </i>
  <i name="platform" type="string">LinuxIFC </i>
  <i name="date" type="string">2019 11 21 </i>
  <i name="time" type="string">13:19:54 </i>
 </generator>
 <incar>
  <i type="string" name="PREC">normal</i>
  <i name="ENCUT">    400.00000000</i>
  <i type="int" name="ISMEAR">     1</i>
  <i name="SIGMA">      0.10000000</i>
  <i type="logical" name="LWAVE"> F  </i>
  <i type="logical" name="LCHARG"> F  </i>
  <v type="int" name="KPOINT_BSE">    -1     0     0     0</v>
 </incar>
 <kpoints>
  <generation param="Monkhorst-Pack">
   <v type="int" name="divisions">       9        9        9 </v>
   <v name="usershift">      0.00000000       0.00000000       0.00000000 </v>
   <v name="genvec1">      0.11111111       0.00000000       0.00000000 </v>
   <v name="genvec2">      0.00000000       0.11111111       0.00000000 </v>
   <v name="genvec3">      0.00000000       0.00000000       0.11111111 </v>
   <v name="shift">      0.00000000       0.00000000       0.00000000 </v>
  </generation>
  <varray name="kpointlist" >
   <v>       0.00000000       0.00000000       0.00000000 </v>
   <v>       0.11111111       0.00000000       0.00000000 </v>
   <v>       0.22222222       0.00000000       0.00000000 </v>
   <v>       0.33333333       0.00000000       0.00000000 </v>
   <v>       0.44444444       0.00000000       0.00000000 </v>
   <v>       0.11111111       0.11111111       0.00000000 </v>
   <v>       0.22222222       0.11111111       0.00000000 </v>
   <v>       0.33333333       0.11111111       0.00000000 </v>
   <v>       0.44444444       0.11111111       0.00000000 </v>
   <v>       0.22222222       0.22222222       0.00000000 </v>
   <v>       0.33333333       0.22222222       0.00000000 </v>
   <v>       0.44444444       0.22222222       0.00000000 </v>
   <v>       0.33333333       0.33333333       0.00000000 </v>
   <v>       0.44444444       0.33333333       0.00000000 </v>
   <v>       0.44444444       0.44444444       0.00000000 </v>
   <v>       0.11111111       0.11111111       0.11111111 </v>
   <v>       0.22222222       0.11111111       0.11111111 </v>
   <v>       0.33333333       0.11111111       0.11111111 </v>
   <v>       0.44444444       0.11111111       0.11111111 </v>
   <v>       0.22222222       0.22222222       0.11111111 </v>
   <v>       0.33333333       0.22222222       0.11111111 </v>
   <v>       0.44444444       0.22222222       0.11111111 </v>
   <v>       0.33333333       0.33333333       0.11111111 </v>
   <v>       0.44444444       0.33333333       0.11111111 </v>
   <v>       0.44444444       0.44444444       0.11111111 </v>
   <v>       0.22222222       0.22222222       0.22222222 </v>
   <v>       0.33333333       0.22222222       0.22222222 </v>
   <v>       0.44444444       0.22222222       0.22222222 </v>
   <v>       0.33333333       0.33333333       0.22222222 </v>
   <v>       0.44444444       0.33333333       0.22222222 </v>
   <v>       0.44444444       0.44444444       0.22222222 </v>
   <v>       0.33333333       0.33333333       0.33333333 </v>
   <v>       0.44444444       0.33333333       0.33333333 </v>
   <v>       0.44444444       0.44444444       0.33333333 </v>
   <v>       0.44444444       0.44444444       0.44444444 </v>
  </varray>
  <varray name="weights" >
   <v>       0.00137174 </v>
   <v>       0.00823045 </v>
   <v>       0.00823045 </v>
   <v>       0.00823045 </v>
   <v>       0.00823045 </v>
   <v>       0.01646091 </v>
   <v>       0.03292181 </v>
   <v>       0.03292181 </v>
   <v>       0.03292181 </v>
   <v>       0.01646091 </v>
   <v>       0.03292181 </v>
   <v>       0.03292181 </v>
   <v>       0.01646091 </v>
   <v>       0.03292181 </v>
   <v>       0.01646091 </v>
   <v>       0.01097394 </v>
   <v>       0.03292181 </v>
   <v>       0.03292181 </v>
   <v>       0.03292181 </v>
   <v>       0.03292181 </v>
   <v>       0.06584362 </v>
   <v>       0.06584362 </v>
   <v>       0.03292181 </v>
   <v>       0.06584362 </v>
   <v>       0.03292181 </v>
   <v>       0.01097394 </v>
   <v>       0.03292181 </v>
   <v>       0.03292181 </v>
   <v>       0.03292181 </v>
   <v>       0.06584362 </v>
   <v>       0.03292181 </v>
   <v>       0.01097394 </v>
   <v>       0.03292181 </v>
   <v>       0.03292181 </v>
   <v>       0.01097394 </v>
  </varray>
 </kpoints>
 <parameters>
  <separator name="general" >
   <i type="string" name="SYSTEM">unknown system</i>
   <i type="logical" name="LCOMPAT"> F  </i>
  </separator>
  <separator name="electronic" >
   <i type="string" name="PREC">normal</i>
   <i name="ENMAX">    400.00000000</i>
   <i name="ENAUG">    356.67000000</i>
   <i name="EDIFF">      0.00010000</i>
   <i type="int" name="IALGO">    38</i>
   <i type="int" name="IWAVPR">    10</i>
   <i type="int" name="NBANDS">    48</i>
   <i name="NELECT">     44.00000000</i>
   <i type="int" name="TURBO">     0</i>
   <i type="int" name="IRESTART">     0</i>
   <i type="int" name="NREBOOT">     0</i>
   <i type="int" name="NMIN">     0</i>
   <i name="EREF">      0.00000000</i>
   <separator name="electronic smearing" >
    <i type="int" name="ISMEAR">     1</i>
    <i name="SIGMA">      0.10000000</i>
    <i name="KSPACING">      0.50000000</i>
    <i type="logical" name="KGAMMA"> T  </i>
   </separator>
   <separator name="electronic projectors" >
    <i type="logical" name="LREAL"> F  </i>
    <v name="ROPT">      0.00000000</v>
    <i type="int" name="LMAXPAW">  -100</i>
    <i type="int" name="LMAXMIX">     2</i>
    <i type="logical" name="NLSPLINE"> F  </i>
   </separator>
   <separator name="electronic startup" >
    <i type="int" name="ISTART">     0</i>
    <i type="int" name="ICHARG">     2</i>
    <i type="int" name="INIWAV">     1</i>
   </separator>
   <separator name="electronic spin" >
    <i type="int" name="ISPIN">     1</i>
    <i type="logical" name="LNONCOLLINEAR"> F  </i>
    <v name="MAGMOM">      1.00000000      1.00000000      1.00000000      1.00000000</v>
    <i name="NUPDOWN">     -1.00000000</i>
    <i type="logical" name="LSORBIT"> F  </i>
    <v name="SAXIS">      0.00000000      0.00000000      1.00000000</v>
    <i type="logical" name="LSPIRAL"> F  </i>
    <v name="QSPIRAL">      0.00000000      0.00000000      0.00000000</v>
    <i type="logical" name="LZEROZ"> F  </i>
   </separator>
   <separator name="electronic exchange-correlation" >
    <i type="logical" name="LASPH"> F  </i>
    <i type="logical" name="LMETAGGA"> F  </i>
   </separator>
   <separator name="electronic convergence" >
    <i type="int" name="NELM">    60</i>
    <i type="int" name="NELMDL">    -5</i>
    <i type="int" name="NELMIN">     2</i>
    <i name="ENINI">    400.00000000</i>
    <separator name="electronic convergence detail" >
     <i type="logical" name="LDIAG"> T  </i>
     <i type="logical" name="LSUBROT"> F  </i>
     <i name="WEIMIN">      0.00000000</i>
     <i name="EBREAK">      0.00000052</i>
     <i name="DEPER">      0.30000000</i>
     <i type="int" name="NRMM">     4</i>
     <i name="TIME">      0.40000000</i>
    </separator>
   </separator>
   <separator name="electronic mixer" >
    <i name="AMIX">      0.40000000</i>
    <i name="BMIX">      1.00000000</i>
    <i name="AMIN">      0.10000000</i>
    <i name="AMIX_MAG">      1.60000000</i>
    <i name="BMIX_MAG">      1.00000000</i>
    <separator name="electronic mixer details" >
     <i type="int" name="IMIX">     4</i>
     <i type="logical" name="MIXFIRST"> F  </i>
     <i type="int" name="MAXMIX">   -45</i>
     <i name="WC">    100.00000000</i>
     <i type="int" name="INIMIX">     1</i>
     <i type="int" name="MIXPRE">     1</i>
     <i type="int" name="MREMOVE">     5</i>
    </separator>
   </separator>
   <separator name="electronic dipolcorrection" >
    <i type="logical" name="LDIPOL"> F  </i>
    <i type="logical" name="LMONO"> F  </i>
    <i type="int" name="IDIPOL">     0</i>
    <i name="EPSILON">      1.00000000</i>
    <v name="DIPOL">   -100.00000000   -100.00000000   -100.00000000</v>
    <i name="EFIELD">      0.00000000</i>
   </separator>
  </separator>
  <separator name="grids" >
   <i type="int" name="NGX">    20</i>
   <i type="int" name="NGY">    20</i>
   <i type="int" name="NGZ">    20</i>
   <i type="int" name="NGXF">    40</i>
   <i type="int" name="NGYF">    40</i>
   <i type="int" name="NGZF">    40</i>
   <i type="logical" name="ADDGRID"> F  </i>
  </separator>
  <separator name="ionic" >
   <i type="int" name="NSW">     0</i>
   <i type="int" name="IBRION">    -1</i>
   <i type="int" name="ISIF">     2</i>
   <i name="PSTRESS">      0.00000000</i>
   <i name="EDIFFG">      0.00100000</i>
   <i type="int" name="NFREE">     0</i>
   <i name="POTIM">      0.50000000</i>
   <i name="SMASS">     -3.00000000</i>
   <i name="SCALEE">      1.00000000</i>
  </separator>
  <separator name="ionic md" >
   <i name="TEBEG">      0.00010000</i>
   <i name="TEEND">      0.00010000</i>
   <i type="int" name="NBLOCK">     1</i>
   <i type="int" name="KBLOCK">     1</i>
   <i type="int" name="NPACO">   256</i>
   <i name="APACO">     16.00000000</i>
  </separator>
  <separator name="symmetry" >
   <i type="int" name="ISYM">     2</i>
   <i name="SYMPREC">      0.00001000</i>
  </separator>
  <separator name="dos" >
   <i type="logical" name="LORBIT"> F  </i>
   <v name="RWIGS">     -1.00000000</v>
   <i type="int" name="NEDOS">   301</i>
   <i name="EMIN">     10.00000000</i>
   <i name="EMAX">    -10.00000000</i>
   <i name="EFERMI">      0.00000000</i>
  </separator>
  <separator name="writing" >
   <i type="int" name="NWRITE">     2</i>
   <i type="logical" name="LWAVE"> F  </i>
   <i type="logical" name="LCHARG"> F  </i>
   <i type="logical" name="LPARD"> F  </i>
   <i type="logical" name="LVTOT"> F  </i>
   <i type="logical" name="LVHAR"> F  </i>
   <i type="logical" name="LELF"> F  </i>
   <i type="logical" name="LOPTICS"> F  </i>
   <v name="STM">      0.00000000      0.00000000      0.00000000      0.00000000      0.00000000      0.00000000      0.00000000</v>
  </separator>
  <separator name="performance" >
   <i type="int" name="NPAR">    24</i>
   <i type="int" name="NSIM">     4</i>
   <i type="int" name="NBLK">    -1</i>
   <i type="logical" name="LPLANE"> T  </i>
   <i type="logical" name="LSCALAPACK"> F  </i>
   <i type="logical" name="LSCAAWARE"> F  </i>
   <i type="logical" name="LSCALU"> F  </i>
   <i type="logical" name="LASYNC"> F  </i>
   <i type="logical" name="LORBITALREAL"> F  </i>
  </separator>
  <separator name="miscellaneous" >
   <i type="int" name="IDIOT">     3</i>
   <i type="logical" name="LMUSIC"> F  </i>
   <v name="POMASS">    196.96600000</v>
   <v name="DARWINR">      0.00000000</v>
   <v name="DARWINV">      1.00000000</v>
   <i type="logical" name="LCORR"> T  </i>
  </separator>
  <i type="logical" name="GGA_COMPAT"> T  </i>
  <i type="logical" name="LBERRY"> F  </i>
  <i type="int" name="ICORELEVEL">     0</i>
  <i type="logical" name="LDAU"> F  </i>
  <i type="int" name="I_CONSTRAINED_M">     0</i>
  <separator name="electronic exchange-correlation" >
   <i type="string" name="GGA">--</i>
   <i type="int" name="VOSKOWN">     0</i>
   <i type="logical" name="LHFCALC"> F  </i>
   <i type="string" name="PRECFOCK"></i>
   <i type="logical" name="LSYMGRAD"> F  </i>
   <i type="logical" name="LHFONE"> F  </i>
   <i type="logical" name="LRHFCALC"> F  </i>
   <i type="logical" name="LTHOMAS"> F  </i>
   <i type="logical" name="LMODELHF"> F  </i>
   <i name="ENCUT4O">     -1.00000000</i>
   <i type="int" name="EXXOEP">     0</i>
   <i type="int" name="FOURORBIT">     0</i>
   <i name="AEXX">      0.00000000</i>
   <i name="HFALPHA">      0.00000000</i>
   <i name="MCALPHA">      0.00000000</i>
   <i name="ALDAX">      1.00000000</i>
   <i name="AGGAX">      1.00000000</i>
   <i name="ALDAC">      1.00000000</i>
   <i name="AGGAC">      1.00000000</i>
   <i type="int" name="NKREDX">     1</i>
   <i type="int" name="NKREDY">     1</i>
   <i type="int" name="NKREDZ">     1</i>
   <i type="logical" name="SHIFTRED"> F  </i>
   <i type="logical" name="ODDONLY"> F  </i>
   <i type="logical" name="EVENONLY"> F  </i>
   <i type="int" name="LMAXFOCK">     0</i>
   <i type="int" name="NMAXFOCKAE">     0</i>
   <i type="logical" name="LFOCKAEDFT"> F  </i>
   <i name="HFSCREEN">      0.00000000</i>
   <i name="HFSCREENC">      0.00000000</i>
   <i type="int" name="NBANDSGWLOW">     0</i>
  </separator>
  <separator name="vdW DFT" >
   <i type="logical" name="LUSE_VDW"> F  </i>
   <i name="Zab_VDW">     -0.84910000</i>
   <i name="PARAM1">      0.12340000</i>
   <i name="PARAM2">      1.00000000</i>
   <i name="PARAM3">      0.00000000</i>
  </separator>
  <separator name="model GW" >
   <i type="int" name="MODEL_GW">     0</i>
   <i name="MODEL_EPS0">     10.18759680</i>
   <i name="MODEL_ALPHA">      1.00000000</i>
  </separator>
  <separator name="linear response parameters" >
   <i type="logical" name="LEPSILON"> F  </i>
   <i type="logical" name="LRPA"> F  </i>
   <i type="logical" name="LNABLA"> F  </i>
   <i type="logical" name="LVEL"> F  </i>
   <i type="int" name="KINTER">     0</i>
   <i name="CSHIFT">      0.10000000</i>
   <i name="OMEGAMAX">     -1.00000000</i>
   <i name="DEG_THRESHOLD">      0.00200000</i>
  </separator>
  <separator name="orbital magnetization" >
   <i type="logical" name="NUCIND"> F  </i>
   <v name="MAGPOS">      0.00000000      0.00000000      0.00000000</v>
   <i type="logical" name="LNICSALL"> T  </i>
   <i type="logical" name="ORBITALMAG"> F  </i>
   <i type="logical" name="LMAGBLOCH"> F  </i>
   <i type="logical" name="LCHIMAG"> F  </i>
   <i type="logical" name="LGAUGE"> T  </i>
   <i type="int" name="MAGATOM">     0</i>
   <v name="MAGDIPOL">      0.00000000      0.00000000      0.00000000</v>
   <v name="AVECCONST">      0.00000000      0.00000000      0.00000000</v>
  </separator>
  <separator name="response functions" >
   <i type="logical" name="LADDER"> F  </i>
   <i type="logical" name="LFXC"> F  </i>
   <i type="logical" name="LHARTREE"> T  </i>
   <i type="int" name="IBSE">     0</i>
   <v type="int" name="KPOINT">    -1     0     0     0</v>
   <i type="logical" name="LTCTE"> F  </i>
   <i type="logical" name="LTETE"> F  </i>
   <i type="logical" name="LTRIPLET"> F  </i>
   <i type="logical" name="LFXCEPS"> F  </i>
   <i type="logical" name="LFXHEG"> F  </i>
   <i type="int" name="NATURALO">     0</i>
   <i type="logical" name="L2ORDER"> F  </i>
   <i type="logical" name="LUSEW"> F  </i>
   <i name="ENCUTGW">     -2.00000000</i>
   <i name="ENCUTGWSOFT">     -2.00000000</i>
   <i name="ENCUTLF">     -1.00000000</i>
   <i type="int" name="LMAXMP2">    -1</i>
   <i name="SCISSOR">      0.00000000</i>
   <i type="int" name="NOMEGA">     0</i>
   <i type="int" name="NOMEGAR">     0</i>
   <i type="int" name="NBANDSGW">    -1</i>
   <i type="int" name="NBANDSO">    -1</i>
   <i type="int" name="NBANDSV">    -1</i>
   <i type="int" name="NELM">     1</i>
   <i type="int" name="NELMHF">     1</i>
   <i type="int" name="DIM">     3</i>
   <i type="int" name="ANTIRES">     0</i>
   <i name="OMEGAMAX">    -30.00000000</i>
   <i name="OMEGAMIN">    -30.00000000</i>
   <i name="OMEGATL">   -200.00000000</i>
   <i type="int" name="OMEGAGRID">     0</i>
   <i name="CSHIFT">     -0.10000000</i>
   <i type="logical" name="SELFENERGY"> F  </i>
   <i type="logical" name="LSPECTRAL"> F  </i>
   <i type="logical" name="LSPECTRALGW"> F  </i>
   <i type="logical" name="LSINGLES"> F  </i>
   <i type="logical" name="LFERMIGW"> F  </i>
   <i type="logical" name="ODDONLYGW"> F  </i>
   <i type="logical" name="EVENONLYGW"> F  </i>
   <i type="int" name="NKREDLFX">     1</i>
   <i type="int" name="NKREDLFY">     1</i>
   <i type="int" name="NKREDLFZ">     1</i>
   <i type="int" name="MAXMEM">  1800</i>
   <i type="int" name="TELESCOPE">     0</i>
   <i type="int" name="TAUPAR">     1</i>
   <i type="int" name="OMEGAPAR">    -1</i>
   <i name="LAMBDA">      1.00000000</i>
  </separator>
  <separator name="External order field" >
   <i name="OFIELD_KAPPA">      0.00000000</i>
   <v name="OFIELD_K">      0.00000000      0.00000000      0.00000000</v>
   <i name="OFIELD_Q6_NEAR">      0.00000000</i>
   <i name="OFIELD_Q6_FAR">      0.00000000</i>
   <i name="OFIELD_A">      0.00000000</i>
  </separator>
 </parameters>
 <atominfo>
  <atoms>       4 </atoms>
  <types>       1 </types>
  <array name="atoms" >
   <dimension dim="1">ion</dimension>
   <field type="string">element</field>
   <field type="int">atomtype</field>
   <set>
    <rc><c>Au</c><c>   1</c></rc>
    <rc><c>Au</c><c>   1</c></rc>
    <rc><c>Au</c><c>   1</c></rc>
    <rc><c>Au</c><c>   1</c></rc>
   </set>
  </array>
  <array name="atomtypes" >
   <dimension dim="1">type</dimension>
   <field type="int">atomspertype</field>
   <field type="string">element</field>
   <field>mass</field>
   <field>valence</field>
   <field type="string">pseudopotential</field>
   <set>
    <rc><c>   4</c><c>Au</c><c>    196.96600000</c><c>     11.00000000</c><c>  PAW_PBE Au 04Oct2007                  </c></rc>
   </set>
  </array>
 </atominfo>
 <structure name="initialpos" >
  <crystal>
   <varray name="basis" >
    <v>       4.08000000       0.00000000       0.00000000 </v>
    <v>       0.00000000       4.08000000       0.00000000 </v>
    <v>       0.00000000       0.00000000       4.08000000 </v>
   </varray>
   <i name="volume">     67.91731200 </i>
   <varray name="rec_basis" >
    <v>       0.24509804       0.00000000       0.00000000 </v>
    <v>       0.00000000       0.24509804       0.00000000 </v>
    <v>       0.00000000       0.00000000       0.24509804 </v>
   </varray>
  </crystal>
  <varray name="positions" >
   <v>       0.00000000       0.00000000       0.00000000 </v>
   <v>       0.00000000       0.50000000       0.50000000 </v>
   <v>       0.50000000       0.00000000       0.50000000 </v>
   <v>       0.50000000       0.50000000       0.00000000 </v>
  </varray>
 </structure>
 <calculation>
  <scstep>
   <time name="dav">    0.51    0.51</time>
   <time name="total">    0.52    0.53</time>
   <energy>
    <i name="alphaZ">    274.40333328 </i>
    <i name="ewald">  -3915.95376942 </i>
    <i name="hartreedc">   -494.00614683 </i>
    <i name="XCdc">     62.70648169 </i>
    <i name="pawpsdc">   3496.39001341 </i>
    <i name="pawaedc">  -3404.04053930 </i>
    <i name="eentropy">      0.00030566 </i>
    <i name="bandstr">    459.56801639 </i>
    <i name="atom">   3704.32207507 </i>
    <i name="e_fr_energy">    183.38976994 </i>
    <i name="e_wo_entrp">    183.38946429 </i>
    <i name="e_0_energy">    183.38966806 </i>
   </energy>
  </scstep>
  <scstep>
   <time name="dav">    0.70    0.70</time>
   <time name="total">    0.70    0.70</time>
   <energy>
    <i name="e_fr_energy">    -11.29319625 </i>
    <i name="e_wo_entrp">    -11.29227085 </i>
    <i name="e_0_energy">    -11.29288779 </i>
   </energy>
  </scstep>
  <scstep>
   <time name="dav">    0.68    0.68</time>
   <time name="total">    0.68    0.68</time>
   <energy>
    <i name="e_fr_energy">    -13.84038004 </i>
    <i name="e_wo_entrp">    -13.83933431 </i>
    <i name="e_0_energy">    -13.84003146 </i>
   </energy>
  </scstep>
  <scstep>
   <time name="dav">    0.79    0.79</time>
   <time name="total">    0.79    0.79</time>
   <energy>
    <i name="e_fr_energy">    -13.85082597 </i>
    <i name="e_wo_entrp">    -13.84978097 </i>
    <i name="e_0_energy">    -13.85047764 </i>
   </energy>
  </scstep>
  <scstep>
   <time name="dav">    0.64    0.64</time>
   <time name="total">    0.65    0.65</time>
   <energy>
    <i name="e_fr_energy">    -13.85091969 </i>
    <i name="e_wo_entrp">    -13.84987470 </i>
    <i name="e_0_energy">    -13.85057136 </i>
   </energy>
  </scstep>
  <scstep>
   <time name="dav">    0.66    0.66</time>
   <time name="total">    0.68    0.68</time>
   <energy>
    <i name="e_fr_energy">    -12.87336758 </i>
    <i name="e_wo_entrp">    -12.87150255 </i>
    <i name="e_0_energy">    -12.87274590 </i>
   </energy>
  </scstep>
  <scstep>
   <time name="dav">    0.70    0.70</time>
   <time name="total">    0.72    0.72</time>
   <energy>
    <i name="e_fr_energy">    -12.79601531 </i>
    <i name="e_wo_entrp">    -12.79441158 </i>
    <i name="e_0_energy">    -12.79548073 </i>
   </energy>
  </scstep>
  <scstep>
   <time name="dav">    0.71    0.72</time>
   <time name="total">    0.73    0.74</time>
   <energy>
    <i name="e_fr_energy">    -12.78685191 </i>
    <i name="e_wo_entrp">    -12.78524543 </i>
    <i name="e_0_energy">    -12.78631642 </i>
   </energy>
  </scstep>
  <scstep>
   <time name="dav">    0.67    0.67</time>
   <time name="total">    0.68    0.68</time>
   <energy>
    <i name="alphaZ">    274.40333328 </i>
    <i name="ewald">  -3915.95376942 </i>
    <i name="hartreedc">   -449.84607617 </i>
    <i name="XCdc">     60.74037069 </i>
    <i name="pawpsdc">   4231.75483145 </i>
    <i name="pawaedc">  -4150.34518801 </i>
    <i name="eentropy">     -0.00160577 </i>
    <i name="bandstr">    232.13923810 </i>
    <i name="atom">   3704.32207507 </i>
    <i name="e_fr_energy">    -12.78679078 </i>
    <i name="e_wo_entrp">    -12.78518501 </i>
    <i name="e_0_energy">    -12.78625552 </i>
   </energy>
  </scstep>
  <structure>
   <crystal>
    <varray name="basis" >
     <v>       4.08000000       0.00000000       0.00000000 </v>
     <v>       0.00000000       4.08000000       0.00000000 </v>
     <v>       0.00000000       0.00000000       4.08000000 </v>
    </varray>
    <i name="volume">     67.91731200 </i>
    <varray name="rec_basis" >
     <v>       0.24509804       0.00000000       0.00000000 </v>
     <v>       0.00000000       0.24509804       0.00000000 </v>
     <v>       0.00000000       0.00000000       0.24509804 </v>
    </varray>
   </crystal>
   <varray name="positions" >
    <v>       0.00000000       0.00000000       0.00000000 </v>
    <v>       0.00000000       0.50000000       0.50000000 </v>
    <v>       0.50000000       0.00000000       0.50000000 </v>
    <v>       0.50000000       0.50000000       0.00000000 </v>
   </varray>
  </structure>
  <varray name="forces" >
   <v>       0.00000000      -0.00000000       0.00000000 </v>
   <v>      -0.00000000      -0.00000000       0.00000000 </v>
   <v>      -0.00000000       0.00000000      -0.00000000 </v>
   <v>       0.00000000       0.00000000      -0.00000000 </v>
  </varray>
  <varray name="stress" >
   <v>      90.11406133      -0.00000000       0.00000000 </v>
   <v>       0.00000000      90.11406133      -0.00000000 </v>
   <v>      -0.00000000       0.00000000      90.11406133 </v>
  </varray>
  <energy>
   <i name="e_fr_energy">    -12.78679078 </i>
   <i name="e_wo_entrp">    -12.78625552 </i>
   <i name="e_0_energy">     -0.00160577 </i>
  </energy>
  <time name="totalsc">    6.54    6.57</time>
  <eigenvalues>
   <array>
    <dimension dim="1">band</dimension>
    <dimension dim="2">kpoint</dimension>
    <dimension dim="3">spin</dimension>
    <field>eigene</field>
    <field>occ</field>
    <set>
     <set comment="spin 1">
      <set comment="kpoint 1">
       <r>   -0.3586    1.0000 </r>
       <r>    2.4385    1.0000 </r>
       <r>    2.4385    1.0000 </r>
       <r>    2.4385    1.0000 </r>
       <r>    2.7537    1.0000 </r>
       <r>    2.7537    1.0000 </r>
       <r>    2.7537    1.0000 </r>
       <r>    4.8248    1.0000 </r>
       <r>    4.8248    1.0000 </r>
       <r>    4.8248    1.0000 </r>
       <r>    6.3520    1.0000 </r>
       <r>    6.3520    1.0000 </r>
       <r>    7.5154    1.0000 </r>
       <r>    7.5154    1.0000 </r>
       <r>    7.5154    1.0000 </r>
       <r>    7.8824    1.0000 </r>
       <r>    7.8824    1.0000 </r>
       <r>    7.8824    1.0000 </r>
       <r>    7.8824    1.0000 </r>
       <r>    7.8824    1.0000 </r>
       <r>    7.8824    1.0000 </r>
       <r>   10.5477   -0.0000 </r>
       <r>   10.5477   -0.0000 </r>
       <r>   10.5477   -0.0000 </r>
       <r>   15.3414    0.0000 </r>
       <r>   15.3414    0.0000 </r>
       <r>   15.3414    0.0000 </r>
       <r>   19.5567    0.0000 </r>
       <r>   19.5567    0.0000 </r>
       <r>   19.5567    0.0000 </r>
       <r>   19.5567    0.0000 </r>
       <r>   19.5567    0.0000 </r>
       <r>   19.5567    0.0000 </r>
       <r>   24.0543    0.0000 </r>
       <r>   26.7887    0.0000 </r>
       <r>   26.7887    0.0000 </r>
       <r>   26.7887    0.0000 </r>
       <r>   28.0755    0.0000 </r>
       <r>   28.0755    0.0000 </r>
       <r>   28.0755    0.0000 </r>
       <r>   29.4025    0.0000 </r>
       <r>   29.4025    0.0000 </r>
       <r>   29.4025    0.0000 </r>
       <r>   32.9916    0.0000 </r>
       <r>   37.0239    0.0000 </r>
       <r>   37.0239    0.0000 </r>
       <r>   37.0240    0.0000 </r>
       <r>   37.6724    0.0000 </r>
      </set>
      <set comment="kpoint 2">
       <r>   -0.2140    1.0000 </r>
       <r>    2.4873    1.0000 </r>
       <r>    2.5350    1.0000 </r>
       <r>    2.5350    1.0000 </r>
       <r>    2.8064    1.0000 </r>
       <r>    2.8340    1.0000 </r>
       <r>    2.8340    1.0000 </r>
       <r>    4.7494    1.0000 </r>
       <r>    4.8899    1.0000 </r>
       <r>    4.8899    1.0000 </r>
       <r>    6.2714    1.0000 </r>
       <r>    6.3843    1.0000 </r>
       <r>    7.3882    1.0000 </r>
       <r>    7.3882    1.0000 </r>
       <r>    7.3994    1.0000 </r>
       <r>    7.3994    1.0000 </r>
       <r>    7.4770    1.0000 </r>
       <r>    7.7417    1.0000 </r>
       <r>    7.7417    1.0000 </r>
       <r>    7.8826    1.0000 </r>
       <r>    7.8826    1.0000 </r>
       <r>    9.6140   -0.0335 </r>
       <r>   11.1409   -0.0000 </r>
       <r>   11.1409   -0.0000 </r>
       <r>   15.1919    0.0000 </r>
       <r>   15.1919    0.0000 </r>
       <r>   16.5196    0.0000 </r>
       <r>   19.3418    0.0000 </r>
       <r>   19.3418    0.0000 </r>
       <r>   19.4554    0.0000 </r>
       <r>   19.4554    0.0000 </r>
       <r>   19.8592    0.0000 </r>
       <r>   19.8592    0.0000 </r>
       <r>   24.2325    0.0000 </r>
       <r>   26.6765    0.0000 </r>
       <r>   27.3921    0.0000 </r>
       <r>   27.3921    0.0000 </r>
       <r>   27.5800    0.0000 </r>
       <r>   27.9936    0.0000 </r>
       <r>   27.9936    0.0000 </r>
       <r>   29.2627    0.0000 </r>
       <r>   29.5191    0.0000 </r>
       <r>   29.5191    0.0000 </r>
       <r>   33.9268    0.0000 </r>
       <r>   36.2662    0.0000 </r>
       <r>   36.2662    0.0000 </r>
       <r>   36.7675    0.0000 </r>
       <r>   36.7679    0.0000 </r>
      </set>
      <set comment="kpoint 3">
       <r>    0.2101    1.0000 </r>
       <r>    2.6018    1.0000 </r>
       <r>    2.8058    1.0000 </r>
       <r>    2.8058    1.0000 </r>
       <r>    2.9606    1.0000 </r>
       <r>    3.0742    1.0000 </r>
       <r>    3.0742    1.0000 </r>
       <r>    4.5381    1.0000 </r>
       <r>    5.0830    1.0000 </r>
       <r>    5.0830    1.0000 </r>
       <r>    6.0494    1.0000 </r>
       <r>    6.4711    1.0000 </r>
       <r>    6.4711    1.0000 </r>
       <r>    6.4777    1.0000 </r>
       <r>    7.0729    1.0000 </r>
       <r>    7.0729    1.0000 </r>
       <r>    7.3665    1.0000 </r>
       <r>    7.3665    1.0000 </r>
       <r>    7.3675    1.0000 </r>
       <r>    7.8831    1.0000 </r>
       <r>    7.8831    1.0000 </r>
       <r>    7.9714    1.0000 </r>
       <r>   12.3487    0.0000 </r>
       <r>   12.3487    0.0000 </r>
       <r>   14.8461    0.0000 </r>
       <r>   14.8461    0.0000 </r>
       <r>   18.7175    0.0000 </r>
       <r>   18.7175    0.0000 </r>
       <r>   18.9181    0.0000 </r>
       <r>   19.2564    0.0000 </r>
       <r>   19.2564    0.0000 </r>
       <r>   20.7127    0.0000 </r>
       <r>   20.7127    0.0000 </r>
       <r>   24.7407    0.0000 </r>
       <r>   26.3977    0.0000 </r>
       <r>   26.7310    0.0000 </r>
       <r>   27.6060    0.0000 </r>
       <r>   27.6060    0.0000 </r>
       <r>   28.8510    0.0000 </r>
       <r>   28.9819    0.0000 </r>
       <r>   28.9819    0.0000 </r>
       <r>   29.8971    0.0000 </r>
       <r>   29.8971    0.0000 </r>
       <r>   34.6675    0.0000 </r>
       <r>   34.8377    0.0000 </r>
       <r>   34.8377    0.0000 </r>
       <r>   35.8542    0.0000 </r>
       <r>   35.8542    0.0000 </r>
      </set>
      <set comment="kpoint 4">
       <r>    0.8769    1.0000 </r>
       <r>    2.6566    1.0000 </r>
       <r>    3.1815    1.0000 </r>
       <r>    3.1815    1.0000 </r>
       <r>    3.2050    1.0000 </r>
       <r>    3.4721    1.0000 </r>
       <r>    3.4721    1.0000 </r>
       <r>    4.2299    1.0000 </r>
       <r>    5.3971    1.0000 </r>
       <r>    5.3971    1.0000 </r>
       <r>    5.5473    1.0000 </r>
       <r>    5.5473    1.0000 </r>
       <r>    5.7524    1.0000 </r>
       <r>    6.5153    1.0000 </r>
       <r>    6.6234    1.0000 </r>
       <r>    6.6234    1.0000 </r>
       <r>    6.6236    1.0000 </r>
       <r>    6.8599    1.0000 </r>
       <r>    6.8599    1.0000 </r>
       <r>    7.2037    1.0000 </r>
       <r>    7.8838    1.0000 </r>
       <r>    7.8838    1.0000 </r>
       <r>   13.7342    0.0000 </r>
       <r>   13.7342    0.0000 </r>
       <r>   14.5039    0.0000 </r>
       <r>   14.5039    0.0000 </r>
       <r>   17.7470    0.0000 </r>
       <r>   17.7470    0.0000 </r>
       <r>   19.0896    0.0000 </r>
       <r>   19.0896    0.0000 </r>
       <r>   21.7334    0.0000 </r>
       <r>   21.9908    0.0000 </r>
       <r>   21.9908    0.0000 </r>
       <r>   25.5040    0.0000 </r>
       <r>   26.0790    0.0000 </r>
       <r>   26.0945    0.0000 </r>
       <r>   26.6497    0.0000 </r>
       <r>   26.6497    0.0000 </r>
       <r>   28.1946    0.0000 </r>
       <r>   30.5854    0.0000 </r>
       <r>   30.5854    0.0000 </r>
       <r>   31.1570    0.0000 </r>
       <r>   31.1570    0.0000 </r>
       <r>   31.4814    0.0000 </r>
       <r>   34.3324    0.0000 </r>
       <r>   34.3324    0.0000 </r>
       <r>   34.4184    0.0000 </r>
       <r>   34.4184    0.0000 </r>
      </set>
      <set comment="kpoint 5">
       <r>    1.6866    1.0000 </r>
       <r>    2.3857    1.0000 </r>
       <r>    3.4953    1.0000 </r>
       <r>    3.4953    1.0000 </r>
       <r>    3.5195    1.0000 </r>
       <r>    3.8744    1.0000 </r>
       <r>    4.0234    1.0000 </r>
       <r>    4.0234    1.0000 </r>
       <r>    4.7201    1.0000 </r>
       <r>    4.7201    1.0000 </r>
       <r>    5.5236    1.0000 </r>
       <r>    5.6615    1.0000 </r>
       <r>    5.8181    1.0000 </r>
       <r>    5.8181    1.0000 </r>
       <r>    6.2555    1.0000 </r>
       <r>    6.2555    1.0000 </r>
       <r>    6.3203    1.0000 </r>
       <r>    6.3203    1.0000 </r>
       <r>    6.8071    1.0000 </r>
       <r>    7.0085    1.0000 </r>
       <r>    7.8842    1.0000 </r>
       <r>    7.8842    1.0000 </r>
       <r>   14.3063    0.0000 </r>
       <r>   14.3063    0.0000 </r>
       <r>   15.1569    0.0000 </r>
       <r>   15.1569    0.0000 </r>
       <r>   16.5258    0.0000 </r>
       <r>   16.5258    0.0000 </r>
       <r>   19.0011    0.0000 </r>
       <r>   19.0011    0.0000 </r>
       <r>   23.5419    0.0000 </r>
       <r>   23.5419    0.0000 </r>
       <r>   24.6588    0.0000 </r>
       <r>   25.1843    0.0000 </r>
       <r>   25.1843    0.0000 </r>
       <r>   25.7156    0.0000 </r>
       <r>   26.0243    0.0000 </r>
       <r>   26.4153    0.0000 </r>
       <r>   27.3516    0.0000 </r>
       <r>   28.2083    0.0000 </r>
       <r>   31.6019    0.0000 </r>
       <r>   31.6019    0.0000 </r>
       <r>   32.9143    0.0000 </r>
       <r>   32.9143    0.0000 </r>
       <r>   33.3956    0.0000 </r>
       <r>   33.3956    0.0000 </r>
       <r>   34.8057    0.0000 </r>
       <r>   34.8057    0.0000 </r>
      </set>
      <set comment="kpoint 6">
       <r>   -0.0722    1.0000 </r>
       <r>    2.5855    1.0000 </r>
       <r>    2.5855    1.0000 </r>
       <r>    2.6102    1.0000 </r>
       <r>    2.8848    1.0000 </r>
       <r>    2.8848    1.0000 </r>
       <r>    2.9285    1.0000 </r>
       <r>    4.7187    1.0000 </r>
       <r>    4.9140    1.0000 </r>
       <r>    4.9446    1.0000 </r>
       <r>    6.2511    1.0000 </r>
       <r>    6.3693    1.0000 </r>
       <r>    7.0960    1.0000 </r>
       <r>    7.1197    1.0000 </r>
       <r>    7.1197    1.0000 </r>
       <r>    7.2956    1.0000 </r>
       <r>    7.4473    1.0000 </r>
       <r>    7.4473    1.0000 </r>
       <r>    7.7413    1.0000 </r>
       <r>    7.7413    1.0000 </r>
       <r>    7.7897    1.0000 </r>
       <r>   10.2175   -0.0000 </r>
       <r>   10.2175   -0.0000 </r>
       <r>   11.6268   -0.0000 </r>
       <r>   15.0025    0.0000 </r>
       <r>   16.3516    0.0000 </r>
       <r>   16.3516    0.0000 </r>
       <r>   18.5802    0.0000 </r>
       <r>   19.6380    0.0000 </r>
       <r>   19.6380    0.0000 </r>
       <r>   19.7760    0.0000 </r>
       <r>   19.7760    0.0000 </r>
       <r>   20.1229    0.0000 </r>
       <r>   24.3836    0.0000 </r>
       <r>   26.6464    0.0000 </r>
       <r>   27.2990    0.0000 </r>
       <r>   27.2990    0.0000 </r>
       <r>   27.5270    0.0000 </r>
       <r>   27.9117    0.0000 </r>
       <r>   28.6653    0.0000 </r>
       <r>   29.3930    0.0000 </r>
       <r>   29.3930    0.0000 </r>
       <r>   29.9101    0.0000 </r>
       <r>   33.8616    0.0000 </r>
       <r>   35.7044    0.0000 </r>
       <r>   35.8668    0.0000 </r>
       <r>   36.6168    0.0000 </r>
       <r>   36.8904    0.0000 </r>
      </set>
      <set comment="kpoint 7">
       <r>    0.3436    1.0000 </r>
       <r>    2.7049    1.0000 </r>
       <r>    2.8296    1.0000 </r>
       <r>    2.8618    1.0000 </r>
       <r>    3.0337    1.0000 </r>
       <r>    3.1194    1.0000 </r>
       <r>    3.1981    1.0000 </r>
       <r>    4.5385    1.0000 </r>
       <r>    5.0864    1.0000 </r>
       <r>    5.1005    1.0000 </r>
       <r>    6.0702    1.0000 </r>
       <r>    6.2206    1.0000 </r>
       <r>    6.3446    1.0000 </r>
       <r>    6.4665    1.0000 </r>
       <r>    6.5894    1.0000 </r>
       <r>    6.9997    1.0000 </r>
       <r>    7.1223    1.0000 </r>
       <r>    7.3269    1.0000 </r>
       <r>    7.3647    1.0000 </r>
       <r>    7.7400    1.0000 </r>
       <r>    7.7415    1.0000 </r>
       <r>    8.7485    1.0000 </r>
       <r>   11.2857   -0.0000 </r>
       <r>   12.7221    0.0000 </r>
       <r>   14.5475    0.0000 </r>
       <r>   15.9994    0.0000 </r>
       <r>   17.8670    0.0000 </r>
       <r>   18.5243    0.0000 </r>
       <r>   19.0000    0.0000 </r>
       <r>   19.6438    0.0000 </r>
       <r>   20.4176    0.0000 </r>
       <r>   20.4703    0.0000 </r>
       <r>   20.7384    0.0000 </r>
       <r>   24.7859    0.0000 </r>
       <r>   25.5720    0.0000 </r>
       <r>   27.0983    0.0000 </r>
       <r>   27.5708    0.0000 </r>
       <r>   28.0873    0.0000 </r>
       <r>   28.8468    0.0000 </r>
       <r>   28.8863    0.0000 </r>
       <r>   29.0218    0.0000 </r>
       <r>   29.8057    0.0000 </r>
       <r>   30.9943    0.0000 </r>
       <r>   32.7213    0.0000 </r>
       <r>   34.9477    0.0000 </r>
       <r>   35.8740    0.0000 </r>
       <r>   35.8939    0.0000 </r>
       <r>   35.8971    0.0000 </r>
      </set>
      <set comment="kpoint 8">
       <r>    0.9972    1.0000 </r>
       <r>    2.7651    1.0000 </r>
       <r>    3.1712    1.0000 </r>
       <r>    3.2482    1.0000 </r>
       <r>    3.2692    1.0000 </r>
       <r>    3.5072    1.0000 </r>
       <r>    3.5898    1.0000 </r>
       <r>    4.2496    1.0000 </r>
       <r>    5.2917    1.0000 </r>
       <r>    5.3378    1.0000 </r>
       <r>    5.3956    1.0000 </r>
       <r>    5.4985    1.0000 </r>
       <r>    5.8640    1.0000 </r>
       <r>    5.8684    1.0000 </r>
       <r>    6.5871    1.0000 </r>
       <r>    6.6488    1.0000 </r>
       <r>    6.6879    1.0000 </r>
       <r>    6.8569    1.0000 </r>
       <r>    7.0152    1.0000 </r>
       <r>    7.6861    1.0000 </r>
       <r>    7.7322    1.0000 </r>
       <r>    7.7377    1.0000 </r>
       <r>   12.3184    0.0000 </r>
       <r>   14.0461    0.0000 </r>
       <r>   14.0474    0.0000 </r>
       <r>   15.7841    0.0000 </r>
       <r>   17.2059    0.0000 </r>
       <r>   18.0182    0.0000 </r>
       <r>   19.5981    0.0000 </r>
       <r>   20.2584    0.0000 </r>
       <r>   20.6453    0.0000 </r>
       <r>   21.7036    0.0000 </r>
       <r>   22.4393    0.0000 </r>
       <r>   24.6113    0.0000 </r>
       <r>   25.1682    0.0000 </r>
       <r>   26.9628    0.0000 </r>
       <r>   27.0053    0.0000 </r>
       <r>   28.0118    0.0000 </r>
       <r>   28.4341    0.0000 </r>
       <r>   29.1024    0.0000 </r>
       <r>   30.5376    0.0000 </r>
       <r>   30.8100    0.0000 </r>
       <r>   31.3643    0.0000 </r>
       <r>   32.6681    0.0000 </r>
       <r>   34.0477    0.0000 </r>
       <r>   34.4932    0.0000 </r>
       <r>   34.5785    0.0000 </r>
       <r>   34.6663    0.0000 </r>
      </set>
      <set comment="kpoint 9">
       <r>    1.7935    1.0000 </r>
       <r>    2.4912    1.0000 </r>
       <r>    3.5338    1.0000 </r>
       <r>    3.5714    1.0000 </r>
       <r>    3.5737    1.0000 </r>
       <r>    3.9112    1.0000 </r>
       <r>    4.0234    1.0000 </r>
       <r>    4.0423    1.0000 </r>
       <r>    4.5822    1.0000 </r>
       <r>    4.7136    1.0000 </r>
       <r>    5.2792    1.0000 </r>
       <r>    5.3331    1.0000 </r>
       <r>    5.8150    1.0000 </r>
       <r>    6.0189    1.0000 </r>
       <r>    6.2609    1.0000 </r>
       <r>    6.3064    1.0000 </r>
       <r>    6.3168    1.0000 </r>
       <r>    6.4885    1.0000 </r>
       <r>    6.8885    1.0000 </r>
       <r>    7.1875    1.0000 </r>
       <r>    7.7323    1.0000 </r>
       <r>    7.7349    1.0000 </r>
       <r>   13.0932    0.0000 </r>
       <r>   13.5988    0.0000 </r>
       <r>   15.4392    0.0000 </r>
       <r>   15.9686    0.0000 </r>
       <r>   16.5309    0.0000 </r>
       <r>   16.7957    0.0000 </r>
       <r>   19.6914    0.0000 </r>
       <r>   19.9361    0.0000 </r>
       <r>   22.3161    0.0000 </r>
       <r>   23.1630    0.0000 </r>
       <r>   23.6105    0.0000 </r>
       <r>   24.5709    0.0000 </r>
       <r>   24.7052    0.0000 </r>
       <r>   26.5957    0.0000 </r>
       <r>   27.0048    0.0000 </r>
       <r>   27.4257    0.0000 </r>
       <r>   27.7011    0.0000 </r>
       <r>   29.0714    0.0000 </r>
       <r>   30.3470    0.0000 </r>
       <r>   31.4246    0.0000 </r>
       <r>   31.5984    0.0000 </r>
       <r>   32.9538    0.0000 </r>
       <r>   34.2598    0.0000 </r>
       <r>   34.7040    0.0000 </r>
       <r>   34.9019    0.0000 </r>
       <r>   35.0463    0.0000 </r>
      </set>
      <set comment="kpoint 10">
       <r>    0.7340    1.0000 </r>
       <r>    2.9527    1.0000 </r>
       <r>    2.9977    1.0000 </r>
       <r>    2.9977    1.0000 </r>
       <r>    3.2514    1.0000 </r>
       <r>    3.2514    1.0000 </r>
       <r>    3.4975    1.0000 </r>
       <r>    4.4730    1.0000 </r>
       <r>    5.1519    1.0000 </r>
       <r>    5.1725    1.0000 </r>
       <r>    5.6918    1.0000 </r>
       <r>    5.6918    1.0000 </r>
       <r>    5.9405    1.0000 </r>
       <r>    6.0135    1.0000 </r>
       <r>    6.5638    1.0000 </r>
       <r>    6.7813    1.0000 </r>
       <r>    7.0759    1.0000 </r>
       <r>    7.0759    1.0000 </r>
       <r>    7.3598    1.0000 </r>
       <r>    7.3598    1.0000 </r>
       <r>    7.5219    1.0000 </r>
       <r>    9.7688   -0.0005 </r>
       <r>    9.7688   -0.0005 </r>
       <r>   13.6546    0.0000 </r>
       <r>   13.8266    0.0000 </r>
       <r>   17.2144    0.0000 </r>
       <r>   17.7263    0.0000 </r>
       <r>   17.7263    0.0000 </r>
       <r>   19.7867    0.0000 </r>
       <r>   19.7867    0.0000 </r>
       <r>   20.8362    0.0000 </r>
       <r>   20.8362    0.0000 </r>
       <r>   21.6633    0.0000 </r>
       <r>   24.2403    0.0000 </r>
       <r>   24.8057    0.0000 </r>
       <r>   27.3325    0.0000 </r>
       <r>   27.4998    0.0000 </r>
       <r>   28.7188    0.0000 </r>
       <r>   28.7188    0.0000 </r>
       <r>   29.5347    0.0000 </r>
       <r>   29.5347    0.0000 </r>
       <r>   30.3347    0.0000 </r>
       <r>   30.6052    0.0000 </r>
       <r>   32.5787    0.0000 </r>
       <r>   35.1857    0.0000 </r>
       <r>   35.5099    0.0000 </r>
       <r>   35.7732    0.0000 </r>
       <r>   35.7914    0.0000 </r>
      </set>
      <set comment="kpoint 11">
       <r>    1.3462    1.0000 </r>
       <r>    3.0751    1.0000 </r>
       <r>    3.2096    1.0000 </r>
       <r>    3.4194    1.0000 </r>
       <r>    3.4587    1.0000 </r>
       <r>    3.6085    1.0000 </r>
       <r>    3.8585    1.0000 </r>
       <r>    4.2794    1.0000 </r>
       <r>    4.8954    1.0000 </r>
       <r>    5.1341    1.0000 </r>
       <r>    5.1750    1.0000 </r>
       <r>    5.3335    1.0000 </r>
       <r>    5.4260    1.0000 </r>
       <r>    5.9017    1.0000 </r>
       <r>    6.4606    1.0000 </r>
       <r>    6.7035    1.0000 </r>
       <r>    6.8197    1.0000 </r>
       <r>    6.8480    1.0000 </r>
       <r>    6.8503    1.0000 </r>
       <r>    7.3539    1.0000 </r>
       <r>    7.4042    1.0000 </r>
       <r>    8.5689    1.0000 </r>
       <r>   10.7282   -0.0000 </r>
       <r>   13.0260    0.0000 </r>
       <r>   14.8713    0.0000 </r>
       <r>   16.8222    0.0000 </r>
       <r>   17.0296    0.0000 </r>
       <r>   18.7675    0.0000 </r>
       <r>   19.2638    0.0000 </r>
       <r>   20.9324    0.0000 </r>
       <r>   21.0499    0.0000 </r>
       <r>   22.1538    0.0000 </r>
       <r>   22.7035    0.0000 </r>
       <r>   23.0471    0.0000 </r>
       <r>   24.4566    0.0000 </r>
       <r>   27.5538    0.0000 </r>
       <r>   27.5818    0.0000 </r>
       <r>   28.5544    0.0000 </r>
       <r>   28.7782    0.0000 </r>
       <r>   29.0995    0.0000 </r>
       <r>   30.1696    0.0000 </r>
       <r>   30.3874    0.0000 </r>
       <r>   31.6732    0.0000 </r>
       <r>   33.5661    0.0000 </r>
       <r>   34.3586    0.0000 </r>
       <r>   34.7183    0.0000 </r>
       <r>   35.0302    0.0000 </r>
       <r>   35.2580    0.0000 </r>
      </set>
      <set comment="kpoint 12">
       <r>    2.0968    1.0000 </r>
       <r>    2.7852    1.0000 </r>
       <r>    3.5904    1.0000 </r>
       <r>    3.7211    1.0000 </r>
       <r>    3.7976    1.0000 </r>
       <r>    4.0088    1.0000 </r>
       <r>    4.0936    1.0000 </r>
       <r>    4.0948    1.0000 </r>
       <r>    4.2651    1.0000 </r>
       <r>    4.6843    1.0000 </r>
       <r>    4.8876    1.0000 </r>
       <r>    5.0241    1.0000 </r>
       <r>    5.8213    1.0000 </r>
       <r>    6.0364    1.0000 </r>
       <r>    6.2250    1.0000 </r>
       <r>    6.3130    1.0000 </r>
       <r>    6.3371    1.0000 </r>
       <r>    6.4091    1.0000 </r>
       <r>    7.2491    1.0000 </r>
       <r>    7.3512    1.0000 </r>
       <r>    7.3613    1.0000 </r>
       <r>    7.7786    1.0000 </r>
       <r>   11.5636   -0.0000 </r>
       <r>   12.2943    0.0000 </r>
       <r>   16.2022    0.0000 </r>
       <r>   16.6148    0.0000 </r>
       <r>   16.6543    0.0000 </r>
       <r>   17.5351    0.0000 </r>
       <r>   20.6373    0.0000 </r>
       <r>   21.4137    0.0000 </r>
       <r>   21.8789    0.0000 </r>
       <r>   21.8865    0.0000 </r>
       <r>   22.2555    0.0000 </r>
       <r>   23.5308    0.0000 </r>
       <r>   24.7793    0.0000 </r>
       <r>   26.6931    0.0000 </r>
       <r>   27.9777    0.0000 </r>
       <r>   28.5453    0.0000 </r>
       <r>   28.6912    0.0000 </r>
       <r>   29.4626    0.0000 </r>
       <r>   29.9551    0.0000 </r>
       <r>   31.0256    0.0000 </r>
       <r>   31.5685    0.0000 </r>
       <r>   33.0483    0.0000 </r>
       <r>   33.2147    0.0000 </r>
       <r>   34.3154    0.0000 </r>
       <r>   35.6248    0.0000 </r>
       <r>   36.2786    0.0000 </r>
      </set>
      <set comment="kpoint 13">
       <r>    1.8856    1.0000 </r>
       <r>    3.3457    1.0000 </r>
       <r>    3.5285    1.0000 </r>
       <r>    3.5285    1.0000 </r>
       <r>    3.7630    1.0000 </r>
       <r>    3.7630    1.0000 </r>
       <r>    4.1633    1.0000 </r>
       <r>    4.2493    1.0000 </r>
       <r>    4.5135    1.0000 </r>
       <r>    4.5135    1.0000 </r>
       <r>    5.0253    1.0000 </r>
       <r>    5.0949    1.0000 </r>
       <r>    5.5727    1.0000 </r>
       <r>    5.7850    1.0000 </r>
       <r>    6.2375    1.0000 </r>
       <r>    6.5090    1.0000 </r>
       <r>    6.5090    1.0000 </r>
       <r>    6.8483    1.0000 </r>
       <r>    6.8483    1.0000 </r>
       <r>    7.1100    1.0000 </r>
       <r>    7.2717    1.0000 </r>
       <r>    9.4432    0.9142 </r>
       <r>    9.4432    0.9142 </r>
       <r>   11.9775   -0.0000 </r>
       <r>   16.0009    0.0000 </r>
       <r>   16.7157    0.0000 </r>
       <r>   18.1029    0.0000 </r>
       <r>   18.1029    0.0000 </r>
       <r>   19.8480    0.0000 </r>
       <r>   19.8480    0.0000 </r>
       <r>   21.6531    0.0000 </r>
       <r>   23.0227    0.0000 </r>
       <r>   23.0227    0.0000 </r>
       <r>   23.5101    0.0000 </r>
       <r>   23.8734    0.0000 </r>
       <r>   26.5517    0.0000 </r>
       <r>   27.7637    0.0000 </r>
       <r>   28.3057    0.0000 </r>
       <r>   29.7631    0.0000 </r>
       <r>   29.7631    0.0000 </r>
       <r>   30.1097    0.0000 </r>
       <r>   30.1097    0.0000 </r>
       <r>   31.9805    0.0000 </r>
       <r>   33.5204    0.0000 </r>
       <r>   34.7905    0.0000 </r>
       <r>   35.1105    0.0000 </r>
       <r>   35.1105    0.0000 </r>
       <r>   35.2770    0.0000 </r>
      </set>
      <set comment="kpoint 14">
       <r>    2.5406    1.0000 </r>
       <r>    3.1812    1.0000 </r>
       <r>    3.5925    1.0000 </r>
       <r>    3.8845    1.0000 </r>
       <r>    3.9477    1.0000 </r>
       <r>    4.1264    1.0000 </r>
       <r>    4.1371    1.0000 </r>
       <r>    4.1597    1.0000 </r>
       <r>    4.3058    1.0000 </r>
       <r>    4.5827    1.0000 </r>
       <r>    4.6054    1.0000 </r>
       <r>    4.8910    1.0000 </r>
       <r>    5.8389    1.0000 </r>
       <r>    5.8844    1.0000 </r>
       <r>    6.0641    1.0000 </r>
       <r>    6.1502    1.0000 </r>
       <r>    6.1879    1.0000 </r>
       <r>    6.3308    1.0000 </r>
       <r>    6.8678    1.0000 </r>
       <r>    6.9397    1.0000 </r>
       <r>    7.8242    1.0000 </r>
       <r>    8.5109    1.0000 </r>
       <r>   10.2688   -0.0000 </r>
       <r>   11.0797   -0.0000 </r>
       <r>   16.8516    0.0000 </r>
       <r>   17.2790    0.0000 </r>
       <r>   17.2951    0.0000 </r>
       <r>   18.5939    0.0000 </r>
       <r>   19.2055    0.0000 </r>
       <r>   20.3859    0.0000 </r>
       <r>   21.0973    0.0000 </r>
       <r>   22.3621    0.0000 </r>
       <r>   23.5128    0.0000 </r>
       <r>   24.1081    0.0000 </r>
       <r>   24.9824    0.0000 </r>
       <r>   26.5545    0.0000 </r>
       <r>   27.2782    0.0000 </r>
       <r>   28.8779    0.0000 </r>
       <r>   29.0378    0.0000 </r>
       <r>   29.6636    0.0000 </r>
       <r>   29.9577    0.0000 </r>
       <r>   30.9030    0.0000 </r>
       <r>   31.4240    0.0000 </r>
       <r>   33.0233    0.0000 </r>
       <r>   34.2814    0.0000 </r>
       <r>   34.8457    0.0000 </r>
       <r>   35.7481    0.0000 </r>
       <r>   35.7690    0.0000 </r>
      </set>
      <set comment="kpoint 15">
       <r>    3.0307    1.0000 </r>
       <r>    3.4823    1.0000 </r>
       <r>    3.4823    1.0000 </r>
       <r>    3.5728    1.0000 </r>
       <r>    4.2049    1.0000 </r>
       <r>    4.2099    1.0000 </r>
       <r>    4.2099    1.0000 </r>
       <r>    4.4463    1.0000 </r>
       <r>    4.5063    1.0000 </r>
       <r>    4.5123    1.0000 </r>
       <r>    4.5123    1.0000 </r>
       <r>    4.7901    1.0000 </r>
       <r>    5.7041    1.0000 </r>
       <r>    5.8521    1.0000 </r>
       <r>    5.8861    1.0000 </r>
       <r>    5.8861    1.0000 </r>
       <r>    6.0699    1.0000 </r>
       <r>    6.4104    1.0000 </r>
       <r>    6.4104    1.0000 </r>
       <r>    6.6046    1.0000 </r>
       <r>    8.4952    1.0000 </r>
       <r>    9.2754    1.0031 </r>
       <r>    9.2754    1.0031 </r>
       <r>   10.0975   -0.0000 </r>
       <r>   17.3240    0.0000 </r>
       <r>   18.0987    0.0000 </r>
       <r>   18.0987    0.0000 </r>
       <r>   18.5228    0.0000 </r>
       <r>   19.1251    0.0000 </r>
       <r>   19.8243    0.0000 </r>
       <r>   19.8243    0.0000 </r>
       <r>   21.1089    0.0000 </r>
       <r>   25.4139    0.0000 </r>
       <r>   25.4139    0.0000 </r>
       <r>   26.0569    0.0000 </r>
       <r>   26.3259    0.0000 </r>
       <r>   26.4992    0.0000 </r>
       <r>   28.4815    0.0000 </r>
       <r>   28.4815    0.0000 </r>
       <r>   29.3539    0.0000 </r>
       <r>   30.0999    0.0000 </r>
       <r>   30.9661    0.0000 </r>
       <r>   30.9661    0.0000 </r>
       <r>   32.2869    0.0000 </r>
       <r>   35.1254    0.0000 </r>
       <r>   35.4023    0.0000 </r>
       <r>   35.5167    0.0000 </r>
       <r>   35.5167    0.0000 </r>
      </set>
      <set comment="kpoint 16">
       <r>    0.0661    1.0000 </r>
       <r>    2.6591    1.0000 </r>
       <r>    2.6591    1.0000 </r>
       <r>    2.6591    1.0000 </r>
       <r>    2.9800    1.0000 </r>
       <r>    2.9800    1.0000 </r>
       <r>    2.9800    1.0000 </r>
       <r>    4.6978    1.0000 </r>
       <r>    4.9608    1.0000 </r>
       <r>    4.9608    1.0000 </r>
       <r>    6.2993    1.0000 </r>
       <r>    6.2993    1.0000 </r>
       <r>    6.8911    1.0000 </r>
       <r>    6.8911    1.0000 </r>
       <r>    6.8911    1.0000 </r>
       <r>    7.1742    1.0000 </r>
       <r>    7.1742    1.0000 </r>
       <r>    7.1742    1.0000 </r>
       <r>    7.7570    1.0000 </r>
       <r>    7.7570    1.0000 </r>
       <r>    7.7570    1.0000 </r>
       <r>   10.6662   -0.0000 </r>
       <r>   10.6662   -0.0000 </r>
       <r>   10.6662   -0.0000 </r>
       <r>   16.0976    0.0000 </r>
       <r>   16.0976    0.0000 </r>
       <r>   16.0976    0.0000 </r>
       <r>   19.0028    0.0000 </r>
       <r>   19.0028    0.0000 </r>
       <r>   19.0028    0.0000 </r>
       <r>   20.3956    0.0000 </r>
       <r>   20.3956    0.0000 </r>
       <r>   20.3956    0.0000 </r>
       <r>   24.4818    0.0000 </r>
       <r>   25.8874    0.0000 </r>
       <r>   27.4148    0.0000 </r>
       <r>   27.4148    0.0000 </r>
       <r>   27.4148    0.0000 </r>
       <r>   28.5753    0.0000 </r>
       <r>   28.5753    0.0000 </r>
       <r>   29.8200    0.0000 </r>
       <r>   29.8200    0.0000 </r>
       <r>   29.8200    0.0000 </r>
       <r>   33.3836    0.0000 </r>
       <r>   35.6764    0.0000 </r>
       <r>   35.6764    0.0000 </r>
       <r>   36.2218    0.0000 </r>
       <r>   36.7019    0.0000 </r>
      </set>
      <set comment="kpoint 17">
       <r>    0.4709    1.0000 </r>
       <r>    2.7742    1.0000 </r>
       <r>    2.8748    1.0000 </r>
       <r>    2.8748    1.0000 </r>
       <r>    3.1308    1.0000 </r>
       <r>    3.2505    1.0000 </r>
       <r>    3.2505    1.0000 </r>
       <r>    4.5493    1.0000 </r>
       <r>    5.0919    1.0000 </r>
       <r>    5.1013    1.0000 </r>
       <r>    6.1219    1.0000 </r>
       <r>    6.1276    1.0000 </r>
       <r>    6.1276    1.0000 </r>
       <r>    6.3352    1.0000 </r>
       <r>    6.4379    1.0000 </r>
       <r>    6.8652    1.0000 </r>
       <r>    6.9340    1.0000 </r>
       <r>    6.9340    1.0000 </r>
       <r>    7.6415    1.0000 </r>
       <r>    7.7030    1.0000 </r>
       <r>    7.7030    1.0000 </r>
       <r>    9.1586    1.0000 </r>
       <r>   11.5965   -0.0000 </r>
       <r>   11.5965   -0.0000 </r>
       <r>   15.5220    0.0000 </r>
       <r>   15.5220    0.0000 </r>
       <r>   17.9089    0.0000 </r>
       <r>   18.5110    0.0000 </r>
       <r>   18.5110    0.0000 </r>
       <r>   20.3087    0.0000 </r>
       <r>   20.6598    0.0000 </r>
       <r>   20.6598    0.0000 </r>
       <r>   21.1773    0.0000 </r>
       <r>   24.3796    0.0000 </r>
       <r>   25.2218    0.0000 </r>
       <r>   27.1478    0.0000 </r>
       <r>   27.9510    0.0000 </r>
       <r>   27.9510    0.0000 </r>
       <r>   28.1349    0.0000 </r>
       <r>   29.1127    0.0000 </r>
       <r>   29.5699    0.0000 </r>
       <r>   30.9530    0.0000 </r>
       <r>   30.9530    0.0000 </r>
       <r>   32.2821    0.0000 </r>
       <r>   34.2561    0.0000 </r>
       <r>   35.3417    0.0000 </r>
       <r>   35.9056    0.0000 </r>
       <r>   35.9056    0.0000 </r>
      </set>
      <set comment="kpoint 18">
       <r>    1.1061    1.0000 </r>
       <r>    2.8313    1.0000 </r>
       <r>    3.2147    1.0000 </r>
       <r>    3.2147    1.0000 </r>
       <r>    3.3646    1.0000 </r>
       <r>    3.6352    1.0000 </r>
       <r>    3.6352    1.0000 </r>
       <r>    4.2857    1.0000 </r>
       <r>    5.2480    1.0000 </r>
       <r>    5.3211    1.0000 </r>
       <r>    5.3211    1.0000 </r>
       <r>    5.3341    1.0000 </r>
       <r>    5.6283    1.0000 </r>
       <r>    6.0041    1.0000 </r>
       <r>    6.4615    1.0000 </r>
       <r>    6.5871    1.0000 </r>
       <r>    6.5871    1.0000 </r>
       <r>    6.6500    1.0000 </r>
       <r>    7.4421    1.0000 </r>
       <r>    7.6532    1.0000 </r>
       <r>    7.6532    1.0000 </r>
       <r>    7.8872    1.0000 </r>
       <r>   12.5458    0.0000 </r>
       <r>   12.5458    0.0000 </r>
       <r>   14.9781    0.0000 </r>
       <r>   14.9781    0.0000 </r>
       <r>   18.1497    0.0000 </r>
       <r>   18.1497    0.0000 </r>
       <r>   19.5562    0.0000 </r>
       <r>   20.4972    0.0000 </r>
       <r>   20.4972    0.0000 </r>
       <r>   22.3768    0.0000 </r>
       <r>   22.3957    0.0000 </r>
       <r>   23.4466    0.0000 </r>
       <r>   25.5560    0.0000 </r>
       <r>   26.8821    0.0000 </r>
       <r>   27.0651    0.0000 </r>
       <r>   28.6285    0.0000 </r>
       <r>   28.9155    0.0000 </r>
       <r>   28.9155    0.0000 </r>
       <r>   29.2462    0.0000 </r>
       <r>   31.2280    0.0000 </r>
       <r>   32.4726    0.0000 </r>
       <r>   32.4726    0.0000 </r>
       <r>   33.8360    0.0000 </r>
       <r>   34.5141    0.0000 </r>
       <r>   34.7454    0.0000 </r>
       <r>   34.7454    0.0000 </r>
      </set>
      <set comment="kpoint 19">
       <r>    1.8792    1.0000 </r>
       <r>    2.5605    1.0000 </r>
       <r>    3.5983    1.0000 </r>
       <r>    3.5983    1.0000 </r>
       <r>    3.6529    1.0000 </r>
       <r>    3.9709    1.0000 </r>
       <r>    3.9842    1.0000 </r>
       <r>    3.9842    1.0000 </r>
       <r>    4.6674    1.0000 </r>
       <r>    4.6674    1.0000 </r>
       <r>    5.1783    1.0000 </r>
       <r>    5.1803    1.0000 </r>
       <r>    5.6525    1.0000 </r>
       <r>    6.0394    1.0000 </r>
       <r>    6.2653    1.0000 </r>
       <r>    6.2653    1.0000 </r>
       <r>    6.2936    1.0000 </r>
       <r>    6.9100    1.0000 </r>
       <r>    6.9459    1.0000 </r>
       <r>    7.1861    1.0000 </r>
       <r>    7.6313    1.0000 </r>
       <r>    7.6313    1.0000 </r>
       <r>   13.1741    0.0000 </r>
       <r>   13.1741    0.0000 </r>
       <r>   14.6825    0.0000 </r>
       <r>   14.6825    0.0000 </r>
       <r>   17.8967    0.0000 </r>
       <r>   17.8967    0.0000 </r>
       <r>   20.2749    0.0000 </r>
       <r>   20.2749    0.0000 </r>
       <r>   21.0296    0.0000 </r>
       <r>   22.3304    0.0000 </r>
       <r>   23.8752    0.0000 </r>
       <r>   24.7016    0.0000 </r>
       <r>   25.5199    0.0000 </r>
       <r>   25.8474    0.0000 </r>
       <r>   26.7770    0.0000 </r>
       <r>   27.4357    0.0000 </r>
       <r>   29.1208    0.0000 </r>
       <r>   29.8175    0.0000 </r>
       <r>   29.9091    0.0000 </r>
       <r>   29.9091    0.0000 </r>
       <r>   32.6615    0.0000 </r>
       <r>   32.6615    0.0000 </r>
       <r>   34.3205    0.0000 </r>
       <r>   34.7031    0.0000 </r>
       <r>   35.3122    0.0000 </r>
       <r>   35.4448    0.0000 </r>
      </set>
      <set comment="kpoint 20">
       <r>    0.8421    1.0000 </r>
       <r>    2.9760    1.0000 </r>
       <r>    2.9760    1.0000 </r>
       <r>    2.9798    1.0000 </r>
       <r>    3.4069    1.0000 </r>
       <r>    3.4069    1.0000 </r>
       <r>    3.5546    1.0000 </r>
       <r>    4.5178    1.0000 </r>
       <r>    5.1371    1.0000 </r>
       <r>    5.1444    1.0000 </r>
       <r>    5.6297    1.0000 </r>
       <r>    5.6297    1.0000 </r>
       <r>    5.7819    1.0000 </r>
       <r>    6.1289    1.0000 </r>
       <r>    6.5138    1.0000 </r>
       <r>    6.6083    1.0000 </r>
       <r>    6.6697    1.0000 </r>
       <r>    6.6697    1.0000 </r>
       <r>    7.5967    1.0000 </r>
       <r>    7.5980    1.0000 </r>
       <r>    7.5980    1.0000 </r>
       <r>   10.0113   -0.0000 </r>
       <r>   10.0113   -0.0000 </r>
       <r>   12.3188    0.0000 </r>
       <r>   14.5470    0.0000 </r>
       <r>   16.8100    0.0000 </r>
       <r>   16.8100    0.0000 </r>
       <r>   18.2904    0.0000 </r>
       <r>   20.1819    0.0000 </r>
       <r>   20.1819    0.0000 </r>
       <r>   21.3847    0.0000 </r>
       <r>   21.3847    0.0000 </r>
       <r>   21.8611    0.0000 </r>
       <r>   23.2073    0.0000 </r>
       <r>   25.2006    0.0000 </r>
       <r>   27.1617    0.0000 </r>
       <r>   27.6339    0.0000 </r>
       <r>   27.6339    0.0000 </r>
       <r>   28.1549    0.0000 </r>
       <r>   30.2275    0.0000 </r>
       <r>   30.8540    0.0000 </r>
       <r>   30.8580    0.0000 </r>
       <r>   30.8580    0.0000 </r>
       <r>   32.5885    0.0000 </r>
       <r>   34.0369    0.0000 </r>
       <r>   34.3007    0.0000 </r>
       <r>   35.7998    0.0000 </r>
       <r>   35.8190    0.0000 </r>
      </set>
      <set comment="kpoint 21">
       <r>    1.4195    1.0000 </r>
       <r>    3.0121    1.0000 </r>
       <r>    3.2137    1.0000 </r>
       <r>    3.2943    1.0000 </r>
       <r>    3.6450    1.0000 </r>
       <r>    3.7869    1.0000 </r>
       <r>    3.8983    1.0000 </r>
       <r>    4.3674    1.0000 </r>
       <r>    4.9432    1.0000 </r>
       <r>    5.0953    1.0000 </r>
       <r>    5.1555    1.0000 </r>
       <r>    5.2480    1.0000 </r>
       <r>    5.3018    1.0000 </r>
       <r>    6.1102    1.0000 </r>
       <r>    6.2752    1.0000 </r>
       <r>    6.3288    1.0000 </r>
       <r>    6.4492    1.0000 </r>
       <r>    6.8050    1.0000 </r>
       <r>    7.3754    1.0000 </r>
       <r>    7.4690    1.0000 </r>
       <r>    7.4740    1.0000 </r>
       <r>    8.6673    1.0000 </r>
       <r>   10.9169   -0.0000 </r>
       <r>   12.9528    0.0000 </r>
       <r>   13.8085    0.0000 </r>
       <r>   15.8022    0.0000 </r>
       <r>   18.0989    0.0000 </r>
       <r>   18.3498    0.0000 </r>
       <r>   19.8609    0.0000 </r>
       <r>   21.3449    0.0000 </r>
       <r>   21.9668    0.0000 </r>
       <r>   22.0418    0.0000 </r>
       <r>   22.2901    0.0000 </r>
       <r>   22.7573    0.0000 </r>
       <r>   25.1302    0.0000 </r>
       <r>   27.3539    0.0000 </r>
       <r>   27.3552    0.0000 </r>
       <r>   27.4497    0.0000 </r>
       <r>   28.4893    0.0000 </r>
       <r>   29.2718    0.0000 </r>
       <r>   30.7877    0.0000 </r>
       <r>   31.4761    0.0000 </r>
       <r>   32.1661    0.0000 </r>
       <r>   33.0203    0.0000 </r>
       <r>   34.1378    0.0000 </r>
       <r>   34.7684    0.0000 </r>
       <r>   35.0404    0.0000 </r>
       <r>   35.1078    0.0000 </r>
      </set>
      <set comment="kpoint 22">
       <r>    2.1167    1.0000 </r>
       <r>    2.7412    1.0000 </r>
       <r>    3.5643    1.0000 </r>
       <r>    3.6851    1.0000 </r>
       <r>    3.8994    1.0000 </r>
       <r>    3.9374    1.0000 </r>
       <r>    4.0117    1.0000 </r>
       <r>    4.1425    1.0000 </r>
       <r>    4.6175    1.0000 </r>
       <r>    4.8164    1.0000 </r>
       <r>    4.8614    1.0000 </r>
       <r>    5.0009    1.0000 </r>
       <r>    5.5448    1.0000 </r>
       <r>    5.8770    1.0000 </r>
       <r>    6.1190    1.0000 </r>
       <r>    6.1872    1.0000 </r>
       <r>    6.4183    1.0000 </r>
       <r>    6.9527    1.0000 </r>
       <r>    7.1979    1.0000 </r>
       <r>    7.3915    1.0000 </r>
       <r>    7.3938    1.0000 </r>
       <r>    7.7411    1.0000 </r>
       <r>   11.7498   -0.0000 </r>
       <r>   12.4991    0.0000 </r>
       <r>   14.2516    0.0000 </r>
       <r>   14.9787    0.0000 </r>
       <r>   18.6818    0.0000 </r>
       <r>   19.2612    0.0000 </r>
       <r>   19.4211    0.0000 </r>
       <r>   20.7187    0.0000 </r>
       <r>   21.5438    0.0000 </r>
       <r>   21.9732    0.0000 </r>
       <r>   23.4581    0.0000 </r>
       <r>   24.6031    0.0000 </r>
       <r>   24.7161    0.0000 </r>
       <r>   26.2635    0.0000 </r>
       <r>   27.4072    0.0000 </r>
       <r>   28.1163    0.0000 </r>
       <r>   28.3305    0.0000 </r>
       <r>   28.9739    0.0000 </r>
       <r>   30.8888    0.0000 </r>
       <r>   31.3529    0.0000 </r>
       <r>   32.4164    0.0000 </r>
       <r>   33.1731    0.0000 </r>
       <r>   33.3708    0.0000 </r>
       <r>   34.4170    0.0000 </r>
       <r>   35.2934    0.0000 </r>
       <r>   36.0638    0.0000 </r>
      </set>
      <set comment="kpoint 23">
       <r>    1.8940    1.0000 </r>
       <r>    3.2628    1.0000 </r>
       <r>    3.2628    1.0000 </r>
       <r>    3.2946    1.0000 </r>
       <r>    4.0537    1.0000 </r>
       <r>    4.0537    1.0000 </r>
       <r>    4.1512    1.0000 </r>
       <r>    4.4156    1.0000 </r>
       <r>    4.6088    1.0000 </r>
       <r>    4.6088    1.0000 </r>
       <r>    5.0903    1.0000 </r>
       <r>    5.0982    1.0000 </r>
       <r>    5.3262    1.0000 </r>
       <r>    6.0466    1.0000 </r>
       <r>    6.1037    1.0000 </r>
       <r>    6.1243    1.0000 </r>
       <r>    6.1243    1.0000 </r>
       <r>    7.2051    1.0000 </r>
       <r>    7.2051    1.0000 </r>
       <r>    7.2175    1.0000 </r>
       <r>    7.2615    1.0000 </r>
       <r>    9.5193    0.3555 </r>
       <r>    9.5193    0.3555 </r>
       <r>   12.1888   -0.0000 </r>
       <r>   14.1041    0.0000 </r>
       <r>   16.8139    0.0000 </r>
       <r>   16.8139    0.0000 </r>
       <r>   18.7174    0.0000 </r>
       <r>   20.5598    0.0000 </r>
       <r>   21.2210    0.0000 </r>
       <r>   21.2210    0.0000 </r>
       <r>   23.0299    0.0000 </r>
       <r>   23.0299    0.0000 </r>
       <r>   23.9647    0.0000 </r>
       <r>   24.4043    0.0000 </r>
       <r>   26.3256    0.0000 </r>
       <r>   27.0897    0.0000 </r>
       <r>   28.1547    0.0000 </r>
       <r>   28.1547    0.0000 </r>
       <r>   29.5024    0.0000 </r>
       <r>   31.7060    0.0000 </r>
       <r>   31.8840    0.0000 </r>
       <r>   31.8840    0.0000 </r>
       <r>   32.6727    0.0000 </r>
       <r>   34.8939    0.0000 </r>
       <r>   35.2046    0.0000 </r>
       <r>   35.2047    0.0000 </r>
       <r>   35.2317    0.0000 </r>
      </set>
      <set comment="kpoint 24">
       <r>    2.4503    1.0000 </r>
       <r>    2.9635    1.0000 </r>
       <r>    3.4351    1.0000 </r>
       <r>    3.4722    1.0000 </r>
       <r>    4.1753    1.0000 </r>
       <r>    4.1974    1.0000 </r>
       <r>    4.2917    1.0000 </r>
       <r>    4.3788    1.0000 </r>
       <r>    4.6014    1.0000 </r>
       <r>    4.6454    1.0000 </r>
       <r>    4.8983    1.0000 </r>
       <r>    4.9400    1.0000 </r>
       <r>    5.4649    1.0000 </r>
       <r>    5.7539    1.0000 </r>
       <r>    5.8724    1.0000 </r>
       <r>    5.9434    1.0000 </r>
       <r>    6.3322    1.0000 </r>
       <r>    6.7857    1.0000 </r>
       <r>    7.0851    1.0000 </r>
       <r>    7.1040    1.0000 </r>
       <r>    7.7682    1.0000 </r>
       <r>    8.4870    1.0000 </r>
       <r>   10.3560   -0.0000 </r>
       <r>   11.2151   -0.0000 </r>
       <r>   14.8834    0.0000 </r>
       <r>   15.7606    0.0000 </r>
       <r>   17.9786    0.0000 </r>
       <r>   19.2352    0.0000 </r>
       <r>   19.3521    0.0000 </r>
       <r>   20.2351    0.0000 </r>
       <r>   22.3820    0.0000 </r>
       <r>   23.4786    0.0000 </r>
       <r>   23.4907    0.0000 </r>
       <r>   24.1033    0.0000 </r>
       <r>   24.8532    0.0000 </r>
       <r>   26.1611    0.0000 </r>
       <r>   26.9950    0.0000 </r>
       <r>   28.1572    0.0000 </r>
       <r>   28.3296    0.0000 </r>
       <r>   29.1965    0.0000 </r>
       <r>   31.1042    0.0000 </r>
       <r>   31.5079    0.0000 </r>
       <r>   32.1946    0.0000 </r>
       <r>   33.3163    0.0000 </r>
       <r>   33.9081    0.0000 </r>
       <r>   34.8508    0.0000 </r>
       <r>   35.7117    0.0000 </r>
       <r>   36.2337    0.0000 </r>
      </set>
      <set comment="kpoint 25">
       <r>    2.8113    1.0000 </r>
       <r>    3.1569    1.0000 </r>
       <r>    3.1569    1.0000 </r>
       <r>    3.3024    1.0000 </r>
       <r>    4.3588    1.0000 </r>
       <r>    4.4443    1.0000 </r>
       <r>    4.4443    1.0000 </r>
       <r>    4.5227    1.0000 </r>
       <r>    4.7515    1.0000 </r>
       <r>    4.7515    1.0000 </r>
       <r>    4.8765    1.0000 </r>
       <r>    4.9842    1.0000 </r>
       <r>    5.4326    1.0000 </r>
       <r>    5.6288    1.0000 </r>
       <r>    5.6288    1.0000 </r>
       <r>    5.6400    1.0000 </r>
       <r>    6.3882    1.0000 </r>
       <r>    6.7024    1.0000 </r>
       <r>    6.7024    1.0000 </r>
       <r>    6.8265    1.0000 </r>
       <r>    8.4481    1.0000 </r>
       <r>    9.2700    1.0025 </r>
       <r>    9.2700    1.0025 </r>
       <r>   10.1420   -0.0000 </r>
       <r>   15.7365    0.0000 </r>
       <r>   16.7560    0.0000 </r>
       <r>   16.7560    0.0000 </r>
       <r>   17.9155    0.0000 </r>
       <r>   20.2009    0.0000 </r>
       <r>   21.2401    0.0000 </r>
       <r>   21.2401    0.0000 </r>
       <r>   22.3411    0.0000 </r>
       <r>   25.2144    0.0000 </r>
       <r>   25.2144    0.0000 </r>
       <r>   25.7596    0.0000 </r>
       <r>   25.9215    0.0000 </r>
       <r>   26.4432    0.0000 </r>
       <r>   28.0199    0.0000 </r>
       <r>   28.0199    0.0000 </r>
       <r>   29.0897    0.0000 </r>
       <r>   30.7606    0.0000 </r>
       <r>   31.6635    0.0000 </r>
       <r>   31.6635    0.0000 </r>
       <r>   32.6995    0.0000 </r>
       <r>   34.8200    0.0000 </r>
       <r>   35.0610    0.0000 </r>
       <r>   35.3244    0.0000 </r>
       <r>   35.3244    0.0000 </r>
      </set>
      <set comment="kpoint 26">
       <r>    1.1537    1.0000 </r>
       <r>    3.0214    1.0000 </r>
       <r>    3.0214    1.0000 </r>
       <r>    3.0214    1.0000 </r>
       <r>    3.7312    1.0000 </r>
       <r>    3.7312    1.0000 </r>
       <r>    3.7312    1.0000 </r>
       <r>    4.6050    1.0000 </r>
       <r>    5.1184    1.0000 </r>
       <r>    5.1184    1.0000 </r>
       <r>    5.3923    1.0000 </r>
       <r>    5.3923    1.0000 </r>
       <r>    5.3923    1.0000 </r>
       <r>    6.2555    1.0000 </r>
       <r>    6.2555    1.0000 </r>
       <r>    6.2555    1.0000 </r>
       <r>    6.4089    1.0000 </r>
       <r>    6.4089    1.0000 </r>
       <r>    7.6660    1.0000 </r>
       <r>    7.6660    1.0000 </r>
       <r>    7.6660    1.0000 </r>
       <r>   10.6309   -0.0000 </r>
       <r>   10.6309   -0.0000 </r>
       <r>   10.6309   -0.0000 </r>
       <r>   15.4066    0.0000 </r>
       <r>   15.4066    0.0000 </r>
       <r>   15.4066    0.0000 </r>
       <r>   20.4035    0.0000 </r>
       <r>   20.4035    0.0000 </r>
       <r>   20.4035    0.0000 </r>
       <r>   21.8034    0.0000 </r>
       <r>   22.4509    0.0000 </r>
       <r>   22.4509    0.0000 </r>
       <r>   22.4509    0.0000 </r>
       <r>   25.2453    0.0000 </r>
       <r>   26.7509    0.0000 </r>
       <r>   26.7509    0.0000 </r>
       <r>   26.7509    0.0000 </r>
       <r>   29.5352    0.0000 </r>
       <r>   29.5352    0.0000 </r>
       <r>   31.2557    0.0000 </r>
       <r>   32.6511    0.0000 </r>
       <r>   32.6511    0.0000 </r>
       <r>   32.6511    0.0000 </r>
       <r>   32.9228    0.0000 </r>
       <r>   32.9228    0.0000 </r>
       <r>   35.6624    0.0000 </r>
       <r>   35.6624    0.0000 </r>
      </set>
      <set comment="kpoint 27">
       <r>    1.6270    1.0000 </r>
       <r>    2.9664    1.0000 </r>
       <r>    3.1692    1.0000 </r>
       <r>    3.1692    1.0000 </r>
       <r>    4.0178    1.0000 </r>
       <r>    4.0421    1.0000 </r>
       <r>    4.0421    1.0000 </r>
       <r>    4.6103    1.0000 </r>
       <r>    4.9798    1.0000 </r>
       <r>    5.0763    1.0000 </r>
       <r>    5.0763    1.0000 </r>
       <r>    5.1014    1.0000 </r>
       <r>    5.1643    1.0000 </r>
       <r>    5.8809    1.0000 </r>
       <r>    6.0254    1.0000 </r>
       <r>    6.0254    1.0000 </r>
       <r>    6.4412    1.0000 </r>
       <r>    6.7595    1.0000 </r>
       <r>    7.5575    1.0000 </r>
       <r>    7.5575    1.0000 </r>
       <r>    7.6087    1.0000 </r>
       <r>    9.0817    1.0000 </r>
       <r>   11.4168   -0.0000 </r>
       <r>   11.4168   -0.0000 </r>
       <r>   14.1575    0.0000 </r>
       <r>   14.1575    0.0000 </r>
       <r>   16.5182    0.0000 </r>
       <r>   20.4308    0.0000 </r>
       <r>   20.6255    0.0000 </r>
       <r>   20.6255    0.0000 </r>
       <r>   22.6971    0.0000 </r>
       <r>   22.7004    0.0000 </r>
       <r>   22.7004    0.0000 </r>
       <r>   23.4171    0.0000 </r>
       <r>   25.1459    0.0000 </r>
       <r>   26.3537    0.0000 </r>
       <r>   26.9100    0.0000 </r>
       <r>   26.9100    0.0000 </r>
       <r>   28.0214    0.0000 </r>
       <r>   29.9967    0.0000 </r>
       <r>   31.0421    0.0000 </r>
       <r>   32.7962    0.0000 </r>
       <r>   32.9680    0.0000 </r>
       <r>   33.3476    0.0000 </r>
       <r>   33.9759    0.0000 </r>
       <r>   33.9759    0.0000 </r>
       <r>   35.1938    0.0000 </r>
       <r>   35.3845    0.0000 </r>
      </set>
      <set comment="kpoint 28">
       <r>    2.1816    1.0000 </r>
       <r>    2.6818    1.0000 </r>
       <r>    3.3548    1.0000 </r>
       <r>    3.3548    1.0000 </r>
       <r>    4.0696    1.0000 </r>
       <r>    4.0696    1.0000 </r>
       <r>    4.3332    1.0000 </r>
       <r>    4.5184    1.0000 </r>
       <r>    4.7937    1.0000 </r>
       <r>    4.9396    1.0000 </r>
       <r>    5.0450    1.0000 </r>
       <r>    5.0450    1.0000 </r>
       <r>    5.3090    1.0000 </r>
       <r>    5.5533    1.0000 </r>
       <r>    5.8600    1.0000 </r>
       <r>    5.8600    1.0000 </r>
       <r>    6.9018    1.0000 </r>
       <r>    7.1134    1.0000 </r>
       <r>    7.4134    1.0000 </r>
       <r>    7.4323    1.0000 </r>
       <r>    7.4323    1.0000 </r>
       <r>    7.8125    1.0000 </r>
       <r>   12.2466    0.0000 </r>
       <r>   12.2466    0.0000 </r>
       <r>   13.1291    0.0000 </r>
       <r>   13.1291    0.0000 </r>
       <r>   17.7795    0.0000 </r>
       <r>   19.0957    0.0000 </r>
       <r>   20.8951    0.0000 </r>
       <r>   20.8951    0.0000 </r>
       <r>   22.3205    0.0000 </r>
       <r>   22.3205    0.0000 </r>
       <r>   24.5353    0.0000 </r>
       <r>   24.7228    0.0000 </r>
       <r>   25.0367    0.0000 </r>
       <r>   26.3010    0.0000 </r>
       <r>   26.5299    0.0000 </r>
       <r>   27.5906    0.0000 </r>
       <r>   27.5906    0.0000 </r>
       <r>   28.1023    0.0000 </r>
       <r>   32.2526    0.0000 </r>
       <r>   32.8500    0.0000 </r>
       <r>   33.3609    0.0000 </r>
       <r>   33.3609    0.0000 </r>
       <r>   33.6015    0.0000 </r>
       <r>   34.4312    0.0000 </r>
       <r>   34.5079    0.0000 </r>
       <r>   35.4358    0.0000 </r>
      </set>
      <set comment="kpoint 29">
       <r>    1.9357    1.0000 </r>
       <r>    2.9870    1.0000 </r>
       <r>    2.9870    1.0000 </r>
       <r>    3.1019    1.0000 </r>
       <r>    4.2219    1.0000 </r>
       <r>    4.3069    1.0000 </r>
       <r>    4.3069    1.0000 </r>
       <r>    4.8677    1.0000 </r>
       <r>    4.9624    1.0000 </r>
       <r>    4.9624    1.0000 </r>
       <r>    5.0855    1.0000 </r>
       <r>    5.0954    1.0000 </r>
       <r>    5.2677    1.0000 </r>
       <r>    5.6821    1.0000 </r>
       <r>    5.6821    1.0000 </r>
       <r>    5.6957    1.0000 </r>
       <r>    6.5400    1.0000 </r>
       <r>    7.0753    1.0000 </r>
       <r>    7.4883    1.0000 </r>
       <r>    7.5272    1.0000 </r>
       <r>    7.5272    1.0000 </r>
       <r>    9.7719   -0.0005 </r>
       <r>    9.7719   -0.0005 </r>
       <r>   12.0467   -0.0000 </r>
       <r>   12.7939    0.0000 </r>
       <r>   15.1202    0.0000 </r>
       <r>   15.1202    0.0000 </r>
       <r>   18.9588    0.0000 </r>
       <r>   21.0435    0.0000 </r>
       <r>   22.8627    0.0000 </r>
       <r>   22.8627    0.0000 </r>
       <r>   23.3575    0.0000 </r>
       <r>   23.3575    0.0000 </r>
       <r>   24.2633    0.0000 </r>
       <r>   24.7639    0.0000 </r>
       <r>   25.8177    0.0000 </r>
       <r>   26.6092    0.0000 </r>
       <r>   26.6092    0.0000 </r>
       <r>   27.5180    0.0000 </r>
       <r>   30.1456    0.0000 </r>
       <r>   31.1524    0.0000 </r>
       <r>   32.6535    0.0000 </r>
       <r>   33.8048    0.0000 </r>
       <r>   33.8048    0.0000 </r>
       <r>   34.0116    0.0000 </r>
       <r>   35.0589    0.0000 </r>
       <r>   35.1538    0.0000 </r>
       <r>   35.5856    0.0000 </r>
      </set>
      <set comment="kpoint 30">
       <r>    2.3017    1.0000 </r>
       <r>    2.6741    1.0000 </r>
       <r>    3.0360    1.0000 </r>
       <r>    3.0712    1.0000 </r>
       <r>    4.2721    1.0000 </r>
       <r>    4.2998    1.0000 </r>
       <r>    4.6229    1.0000 </r>
       <r>    4.8460    1.0000 </r>
       <r>    4.9667    1.0000 </r>
       <r>    5.0544    1.0000 </r>
       <r>    5.1894    1.0000 </r>
       <r>    5.2522    1.0000 </r>
       <r>    5.3864    1.0000 </r>
       <r>    5.4274    1.0000 </r>
       <r>    5.5284    1.0000 </r>
       <r>    5.5787    1.0000 </r>
       <r>    6.8383    1.0000 </r>
       <r>    7.2900    1.0000 </r>
       <r>    7.3604    1.0000 </r>
       <r>    7.3726    1.0000 </r>
       <r>    7.6048    1.0000 </r>
       <r>    8.4522    1.0000 </r>
       <r>   10.5764   -0.0000 </r>
       <r>   11.4892   -0.0000 </r>
       <r>   13.0214    0.0000 </r>
       <r>   13.9628    0.0000 </r>
       <r>   16.2915    0.0000 </r>
       <r>   17.5807    0.0000 </r>
       <r>   21.6045    0.0000 </r>
       <r>   22.3604    0.0000 </r>
       <r>   23.4574    0.0000 </r>
       <r>   24.0301    0.0000 </r>
       <r>   24.1039    0.0000 </r>
       <r>   24.4370    0.0000 </r>
       <r>   24.7068    0.0000 </r>
       <r>   26.1332    0.0000 </r>
       <r>   26.4473    0.0000 </r>
       <r>   27.0289    0.0000 </r>
       <r>   27.1047    0.0000 </r>
       <r>   28.6569    0.0000 </r>
       <r>   32.1948    0.0000 </r>
       <r>   33.2528    0.0000 </r>
       <r>   33.3802    0.0000 </r>
       <r>   33.6798    0.0000 </r>
       <r>   33.8731    0.0000 </r>
       <r>   34.8873    0.0000 </r>
       <r>   35.2389    0.0000 </r>
       <r>   35.5938    0.0000 </r>
      </set>
      <set comment="kpoint 31">
       <r>    2.4851    1.0000 </r>
       <r>    2.7333    1.0000 </r>
       <r>    2.7333    1.0000 </r>
       <r>    2.8640    1.0000 </r>
       <r>    4.4527    1.0000 </r>
       <r>    4.5606    1.0000 </r>
       <r>    4.5606    1.0000 </r>
       <r>    4.7584    1.0000 </r>
       <r>    5.1170    1.0000 </r>
       <r>    5.2287    1.0000 </r>
       <r>    5.2287    1.0000 </r>
       <r>    5.3024    1.0000 </r>
       <r>    5.5086    1.0000 </r>
       <r>    5.5415    1.0000 </r>
       <r>    5.5415    1.0000 </r>
       <r>    5.6664    1.0000 </r>
       <r>    6.8315    1.0000 </r>
       <r>    7.1256    1.0000 </r>
       <r>    7.1256    1.0000 </r>
       <r>    7.1815    1.0000 </r>
       <r>    8.2997    1.0000 </r>
       <r>    9.2441    1.0008 </r>
       <r>    9.2441    1.0008 </r>
       <r>   10.2181   -0.0000 </r>
       <r>   13.9285    0.0000 </r>
       <r>   15.0114    0.0000 </r>
       <r>   15.0114    0.0000 </r>
       <r>   16.2199    0.0000 </r>
       <r>   22.2656    0.0000 </r>
       <r>   23.1042    0.0000 </r>
       <r>   23.1042    0.0000 </r>
       <r>   23.7989    0.0000 </r>
       <r>   24.8372    0.0000 </r>
       <r>   24.8372    0.0000 </r>
       <r>   25.1775    0.0000 </r>
       <r>   25.5070    0.0000 </r>
       <r>   26.3317    0.0000 </r>
       <r>   27.2912    0.0000 </r>
       <r>   27.2912    0.0000 </r>
       <r>   28.4159    0.0000 </r>
       <r>   32.1495    0.0000 </r>
       <r>   32.9585    0.0000 </r>
       <r>   32.9585    0.0000 </r>
       <r>   33.6121    0.0000 </r>
       <r>   34.3608    0.0000 </r>
       <r>   34.9022    0.0000 </r>
       <r>   35.0378    0.0000 </r>
       <r>   35.0378    0.0000 </r>
      </set>
      <set comment="kpoint 32">
       <r>    2.0402    1.0000 </r>
       <r>    2.7999    1.0000 </r>
       <r>    2.7999    1.0000 </r>
       <r>    2.7999    1.0000 </r>
       <r>    4.4200    1.0000 </r>
       <r>    4.4200    1.0000 </r>
       <r>    4.4200    1.0000 </r>
       <r>    4.9781    1.0000 </r>
       <r>    4.9781    1.0000 </r>
       <r>    5.3657    1.0000 </r>
       <r>    5.3657    1.0000 </r>
       <r>    5.3657    1.0000 </r>
       <r>    5.4852    1.0000 </r>
       <r>    5.4852    1.0000 </r>
       <r>    5.4852    1.0000 </r>
       <r>    5.5611    1.0000 </r>
       <r>    6.9651    1.0000 </r>
       <r>    6.9651    1.0000 </r>
       <r>    7.6015    1.0000 </r>
       <r>    7.6015    1.0000 </r>
       <r>    7.6015    1.0000 </r>
       <r>   10.2016   -0.0000 </r>
       <r>   10.2016   -0.0000 </r>
       <r>   10.2016   -0.0000 </r>
       <r>   13.6852    0.0000 </r>
       <r>   13.6852    0.0000 </r>
       <r>   13.6852    0.0000 </r>
       <r>   17.4375    0.0000 </r>
       <r>   23.1341    0.0000 </r>
       <r>   23.1341    0.0000 </r>
       <r>   23.1341    0.0000 </r>
       <r>   24.4014    0.0000 </r>
       <r>   24.8258    0.0000 </r>
       <r>   24.8258    0.0000 </r>
       <r>   24.8258    0.0000 </r>
       <r>   25.4717    0.0000 </r>
       <r>   25.4717    0.0000 </r>
       <r>   25.4717    0.0000 </r>
       <r>   28.4198    0.0000 </r>
       <r>   28.4198    0.0000 </r>
       <r>   32.7292    0.0000 </r>
       <r>   33.0640    0.0000 </r>
       <r>   33.0640    0.0000 </r>
       <r>   34.7081    0.0000 </r>
[...]
       <r>   33.6118    0.0000 </r>
       <r>   34.1958    0.0000 </r>
       <r>   34.1988    0.0000 </r>
       <r>   34.1988    0.0000 </r>
       <r>   34.4129    0.0000 </r>
       <r>   34.9181    0.0000 </r>
       <r>   35.3469    0.0000 </r>
      </set>
      <set comment="kpoint 34">
       <r>    2.2635    1.0000 </r>
       <r>    2.4272    1.0000 </r>
       <r>    2.4272    1.0000 </r>
       <r>    2.5011    1.0000 </r>
       <r>    4.6014    1.0000 </r>
       <r>    4.6640    1.0000 </r>
       <r>    4.6640    1.0000 </r>
       <r>    4.8170    1.0000 </r>
       <r>    4.9023    1.0000 </r>
       <r>    4.9958    1.0000 </r>
       <r>    4.9958    1.0000 </r>
       <r>    5.0243    1.0000 </r>
       <r>    6.3383    1.0000 </r>
       <r>    6.3383    1.0000 </r>
       <r>    6.3726    1.0000 </r>
       <r>    6.5290    1.0000 </r>
       <r>    7.2197    1.0000 </r>
       <r>    7.4526    1.0000 </r>
       <r>    7.4526    1.0000 </r>
       <r>    7.4540    1.0000 </r>
       <r>    8.0356    1.0000 </r>
       <r>    9.1702    1.0000 </r>
       <r>    9.1702    1.0000 </r>
       <r>   10.0038   -0.0000 </r>
       <r>   12.7499    0.0000 </r>
       <r>   13.5774    0.0000 </r>
       <r>   13.5774    0.0000 </r>
       <r>   14.7066    0.0000 </r>
       <r>   23.6063    0.0000 </r>
       <r>   23.7992    0.0000 </r>
       <r>   23.7992    0.0000 </r>
       <r>   23.8687    0.0000 </r>
       <r>   25.1909    0.0000 </r>
       <r>   25.4021    0.0000 </r>
       <r>   25.4021    0.0000 </r>
       <r>   26.2960    0.0000 </r>
       <r>   26.3278    0.0000 </r>
       <r>   26.7117    0.0000 </r>
       <r>   26.7117    0.0000 </r>
       <r>   27.6071    0.0000 </r>
       <r>   33.5654    0.0000 </r>
       <r>   34.0609    0.0000 </r>
       <r>   34.0609    0.0000 </r>
       <r>   34.2394    0.0000 </r>
       <r>   34.4361    0.0000 </r>
       <r>   34.7022    0.0000 </r>
       <r>   34.8353    0.0000 </r>
       <r>   34.8354    0.0000 </r>
      </set>
      <set comment="kpoint 35">
       <r>    2.1889    1.0000 </r>
       <r>    2.2697    1.0000 </r>
       <r>    2.2697    1.0000 </r>
       <r>    2.2697    1.0000 </r>
       <r>    4.7361    1.0000 </r>
       <r>    4.7361    1.0000 </r>
       <r>    4.7361    1.0000 </r>
       <r>    4.8125    1.0000 </r>
       <r>    4.8125    1.0000 </r>
       <r>    4.8547    1.0000 </r>
       <r>    4.8547    1.0000 </r>
       <r>    4.8547    1.0000 </r>
       <r>    7.0252    1.0000 </r>
       <r>    7.0252    1.0000 </r>
       <r>    7.0252    1.0000 </r>
       <r>    7.4806    1.0000 </r>
       <r>    7.4806    1.0000 </r>
       <r>    7.5638    1.0000 </r>
       <r>    7.5638    1.0000 </r>
       <r>    7.5638    1.0000 </r>
       <r>    7.8790    1.0000 </r>
       <r>    9.0532    1.0000 </r>
       <r>    9.0532    1.0000 </r>
       <r>    9.0532    1.0000 </r>
       <r>   12.7323    0.0000 </r>
       <r>   12.7323    0.0000 </r>
       <r>   12.7323    0.0000 </r>
       <r>   13.5027    0.0000 </r>
       <r>   23.6108    0.0000 </r>
       <r>   23.6108    0.0000 </r>
       <r>   23.6108    0.0000 </r>
       <r>   23.6129    0.0000 </r>
       <r>   26.3402    0.0000 </r>
       <r>   26.3402    0.0000 </r>
       <r>   26.3402    0.0000 </r>
       <r>   26.4664    0.0000 </r>
       <r>   26.4664    0.0000 </r>
       <r>   26.4664    0.0000 </r>
       <r>   26.9118    0.0000 </r>
       <r>   26.9118    0.0000 </r>
       <r>   34.3200    0.0000 </r>
       <r>   34.3200    0.0000 </r>
       <r>   34.4957    0.0000 </r>
       <r>   34.4957    0.0000 </r>
       <r>   34.4957    0.0000 </r>
       <r>   34.6527    0.0000 </r>
       <r>   34.6527    0.0000 </r>
       <r>   34.6527    0.0000 </r>
      </set>
     </set>
    </set>
   </array>
  </eigenvalues>
  <separator name="orbital magnetization" >
   <v name="MAGDIPOLOUT">      0.00000000      0.00000000      0.00000000</v>
  </separator>
  <dos>
   <i name="efermi">      9.50194770 </i>
   <total>
    <array>
     <dimension dim="1">gridpoints</dimension>
     <dimension dim="2">spin</dimension>
     <field>energy</field>
     <field>total</field>
     <field>integrated</field>
     <set>
      <set comment="spin 1">
       <r>    -2.2602     0.0000     0.0000 </r>
       <r>    -2.1207     0.0000     0.0000 </r>
       <r>    -1.9813     0.0000     0.0000 </r>
       <r>    -1.8418     0.0000     0.0000 </r>
       <r>    -1.7024     0.0000     0.0000 </r>
       <r>    -1.5629     0.0000     0.0000 </r>
       <r>    -1.4235     0.0000     0.0000 </r>
       <r>    -1.2840    -0.0000    -0.0000 </r>
       <r>    -1.1446    -0.0000    -0.0000 </r>
       <r>    -1.0051    -0.0000    -0.0000 </r>
       <r>    -0.8657    -0.0000    -0.0000 </r>
       <r>    -0.7263    -0.0000    -0.0000 </r>
       <r>    -0.5868    -0.0001    -0.0000 </r>
       <r>    -0.4474    -0.0004    -0.0001 </r>
       <r>    -0.3079     0.0151     0.0020 </r>
       <r>    -0.1685     0.0997     0.0159 </r>
       <r>    -0.0290     0.2177     0.0463 </r>
       <r>     0.1104     0.1727     0.0704 </r>
       <r>     0.2499     0.1140     0.0863 </r>
       <r>     0.3893     0.4345     0.1469 </r>
       <r>     0.5288     0.5022     0.2169 </r>
       <r>     0.6682     0.0467     0.2234 </r>
       <r>     0.8077     0.3277     0.2691 </r>
       <r>     0.9471     0.5496     0.3458 </r>
       <r>     1.0866     0.5859     0.4275 </r>
       <r>     1.2260     0.4432     0.4893 </r>
       <r>     1.3655     0.4277     0.5489 </r>
       <r>     1.5049     0.9970     0.6879 </r>
       <r>     1.6443     0.3177     0.7322 </r>
       <r>     1.7838     0.4453     0.7943 </r>
       <r>     1.9232     1.4140     0.9915 </r>
       <r>     2.0627     0.8563     1.1109 </r>
       <r>     2.2021     1.8705     1.3718 </r>
       <r>     2.3416     2.1324     1.6691 </r>
       <r>     2.4810     2.8365     2.0647 </r>
       <r>     2.6205     3.4273     2.5426 </r>
       <r>     2.7599     5.3678     3.2911 </r>
       <r>     2.8994     5.7884     4.0983 </r>
       <r>     3.0388     7.6355     5.1630 </r>
       <r>     3.1783     6.8653     6.1204 </r>
       <r>     3.3177     8.2173     7.2663 </r>
       <r>     3.4572     4.8851     7.9475 </r>
       <r>     3.5966     7.4688     8.9890 </r>
       <r>     3.7361     5.8151     9.7999 </r>
       <r>     3.8755     3.2380    10.2514 </r>
       <r>     4.0149     6.6329    11.1763 </r>
       <r>     4.1544     7.5135    12.2241 </r>
       <r>     4.2938     7.7803    13.3090 </r>
       <r>     4.4333     6.8204    14.2601 </r>
       <r>     4.5727     7.6316    15.3243 </r>
       <r>     4.7122     9.9058    16.7056 </r>
       <r>     4.8516     6.7585    17.6481 </r>
       <r>     4.9911    11.4664    19.2471 </r>
       <r>     5.1305    12.9385    21.0513 </r>
       <r>     5.2700    10.7029    22.5438 </r>
       <r>     5.4094     8.7405    23.7626 </r>
       <r>     5.5489     6.6694    24.6926 </r>
       <r>     5.6883     7.2165    25.6990 </r>
       <r>     5.8278     5.4666    26.4613 </r>
       <r>     5.9672     8.2275    27.6086 </r>
       <r>     6.1067     6.7190    28.5455 </r>
       <r>     6.2461     7.4920    29.5903 </r>
       <r>     6.3855    10.6134    31.0703 </r>
       <r>     6.5250     7.7412    32.1498 </r>
       <r>     6.6644     5.3732    32.8990 </r>
       <r>     6.8039     5.2828    33.6357 </r>
       <r>     6.9433     8.6218    34.8380 </r>
       <r>     7.0828     5.3237    35.5803 </r>
       <r>     7.2222     7.5495    36.6331 </r>
       <r>     7.3617     7.7564    37.7147 </r>
       <r>     7.5011    12.1774    39.4128 </r>
       <r>     7.6406     8.1730    40.5525 </r>
       <r>     7.7800     8.6924    41.7646 </r>
       <r>     7.9195     3.8267    42.2983 </r>
       <r>     8.0589     0.6968    42.3954 </r>
       <r>     8.1984     0.1120    42.4110 </r>
       <r>     8.3378     0.2906    42.4516 </r>
       <r>     8.4773     1.7595    42.6969 </r>
       <r>     8.6167     2.3433    43.0237 </r>
       <r>     8.7561     1.3366    43.2101 </r>
       <r>     8.8956     0.1743    43.2344 </r>
       <r>     9.0350     0.1797    43.2594 </r>
       <r>     9.1745     1.6034    43.4830 </r>
       <r>     9.3139     2.6706    43.8554 </r>
       <r>     9.4534     0.6206    43.9420 </r>
       <r>     9.5928     1.0685    44.0910 </r>
       <r>     9.7323     0.4053    44.1475 </r>
       <r>     9.8717     1.1156    44.3031 </r>
       <r>    10.0112     0.7207    44.4036 </r>
       <r>    10.1506     1.3133    44.5867 </r>
       <r>    10.2901     1.8783    44.8486 </r>
       <r>    10.4295     1.0092    44.9894 </r>
       <r>    10.5690     0.5172    45.0615 </r>
       <r>    10.7084     2.4218    45.3992 </r>
       <r>    10.8479     0.5466    45.4754 </r>
       <r>    10.9873     0.8175    45.5894 </r>
       <r>    11.1267     0.5316    45.6635 </r>
       <r>    11.2662     1.2008    45.8310 </r>
       <r>    11.4056     0.8346    45.9474 </r>
       <r>    11.5451     1.7127    46.1862 </r>
       <r>    11.6845     1.5055    46.3961 </r>
       <r>    11.8240     0.8502    46.5147 </r>
       <r>    11.9634     0.1216    46.5317 </r>
       <r>    12.1029     0.5362    46.6064 </r>
       <r>    12.2423     1.0077    46.7469 </r>
       <r>    12.3818     2.0072    47.0268 </r>
       <r>    12.5212     1.0582    47.1744 </r>
       <r>    12.6607     1.0873    47.3260 </r>
       <r>    12.8001     2.3404    47.6524 </r>
       <r>    12.9396     0.7428    47.7560 </r>
       <r>    13.0790     2.1642    48.0577 </r>
       <r>    13.2185     2.0697    48.3464 </r>
       <r>    13.3579     0.1190    48.3630 </r>
       <r>    13.4973     0.0508    48.3700 </r>
       <r>    13.6368     1.4728    48.5754 </r>
       <r>    13.7762     1.2111    48.7443 </r>
       <r>    13.9157     1.2786    48.9226 </r>
       <r>    14.0551     1.6976    49.1593 </r>
       <r>    14.1946     1.6785    49.3934 </r>
       <r>    14.3340     1.1999    49.5607 </r>
       <r>    14.4735     0.1493    49.5815 </r>
       <r>    14.6129     1.0695    49.7307 </r>
       <r>    14.7524     1.3726    49.9221 </r>
       <r>    14.8918     1.5651    50.1403 </r>
       <r>    15.0313     3.1178    50.5751 </r>
       <r>    15.1707     1.6681    50.8077 </r>
       <r>    15.3102     0.3346    50.8544 </r>
       <r>    15.4496     0.7519    50.9592 </r>
       <r>    15.5891     1.1196    51.1153 </r>
       <r>    15.7285     0.5812    51.1964 </r>
       <r>    15.8679     2.2680    51.5126 </r>
       <r>    16.0074     0.9168    51.6405 </r>
       <r>    16.1468     1.2665    51.8171 </r>
       <r>    16.2863     1.3743    52.0087 </r>
       <r>    16.4257     0.9681    52.1437 </r>
       <r>    16.5652     1.1092    52.2984 </r>
       <r>    16.7046     1.2259    52.4694 </r>
       <r>    16.8441     3.4801    52.9546 </r>
       <r>    16.9835     1.0636    53.1030 </r>
       <r>    17.1230     0.3184    53.1474 </r>
       <r>    17.2624     0.9441    53.2790 </r>
       <r>    17.4019     0.9991    53.4183 </r>
       <r>    17.5413     0.5598    53.4964 </r>
       <r>    17.6808     1.0752    53.6463 </r>
       <r>    17.8202     1.0438    53.7919 </r>
       <r>    17.9597     2.5084    54.1417 </r>
       <r>    18.0991     2.4008    54.4765 </r>
       <r>    18.2385     1.8347    54.7323 </r>
       <r>    18.3780     1.0130    54.8736 </r>
       <r>    18.5174     1.1654    55.0361 </r>
       <r>    18.6569     1.8371    55.2923 </r>
       <r>    18.7963     1.6697    55.5251 </r>
       <r>    18.9358     0.4029    55.5813 </r>
       <r>    19.0752     1.6927    55.8173 </r>
       <r>    19.2147     1.5595    56.0348 </r>
       <r>    19.3541     2.9910    56.4519 </r>
       <r>    19.4936     1.5771    56.6718 </r>
       <r>    19.6330     1.4099    56.8684 </r>
       <r>    19.7725     1.6002    57.0915 </r>
       <r>    19.9119     2.5841    57.4519 </r>
       <r>    20.0514     0.4456    57.5140 </r>
       <r>    20.1908     1.1347    57.6722 </r>
       <r>    20.3303     3.2098    58.1198 </r>
       <r>    20.4697     2.7989    58.5101 </r>
       <r>    20.6091     2.2546    58.8245 </r>
       <r>    20.7486     3.3941    59.2978 </r>
       <r>    20.8880     1.3576    59.4871 </r>
       <r>    21.0275     1.5722    59.7064 </r>
       <r>    21.1669     1.8508    59.9645 </r>
       <r>    21.3064     2.2042    60.2718 </r>
       <r>    21.4458     2.0038    60.5513 </r>
       <r>    21.5853     1.3052    60.7333 </r>
       <r>    21.7247     1.6046    60.9570 </r>
       <r>    21.8642     0.8996    61.0825 </r>
       <r>    22.0036     2.7311    61.4633 </r>
       <r>    22.1431     1.4080    61.6597 </r>
       <r>    22.2825     1.7485    61.9035 </r>
       <r>    22.4220     6.0155    62.7423 </r>
       <r>    22.5614     1.0605    62.8902 </r>
       <r>    22.7009     1.0139    63.0316 </r>
       <r>    22.8403     2.1452    63.3307 </r>
       <r>    22.9797     0.8187    63.4449 </r>
       <r>    23.1192     2.5238    63.7968 </r>
       <r>    23.2586     1.4495    63.9990 </r>
       <r>    23.3981     1.1617    64.1610 </r>
       <r>    23.5375     6.1453    65.0179 </r>
       <r>    23.6770     2.2945    65.3379 </r>
       <r>    23.8164     1.0873    65.4895 </r>
       <r>    23.9559     1.7562    65.7344 </r>
       <r>    24.0953     2.6267    66.1007 </r>
       <r>    24.2348     2.4729    66.4455 </r>
       <r>    24.3742     1.8101    66.6979 </r>
       <r>    24.5137     2.4206    67.0354 </r>
       <r>    24.6531     2.3720    67.3662 </r>
       <r>    24.7926     4.7453    68.0279 </r>
       <r>    24.9320     2.8227    68.4215 </r>
       <r>    25.0714     0.7218    68.5222 </r>
       <r>    25.2109     3.6733    69.0344 </r>
       <r>    25.3503     1.7554    69.2792 </r>
       <r>    25.4898     1.8788    69.5412 </r>
       <r>    25.6292     1.7980    69.7920 </r>
       <r>    25.7687     0.8985    69.9172 </r>
       <r>    25.9081     1.3822    70.1100 </r>
       <r>    26.0476     0.5530    70.1871 </r>
       <r>    26.1870     2.3261    70.5115 </r>
       <r>    26.3265     3.8593    71.0496 </r>
       <r>    26.4659     3.5578    71.5458 </r>
       <r>    26.6054     2.7035    71.9228 </r>
       <r>    26.7448     2.8514    72.3204 </r>
       <r>    26.8843     1.6838    72.5552 </r>
       <r>    27.0237     3.8564    73.0929 </r>
       <r>    27.1632     3.7275    73.6127 </r>
       <r>    27.3026     1.9096    73.8790 </r>
       <r>    27.4420     5.0095    74.5776 </r>
       <r>    27.5815     3.8823    75.1189 </r>
       <r>    27.7209     2.9265    75.5270 </r>
       <r>    27.8604     0.4584    75.5910 </r>
       <r>    27.9998     2.3312    75.9160 </r>
       <r>    28.1393     4.4157    76.5318 </r>
       <r>    28.2787     2.7047    76.9090 </r>
       <r>    28.4182     2.3629    77.2385 </r>
       <r>    28.5576     2.6555    77.6088 </r>
       <r>    28.6971     2.4852    77.9553 </r>
       <r>    28.8365     1.6050    78.1791 </r>
       <r>    28.9760     2.6954    78.5550 </r>
       <r>    29.1154     3.3378    79.0205 </r>
       <r>    29.2549     2.6138    79.3849 </r>
       <r>    29.3943     1.3929    79.5792 </r>
       <r>    29.5338     1.7305    79.8205 </r>
       <r>    29.6732     1.2698    79.9976 </r>
       <r>    29.8126     1.2458    80.1713 </r>
       <r>    29.9521     2.5666    80.5292 </r>
       <r>    30.0915     1.4710    80.7343 </r>
       <r>    30.2310     1.4933    80.9426 </r>
       <r>    30.3704     0.9545    81.0757 </r>
       <r>    30.5099     0.6508    81.1664 </r>
       <r>    30.6493     0.6782    81.2610 </r>
       <r>    30.7888     1.0843    81.4122 </r>
       <r>    30.9282     3.7857    81.9401 </r>
       <r>    31.0677     2.8182    82.3331 </r>
       <r>    31.2071     1.7239    82.5735 </r>
       <r>    31.3466     1.1008    82.7270 </r>
       <r>    31.4860     2.6436    83.0956 </r>
       <r>    31.6255     2.4179    83.4328 </r>
       <r>    31.7649     1.7820    83.6813 </r>
       <r>    31.9044     0.6643    83.7739 </r>
       <r>    32.0438     0.4421    83.8356 </r>
       <r>    32.1832     1.8313    84.0910 </r>
       <r>    32.3227     2.6479    84.4602 </r>
       <r>    32.4621     1.2561    84.6354 </r>
       <r>    32.6016     1.4304    84.8348 </r>
       <r>    32.7410     3.6384    85.3422 </r>
       <r>    32.8805     1.2443    85.5157 </r>
       <r>    33.0199     3.1768    85.9587 </r>
       <r>    33.1594     1.9316    86.2281 </r>
       <r>    33.2988     2.3127    86.5506 </r>
       <r>    33.4383     4.0382    87.1137 </r>
       <r>    33.5777     1.7577    87.3588 </r>
       <r>    33.7172     2.2900    87.6781 </r>
       <r>    33.8566     1.8542    87.9367 </r>
       <r>    33.9961     3.0160    88.3573 </r>
       <r>    34.1355     2.7718    88.7438 </r>
       <r>    34.2750     3.3545    89.2116 </r>
       <r>    34.4144     4.4104    89.8266 </r>
       <r>    34.5538     3.2800    90.2840 </r>
       <r>    34.6933     2.3470    90.6112 </r>
       <r>    34.8327     5.4564    91.3721 </r>
       <r>    34.9722     4.8999    92.0554 </r>
       <r>    35.1116     4.4531    92.6764 </r>
       <r>    35.2511     4.3520    93.2832 </r>
       <r>    35.3905     4.7806    93.9499 </r>
       <r>    35.5300     1.9668    94.2241 </r>
       <r>    35.6694     2.4259    94.5624 </r>
       <r>    35.8089     3.1596    95.0030 </r>
       <r>    35.9483     3.1898    95.4478 </r>
       <r>    36.0878     0.9039    95.5739 </r>
       <r>    36.2272     0.9323    95.7039 </r>
       <r>    36.3667     1.2256    95.8748 </r>
       <r>    36.5061    -0.0535    95.8673 </r>
       <r>    36.6456     0.1866    95.8933 </r>
       <r>    36.7850     0.3631    95.9440 </r>
       <r>    36.9244     0.2738    95.9822 </r>
       <r>    37.0639     0.1011    95.9963 </r>
       <r>    37.2033     0.0080    95.9974 </r>
       <r>    37.3428    -0.0009    95.9973 </r>
       <r>    37.4822    -0.0002    95.9972 </r>
       <r>    37.6217     0.0027    95.9976 </r>
       <r>    37.7611     0.0174    96.0000 </r>
       <r>    37.9006    -0.0001    96.0000 </r>
       <r>    38.0400    -0.0001    96.0000 </r>
       <r>    38.1795    -0.0000    96.0000 </r>
       <r>    38.3189    -0.0000    96.0000 </r>
       <r>    38.4584     0.0000    96.0000 </r>
       <r>    38.5978     0.0000    96.0000 </r>
       <r>    38.7373     0.0000    96.0000 </r>
       <r>    38.8767     0.0000    96.0000 </r>
       <r>    39.0162     0.0000    96.0000 </r>
       <r>    39.1556     0.0000    96.0000 </r>
       <r>    39.2950     0.0000    96.0000 </r>
       <r>    39.4345     0.0000    96.0000 </r>
       <r>    39.5739     0.0000    96.0000 </r>
      </set>
     </set>
    </array>
   </total>
  </dos>
 </calculation>
 <structure name="finalpos" >
  <crystal>
   <varray name="basis" >
    <v>       4.08000000       0.00000000       0.00000000 </v>
    <v>       0.00000000       4.08000000       0.00000000 </v>
    <v>       0.00000000       0.00000000       4.08000000 </v>
   </varray>
   <i name="volume">     67.91731200 </i>
   <varray name="rec_basis" >
    <v>       0.24509804       0.00000000       0.00000000 </v>
    <v>       0.00000000       0.24509804       0.00000000 </v>
    <v>       0.00000000       0.00000000       0.24509804 </v>
   </varray>
  </crystal>
  <varray name="positions" >
   <v>       0.00000000       0.00000000       0.00000000 </v>
   <v>       0.00000000       0.50000000       0.50000000 </v>
   <v>       0.50000000       0.00000000       0.50000000 </v>
   <v>       0.50000000       0.50000000       0.00000000 </v>
  </varray>
 </structure>
</modeling>
