   1   1   0   0
  0.7200000E+03  0.8000000E-09  0.9000000E-09  0.1000000E-08  0.5000000E-15
  1.000000000000000E-004
  CAR 
 unknown system                          
      4.60196764     -8.13446115  301     -4.10967257      1.00000000
     -8.134  0.0000E+00  0.0000E+00
     -8.092  0.0000E+00  0.0000E+00
     -8.050  0.0000E+00  0.0000E+00
     -8.007  0.0000E+00  0.0000E+00
     -7.965 -0.6181E-27 -0.2624E-28
     -7.922 -0.5648E-24 -0.2400E-25
     -7.880 -0.3590E-21 -0.1527E-22
     -7.837 -0.1586E-18 -0.6748E-20
     -7.795 -0.4866E-16 -0.2073E-17
     -7.752 -0.1036E-13 -0.4421E-15
     -7.710 -0.1487E-11 -0.6356E-13
     -7.667 -0.1513E-09 -0.6487E-11
     -7.625 -0.1065E-07 -0.4586E-09
     -7.583 -0.5167E-06 -0.2239E-07
     -7.540 -0.1723E-04 -0.7537E-06
     -7.498 -0.3927E-03 -0.1743E-04
     -7.455 -0.6074E-02 -0.2753E-03
     -7.413 -0.6295E-01 -0.2948E-02
     -7.370 -0.4271E+00 -0.2108E-01
     -7.328 -0.1804E+01 -0.9769E-01
     -7.285 -0.4088E+01 -0.2713E+00
     -7.243 -0.1141E+01 -0.3197E+00
     -7.200  0.2022E+02  0.5386E+00
     -7.158  0.5909E+02  0.3047E+01
     -7.116  0.8246E+02  0.6548E+01
     -7.073  0.6362E+02  0.9249E+01
     -7.031  0.2439E+02  0.1028E+02
     -6.988  0.2244E+00  0.1029E+02
     -6.946 -0.4238E+01  0.1011E+02
     -6.903 -0.2071E+01  0.1003E+02
     -6.861 -0.5227E+00  0.1000E+02
     -6.818 -0.8132E-01  0.1000E+02
     -6.776 -0.8248E-02  0.1000E+02
     -6.733 -0.5593E-03  0.1000E+02
     -6.691 -0.2571E-04  0.1000E+02
     -6.649 -0.8074E-06  0.1000E+02
     -6.606 -0.1741E-07  0.1000E+02
     -6.564 -0.2588E-09  0.1000E+02
     -6.521 -0.2678E-11  0.1000E+02
     -6.479  0.0000E+00  0.1000E+02
     -6.436  0.0000E+00  0.1000E+02
     -6.394  0.0000E+00  0.1000E+02
     -6.351  0.0000E+00  0.1000E+02
     -6.309  0.0000E+00  0.1000E+02
     -6.266  0.0000E+00  0.1000E+02
     -6.224  0.0000E+00  0.1000E+02
     -6.182  0.0000E+00  0.1000E+02
     -6.139  0.0000E+00  0.1000E+02
     -6.097  0.0000E+00  0.1000E+02
     -6.054  0.0000E+00  0.1000E+02
     -6.012  0.0000E+00  0.1000E+02
     -5.969  0.0000E+00  0.1000E+02
     -5.927  0.0000E+00  0.1000E+02
     -5.884  0.0000E+00  0.1000E+02
     -5.842  0.0000E+00  0.1000E+02
     -5.799  0.0000E+00  0.1000E+02
     -5.757  0.0000E+00  0.1000E+02
     -5.715  0.0000E+00  0.1000E+02
     -5.672  0.0000E+00  0.1000E+02
     -5.630  0.0000E+00  0.1000E+02
     -5.587  0.0000E+00  0.1000E+02
     -5.545  0.0000E+00  0.1000E+02
     -5.502  0.0000E+00  0.1000E+02
     -5.460  0.0000E+00  0.1000E+02
     -5.417  0.0000E+00  0.1000E+02
     -5.375  0.0000E+00  0.1000E+02
     -5.332  0.0000E+00  0.1000E+02
     -5.290  0.0000E+00  0.1000E+02
     -5.248  0.0000E+00  0.1000E+02
     -5.205  0.0000E+00  0.1000E+02
     -5.163  0.0000E+00  0.1000E+02
     -5.120  0.0000E+00  0.1000E+02
     -5.078  0.0000E+00  0.1000E+02
     -5.035  0.0000E+00  0.1000E+02
     -4.993  0.0000E+00  0.1000E+02
     -4.950 -0.2262E-28  0.1000E+02
     -4.908 -0.2256E-25  0.1000E+02
     -4.865 -0.1566E-22  0.1000E+02
     -4.823 -0.7552E-20  0.1000E+02
     -4.781 -0.2530E-17  0.1000E+02
     -4.738 -0.5885E-15  0.1000E+02
     -4.696 -0.9235E-13  0.1000E+02
     -4.653 -0.1027E-10  0.1000E+02
     -4.611 -0.7901E-09  0.1000E+02
     -4.568 -0.4194E-07  0.1000E+02
     -4.526 -0.1531E-05  0.1000E+02
     -4.483 -0.3828E-04  0.1000E+02
     -4.441 -0.6508E-03  0.1000E+02
     -4.398 -0.7440E-02  0.1000E+02
     -4.356 -0.5608E-01  0.9997E+01
     -4.314 -0.2676E+00  0.9986E+01
     -4.271 -0.7243E+00  0.9955E+01
     -4.229 -0.6049E+00  0.9929E+01
     -4.186  0.2578E+01  0.1004E+02
     -4.144  0.9899E+01  0.1046E+02
     -4.101  0.1608E+02  0.1114E+02
     -4.059  0.1432E+02  0.1175E+02
     -4.016  0.6685E+01  0.1203E+02
     -3.974  0.7753E+00  0.1207E+02
     -3.931 -0.8516E+00  0.1203E+02
     -3.889 -0.5298E+00  0.1201E+02
     -3.847 -0.1528E+00  0.1200E+02
     -3.804 -0.2652E-01  0.1200E+02
     -3.762 -0.2973E-02  0.1200E+02
     -3.719 -0.2218E-03  0.1200E+02
     -3.677 -0.1119E-04  0.1200E+02
     -3.634 -0.3849E-06  0.1200E+02
     -3.592 -0.9085E-08  0.1200E+02
     -3.549 -0.1477E-09  0.1200E+02
     -3.507 -0.1663E-11  0.1200E+02
     -3.464 -0.1046E-13  0.1200E+02
     -3.422  0.0000E+00  0.1200E+02
     -3.380  0.0000E+00  0.1200E+02
     -3.337  0.0000E+00  0.1200E+02
     -3.295  0.0000E+00  0.1200E+02
     -3.252  0.0000E+00  0.1200E+02
     -3.210  0.0000E+00  0.1200E+02
     -3.167  0.0000E+00  0.1200E+02
     -3.125  0.0000E+00  0.1200E+02
     -3.082  0.0000E+00  0.1200E+02
     -3.040  0.0000E+00  0.1200E+02
     -2.997  0.0000E+00  0.1200E+02
     -2.955  0.0000E+00  0.1200E+02
     -2.913  0.0000E+00  0.1200E+02
     -2.870  0.0000E+00  0.1200E+02
     -2.828  0.0000E+00  0.1200E+02
     -2.785  0.0000E+00  0.1200E+02
     -2.743  0.0000E+00  0.1200E+02
     -2.700  0.0000E+00  0.1200E+02
     -2.658  0.0000E+00  0.1200E+02
     -2.615  0.0000E+00  0.1200E+02
     -2.573  0.0000E+00  0.1200E+02
     -2.530  0.0000E+00  0.1200E+02
     -2.488  0.0000E+00  0.1200E+02
     -2.446  0.0000E+00  0.1200E+02
     -2.403  0.0000E+00  0.1200E+02
     -2.361  0.0000E+00  0.1200E+02
     -2.318  0.0000E+00  0.1200E+02
     -2.276  0.0000E+00  0.1200E+02
     -2.233  0.0000E+00  0.1200E+02
     -2.191  0.0000E+00  0.1200E+02
     -2.148  0.0000E+00  0.1200E+02
     -2.106  0.0000E+00  0.1200E+02
     -2.063  0.0000E+00  0.1200E+02
     -2.021  0.0000E+00  0.1200E+02
     -1.979  0.0000E+00  0.1200E+02
     -1.936  0.0000E+00  0.1200E+02
     -1.894  0.0000E+00  0.1200E+02
     -1.851  0.0000E+00  0.1200E+02
     -1.809  0.0000E+00  0.1200E+02
     -1.766  0.0000E+00  0.1200E+02
     -1.724  0.0000E+00  0.1200E+02
     -1.681  0.0000E+00  0.1200E+02
     -1.639  0.0000E+00  0.1200E+02
     -1.596  0.0000E+00  0.1200E+02
     -1.554  0.0000E+00  0.1200E+02
     -1.512  0.0000E+00  0.1200E+02
     -1.469  0.0000E+00  0.1200E+02
     -1.427  0.0000E+00  0.1200E+02
     -1.384  0.0000E+00  0.1200E+02
     -1.342  0.0000E+00  0.1200E+02
     -1.299  0.0000E+00  0.1200E+02
     -1.257  0.0000E+00  0.1200E+02
     -1.214 -0.1407E-27  0.1200E+02
     -1.172 -0.1277E-24  0.1200E+02
     -1.129 -0.8062E-22  0.1200E+02
     -1.087 -0.3537E-19  0.1200E+02
     -1.045 -0.1078E-16  0.1200E+02
     -1.002 -0.2281E-14  0.1200E+02
     -0.960 -0.3242E-12  0.1200E+02
     -0.917 -0.3285E-10  0.1200E+02
     -0.875 -0.2296E-08  0.1200E+02
     -0.832 -0.1106E-06  0.1200E+02
     -0.790 -0.3663E-05  0.1200E+02
     -0.747 -0.8293E-04  0.1200E+02
     -0.705 -0.1274E-02  0.1200E+02
     -0.662 -0.1311E-01  0.1200E+02
     -0.620 -0.8848E-01  0.1200E+02
     -0.578 -0.3731E+00  0.1198E+02
     -0.535 -0.8594E+00  0.1194E+02
     -0.493 -0.3840E+00  0.1193E+02
     -0.450  0.3556E+01  0.1208E+02
     -0.408  0.1116E+02  0.1255E+02
     -0.365  0.1789E+02  0.1331E+02
     -0.323  0.2044E+02  0.1418E+02
     -0.280  0.1946E+02  0.1501E+02
     -0.238  0.1462E+02  0.1563E+02
     -0.195  0.7844E+01  0.1596E+02
     -0.153  0.6294E+01  0.1623E+02
     -0.111  0.1172E+02  0.1672E+02
     -0.068  0.1713E+02  0.1745E+02
     -0.026  0.1881E+02  0.1825E+02
      0.017  0.1856E+02  0.1904E+02
      0.059  0.1513E+02  0.1968E+02
      0.102  0.7828E+01  0.2001E+02
      0.144  0.1450E+01  0.2007E+02
      0.187 -0.8225E+00  0.2004E+02
      0.229 -0.6600E+00  0.2001E+02
      0.272 -0.2175E+00  0.2000E+02
      0.314 -0.4212E-01  0.2000E+02
      0.356 -0.5219E-02  0.2000E+02
      0.399 -0.4284E-03  0.2000E+02
      0.441 -0.2371E-04  0.2000E+02
      0.484 -0.8934E-06  0.2000E+02
      0.526 -0.2307E-07  0.2000E+02
      0.569 -0.4367E-09  0.2000E+02
      0.611 -0.1910E-08  0.2000E+02
      0.654 -0.9339E-07  0.2000E+02
      0.696 -0.3146E-05  0.2000E+02
      0.739 -0.7247E-04  0.2000E+02
      0.781 -0.1133E-02  0.2000E+02
      0.823 -0.1188E-01  0.2000E+02
      0.866 -0.8155E-01  0.2000E+02
      0.908 -0.3494E+00  0.1998E+02
      0.951 -0.8090E+00  0.1995E+02
      0.993 -0.2814E+00  0.1993E+02
      1.036  0.3864E+01  0.2010E+02
      1.078  0.1161E+02  0.2059E+02
      1.121  0.1646E+02  0.2129E+02
      1.163  0.1282E+02  0.2183E+02
      1.206  0.4662E+01  0.2203E+02
      1.248 -0.7315E+00  0.2200E+02
      1.290 -0.8253E+00  0.2197E+02
      1.333  0.4399E+01  0.2215E+02
      1.375  0.1256E+02  0.2269E+02
      1.418  0.1648E+02  0.2339E+02
      1.460  0.1187E+02  0.2389E+02
      1.503  0.4091E+01  0.2406E+02
      1.545 -0.2135E+00  0.2405E+02
      1.588 -0.8199E+00  0.2402E+02
      1.630 -0.3640E+00  0.2400E+02
      1.673 -0.8654E-01  0.2400E+02
      1.715 -0.1375E-01  0.2400E+02
      1.757 -0.1158E-01  0.2400E+02
      1.800 -0.7313E-01  0.2400E+02
      1.842 -0.3234E+00  0.2398E+02
      1.885 -0.7866E+00  0.2395E+02
      1.927 -0.3957E+00  0.2393E+02
      1.970  0.3452E+01  0.2408E+02
      2.012  0.1107E+02  0.2455E+02
      2.055  0.1620E+02  0.2524E+02
      2.097  0.1274E+02  0.2578E+02
      2.140  0.4749E+01  0.2598E+02
      2.182  0.1745E+01  0.2605E+02
      2.225  0.7051E+01  0.2635E+02
      2.267  0.1411E+02  0.2695E+02
      2.309  0.1413E+02  0.2755E+02
      2.352  0.8902E+01  0.2793E+02
      2.394  0.9258E+01  0.2832E+02
      2.437  0.1836E+02  0.2910E+02
      2.479  0.2640E+02  0.3022E+02
      2.522  0.2435E+02  0.3126E+02
      2.564  0.1625E+02  0.3195E+02
      2.607  0.1277E+02  0.3249E+02
      2.649  0.1471E+02  0.3311E+02
      2.692  0.1315E+02  0.3367E+02
      2.734  0.6607E+01  0.3395E+02
      2.776  0.3903E+01  0.3412E+02
      2.819  0.9184E+01  0.3451E+02
      2.861  0.1484E+02  0.3514E+02
      2.904  0.1282E+02  0.3568E+02
      2.946  0.7580E+01  0.3600E+02
      2.989  0.9145E+01  0.3639E+02
      3.031  0.1754E+02  0.3714E+02
      3.074  0.2461E+02  0.3818E+02
      3.116  0.2739E+02  0.3934E+02
      3.159  0.3009E+02  0.4062E+02
      3.201  0.3294E+02  0.4202E+02
      3.243  0.2885E+02  0.4325E+02
      3.286  0.1610E+02  0.4393E+02
      3.328  0.3459E+01  0.4408E+02
      3.371 -0.1615E+01  0.4401E+02
      3.413  0.1338E+01  0.4406E+02
      3.456  0.9185E+01  0.4445E+02
      3.498  0.1619E+02  0.4514E+02
      3.541  0.1865E+02  0.4593E+02
      3.583  0.1875E+02  0.4673E+02
      3.626  0.1700E+02  0.4745E+02
      3.668  0.1101E+02  0.4792E+02
      3.710  0.3594E+01  0.4807E+02
      3.753 -0.3509E+00  0.4806E+02
      3.795 -0.8422E+00  0.4802E+02
      3.838 -0.3660E+00  0.4800E+02
      3.880 -0.8651E-01  0.4800E+02
      3.923 -0.1277E-01  0.4800E+02
      3.965 -0.1235E-02  0.4800E+02
      4.008 -0.8000E-04  0.4800E+02
      4.050 -0.3518E-05  0.4800E+02
      4.093 -0.1058E-06  0.4800E+02
      4.135 -0.2185E-08  0.4800E+02
      4.177 -0.3111E-10  0.4800E+02
      4.220 -0.3033E-12  0.4800E+02
      4.262  0.0000E+00  0.4800E+02
      4.305  0.0000E+00  0.4800E+02
      4.347  0.0000E+00  0.4800E+02
      4.390  0.0000E+00  0.4800E+02
      4.432  0.0000E+00  0.4800E+02
      4.475  0.0000E+00  0.4800E+02
      4.517  0.0000E+00  0.4800E+02
      4.560  0.0000E+00  0.4800E+02
      4.602  0.0000E+00  0.4800E+02
