       N       E                     dE             d eps       ncg     rms          rms(c)
DAV:   1     0.635820942634E+02    0.63582E+02   -0.21264E+03    48   0.209E+02
DAV:   2     0.141679478462E+01   -0.62165E+02   -0.62185E+02    72   0.378E+01
DAV:   3    -0.526122296712E-01   -0.14694E+01   -0.14694E+01    48   0.133E+01
DAV:   4    -0.570823060471E-01   -0.44701E-02   -0.44701E-02    48   0.856E-01
DAV:   5    -0.571256016196E-01   -0.43296E-04   -0.43296E-04    48   0.738E-02    0.427E-02
DAV:   6    -0.572051486015E-01   -0.79547E-04   -0.66632E-05    48   0.244E-02
   1 F= -.57205149E-01 E0= -.47801989E-01  d E =-.282095E-01
