 vasp.5.4.1 05Feb16 (build Feb 08 2018 09:21:51) complex                        
  
 executed on             LinuxIFC date 2019.11.21  11:54:51
 running on   24 total cores
 distrk:  each k-point on   24 cores,    1 groups
 distr:  one band on NCORES_PER_BAND=   1 cores,   24 groups


--------------------------------------------------------------------------------------------------------


 INCAR:
 POTCAR:    PAW_PBE Ag 02Apr2005                  

 ----------------------------------------------------------------------------- 
|                                                                             |
|           W    W    AA    RRRRR   N    N  II  N    N   GGGG   !!!           |
|           W    W   A  A   R    R  NN   N  II  NN   N  G    G  !!!           |
|           W    W  A    A  R    R  N N  N  II  N N  N  G       !!!           |
|           W WW W  AAAAAA  RRRRR   N  N N  II  N  N N  G  GGG   !            |
|           WW  WW  A    A  R   R   N   NN  II  N   NN  G    G                |
|           W    W  A    A  R    R  N    N  II  N    N   GGGG   !!!           |
|                                                                             |
|      For optimal performance we recommend to set                            |
|        NCORE= 4 - approx SQRT( number of cores)                             |
|      NCORE specifies how many cores store one orbital (NPAR=cpu/NCORE).     |
|      This setting can  greatly improve the performance of VASP for DFT.     |
|      The default, NPAR=number of cores might be grossly inefficient         |
|      on modern multi-core architectures or massively parallel machines.     |
|      Do your own testing !!!!                                               |
|      Unfortunately you need to use the default for GW and RPA calculations. |
|      (for HF NCORE is supported but not extensively tested yet)             |
|                                                                             |
 ----------------------------------------------------------------------------- 

 POTCAR:    PAW_PBE Ag 02Apr2005                  
   VRHFIN =Ag : s1 d10                                                          
   LEXCH  = PE                                                                  
   EATOM  =  1037.2675 eV,   76.2370 Ry                                         
                                                                                
   TITEL  = PAW_PBE Ag 02Apr2005                                                
   LULTRA =        F    use ultrasoft PP ?                                      
   IUNSCR =        1    unscreen: 0-lin 1-nonlin 2-no                           
   RPACOR =    2.000    partial core radius                                     
   POMASS =  107.868; ZVAL   =   11.000    mass and valenz                      
   RCORE  =    2.500    outmost cutoff radius                                   
   RWIGS  =    2.840; RWIGS  =    1.503    wigner-seitz radius (au A)           
   ENMAX  =  249.844; ENMIN  =  187.383 eV                                      
   ICORE  =        3    local potential                                         
   LCOR   =        T    correct aug charges                                     
   LPAW   =        T    paw PP                                                  
   EAUG   =  412.496                                                            
   DEXC   =    0.000                                                            
   RMAX   =    2.560    core radius for proj-oper                               
   RAUG   =    1.300    factor for augmentation sphere                          
   RDEP   =    2.576    radius for radial grids                                 
   RDEPT  =    2.072    core radius for aug-charge                              
                                                                                
   Atomic configuration                                                         
   12 entries                                                                   
     n  l   j            E        occ.                                          
     1  0  0.50    -25324.9161   2.0000                                         
     2  0  0.50     -3728.5341   2.0000                                         
     2  1  1.50     -3344.0404   6.0000                                         
     3  0  0.50      -683.5581   2.0000                                         
     3  1  1.50      -557.3225   6.0000                                         
     3  2  2.50      -358.3853  10.0000                                         
     4  0  0.50       -95.0341   2.0000                                         
     4  1  1.50       -58.5511   6.0000                                         
     4  2  2.50        -7.4440  10.0000                                         
     5  0  0.50        -4.4045   1.0000                                         
     5  1  0.50        -1.3606   0.0000                                         
     4  3  2.50        -1.3606   0.0000                                         
   Description                                                                  
     l       E           TYP  RCUT    TYP  RCUT                                 
     2     -7.4439781     23  2.400                                             
     2     -8.8045607     23  2.400                                             
     0     -4.4044681     23  2.400                                             
     0      1.9520038     23  2.400                                             
     1     -1.3605826     23  2.500                                             
     1     27.2116520     23  2.500                                             
     3     -4.0817478     23  2.400                                             
  local pseudopotential read in
  partial core-charges read in
  partial kinetic energy density read in
  atomic valenz-charges read in
  non local Contribution for L=           2  read in
    real space projection operators read in
  non local Contribution for L=           2  read in
    real space projection operators read in
  non local Contribution for L=           0  read in
    real space projection operators read in
  non local Contribution for L=           0  read in
    real space projection operators read in
  non local Contribution for L=           1  read in
    real space projection operators read in
  non local Contribution for L=           1  read in
    real space projection operators read in
    PAW grid and wavefunctions read in
 
   number of l-projection  operators is LMAX  =           6
   number of lm-projection operators is LMMAX =          18
 
  PAW_PBE Ag 02Apr2005                  :
 energy of atom  1       EATOM=-1037.2675
 kinetic energy error for atom=    0.0091 (will be added to EATOM!!)
 
 
 POSCAR: Ag                                      
  positions in cartesian coordinates
  No initial velocities read in
 exchange correlation table for  LEXCH =        8
   RHO(1)=    0.500       N(1)  =     2000
   RHO(2)=  100.500       N(2)  =     4000
 


--------------------------------------------------------------------------------------------------------


 ion  position               nearest neighbor table
   1  0.500  0.500  0.500-
 
  LATTYP: Found a simple orthorhombic cell.
 ALAT       =     8.0000000000
 B/A-ratio  =     1.1250000000
 C/A-ratio  =     1.2500000000
  
  Lattice vectors:
  
 A1 = (   8.0000000000,   0.0000000000,   0.0000000000)
 A2 = (   0.0000000000,   9.0000000000,   0.0000000000)
 A3 = (   0.0000000000,   0.0000000000,  10.0000000000)


Analysis of symmetry for initial positions (statically):
=====================================================================
 Subroutine PRICEL returns:
 Original cell was already a primitive cell.
 

 Routine SETGRP: Setting up the symmetry group for a 
 simple orthorhombic supercell.


 Subroutine GETGRP returns: Found  8 space group operations
 (whereof  8 operations were pure point group operations)
 out of a pool of  8 trial point group operations.


The static configuration has the point symmetry D_2h.


Analysis of symmetry for dynamics (positions and initial velocities):
=====================================================================
 Subroutine PRICEL returns:
 Original cell was already a primitive cell.
 

 Routine SETGRP: Setting up the symmetry group for a 
 simple orthorhombic supercell.


 Subroutine GETGRP returns: Found  8 space group operations
 (whereof  8 operations were pure point group operations)
 out of a pool of  8 trial point group operations.


The dynamic configuration has the point symmetry D_2h.


 Subroutine INISYM returns: Found  8 space group operations
 (whereof  8 operations are pure point group operations),
 and found     1 'primitive' translations

 
 
 KPOINTS: KPOINTS created by Atomic Simulation Env

Automatic generation of k-mesh.
Space group operators:
 irot       det(A)        alpha          n_x          n_y          n_z        tau_x        tau_y        tau_z
    1     1.000000     0.000000     1.000000     0.000000     0.000000     0.000000     0.000000     0.000000
    2    -1.000000     0.000000     1.000000     0.000000     0.000000     0.000000     0.000000     0.000000
    3     1.000000   180.000000     0.000000     0.000000     1.000000     0.000000     0.000000     0.000000
    4    -1.000000   180.000000     0.000000     0.000000     1.000000     0.000000     0.000000     0.000000
    5     1.000000   180.000000     0.000000     1.000000     0.000000     0.000000     0.000000     0.000000
    6    -1.000000   180.000000     0.000000     1.000000     0.000000     0.000000     0.000000     0.000000
    7     1.000000   180.000000     1.000000     0.000000     0.000000     0.000000     0.000000     0.000000
    8    -1.000000   180.000000     1.000000     0.000000     0.000000     0.000000     0.000000     0.000000
 
 Subroutine IBZKPT returns following result:
 ===========================================
 
 Found      1 irreducible k-points:
 
 Following reciprocal coordinates:
            Coordinates               Weight
  0.000000  0.000000  0.000000      1.000000
 
 Following cartesian coordinates:
            Coordinates               Weight
  0.000000  0.000000  0.000000      1.000000
 


--------------------------------------------------------------------------------------------------------




 Dimension of arrays:
   k-points           NKPTS =      1   k-points in BZ     NKDIM =      1   number of bands    NBANDS=     24
   number of dos      NEDOS =    301   number of ions     NIONS =      1
   non local maximal  LDIM  =      6   non local SUM 2l+1 LMDIM =     18
   total plane-waves  NPLWV =  96000
   max r-space proj   IRMAX =      1   max aug-charges    IRDMAX=   6755
   dimension x,y,z NGX =    40 NGY =   48 NGZ =   50
   dimension x,y,z NGXF=    80 NGYF=   96 NGZF=  100
   support grid    NGXF=    80 NGYF=   96 NGZF=  100
   ions per type =               1
 NGX,Y,Z   is equivalent  to a cutoff of   8.31,  8.87,  8.31 a.u.
 NGXF,Y,Z  is equivalent  to a cutoff of  16.62, 17.73, 16.62 a.u.


 I would recommend the setting:
   dimension x,y,z NGX =    39 NGY =   44 NGZ =   49
 SYSTEM =  unknown system                          
 POSCAR =  Ag                                      

 Startparameter for this run:
   NWRITE =      2    write-flag & timer
   PREC   = normal    normal or accurate (medium, high low for compatibility)
   ISTART =      0    job   : 0-new  1-cont  2-samecut
   ICHARG =      2    charge: 1-file 2-atom 10-const
   ISPIN  =      1    spin polarized calculation?
   LNONCOLLINEAR =      F non collinear calculations
   LSORBIT =      F    spin-orbit coupling
   INIWAV =      1    electr: 0-lowe 1-rand  2-diag
   LASPH  =      F    aspherical Exc in radial PAW
   METAGGA=      F    non-selfconsistent MetaGGA calc.

 Electronic Relaxation 1
   ENCUT  =  400.0 eV  29.40 Ry    5.42 a.u.  13.05 14.68 16.31*2*pi/ulx,y,z
   ENINI  =  400.0     initial cutoff
   ENAUG  =  412.5 eV  augmentation charge cutoff
   NELM   =     60;   NELMIN=  2; NELMDL= -5     # of ELM steps 
   EDIFF  = 0.1E-03   stopping-criterion for ELM
   LREAL  =      F    real-space projection
   NLSPLINE    = F    spline interpolate recip. space projectors
   LCOMPAT=      F    compatible to vasp.4.4
   GGA_COMPAT  = T    GGA compatible to vasp.4.4-vasp.4.6
   LMAXPAW     = -100 max onsite density
   LMAXMIX     =    2 max onsite mixed and CHGCAR
   VOSKOWN=      0    Vosko Wilk Nusair interpolation
   ROPT   =    0.00000
 Ionic relaxation
   EDIFFG = 0.1E-02   stopping-criterion for IOM
   NSW    =      0    number of steps for IOM
   NBLOCK =      1;   KBLOCK =      1    inner block; outer block 
   IBRION =     -1    ionic relax: 0-MD 1-quasi-New 2-CG
   NFREE  =      0    steps in history (QN), initial steepest desc. (CG)
   ISIF   =      2    stress and relaxation
   IWAVPR =     10    prediction:  0-non 1-charg 2-wave 3-comb
   ISYM   =      2    0-nonsym 1-usesym 2-fastsym
   LCORR  =      T    Harris-Foulkes like correction to forces

   POTIM  = 0.5000    time-step for ionic-motion
   TEIN   =    0.0    initial temperature
   TEBEG  =    0.0;   TEEND  =   0.0 temperature during run
   SMASS  =  -3.00    Nose mass-parameter (am)
   estimated Nose-frequenzy (Omega)   =  0.10E-29 period in steps =****** mass=  -0.146E-26a.u.
   SCALEE = 1.0000    scale energy and forces
   NPACO  =    256;   APACO  = 16.0  distance and # of slots for P.C.
   PSTRESS=    0.0 pullay stress

  Mass of Ions in am
   POMASS = 107.87
  Ionic Valenz
   ZVAL   =  11.00
  Atomic Wigner-Seitz radii
   RWIGS  =  -1.00
  virtual crystal weights 
   VCA    =   1.00
   NELECT =      11.0000    total number of electrons
   NUPDOWN=      -1.0000    fix difference up-down

 DOS related values:
   EMIN   =  10.00;   EMAX   =-10.00  energy-range for DOS
   EFERMI =   0.00
   ISMEAR =     1;   SIGMA  =   0.10  broadening in eV -4-tet -1-fermi 0-gaus

 Electronic relaxation 2 (details)
   IALGO  =     38    algorithm
   LDIAG  =      T    sub-space diagonalisation (order eigenvalues)
   LSUBROT=      F    optimize rotation matrix (better conditioning)
   TURBO    =      0    0=normal 1=particle mesh
   IRESTART =      0    0=no restart 2=restart with 2 vectors
   NREBOOT  =      0    no. of reboots
   NMIN     =      0    reboot dimension
   EREF     =   0.00    reference energy to select bands
   IMIX   =      4    mixing-type and parameters
     AMIX     =   0.40;   BMIX     =  1.00
     AMIX_MAG =   1.60;   BMIX_MAG =  1.00
     AMIN     =   0.10
     WC   =   100.;   INIMIX=   1;  MIXPRE=   1;  MAXMIX= -45

 Intra band minimization:
   WEIMIN = 0.0000     energy-eigenvalue tresh-hold
   EBREAK =  0.10E-05  absolut break condition
   DEPER  =   0.30     relativ break condition  

   TIME   =   0.40     timestep for ELM

  volume/ion in A,a.u.               =     720.00      4858.80
  Fermi-wavevector in a.u.,A,eV,Ry     =   0.406220  0.767645  2.245164  0.165015
  Thomas-Fermi vector in A             =   1.359048
 
 Write flags
   LWAVE  =      F    write WAVECAR
   LCHARG =      F    write CHGCAR
   LVTOT  =      F    write LOCPOT, total local potential
   LVHAR  =      F    write LOCPOT, Hartree potential only
   LELF   =      F    write electronic localiz. function (ELF)
   LORBIT =      0    0 simple, 1 ext, 2 COOP (PROOUT)


 Dipole corrections
   LMONO  =      F    monopole corrections only (constant potential shift)
   LDIPOL =      F    correct potential (dipole corrections)
   IDIPOL =      0    1-x, 2-y, 3-z, 4-all directions 
   EPSILON=  1.0000000 bulk dielectric constant

 Exchange correlation treatment:
   GGA     =    --    GGA type
   LEXCH   =     8    internal setting for exchange type
   VOSKOWN=      0    Vosko Wilk Nusair interpolation
   LHFCALC =     F    Hartree Fock is set to
   LHFONE  =     F    Hartree Fock one center treatment
   AEXX    =    0.0000 exact exchange contribution

 Linear response parameters
   LEPSILON=     F    determine dielectric tensor
   LRPA    =     F    only Hartree local field effects (RPA)
   LNABLA  =     F    use nabla operator in PAW spheres
   LVEL    =     F    velocity operator in full k-point grid
   LINTERFAST=   F  fast interpolation
   KINTER  =     0    interpolate to denser k-point grid
   CSHIFT  =0.1000    complex shift for real part using Kramers Kronig
   OMEGAMAX=  -1.0    maximum frequency
   DEG_THRESHOLD= 0.2000000E-02 threshold for treating states as degnerate
   RTIME   =    0.100 relaxation time in fs

 Orbital magnetization related:
   ORBITALMAG=     F  switch on orbital magnetization
   LCHIMAG   =     F  perturbation theory with respect to B field
   DQ        =  0.001000  dq finite difference perturbation B field



--------------------------------------------------------------------------------------------------------


 Static calculation
 charge density and potential will be updated during run
 non-spin polarized calculation
 Variant of blocked Davidson
 Davidson routine will perform the subspace rotation
 perform sub-space diagonalisation
    after iterative eigenvector-optimisation
 modified Broyden-mixing scheme, WC =      100.0
 initial mixing is a Kerker type mixing with AMIX =  0.4000 and BMIX =      1.0000
 Hartree-type preconditioning will be used
 using additional bands           18
 reciprocal scheme for non local part
 use partial core corrections
 calculate Harris-corrections to forces 
   (improved forces if not selfconsistent)
 use gradient corrections 
 use of overlap-Matrix (Vanderbilt PP)
 Methfessel and Paxton  Order N= 1 SIGMA  =   0.10


--------------------------------------------------------------------------------------------------------


  energy-cutoff  :      400.00
  volume of cell :      720.00
      direct lattice vectors                 reciprocal lattice vectors
     8.000000000  0.000000000  0.000000000     0.125000000  0.000000000  0.000000000
     0.000000000  9.000000000  0.000000000     0.000000000  0.111111111  0.000000000
     0.000000000  0.000000000 10.000000000     0.000000000  0.000000000  0.100000000

  length of vectors
     8.000000000  9.000000000 10.000000000     0.125000000  0.111111111  0.100000000


 
 k-points in units of 2pi/SCALE and weight: KPOINTS created by Atomic Simulation Env
   0.00000000  0.00000000  0.00000000       1.000
 
 k-points in reciprocal lattice and weights: KPOINTS created by Atomic Simulation Env
   0.00000000  0.00000000  0.00000000       1.000
 
 position of ions in fractional coordinates (direct lattice) 
   0.50000000  0.50000000  0.50000000
 
 position of ions in cartesian coordinates  (Angst):
   4.00000000  4.50000000  5.00000000
 


--------------------------------------------------------------------------------------------------------


 k-point  1 :   0.0000 0.0000 0.0000  plane waves:   13091

 maximum and minimum number of plane-waves per node :     13091    13091

 maximum number of plane-waves:     13091
 maximum index in each direction: 
   IXMAX=   13   IYMAX=   14   IZMAX=   16
   IXMIN=  -13   IYMIN=  -14   IZMIN=  -16

 WARNING: aliasing errors must be expected set NGX to  54 to avoid them
 WARNING: aliasing errors must be expected set NGY to  58 to avoid them
 WARNING: aliasing errors must be expected set NGZ to  66 to avoid them
 aliasing errors are usually negligible using standard VASP settings
 and one can safely disregard these warnings

 serial   3D FFT for wavefunctions
 parallel 3D FFT for charge:
    minimum data exchange during FFTs selected (reduces bandwidth)


 total amount of memory used by VASP on root node    39719. kBytes
========================================================================

   base      :      30000. kBytes
   nonl-proj :       2096. kBytes
   fftplans  :       1660. kBytes
   grid      :       5738. kBytes
   one-center:         15. kBytes
   wavefun   :        210. kBytes
 
     INWAV:  cpu time    0.0000: real time    0.0000
 Broyden mixing: mesh for mixing (old mesh)
   NGX = 27   NGY = 29   NGZ = 33
  (NGX  = 80   NGY  = 96   NGZ  =100)
  gives a total of  25839 points

 initial charge density was supplied:
 charge density of overlapping atoms calculated
 number of electron      11.0000000 magnetization 
 keeping initial charge density in first step


--------------------------------------------------------------------------------------------------------


 Maximum index for augmentation-charges          207 (set IRDMAX)


--------------------------------------------------------------------------------------------------------


 First call to EWALD:  gamma=   0.198
 Maximum number of real-space cells 3x 3x 3
 Maximum number of reciprocal cells 3x 3x 3

 FEWALD executed in parallel
    FEWALD:  cpu time    0.0017: real time    0.0017


----------------------------------------- Iteration    1(   1)  ---------------------------------------


    POTLOK:  cpu time    0.0404: real time    0.0404
    SETDIJ:  cpu time    0.0026: real time    0.0026
     EDDAV:  cpu time    0.0428: real time    0.0428
       DOS:  cpu time    0.0004: real time    0.0004
    --------------------------------------------
      LOOP:  cpu time    0.0882: real time    0.0917

 eigenvalue-minimisations  :    48
 total energy-change (2. order) : 0.6358209E+02  (-0.2126396E+03)
 number of electron      11.0000000 magnetization 
 augmentation part       11.0000000 magnetization 

 Free energy of the ion-electron system (eV)
  ---------------------------------------------------
  alpha Z        PSCENC =         1.18135843
  Ewald energy   TEWEN  =      -272.25557010
  -Hartree energ DENC   =      -724.84941310
  -exchange      EXHF   =         0.00000000
  -V(xc)+E(xc)   XCENC  =       -12.15839840
  PAW double counting   =      1003.46214933     -957.34927423
  entropy T*S    EENTRO =        -0.02681691
  eigenvalues    EBANDS =       -11.68036913
  atomic energy  EATOM  =      1037.25842838
  Solvation  Ediel_sol  =         0.00000000
  ---------------------------------------------------
  free energy    TOTEN  =        63.58209426 eV

  energy without entropy =       63.60891117  energy(sigma->0) =       63.59103323


--------------------------------------------------------------------------------------------------------




----------------------------------------- Iteration    1(   2)  ---------------------------------------


     EDDAV:  cpu time    0.0478: real time    0.0478
       DOS:  cpu time    0.0003: real time    0.0003
    --------------------------------------------
      LOOP:  cpu time    0.0494: real time    0.0507

 eigenvalue-minimisations  :    72
 total energy-change (2. order) :-0.6216530E+02  (-0.6218451E+02)
 number of electron      11.0000000 magnetization 
 augmentation part       11.0000000 magnetization 

 Free energy of the ion-electron system (eV)
  ---------------------------------------------------
  alpha Z        PSCENC =         1.18135843
  Ewald energy   TEWEN  =      -272.25557010
  -Hartree energ DENC   =      -724.84941310
  -exchange      EXHF   =         0.00000000
  -V(xc)+E(xc)   XCENC  =       -12.15839840
  PAW double counting   =      1003.46214933     -957.34927423
  entropy T*S    EENTRO =        -0.02820948
  eigenvalues    EBANDS =       -73.84427604
  atomic energy  EATOM  =      1037.25842838
  Solvation  Ediel_sol  =         0.00000000
  ---------------------------------------------------
  free energy    TOTEN  =         1.41679478 eV

  energy without entropy =        1.44500426  energy(sigma->0) =        1.42619794


--------------------------------------------------------------------------------------------------------




----------------------------------------- Iteration    1(   3)  ---------------------------------------


     EDDAV:  cpu time    0.0337: real time    0.0337
       DOS:  cpu time    0.0003: real time    0.0003
    --------------------------------------------
      LOOP:  cpu time    0.0349: real time    0.0366

 eigenvalue-minimisations  :    48
 total energy-change (2. order) :-0.1469407E+01  (-0.1469407E+01)
 number of electron      11.0000000 magnetization 
 augmentation part       11.0000000 magnetization 

 Free energy of the ion-electron system (eV)
  ---------------------------------------------------
  alpha Z        PSCENC =         1.18135843
  Ewald energy   TEWEN  =      -272.25557010
  -Hartree energ DENC   =      -724.84941310
  -exchange      EXHF   =         0.00000000
  -V(xc)+E(xc)   XCENC  =       -12.15839840
  PAW double counting   =      1003.46214933     -957.34927423
  entropy T*S    EENTRO =        -0.02820948
  eigenvalues    EBANDS =       -75.31368306
  atomic energy  EATOM  =      1037.25842838
  Solvation  Ediel_sol  =         0.00000000
  ---------------------------------------------------
  free energy    TOTEN  =        -0.05261223 eV

  energy without entropy =       -0.02440275  energy(sigma->0) =       -0.04320907


--------------------------------------------------------------------------------------------------------




----------------------------------------- Iteration    1(   4)  ---------------------------------------


     EDDAV:  cpu time    0.0336: real time    0.0336
       DOS:  cpu time    0.0003: real time    0.0003
    --------------------------------------------
      LOOP:  cpu time    0.0348: real time    0.0361

 eigenvalue-minimisations  :    48
 total energy-change (2. order) :-0.4470076E-02  (-0.4470076E-02)
 number of electron      11.0000000 magnetization 
 augmentation part       11.0000000 magnetization 

 Free energy of the ion-electron system (eV)
  ---------------------------------------------------
  alpha Z        PSCENC =         1.18135843
  Ewald energy   TEWEN  =      -272.25557010
  -Hartree energ DENC   =      -724.84941310
  -exchange      EXHF   =         0.00000000
  -V(xc)+E(xc)   XCENC  =       -12.15839840
  PAW double counting   =      1003.46214933     -957.34927423
  entropy T*S    EENTRO =        -0.02820948
  eigenvalues    EBANDS =       -75.31815313
  atomic energy  EATOM  =      1037.25842838
  Solvation  Ediel_sol  =         0.00000000
  ---------------------------------------------------
  free energy    TOTEN  =        -0.05708231 eV

  energy without entropy =       -0.02887283  energy(sigma->0) =       -0.04767915


--------------------------------------------------------------------------------------------------------




----------------------------------------- Iteration    1(   5)  ---------------------------------------


     EDDAV:  cpu time    0.0337: real time    0.0337
       DOS:  cpu time    0.0003: real time    0.0003
    CHARGE:  cpu time    0.0186: real time    0.0186
    MIXING:  cpu time    0.0013: real time    0.0013
    --------------------------------------------
      LOOP:  cpu time    0.0549: real time    0.0562

 eigenvalue-minimisations  :    48
 total energy-change (2. order) :-0.4329557E-04  (-0.4329559E-04)
 number of electron      11.0000043 magnetization 
 augmentation part        5.3689197 magnetization 

 Broyden mixing:
  rms(total) = 0.42696E-02    rms(broyden)= 0.38845E-02
  rms(prec ) = 0.62288E-02
  weight for this iteration     100.00

 Free energy of the ion-electron system (eV)
  ---------------------------------------------------
  alpha Z        PSCENC =         1.18135843
  Ewald energy   TEWEN  =      -272.25557010
  -Hartree energ DENC   =      -724.84941310
  -exchange      EXHF   =         0.00000000
  -V(xc)+E(xc)   XCENC  =       -12.15839840
  PAW double counting   =      1003.46214933     -957.34927423
  entropy T*S    EENTRO =        -0.02820948
  eigenvalues    EBANDS =       -75.31819643
  atomic energy  EATOM  =      1037.25842838
  Solvation  Ediel_sol  =         0.00000000
  ---------------------------------------------------
  free energy    TOTEN  =        -0.05712560 eV

  energy without entropy =       -0.02891612  energy(sigma->0) =       -0.04772244


--------------------------------------------------------------------------------------------------------




----------------------------------------- Iteration    1(   6)  ---------------------------------------


    POTLOK:  cpu time    0.0238: real time    0.0238
    SETDIJ:  cpu time    0.0019: real time    0.0019
     EDDAV:  cpu time    0.0443: real time    0.0443
       DOS:  cpu time    0.0003: real time    0.0003
    --------------------------------------------
      LOOP:  cpu time    0.0712: real time    0.0728

 eigenvalue-minimisations  :    48
 total energy-change (2. order) :-0.7954698E-04  (-0.6663245E-05)
 number of electron      11.0000043 magnetization 
 augmentation part        5.3689197 magnetization 

 Free energy of the ion-electron system (eV)
  ---------------------------------------------------
  alpha Z        PSCENC =         1.18135843
  Ewald energy   TEWEN  =      -272.25557010
  -Hartree energ DENC   =      -724.72412417
  -exchange      EXHF   =         0.00000000
  -V(xc)+E(xc)   XCENC  =       -12.16310502
  PAW double counting   =      1002.51111477     -956.38548278
  entropy T*S    EENTRO =        -0.02820948
  eigenvalues    EBANDS =       -75.45161518
  atomic energy  EATOM  =      1037.25842838
  Solvation  Ediel_sol  =         0.00000000
  ---------------------------------------------------
  free energy    TOTEN  =        -0.05720515 eV

  energy without entropy =       -0.02899567  energy(sigma->0) =       -0.04780199


--------------------------------------------------------------------------------------------------------




 average (electrostatic) potential at core
  the test charge radii are     1.1249
  (the norm of the test charge is              1.0000)
       1 -81.9367
 
 
 
 E-fermi :  -4.1097     XC(G=0):  -1.2499     alpha+bet : -0.3188


 k-point     1 :       0.0000    0.0000    0.0000
  band No.  band energies     occupation 
      1      -7.1345      2.00000
      2      -7.1343      2.00000
      3      -7.1342      2.00000
      4      -7.1340      2.00000
      5      -7.1340      2.00000
      6      -4.1097      1.00000
      7      -0.3847      0.00000
      8      -0.2787      0.00000
      9      -0.0958      0.00000
     10       0.0186      0.00000
     11       1.1032      0.00000
     12       1.3944      0.00000
     13       2.0399      0.00000
     14       2.2678      0.00000
     15       2.4393      0.00000
     16       2.5015      0.00000
     17       2.6455      0.00000
     18       2.8510      0.00000
     19       3.0258      0.00000
     20       3.0994      0.00000
     21       3.1828      0.00000
     22       3.2232      0.00000
     23       3.4864      0.00000
     24       3.6020      0.00000


--------------------------------------------------------------------------------------------------------


 soft charge-density along one line, spin component           1
         0         1         2         3         4         5         6         7         8         9
 total charge-density along one line
 
 pseudopotential strength for first ion, spin component:           1
-10.199  -0.000   0.000   0.000  -0.000 -10.180  -0.000   0.000
 -0.000 -10.199   0.000   0.000  -0.000  -0.000 -10.180   0.000
  0.000   0.000 -10.199   0.000   0.000   0.000   0.000 -10.180
  0.000   0.000   0.000 -10.199  -0.000   0.000   0.000   0.000
 -0.000  -0.000   0.000  -0.000 -10.199  -0.000  -0.000   0.000
-10.180  -0.000   0.000   0.000  -0.000 -10.136  -0.000   0.000
 -0.000 -10.180   0.000   0.000  -0.000  -0.000 -10.136   0.000
  0.000   0.000 -10.180   0.000   0.000   0.000   0.000 -10.136
  0.000   0.000   0.000 -10.180  -0.000   0.000   0.000   0.000
 -0.000  -0.000   0.000  -0.000 -10.180  -0.000  -0.000   0.000
 -0.000  -0.000  -0.000   0.000   0.000  -0.000  -0.000  -0.000
 -0.000  -0.000  -0.000   0.000   0.000  -0.000  -0.000  -0.000
  0.000  -0.000   0.000   0.000   0.000   0.000  -0.000   0.000
  0.000  -0.000   0.000   0.000   0.000   0.000  -0.000   0.000
 -0.000   0.000   0.000  -0.000  -0.000  -0.000   0.000   0.000
  0.000  -0.000   0.000   0.000   0.000   0.000  -0.000   0.000
  0.000  -0.000   0.000   0.000   0.000   0.000  -0.000   0.000
 -0.000   0.000   0.000  -0.000  -0.000  -0.000   0.000   0.000
 total augmentation occupancy for first ion, spin component:           1
  2.008   0.000   0.000   0.000   0.000  -0.004   0.000   0.000   0.000   0.000   0.000   0.000   0.000   0.000   0.000   0.000
  0.000   2.008   0.000   0.000   0.000   0.000  -0.004   0.000   0.000   0.000   0.000   0.000   0.000   0.000   0.000   0.000
  0.000   0.000   2.007   0.000   0.000   0.000   0.000  -0.004   0.000  -0.000   0.000   0.001   0.000   0.000   0.000   0.000
  0.000   0.000   0.000   2.008   0.000   0.000   0.000   0.000  -0.004   0.000   0.000   0.000   0.000   0.000   0.000   0.000
  0.000   0.000   0.000   0.000   2.006   0.000   0.000  -0.000   0.000  -0.003  -0.003   0.000   0.000   0.000   0.000   0.000
 -0.004   0.000   0.000   0.000   0.000   0.000   0.000  -0.000   0.000   0.000   0.000   0.000   0.000   0.000   0.000   0.000
  0.000  -0.004   0.000   0.000   0.000   0.000   0.000   0.000   0.000   0.000   0.000   0.000   0.000   0.000   0.000   0.000
  0.000   0.000  -0.004   0.000  -0.000  -0.000   0.000   0.000   0.000  -0.000  -0.002  -0.000   0.000   0.000   0.000   0.000
  0.000   0.000   0.000  -0.004   0.000   0.000   0.000   0.000   0.000   0.000   0.000   0.000   0.000   0.000   0.000   0.000
  0.000   0.000  -0.000   0.000  -0.003   0.000   0.000  -0.000   0.000   0.000   0.002   0.000   0.000   0.000   0.000   0.000
  0.000   0.000   0.000   0.000  -0.003   0.000   0.000  -0.002   0.000   0.002   0.968   0.005   0.000   0.000   0.000   0.000
  0.000   0.000   0.001   0.000   0.000  -0.000   0.000  -0.000   0.000   0.000   0.005   0.000   0.000   0.000   0.000   0.000
  0.000   0.000   0.000   0.000   0.000   0.000   0.000   0.000   0.000   0.000   0.000   0.000   0.000   0.000   0.000  -0.000
  0.000   0.000   0.000   0.000   0.000   0.000   0.000   0.000   0.000   0.000   0.000   0.000   0.000   0.000   0.000   0.000
  0.000   0.000   0.000   0.000   0.000   0.000   0.000   0.000   0.000   0.000   0.000   0.000   0.000   0.000   0.000  -0.000
  0.000   0.000   0.000   0.000   0.000   0.000   0.000   0.000   0.000   0.000   0.000   0.000  -0.000   0.000   0.000   0.000
  0.000   0.000   0.000   0.000   0.000   0.000   0.000   0.000   0.000   0.000   0.000   0.000   0.000  -0.000   0.000   0.000
  0.000   0.000   0.000   0.000   0.000   0.000   0.000   0.000   0.000   0.000   0.000   0.000  -0.000   0.000  -0.000   0.000


------------------------ aborting loop because EDIFF is reached ----------------------------------------


    CHARGE:  cpu time    0.0167: real time    0.0167
    FORLOC:  cpu time    0.0007: real time    0.0007
    FORNL :  cpu time    0.0078: real time    0.0078
    STRESS:  cpu time    0.0689: real time    0.0690
    FORCOR:  cpu time    0.0222: real time    0.0222
    FORHAR:  cpu time    0.0173: real time    0.0176
    MIXING:  cpu time    0.0050: real time    0.0050
    OFIELD:  cpu time    0.0000: real time    0.0000

  FORCE on cell =-STRESS in cart. coord.  units (eV):
  Direction    XX          YY          ZZ          XY          YZ          ZX
  --------------------------------------------------------------------------------------
  Alpha Z     1.18136     1.18136     1.18136
  Ewald     -58.49678   -91.23187  -122.52691    -0.00000     0.00000    -0.00000
  Hartree   272.06246   241.10103   211.15044    -0.00000    -0.00000    -0.00000
  E(xc)     -57.69695   -57.69786   -57.69810    -0.00000    -0.00000     0.00000
  Local    -371.74438  -308.04146  -246.79410    -0.00000     0.00000     0.00000
  n-local   -15.60423   -15.58604   -15.58122    -0.00023     0.00028    -0.00028
  augment    91.74823    91.74659    91.74661     0.00000     0.00000     0.00000
  Kinetic   138.32401   138.38211   138.40461     0.00024    -0.00028     0.00026
  Fock        0.00000     0.00000     0.00000     0.00000     0.00000     0.00000
  -------------------------------------------------------------------------------------
  Total      -0.22628    -0.14614    -0.11731     0.00000     0.00000     0.00000
  in kB      -0.50353    -0.32519    -0.26104     0.00000     0.00000     0.00000
  external pressure =       -0.36 kB  Pullay stress =        0.00 kB


 VOLUME and BASIS-vectors are now :
 -----------------------------------------------------------------------------
  energy-cutoff  :      400.00
  volume of cell :      720.00
      direct lattice vectors                 reciprocal lattice vectors
     8.000000000  0.000000000  0.000000000     0.125000000  0.000000000  0.000000000
     0.000000000  9.000000000  0.000000000     0.000000000  0.111111111  0.000000000
     0.000000000  0.000000000 10.000000000     0.000000000  0.000000000  0.100000000

  length of vectors
     8.000000000  9.000000000 10.000000000     0.125000000  0.111111111  0.100000000


 FORCES acting on ions
    electron-ion (+dipol)            ewald-force                    non-local-force                 convergence-correction
 -----------------------------------------------------------------------------------------------
   -.237E-13 0.359E-11 -.162E-11   -.376E-15 0.199E-15 0.208E-16   0.000E+00 0.000E+00 0.000E+00   -.651E-14 -.127E-11 0.104E-11
 -----------------------------------------------------------------------------------------------
   -.237E-13 0.359E-11 -.162E-11   -.376E-15 0.199E-15 0.208E-16   0.000E+00 0.000E+00 0.000E+00   -.651E-14 -.127E-11 0.104E-11
 
 
 POSITION                                       TOTAL-FORCE (eV/Angst)
 -----------------------------------------------------------------------------------
      4.00000      4.50000      5.00000         0.000000      0.000000      0.000000
 -----------------------------------------------------------------------------------
    total drift:                               -0.000000      0.000000     -0.000000


--------------------------------------------------------------------------------------------------------



  FREE ENERGIE OF THE ION-ELECTRON SYSTEM (eV)
  ---------------------------------------------------
  free  energy   TOTEN  =        -0.05720515 eV

  energy  without entropy=       -0.02899567  energy(sigma->0) =       -0.04780199
 


--------------------------------------------------------------------------------------------------------


    POTLOK:  cpu time    0.0437: real time    0.0441


--------------------------------------------------------------------------------------------------------


     LOOP+:  cpu time    0.5221: real time    0.5534
    4ORBIT:  cpu time    0.0000: real time    0.0000

 total amount of memory used by VASP on root node    39719. kBytes
========================================================================

   base      :      30000. kBytes
   nonl-proj :       2096. kBytes
   fftplans  :       1660. kBytes
   grid      :       5738. kBytes
   one-center:         15. kBytes
   wavefun   :        210. kBytes
 
  
  
 General timing and accounting informations for this job:
 ========================================================
  
                  Total CPU time used (sec):        0.976
                            User time (sec):        0.855
                          System time (sec):        0.121
                         Elapsed time (sec):        1.223
  
                   Maximum memory used (kb):       65252.
                   Average memory used (kb):           0.
  
                          Minor page faults:        12221
                          Major page faults:            9
                 Voluntary context switches:         1567
