<?xml version="1.0" encoding="ISO-8859-1"?>
<modeling>
 <generator>
  <i name="program" type="string">vasp </i>
  <i name="version" type="string">5.4.1  </i>
  <i name="subversion" type="string">05Feb16 (build Feb 08 2018 09:21:51) complex                          parallel </i>
  <i name="platform" type="string">LinuxIFC </i>
  <i name="date" type="string">2019 11 21 </i>
  <i name="time" type="string">11:54:51 </i>
 </generator>
 <incar>
  <i type="string" name="PREC">normal</i>
  <i name="ENCUT">    400.00000000</i>
  <i type="int" name="ISMEAR">     1</i>
  <i name="SIGMA">      0.10000000</i>
  <i type="logical" name="LWAVE"> F  </i>
  <i type="logical" name="LCHARG"> F  </i>
  <v type="int" name="KPOINT_BSE">    -1     0     0     0</v>
 </incar>
 <kpoints>
  <generation param="Monkhorst-Pack">
   <v type="int" name="divisions">       1        1        1 </v>
   <v name="usershift">      0.00000000       0.00000000       0.00000000 </v>
   <v name="genvec1">      1.00000000       0.00000000       0.00000000 </v>
   <v name="genvec2">      0.00000000       1.00000000       0.00000000 </v>
   <v name="genvec3">      0.00000000       0.00000000       1.00000000 </v>
   <v name="shift">      0.00000000       0.00000000       0.00000000 </v>
  </generation>
  <varray name="kpointlist" >
   <v>       0.00000000       0.00000000       0.00000000 </v>
  </varray>
  <varray name="weights" >
   <v>       1.00000000 </v>
  </varray>
 </kpoints>
 <parameters>
  <separator name="general" >
   <i type="string" name="SYSTEM">unknown system</i>
   <i type="logical" name="LCOMPAT"> F  </i>
  </separator>
  <separator name="electronic" >
   <i type="string" name="PREC">normal</i>
   <i name="ENMAX">    400.00000000</i>
   <i name="ENAUG">    412.49600000</i>
   <i name="EDIFF">      0.00010000</i>
   <i type="int" name="IALGO">    38</i>
   <i type="int" name="IWAVPR">    10</i>
   <i type="int" name="NBANDS">    24</i>
   <i name="NELECT">     11.00000000</i>
   <i type="int" name="TURBO">     0</i>
   <i type="int" name="IRESTART">     0</i>
   <i type="int" name="NREBOOT">     0</i>
   <i type="int" name="NMIN">     0</i>
   <i name="EREF">      0.00000000</i>
   <separator name="electronic smearing" >
    <i type="int" name="ISMEAR">     1</i>
    <i name="SIGMA">      0.10000000</i>
    <i name="KSPACING">      0.50000000</i>
    <i type="logical" name="KGAMMA"> T  </i>
   </separator>
   <separator name="electronic projectors" >
    <i type="logical" name="LREAL"> F  </i>
    <v name="ROPT">      0.00000000</v>
    <i type="int" name="LMAXPAW">  -100</i>
    <i type="int" name="LMAXMIX">     2</i>
    <i type="logical" name="NLSPLINE"> F  </i>
   </separator>
   <separator name="electronic startup" >
    <i type="int" name="ISTART">     0</i>
    <i type="int" name="ICHARG">     2</i>
    <i type="int" name="INIWAV">     1</i>
   </separator>
   <separator name="electronic spin" >
    <i type="int" name="ISPIN">     1</i>
    <i type="logical" name="LNONCOLLINEAR"> F  </i>
    <v name="MAGMOM">      1.00000000</v>
    <i name="NUPDOWN">     -1.00000000</i>
    <i type="logical" name="LSORBIT"> F  </i>
    <v name="SAXIS">      0.00000000      0.00000000      1.00000000</v>
    <i type="logical" name="LSPIRAL"> F  </i>
    <v name="QSPIRAL">      0.00000000      0.00000000      0.00000000</v>
    <i type="logical" name="LZEROZ"> F  </i>
   </separator>
   <separator name="electronic exchange-correlation" >
    <i type="logical" name="LASPH"> F  </i>
    <i type="logical" name="LMETAGGA"> F  </i>
   </separator>
   <separator name="electronic convergence" >
    <i type="int" name="NELM">    60</i>
    <i type="int" name="NELMDL">    -5</i>
    <i type="int" name="NELMIN">     2</i>
    <i name="ENINI">    400.00000000</i>
    <separator name="electronic convergence detail" >
     <i type="logical" name="LDIAG"> T  </i>
     <i type="logical" name="LSUBROT"> F  </i>
     <i name="WEIMIN">      0.00000000</i>
     <i name="EBREAK">      0.00000104</i>
     <i name="DEPER">      0.30000000</i>
     <i type="int" name="NRMM">     4</i>
     <i name="TIME">      0.40000000</i>
    </separator>
   </separator>
   <separator name="electronic mixer" >
    <i name="AMIX">      0.40000000</i>
    <i name="BMIX">      1.00000000</i>
    <i name="AMIN">      0.10000000</i>
    <i name="AMIX_MAG">      1.60000000</i>
    <i name="BMIX_MAG">      1.00000000</i>
    <separator name="electronic mixer details" >
     <i type="int" name="IMIX">     4</i>
     <i type="logical" name="MIXFIRST"> F  </i>
     <i type="int" name="MAXMIX">   -45</i>
     <i name="WC">    100.00000000</i>
     <i type="int" name="INIMIX">     1</i>
     <i type="int" name="MIXPRE">     1</i>
     <i type="int" name="MREMOVE">     5</i>
    </separator>
   </separator>
   <separator name="electronic dipolcorrection" >
    <i type="logical" name="LDIPOL"> F  </i>
    <i type="logical" name="LMONO"> F  </i>
    <i type="int" name="IDIPOL">     0</i>
    <i name="EPSILON">      1.00000000</i>
    <v name="DIPOL">   -100.00000000   -100.00000000   -100.00000000</v>
    <i name="EFIELD">      0.00000000</i>
   </separator>
  </separator>
  <separator name="grids" >
   <i type="int" name="NGX">    40</i>
   <i type="int" name="NGY">    48</i>
   <i type="int" name="NGZ">    50</i>
   <i type="int" name="NGXF">    80</i>
   <i type="int" name="NGYF">    96</i>
   <i type="int" name="NGZF">   100</i>
   <i type="logical" name="ADDGRID"> F  </i>
  </separator>
  <separator name="ionic" >
   <i type="int" name="NSW">     0</i>
   <i type="int" name="IBRION">    -1</i>
   <i type="int" name="ISIF">     2</i>
   <i name="PSTRESS">      0.00000000</i>
   <i name="EDIFFG">      0.00100000</i>
   <i type="int" name="NFREE">     0</i>
   <i name="POTIM">      0.50000000</i>
   <i name="SMASS">     -3.00000000</i>
   <i name="SCALEE">      1.00000000</i>
  </separator>
  <separator name="ionic md" >
   <i name="TEBEG">      0.00010000</i>
   <i name="TEEND">      0.00010000</i>
   <i type="int" name="NBLOCK">     1</i>
   <i type="int" name="KBLOCK">     1</i>
   <i type="int" name="NPACO">   256</i>
   <i name="APACO">     16.00000000</i>
  </separator>
  <separator name="symmetry" >
   <i type="int" name="ISYM">     2</i>
   <i name="SYMPREC">      0.00001000</i>
  </separator>
  <separator name="dos" >
   <i type="logical" name="LORBIT"> F  </i>
   <v name="RWIGS">     -1.00000000</v>
   <i type="int" name="NEDOS">   301</i>
   <i name="EMIN">     10.00000000</i>
   <i name="EMAX">    -10.00000000</i>
   <i name="EFERMI">      0.00000000</i>
  </separator>
  <separator name="writing" >
   <i type="int" name="NWRITE">     2</i>
   <i type="logical" name="LWAVE"> F  </i>
   <i type="logical" name="LCHARG"> F  </i>
   <i type="logical" name="LPARD"> F  </i>
   <i type="logical" name="LVTOT"> F  </i>
   <i type="logical" name="LVHAR"> F  </i>
   <i type="logical" name="LELF"> F  </i>
   <i type="logical" name="LOPTICS"> F  </i>
   <v name="STM">      0.00000000      0.00000000      0.00000000      0.00000000      0.00000000      0.00000000      0.00000000</v>
  </separator>
  <separator name="performance" >
   <i type="int" name="NPAR">    24</i>
   <i type="int" name="NSIM">     4</i>
   <i type="int" name="NBLK">    -1</i>
   <i type="logical" name="LPLANE"> T  </i>
   <i type="logical" name="LSCALAPACK"> F  </i>
   <i type="logical" name="LSCAAWARE"> F  </i>
   <i type="logical" name="LSCALU"> F  </i>
   <i type="logical" name="LASYNC"> F  </i>
   <i type="logical" name="LORBITALREAL"> F  </i>
  </separator>
  <separator name="miscellaneous" >
   <i type="int" name="IDIOT">     3</i>
   <i type="logical" name="LMUSIC"> F  </i>
   <v name="POMASS">    107.86800000</v>
   <v name="DARWINR">      0.00000000</v>
   <v name="DARWINV">      1.00000000</v>
   <i type="logical" name="LCORR"> T  </i>
  </separator>
  <i type="logical" name="GGA_COMPAT"> T  </i>
  <i type="logical" name="LBERRY"> F  </i>
  <i type="int" name="ICORELEVEL">     0</i>
  <i type="logical" name="LDAU"> F  </i>
  <i type="int" name="I_CONSTRAINED_M">     0</i>
  <separator name="electronic exchange-correlation" >
   <i type="string" name="GGA">--</i>
   <i type="int" name="VOSKOWN">     0</i>
   <i type="logical" name="LHFCALC"> F  </i>
   <i type="string" name="PRECFOCK"></i>
   <i type="logical" name="LSYMGRAD"> F  </i>
   <i type="logical" name="LHFONE"> F  </i>
   <i type="logical" name="LRHFCALC"> F  </i>
   <i type="logical" name="LTHOMAS"> F  </i>
   <i type="logical" name="LMODELHF"> F  </i>
   <i name="ENCUT4O">     -1.00000000</i>
   <i type="int" name="EXXOEP">     0</i>
   <i type="int" name="FOURORBIT">     0</i>
   <i name="AEXX">      0.00000000</i>
   <i name="HFALPHA">      0.00000000</i>
   <i name="MCALPHA">      0.00000000</i>
   <i name="ALDAX">      1.00000000</i>
   <i name="AGGAX">      1.00000000</i>
   <i name="ALDAC">      1.00000000</i>
   <i name="AGGAC">      1.00000000</i>
   <i type="int" name="NKREDX">     1</i>
   <i type="int" name="NKREDY">     1</i>
   <i type="int" name="NKREDZ">     1</i>
   <i type="logical" name="SHIFTRED"> F  </i>
   <i type="logical" name="ODDONLY"> F  </i>
   <i type="logical" name="EVENONLY"> F  </i>
   <i type="int" name="LMAXFOCK">     0</i>
   <i type="int" name="NMAXFOCKAE">     0</i>
   <i type="logical" name="LFOCKAEDFT"> F  </i>
   <i name="HFSCREEN">      0.00000000</i>
   <i name="HFSCREENC">      0.00000000</i>
   <i type="int" name="NBANDSGWLOW">     0</i>
  </separator>
  <separator name="vdW DFT" >
   <i type="logical" name="LUSE_VDW"> F  </i>
   <i name="Zab_VDW">     -0.84910000</i>
   <i name="PARAM1">      0.12340000</i>
   <i name="PARAM2">      1.00000000</i>
   <i name="PARAM3">      0.00000000</i>
  </separator>
  <separator name="model GW" >
   <i type="int" name="MODEL_GW">     0</i>
   <i name="MODEL_EPS0">    432.00000000</i>
   <i name="MODEL_ALPHA">      1.00000000</i>
  </separator>
  <separator name="linear response parameters" >
   <i type="logical" name="LEPSILON"> F  </i>
   <i type="logical" name="LRPA"> F  </i>
   <i type="logical" name="LNABLA"> F  </i>
   <i type="logical" name="LVEL"> F  </i>
   <i type="int" name="KINTER">     0</i>
   <i name="CSHIFT">      0.10000000</i>
   <i name="OMEGAMAX">     -1.00000000</i>
   <i name="DEG_THRESHOLD">      0.00200000</i>
  </separator>
  <separator name="orbital magnetization" >
   <i type="logical" name="NUCIND"> F  </i>
   <v name="MAGPOS">      0.00000000      0.00000000      0.00000000</v>
   <i type="logical" name="LNICSALL"> T  </i>
   <i type="logical" name="ORBITALMAG"> F  </i>
   <i type="logical" name="LMAGBLOCH"> F  </i>
   <i type="logical" name="LCHIMAG"> F  </i>
   <i type="logical" name="LGAUGE"> T  </i>
   <i type="int" name="MAGATOM">     0</i>
   <v name="MAGDIPOL">      0.00000000      0.00000000      0.00000000</v>
   <v name="AVECCONST">      0.00000000      0.00000000      0.00000000</v>
  </separator>
  <separator name="response functions" >
   <i type="logical" name="LADDER"> F  </i>
   <i type="logical" name="LFXC"> F  </i>
   <i type="logical" name="LHARTREE"> T  </i>
   <i type="int" name="IBSE">     0</i>
   <v type="int" name="KPOINT">    -1     0     0     0</v>
   <i type="logical" name="LTCTE"> F  </i>
   <i type="logical" name="LTETE"> F  </i>
   <i type="logical" name="LTRIPLET"> F  </i>
   <i type="logical" name="LFXCEPS"> F  </i>
   <i type="logical" name="LFXHEG"> F  </i>
   <i type="int" name="NATURALO">     0</i>
   <i type="logical" name="L2ORDER"> F  </i>
   <i type="logical" name="LUSEW"> F  </i>
   <i name="ENCUTGW">     -2.00000000</i>
   <i name="ENCUTGWSOFT">     -2.00000000</i>
   <i name="ENCUTLF">     -1.00000000</i>
   <i type="int" name="LMAXMP2">    -1</i>
   <i name="SCISSOR">      0.00000000</i>
   <i type="int" name="NOMEGA">     0</i>
   <i type="int" name="NOMEGAR">     0</i>
   <i type="int" name="NBANDSGW">    -1</i>
   <i type="int" name="NBANDSO">    -1</i>
   <i type="int" name="NBANDSV">    -1</i>
   <i type="int" name="NELM">     1</i>
   <i type="int" name="NELMHF">     1</i>
   <i type="int" name="DIM">     3</i>
   <i type="int" name="ANTIRES">     0</i>
   <i name="OMEGAMAX">    -30.00000000</i>
   <i name="OMEGAMIN">    -30.00000000</i>
   <i name="OMEGATL">   -200.00000000</i>
   <i type="int" name="OMEGAGRID">     0</i>
   <i name="CSHIFT">     -0.10000000</i>
   <i type="logical" name="SELFENERGY"> F  </i>
   <i type="logical" name="LSPECTRAL"> F  </i>
   <i type="logical" name="LSPECTRALGW"> F  </i>
   <i type="logical" name="LSINGLES"> F  </i>
   <i type="logical" name="LFERMIGW"> F  </i>
   <i type="logical" name="ODDONLYGW"> F  </i>
   <i type="logical" name="EVENONLYGW"> F  </i>
   <i type="int" name="NKREDLFX">     1</i>
   <i type="int" name="NKREDLFY">     1</i>
   <i type="int" name="NKREDLFZ">     1</i>
   <i type="int" name="MAXMEM">  1800</i>
   <i type="int" name="TELESCOPE">     0</i>
   <i type="int" name="TAUPAR">     1</i>
   <i type="int" name="OMEGAPAR">    -1</i>
   <i name="LAMBDA">      1.00000000</i>
  </separator>
  <separator name="External order field" >
   <i name="OFIELD_KAPPA">      0.00000000</i>
   <v name="OFIELD_K">      0.00000000      0.00000000      0.00000000</v>
   <i name="OFIELD_Q6_NEAR">      0.00000000</i>
   <i name="OFIELD_Q6_FAR">      0.00000000</i>
   <i name="OFIELD_A">      0.00000000</i>
  </separator>
 </parameters>
 <atominfo>
  <atoms>       1 </atoms>
  <types>       1 </types>
  <array name="atoms" >
   <dimension dim="1">ion</dimension>
   <field type="string">element</field>
   <field type="int">atomtype</field>
   <set>
    <rc><c>Ag</c><c>   1</c></rc>
   </set>
  </array>
  <array name="atomtypes" >
   <dimension dim="1">type</dimension>
   <field type="int">atomspertype</field>
   <field type="string">element</field>
   <field>mass</field>
   <field>valence</field>
   <field type="string">pseudopotential</field>
   <set>
    <rc><c>   1</c><c>Ag</c><c>    107.86800000</c><c>     11.00000000</c><c>  PAW_PBE Ag 02Apr2005                  </c></rc>
   </set>
  </array>
 </atominfo>
 <structure name="initialpos" >
  <crystal>
   <varray name="basis" >
    <v>       8.00000000       0.00000000       0.00000000 </v>
    <v>       0.00000000       9.00000000       0.00000000 </v>
    <v>       0.00000000       0.00000000      10.00000000 </v>
   </varray>
   <i name="volume">    720.00000000 </i>
   <varray name="rec_basis" >
    <v>       0.12500000       0.00000000       0.00000000 </v>
    <v>       0.00000000       0.11111111       0.00000000 </v>
    <v>       0.00000000       0.00000000       0.10000000 </v>
   </varray>
  </crystal>
  <varray name="positions" >
   <v>       0.50000000       0.50000000       0.50000000 </v>
  </varray>
 </structure>
 <calculation>
  <scstep>
   <time name="dav">    0.04    0.04</time>
   <time name="total">    0.09    0.09</time>
   <energy>
    <i name="alphaZ">      1.18135843 </i>
    <i name="ewald">   -272.25557010 </i>
    <i name="hartreedc">   -724.84941310 </i>
    <i name="XCdc">    -12.15839840 </i>
    <i name="pawpsdc">   1003.46214933 </i>
    <i name="pawaedc">   -957.34927423 </i>
    <i name="eentropy">     -0.02681691 </i>
    <i name="bandstr">    -11.68036913 </i>
    <i name="atom">   1037.25842838 </i>
    <i name="e_fr_energy">     63.58209426 </i>
    <i name="e_wo_entrp">     63.60891117 </i>
    <i name="e_0_energy">     63.59103323 </i>
   </energy>
  </scstep>
  <scstep>
   <time name="dav">    0.05    0.05</time>
   <time name="total">    0.05    0.05</time>
   <energy>
    <i name="e_fr_energy">      1.41679478 </i>
    <i name="e_wo_entrp">      1.44500426 </i>
    <i name="e_0_energy">      1.42619794 </i>
   </energy>
  </scstep>
  <scstep>
   <time name="dav">    0.03    0.03</time>
   <time name="total">    0.03    0.04</time>
   <energy>
    <i name="e_fr_energy">     -0.05261223 </i>
    <i name="e_wo_entrp">     -0.02440275 </i>
    <i name="e_0_energy">     -0.04320907 </i>
   </energy>
  </scstep>
  <scstep>
   <time name="dav">    0.03    0.03</time>
   <time name="total">    0.03    0.04</time>
   <energy>
    <i name="e_fr_energy">     -0.05708231 </i>
    <i name="e_wo_entrp">     -0.02887283 </i>
    <i name="e_0_energy">     -0.04767915 </i>
   </energy>
  </scstep>
  <scstep>
   <time name="dav">    0.03    0.03</time>
   <time name="total">    0.05    0.06</time>
   <energy>
    <i name="e_fr_energy">     -0.05712560 </i>
    <i name="e_wo_entrp">     -0.02891612 </i>
    <i name="e_0_energy">     -0.04772244 </i>
   </energy>
  </scstep>
  <scstep>
   <time name="dav">    0.04    0.04</time>
   <time name="total">    0.07    0.07</time>
   <energy>
    <i name="alphaZ">      1.18135843 </i>
    <i name="ewald">   -272.25557010 </i>
    <i name="hartreedc">   -724.72412417 </i>
    <i name="XCdc">    -12.16310502 </i>
    <i name="pawpsdc">   1002.51111477 </i>
    <i name="pawaedc">   -956.38548278 </i>
    <i name="eentropy">     -0.02820948 </i>
    <i name="bandstr">    -75.45161518 </i>
    <i name="atom">   1037.25842838 </i>
    <i name="e_fr_energy">     -0.05720515 </i>
    <i name="e_wo_entrp">     -0.02899567 </i>
    <i name="e_0_energy">     -0.04780199 </i>
   </energy>
  </scstep>
  <structure>
   <crystal>
    <varray name="basis" >
     <v>       8.00000000       0.00000000       0.00000000 </v>
     <v>       0.00000000       9.00000000       0.00000000 </v>
     <v>       0.00000000       0.00000000      10.00000000 </v>
    </varray>
    <i name="volume">    720.00000000 </i>
    <varray name="rec_basis" >
     <v>       0.12500000       0.00000000       0.00000000 </v>
     <v>       0.00000000       0.11111111       0.00000000 </v>
     <v>       0.00000000       0.00000000       0.10000000 </v>
    </varray>
   </crystal>
   <varray name="positions" >
    <v>       0.50000000       0.50000000       0.50000000 </v>
   </varray>
  </structure>
  <varray name="forces" >
   <v>       0.00000000       0.00000000       0.00000000 </v>
  </varray>
  <varray name="stress" >
   <v>      -0.50352558       0.00000000       0.00000000 </v>
   <v>       0.00000000      -0.32519156       0.00000000 </v>
   <v>       0.00000000       0.00000000      -0.26104018 </v>
  </varray>
  <energy>
   <i name="e_fr_energy">     -0.05720515 </i>
   <i name="e_wo_entrp">     -0.04780199 </i>
   <i name="e_0_energy">     -0.02820948 </i>
  </energy>
  <time name="totalsc">    0.52    0.55</time>
  <eigenvalues>
   <array>
    <dimension dim="1">band</dimension>
    <dimension dim="2">kpoint</dimension>
    <dimension dim="3">spin</dimension>
    <field>eigene</field>
    <field>occ</field>
    <set>
     <set comment="spin 1">
      <set comment="kpoint 1">
       <r>   -7.1345    1.0000 </r>
       <r>   -7.1343    1.0000 </r>
       <r>   -7.1342    1.0000 </r>
       <r>   -7.1340    1.0000 </r>
       <r>   -7.1340    1.0000 </r>
       <r>   -4.1097    0.5000 </r>
       <r>   -0.3847    0.0000 </r>
       <r>   -0.2787    0.0000 </r>
       <r>   -0.0958    0.0000 </r>
       <r>    0.0186    0.0000 </r>
       <r>    1.1032    0.0000 </r>
       <r>    1.3944    0.0000 </r>
       <r>    2.0399    0.0000 </r>
       <r>    2.2678    0.0000 </r>
       <r>    2.4393    0.0000 </r>
       <r>    2.5015    0.0000 </r>
       <r>    2.6455    0.0000 </r>
       <r>    2.8510    0.0000 </r>
       <r>    3.0258    0.0000 </r>
       <r>    3.0994    0.0000 </r>
       <r>    3.1828    0.0000 </r>
       <r>    3.2232    0.0000 </r>
       <r>    3.4864    0.0000 </r>
       <r>    3.6020    0.0000 </r>
      </set>
     </set>
    </set>
   </array>
  </eigenvalues>
  <separator name="orbital magnetization" >
   <v name="MAGDIPOLOUT">      0.00000000      0.00000000      0.00000000</v>
  </separator>
  <dos>
   <i name="efermi">     -4.10967257 </i>
   <total>
    <array>
     <dimension dim="1">gridpoints</dimension>
     <dimension dim="2">spin</dimension>
     <field>energy</field>
     <field>total</field>
     <field>integrated</field>
     <set>
      <set comment="spin 1">
       <r>    -8.1345     0.0000     0.0000 </r>
       <r>    -8.0920     0.0000     0.0000 </r>
       <r>    -8.0496     0.0000     0.0000 </r>
       <r>    -8.0071     0.0000     0.0000 </r>
       <r>    -7.9646    -0.0000    -0.0000 </r>
       <r>    -7.9222    -0.0000    -0.0000 </r>
       <r>    -7.8797    -0.0000    -0.0000 </r>
       <r>    -7.8373    -0.0000    -0.0000 </r>
       <r>    -7.7948    -0.0000    -0.0000 </r>
       <r>    -7.7524    -0.0000    -0.0000 </r>
       <r>    -7.7099    -0.0000    -0.0000 </r>
       <r>    -7.6675    -0.0000    -0.0000 </r>
       <r>    -7.6250    -0.0000    -0.0000 </r>
       <r>    -7.5825    -0.0000    -0.0000 </r>
       <r>    -7.5401    -0.0000    -0.0000 </r>
       <r>    -7.4976    -0.0004    -0.0000 </r>
       <r>    -7.4552    -0.0061    -0.0003 </r>
       <r>    -7.4127    -0.0630    -0.0029 </r>
       <r>    -7.3703    -0.4271    -0.0211 </r>
       <r>    -7.3278    -1.8045    -0.0977 </r>
       <r>    -7.2854    -4.0883    -0.2713 </r>
       <r>    -7.2429    -1.1405    -0.3197 </r>
       <r>    -7.2005    20.2166     0.5386 </r>
       <r>    -7.1580    59.0882     3.0472 </r>
       <r>    -7.1155    82.4610     6.5480 </r>
       <r>    -7.0731    63.6190     9.2490 </r>
       <r>    -7.0306    24.3876    10.2843 </r>
       <r>    -6.9882     0.2244    10.2939 </r>
       <r>    -6.9457    -4.2378    10.1140 </r>
       <r>    -6.9033    -2.0714    10.0260 </r>
       <r>    -6.8608    -0.5227    10.0038 </r>
       <r>    -6.8184    -0.0813    10.0004 </r>
       <r>    -6.7759    -0.0082    10.0000 </r>
       <r>    -6.7335    -0.0006    10.0000 </r>
       <r>    -6.6910    -0.0000    10.0000 </r>
       <r>    -6.6485    -0.0000    10.0000 </r>
       <r>    -6.6061    -0.0000    10.0000 </r>
       <r>    -6.5636    -0.0000    10.0000 </r>
       <r>    -6.5212    -0.0000    10.0000 </r>
       <r>    -6.4787     0.0000    10.0000 </r>
       <r>    -6.4363     0.0000    10.0000 </r>
       <r>    -6.3938     0.0000    10.0000 </r>
       <r>    -6.3514     0.0000    10.0000 </r>
       <r>    -6.3089     0.0000    10.0000 </r>
       <r>    -6.2665     0.0000    10.0000 </r>
       <r>    -6.2240     0.0000    10.0000 </r>
       <r>    -6.1815     0.0000    10.0000 </r>
       <r>    -6.1391     0.0000    10.0000 </r>
       <r>    -6.0966     0.0000    10.0000 </r>
       <r>    -6.0542     0.0000    10.0000 </r>
       <r>    -6.0117     0.0000    10.0000 </r>
       <r>    -5.9693     0.0000    10.0000 </r>
       <r>    -5.9268     0.0000    10.0000 </r>
       <r>    -5.8844     0.0000    10.0000 </r>
       <r>    -5.8419     0.0000    10.0000 </r>
       <r>    -5.7994     0.0000    10.0000 </r>
       <r>    -5.7570     0.0000    10.0000 </r>
       <r>    -5.7145     0.0000    10.0000 </r>
       <r>    -5.6721     0.0000    10.0000 </r>
       <r>    -5.6296     0.0000    10.0000 </r>
       <r>    -5.5872     0.0000    10.0000 </r>
       <r>    -5.5447     0.0000    10.0000 </r>
       <r>    -5.5023     0.0000    10.0000 </r>
       <r>    -5.4598     0.0000    10.0000 </r>
       <r>    -5.4174     0.0000    10.0000 </r>
       <r>    -5.3749     0.0000    10.0000 </r>
       <r>    -5.3324     0.0000    10.0000 </r>
       <r>    -5.2900     0.0000    10.0000 </r>
       <r>    -5.2475     0.0000    10.0000 </r>
       <r>    -5.2051     0.0000    10.0000 </r>
       <r>    -5.1626     0.0000    10.0000 </r>
       <r>    -5.1202     0.0000    10.0000 </r>
       <r>    -5.0777     0.0000    10.0000 </r>
       <r>    -5.0353     0.0000    10.0000 </r>
       <r>    -4.9928     0.0000    10.0000 </r>
       <r>    -4.9504    -0.0000    10.0000 </r>
       <r>    -4.9079    -0.0000    10.0000 </r>
       <r>    -4.8654    -0.0000    10.0000 </r>
       <r>    -4.8230    -0.0000    10.0000 </r>
       <r>    -4.7805    -0.0000    10.0000 </r>
       <r>    -4.7381    -0.0000    10.0000 </r>
       <r>    -4.6956    -0.0000    10.0000 </r>
       <r>    -4.6532    -0.0000    10.0000 </r>
       <r>    -4.6107    -0.0000    10.0000 </r>
       <r>    -4.5683    -0.0000    10.0000 </r>
       <r>    -4.5258    -0.0000    10.0000 </r>
       <r>    -4.4834    -0.0000    10.0000 </r>
       <r>    -4.4409    -0.0007    10.0000 </r>
       <r>    -4.3984    -0.0074     9.9997 </r>
       <r>    -4.3560    -0.0561     9.9973 </r>
       <r>    -4.3135    -0.2676     9.9859 </r>
       <r>    -4.2711    -0.7243     9.9552 </r>
       <r>    -4.2286    -0.6049     9.9295 </r>
       <r>    -4.1862     2.5781    10.0389 </r>
       <r>    -4.1437     9.8987    10.4592 </r>
       <r>    -4.1013    16.0799    11.1419 </r>
       <r>    -4.0588    14.3167    11.7497 </r>
       <r>    -4.0163     6.6851    12.0335 </r>
       <r>    -3.9739     0.7753    12.0664 </r>
       <r>    -3.9314    -0.8516    12.0302 </r>
       <r>    -3.8890    -0.5298    12.0077 </r>
       <r>    -3.8465    -0.1528    12.0013 </r>
       <r>    -3.8041    -0.0265    12.0001 </r>
       <r>    -3.7616    -0.0030    12.0000 </r>
       <r>    -3.7192    -0.0002    12.0000 </r>
       <r>    -3.6767    -0.0000    12.0000 </r>
       <r>    -3.6343    -0.0000    12.0000 </r>
       <r>    -3.5918    -0.0000    12.0000 </r>
       <r>    -3.5493    -0.0000    12.0000 </r>
       <r>    -3.5069    -0.0000    12.0000 </r>
       <r>    -3.4644    -0.0000    12.0000 </r>
       <r>    -3.4220     0.0000    12.0000 </r>
       <r>    -3.3795     0.0000    12.0000 </r>
       <r>    -3.3371     0.0000    12.0000 </r>
       <r>    -3.2946     0.0000    12.0000 </r>
       <r>    -3.2522     0.0000    12.0000 </r>
       <r>    -3.2097     0.0000    12.0000 </r>
       <r>    -3.1673     0.0000    12.0000 </r>
       <r>    -3.1248     0.0000    12.0000 </r>
       <r>    -3.0823     0.0000    12.0000 </r>
       <r>    -3.0399     0.0000    12.0000 </r>
       <r>    -2.9974     0.0000    12.0000 </r>
       <r>    -2.9550     0.0000    12.0000 </r>
       <r>    -2.9125     0.0000    12.0000 </r>
       <r>    -2.8701     0.0000    12.0000 </r>
       <r>    -2.8276     0.0000    12.0000 </r>
       <r>    -2.7852     0.0000    12.0000 </r>
       <r>    -2.7427     0.0000    12.0000 </r>
       <r>    -2.7003     0.0000    12.0000 </r>
       <r>    -2.6578     0.0000    12.0000 </r>
       <r>    -2.6153     0.0000    12.0000 </r>
       <r>    -2.5729     0.0000    12.0000 </r>
       <r>    -2.5304     0.0000    12.0000 </r>
       <r>    -2.4880     0.0000    12.0000 </r>
       <r>    -2.4455     0.0000    12.0000 </r>
       <r>    -2.4031     0.0000    12.0000 </r>
       <r>    -2.3606     0.0000    12.0000 </r>
       <r>    -2.3182     0.0000    12.0000 </r>
       <r>    -2.2757     0.0000    12.0000 </r>
       <r>    -2.2332     0.0000    12.0000 </r>
       <r>    -2.1908     0.0000    12.0000 </r>
       <r>    -2.1483     0.0000    12.0000 </r>
       <r>    -2.1059     0.0000    12.0000 </r>
       <r>    -2.0634     0.0000    12.0000 </r>
       <r>    -2.0210     0.0000    12.0000 </r>
       <r>    -1.9785     0.0000    12.0000 </r>
       <r>    -1.9361     0.0000    12.0000 </r>
       <r>    -1.8936     0.0000    12.0000 </r>
       <r>    -1.8512     0.0000    12.0000 </r>
       <r>    -1.8087     0.0000    12.0000 </r>
       <r>    -1.7662     0.0000    12.0000 </r>
       <r>    -1.7238     0.0000    12.0000 </r>
       <r>    -1.6813     0.0000    12.0000 </r>
       <r>    -1.6389     0.0000    12.0000 </r>
       <r>    -1.5964     0.0000    12.0000 </r>
       <r>    -1.5540     0.0000    12.0000 </r>
       <r>    -1.5115     0.0000    12.0000 </r>
       <r>    -1.4691     0.0000    12.0000 </r>
       <r>    -1.4266     0.0000    12.0000 </r>
       <r>    -1.3842     0.0000    12.0000 </r>
       <r>    -1.3417     0.0000    12.0000 </r>
       <r>    -1.2992     0.0000    12.0000 </r>
       <r>    -1.2568     0.0000    12.0000 </r>
       <r>    -1.2143    -0.0000    12.0000 </r>
       <r>    -1.1719    -0.0000    12.0000 </r>
       <r>    -1.1294    -0.0000    12.0000 </r>
       <r>    -1.0870    -0.0000    12.0000 </r>
       <r>    -1.0445    -0.0000    12.0000 </r>
       <r>    -1.0021    -0.0000    12.0000 </r>
       <r>    -0.9596    -0.0000    12.0000 </r>
       <r>    -0.9172    -0.0000    12.0000 </r>
       <r>    -0.8747    -0.0000    12.0000 </r>
       <r>    -0.8322    -0.0000    12.0000 </r>
       <r>    -0.7898    -0.0000    12.0000 </r>
       <r>    -0.7473    -0.0001    12.0000 </r>
       <r>    -0.7049    -0.0013    11.9999 </r>
       <r>    -0.6624    -0.0131    11.9994 </r>
       <r>    -0.6200    -0.0885    11.9956 </r>
       <r>    -0.5775    -0.3731    11.9798 </r>
       <r>    -0.5351    -0.8594    11.9433 </r>
       <r>    -0.4926    -0.3840    11.9270 </r>
       <r>    -0.4501     3.5561    12.0780 </r>
       <r>    -0.4077    11.1594    12.5517 </r>
       <r>    -0.3652    17.8938    13.3114 </r>
       <r>    -0.3228    20.4357    14.1790 </r>
       <r>    -0.2803    19.4619    15.0053 </r>
       <r>    -0.2379    14.6206    15.6260 </r>
       <r>    -0.1954     7.8436    15.9590 </r>
       <r>    -0.1530     6.2943    16.2262 </r>
       <r>    -0.1105    11.7213    16.7238 </r>
       <r>    -0.0681    17.1302    17.4511 </r>
       <r>    -0.0256    18.8138    18.2498 </r>
       <r>     0.0169    18.5649    19.0380 </r>
       <r>     0.0593    15.1287    19.6803 </r>
       <r>     0.1018     7.8283    20.0126 </r>
       <r>     0.1442     1.4503    20.0742 </r>
       <r>     0.1867    -0.8225    20.0393 </r>
       <r>     0.2291    -0.6600    20.0113 </r>
       <r>     0.2716    -0.2175    20.0020 </r>
       <r>     0.3140    -0.0421    20.0002 </r>
       <r>     0.3565    -0.0052    20.0000 </r>
       <r>     0.3989    -0.0004    20.0000 </r>
       <r>     0.4414    -0.0000    20.0000 </r>
       <r>     0.4839    -0.0000    20.0000 </r>
       <r>     0.5263    -0.0000    20.0000 </r>
       <r>     0.5688    -0.0000    20.0000 </r>
       <r>     0.6112    -0.0000    20.0000 </r>
       <r>     0.6537    -0.0000    20.0000 </r>
       <r>     0.6961    -0.0000    20.0000 </r>
       <r>     0.7386    -0.0001    20.0000 </r>
       <r>     0.7810    -0.0011    19.9999 </r>
       <r>     0.8235    -0.0119    19.9994 </r>
       <r>     0.8659    -0.0816    19.9960 </r>
       <r>     0.9084    -0.3494    19.9811 </r>
       <r>     0.9509    -0.8090    19.9468 </r>
       <r>     0.9933    -0.2814    19.9349 </r>
       <r>     1.0358     3.8639    20.0989 </r>
       <r>     1.0782    11.6052    20.5916 </r>
       <r>     1.1207    16.4569    21.2903 </r>
       <r>     1.1631    12.8161    21.8344 </r>
       <r>     1.2056     4.6620    22.0323 </r>
       <r>     1.2480    -0.7315    22.0012 </r>
       <r>     1.2905    -0.8253    21.9662 </r>
       <r>     1.3330     4.3992    22.1530 </r>
       <r>     1.3754    12.5619    22.6863 </r>
       <r>     1.4179    16.4790    23.3859 </r>
       <r>     1.4603    11.8716    23.8899 </r>
       <r>     1.5028     4.0914    24.0636 </r>
       <r>     1.5452    -0.2135    24.0545 </r>
       <r>     1.5877    -0.8199    24.0197 </r>
       <r>     1.6301    -0.3640    24.0043 </r>
       <r>     1.6726    -0.0865    24.0006 </r>
       <r>     1.7150    -0.0137    24.0000 </r>
       <r>     1.7575    -0.0116    23.9995 </r>
       <r>     1.8000    -0.0731    23.9964 </r>
       <r>     1.8424    -0.3234    23.9827 </r>
       <r>     1.8849    -0.7866    23.9493 </r>
       <r>     1.9273    -0.3957    23.9325 </r>
       <r>     1.9698     3.4519    24.0790 </r>
       <r>     2.0122    11.0668    24.5489 </r>
       <r>     2.0547    16.2011    25.2367 </r>
       <r>     2.0971    12.7450    25.7778 </r>
       <r>     2.1396     4.7491    25.9794 </r>
       <r>     2.1820     1.7448    26.0535 </r>
       <r>     2.2245     7.0511    26.3528 </r>
       <r>     2.2670    14.1136    26.9520 </r>
       <r>     2.3094    14.1346    27.5521 </r>
       <r>     2.3519     8.9017    27.9300 </r>
       <r>     2.3943     9.2576    28.3231 </r>
       <r>     2.4368    18.3612    29.1026 </r>
       <r>     2.4792    26.3960    30.2232 </r>
       <r>     2.5217    24.3486    31.2569 </r>
       <r>     2.5641    16.2470    31.9467 </r>
       <r>     2.6066    12.7725    32.4889 </r>
       <r>     2.6490    14.7095    33.1134 </r>
       <r>     2.6915    13.1465    33.6716 </r>
       <r>     2.7340     6.6073    33.9521 </r>
       <r>     2.7764     3.9034    34.1178 </r>
       <r>     2.8189     9.1844    34.5077 </r>
       <r>     2.8613    14.8404    35.1378 </r>
       <r>     2.9038    12.8199    35.6820 </r>
       <r>     2.9462     7.5796    36.0038 </r>
       <r>     2.9887     9.1454    36.3921 </r>
       <r>     3.0311    17.5432    37.1369 </r>
       <r>     3.0736    24.6086    38.1816 </r>
       <r>     3.1161    27.3944    39.3446 </r>
       <r>     3.1585    30.0909    40.6221 </r>
       <r>     3.2010    32.9387    42.0205 </r>
       <r>     3.2434    28.8462    43.2452 </r>
       <r>     3.2859    16.0991    43.9287 </r>
       <r>     3.3283     3.4590    44.0755 </r>
       <r>     3.3708    -1.6150    44.0070 </r>
       <r>     3.4132     1.3380    44.0638 </r>
       <r>     3.4557     9.1848    44.4537 </r>
       <r>     3.4981    16.1877    45.1410 </r>
       <r>     3.5406    18.6477    45.9326 </r>
       <r>     3.5831    18.7521    46.7288 </r>
       <r>     3.6255    17.0032    47.4506 </r>
       <r>     3.6680    11.0058    47.9179 </r>
       <r>     3.7104     3.5940    48.0705 </r>
       <r>     3.7529    -0.3509    48.0556 </r>
       <r>     3.7953    -0.8422    48.0198 </r>
       <r>     3.8378    -0.3660    48.0043 </r>
       <r>     3.8802    -0.0865    48.0006 </r>
       <r>     3.9227    -0.0128    48.0001 </r>
       <r>     3.9651    -0.0012    48.0000 </r>
       <r>     4.0076    -0.0001    48.0000 </r>
       <r>     4.0501    -0.0000    48.0000 </r>
       <r>     4.0925    -0.0000    48.0000 </r>
       <r>     4.1350    -0.0000    48.0000 </r>
       <r>     4.1774    -0.0000    48.0000 </r>
       <r>     4.2199    -0.0000    48.0000 </r>
       <r>     4.2623     0.0000    48.0000 </r>
       <r>     4.3048     0.0000    48.0000 </r>
       <r>     4.3472     0.0000    48.0000 </r>
       <r>     4.3897     0.0000    48.0000 </r>
       <r>     4.4321     0.0000    48.0000 </r>
       <r>     4.4746     0.0000    48.0000 </r>
       <r>     4.5171     0.0000    48.0000 </r>
       <r>     4.5595     0.0000    48.0000 </r>
       <r>     4.6020     0.0000    48.0000 </r>
      </set>
     </set>
    </array>
   </total>
  </dos>
 </calculation>
 <structure name="finalpos" >
  <crystal>
   <varray name="basis" >
    <v>       8.00000000       0.00000000       0.00000000 </v>
    <v>       0.00000000       9.00000000       0.00000000 </v>
    <v>       0.00000000       0.00000000      10.00000000 </v>
   </varray>
   <i name="volume">    720.00000000 </i>
   <varray name="rec_basis" >
    <v>       0.12500000       0.00000000       0.00000000 </v>
    <v>       0.00000000       0.11111111       0.00000000 </v>
    <v>       0.00000000       0.00000000       0.10000000 </v>
   </varray>
  </crystal>
  <varray name="positions" >
   <v>       0.50000000       0.50000000       0.50000000 </v>
  </varray>
 </structure>
</modeling>
