unknown system                          
           1
     8.000000    0.000000    0.000000
     0.000000    9.000000    0.000000
     0.000000    0.000000   10.000000
   Ag
   1
Direct configuration=     1
   0.50000000  0.50000000  0.50000000
