----- GAMESS execution script 'rungms' -----
This job is running on host crcfe02.crc.nd.edu
under operating system Linux at Sun Sep 29 10:52:50 EDT 2019
Available scratch disk space (Kbyte units) at beginning of the job is
Filesystem      1K-blocks  Used  Available Use% Mounted on
AFS            2147483647     0 2147483647   0% /afs
GAMESS temporary binary files will be written to /afs/crc.nd.edu/user/c/cdrisko
GAMESS supplementary output files will be written to /afs/crc.nd.edu/user/c/cdrisko/scr
Copying input file SO2.inp to your run's scratch directory...

 Distributed Data Interface kickoff program.
 Initiating 1 compute processes on 1 nodes to run the following command:
 /afs/crc.nd.edu/x86_64_linux/g/gamess/nov-2017/gamess/gamess.00.x SO2 

          ******************************************************
          *         GAMESS VERSION = 11 NOV 2017 (R3)         *
          *             FROM IOWA STATE UNIVERSITY             *
          * M.W.SCHMIDT, K.K.BALDRIDGE, J.A.BOATZ, S.T.ELBERT, *
          *   M.S.GORDON, J.H.JENSEN, S.KOSEKI, N.MATSUNAGA,   *
          *          K.A.NGUYEN, S.J.SU, T.L.WINDUS,           *
          *       TOGETHER WITH M.DUPUIS, J.A.MONTGOMERY       *
          *         J.COMPUT.CHEM.  14, 1347-1363(1993)        *
          **************** 64 BIT INTEL VERSION ****************

  SINCE 1993, STUDENTS AND POSTDOCS WORKING AT IOWA STATE UNIVERSITY
  AND ALSO IN THEIR VARIOUS JOBS AFTER LEAVING ISU HAVE MADE IMPORTANT
  CONTRIBUTIONS TO THE CODE:
     IVANA ADAMOVIC, CHRISTINE AIKENS, YURI ALEXEEV, POOJA ARORA,
     ANDREY ASADCHEV, ROB BELL, PRADIPTA BANDYOPADHYAY, JONATHAN BENTZ,
     BRETT BODE, KURT BRORSEN, CALEB CARLIN, GALINA CHABAN, WEI CHEN,
     CHEOL HO CHOI, PAUL DAY, ALBERT DEFUSCO, NUWAN DESILVA, TIM DUDLEY,
     DMITRI FEDOROV, ALEX FINDLATER, GRAHAM FLETCHER, MARK FREITAG,
     KURT GLAESEMANN, ANASTASIA GUININA,
     DAN KEMP, GRANT MERRILL, NORIYUKI MINEZAWA, JONATHAN MULLIN,
     TAKESHI NAGATA, SEAN NEDD, HEATHER NETZLOFF, BOSILJKA NJEGIC, RYAN OLSON,
     MIKE PAK, BUU PHAM,
     SPENCER PRUITT, LUKE ROSKOP, JIM SHOEMAKER, LYUDMILA SLIPCHENKO,
     TONY SMITH, SAROM SOK LEANG, JIE SONG, TETSUYA TAKETSUGU, SIMON WEBB,
     PENG XU, SOOHAENG YOO, FEDERICO ZAHARIEV

  ADDITIONAL CODE HAS BEEN PROVIDED BY COLLABORATORS IN OTHER GROUPS:
     IOWA STATE UNIVERSITY:
          JOE IVANIC, AARON WEST, LAIMUTIS BYTAUTAS, KLAUS RUEDENBERG
     UNIVERSITY OF TOKYO: KIMIHIKO HIRAO, TAKAHITO NAKAJIMA,
          TAKAO TSUNEDA, MUNEAKI KAMIYA, SUSUMU YANAGISAWA,
          KIYOSHI YAGI, MAHITO CHIBA, SEIKEN TOKURA, NAOAKI KAWAKAMI
     UNIVERSITY OF AARHUS: FRANK JENSEN
     UNIVERSITY OF IOWA: VISVALDAS KAIRYS, HUI LI
     NATIONAL INST. OF STANDARDS AND TECHNOLOGY: WALT STEVENS, DAVID GARMER
     UNIVERSITY OF PISA: BENEDETTA MENNUCCI, JACOPO TOMASI
     UNIVERSITY OF MEMPHIS: HENRY KURTZ, PRAKASHAN KORAMBATH
     UNIVERSITY OF ALBERTA: TOBY ZENG, MARIUSZ KLOBUKOWSKI
     UNIVERSITY OF NEW ENGLAND: MARK SPACKMAN
     MIE UNIVERSITY: HIROAKI UMEDA
     NAT. INST. OF ADVANCED INDUSTRIAL SCIENCE AND TECHNOLOGY: KAZUO KITAURA
     MICHIGAN STATE UNIVERSITY:
          KAROL KOWALSKI, MARTA WLOCH, JEFFREY GOUR, JESSE LUTZ,
          WEI LI, PIOTR PIECUCH
     UNIVERSITY OF SILESIA: MONIKA MUSIAL, STANISLAW KUCHARSKI
     FACULTES UNIVERSITAIRES NOTRE-DAME DE LA PAIX:
          OLIVIER QUINET, BENOIT CHAMPAGNE
     UNIVERSITY OF CALIFORNIA - SANTA BARBARA: BERNARD KIRTMAN
     INSTITUTE FOR MOLECULAR SCIENCE:
          KAZUYA ISHIMURA, MICHIO KATOUDA, AND SHIGERU NAGASE
     UNIVERSITY OF NOTRE DAME: ANNA POMOGAEVA, DAN CHIPMAN
     KYUSHU UNIVERSITY:
          HARUYUKI NAKANO,
          FENG LONG GU, JACEK KORCHOWIEC, MARCIN MAKOWSKI, AND YURIKO AOKI,
          HIROTOSHI MORI AND EISAKU MIYOSHI
     PENNSYLVANIA STATE UNIVERSITY:
          TZVETELIN IORDANOV, CHET SWALINA, JONATHAN SKONE,
          SHARON HAMMES-SCHIFFER
     WASEDA UNIVERSITY:
          MASATO KOBAYASHI, TOMOKO AKAMA, TSUGUKI TOUMA,
          TAKESHI YOSHIKAWA, YASUHIRO IKABATA, JUNJI SEINO,
          YUYA NAKAJIMA, HIROMI NAKAI
     NANJING UNIVERSITY: SHUHUA LI
     UNIVERSITY OF NEBRASKA:
          PEIFENG SU, DEJUN SI, NANDUN THELLAMUREGE, YALI WANG, HUI LI
     UNIVERSITY OF ZURICH: ROBERTO PEVERATI, KIM BALDRIDGE
     N. COPERNICUS UNIVERSITY AND JACKSON STATE UNIVERSITY:
          MARIA BARYSZ
     UNIVERSITY OF COPENHAGEN: Jimmy Kromann, CASPER STEINMANN
     TOKYO INSTITUTE OF TECHNOLOGY: HIROYA NAKATA
     NAGOYA UNIVERSITY: YOSHIO NISHIMOTO, STEPHAN IRLE
     MOSCOW STATE UNIVERSITY: VLADIMIR MIRONOV

 EXECUTION OF GAMESS BEGUN Sun Sep 29 10:52:50 2019

            ECHO OF THE FIRST FEW INPUT CARDS -
 INPUT CARD> $BASIS GBASIS=PCSEG-1 $END                                                     
 INPUT CARD> $CONTRL COORD=ZMT ISPHER=1 RUNTYP=ENERGY DFTTYP=PBE MULT=1 $END                
 INPUT CARD>                                                                                
 INPUT CARD> $DATA                                                                          
 INPUT CARD>Title SO2 single-point calculation template with Z-Matrix                       
 INPUT CARD>C1                                                                              
 INPUT CARD>S                                                                               
 INPUT CARD>O 1 1.65                                                                        
 INPUT CARD>O 1 1.65 2 120                                                                  
 INPUT CARD> $END                                                                           
    1000000 WORDS OF MEMORY AVAILABLE

     BASIS OPTIONS
     -------------
     GBASIS=PCSEG-1      IGAUSS=       0      POLAR=NONE    
     NDFUNC=       0     NFFUNC=       0     DIFFSP=       F
     NPFUNC=       0      DIFFS=       F     BASNAM=        


     RUN TITLE
     ---------
 Title SO2 single-point calculation template with Z-Matrix                       

 THE POINT GROUP OF THE MOLECULE IS C1      
 THE ORDER OF THE PRINCIPAL AXIS IS     0

 YOUR FULLY SUBSTITUTED Z-MATRIX IS
 S   
 O      1   1.6500000
 O      1   1.6500000  2  120.0000

 THE MOMENTS OF INERTIA ARE (AMU-ANGSTROM**2)
 IXX=    10.884   IYY=    65.319   IZZ=    76.203

 ATOM      ATOMIC                      COORDINATES (BOHR)
           CHARGE         X                   Y                   Z
 S          16.0     0.0000000000       -0.7797282915        0.0000000000
 O           8.0     2.7003086741        0.7792956483        0.0000000000
 O           8.0    -2.7003086741        0.7792956483        0.0000000000

          INTERNUCLEAR DISTANCES (ANGS.)
          ------------------------------

                1 S          2 O          3 O     

   1 S       0.0000000    1.6500000 *  1.6500000 *
   2 O       1.6500000 *  0.0000000    2.8578838 *
   3 O       1.6500000 *  2.8578838 *  0.0000000  

  * ... LESS THAN  3.000


     ATOMIC BASIS SET
     ----------------
 THE CONTRACTED PRIMITIVE FUNCTIONS HAVE BEEN UNNORMALIZED
 THE CONTRACTED BASIS FUNCTIONS ARE NOW NORMALIZED TO UNITY

  SHELL TYPE  PRIMITIVE        EXPONENT          CONTRACTION COEFFICIENT(S)

 S         

      1   S       1         49299.4000000    0.000677492991
      1   S       2          7395.8400000    0.005232317766
      1   S       3          1683.3000000    0.026769459077
      1   S       4           476.1440000    0.102869580705
      1   S       5           154.3290000    0.286438127414
      1   S       6            55.0288000    0.454278639081
      1   S       7            20.5029000    0.271743121997

      2   S       8            45.9596000   -0.088421914560
      2   S       9             4.9274000    0.564350486135
      2   S      10             1.9179900    0.505415953466

      3   S      11             0.3684980    1.000000000000

      4   S      12             0.1291650    1.000000000000

      5   P      13           451.6620000    0.003707705453
      5   P      14           106.0980000    0.029219352245
      5   P      15            33.6996000    0.124444551509
      5   P      16            12.3054000    0.321808587656
      5   P      17             4.7141200    0.462822172957
      5   P      18             1.7810500    0.266513371364

      6   P      19             0.8722350    0.349265132972
      6   P      20             0.3102780    0.717115018770

      7   P      21             0.1001940    1.000000000000

      8   D      22             0.5500000    1.000000000000

 O         

      9   S      23          2288.6400000    0.005451138222
      9   S      24           344.4160000    0.040718922842
      9   S      25            78.2538000    0.181369420873
      9   S      26            21.7195000    0.465536820246
      9   S      27             6.5590700    0.451211321214

     10   S      28            10.4656000   -0.150211201174
     10   S      29             0.9643510    1.052867983385

     11   S      30             0.2851270    1.000000000000

     12   P      31            17.0590000    0.068749256972
     12   P      32             3.6899900    0.351671941499
     12   P      33             0.9929960    0.724532099722

     13   P      34             0.2449240    1.000000000000

     14   D      35             1.0000000    1.000000000000

 O         

     15   S      36          2288.6400000    0.005451138222
     15   S      37           344.4160000    0.040718922842
     15   S      38            78.2538000    0.181369420873
     15   S      39            21.7195000    0.465536820246
     15   S      40             6.5590700    0.451211321214

     16   S      41            10.4656000   -0.150211201174
     16   S      42             0.9643510    1.052867983385

     17   S      43             0.2851270    1.000000000000

     18   P      44            17.0590000    0.068749256972
     18   P      45             3.6899900    0.351671941499
     18   P      46             0.9929960    0.724532099722

     19   P      47             0.2449240    1.000000000000

     20   D      48             1.0000000    1.000000000000

 TOTAL NUMBER OF BASIS SET SHELLS             =   20
 NUMBER OF CARTESIAN GAUSSIAN BASIS FUNCTIONS =   49
 NOTE: THIS RUN WILL RESTRICT THE MO VARIATION SPACE TO SPHERICAL HARMONICS.
 THE NUMBER OF ORBITALS KEPT IN THE VARIATIONAL SPACE WILL BE PRINTED LATER.
 NUMBER OF ELECTRONS                          =   32
 CHARGE OF MOLECULE                           =    0
 SPIN MULTIPLICITY                            =    1
 NUMBER OF OCCUPIED ORBITALS (ALPHA)          =   16
 NUMBER OF OCCUPIED ORBITALS (BETA )          =   16
 TOTAL NUMBER OF ATOMS                        =    3
 THE NUCLEAR REPULSION ENERGY IS       93.9531490621

     LEBEDEV GRID-BASED DFT OPTIONS
     ------------------------------
     DFTTYP=PBE     
     NRAD  =      96     NLEB  =     302
     NRAD0 =      24     NLEB0 =     110
     SWOFF =    5.00E-03 (PURE SCF -> DFT)
     SWITCH=    3.00E-04 (COARSE -> TIGHT GRID)
     THRESH=    0.00E+00 GTHRE=    1.00E+00

 GRIMME'S EMPIRICAL DISPERSION CORRECTION= F

     $CONTRL OPTIONS
     ---------------
 SCFTYP=RHF          RUNTYP=ENERGY       EXETYP=RUN     
 MPLEVL=       0     CITYP =NONE         CCTYP =NONE         VBTYP =NONE    
 DFTTYP=PBE          TDDFT =NONE    
 MULT  =       1     ICHARG=       0     NZVAR =       0     COORD =ZMT     
 PP    =NONE         RELWFN=NONE         LOCAL =NONE         NUMGRD=       F
 ISPHER=       1     NOSYM =       0     MAXIT =      30     UNITS =ANGS    
 PLTORB=       F     MOLPLT=       F     AIMPAC=       F     FRIEND=        
 NPRINT=       7     IREST =       0     GEOM  =INPUT   
 NORMF =       0     NORMP =       0     ITOL  =      20     ICUT  =       9
 INTTYP=BEST         GRDTYP=BEST         QMTTOL= 1.0E-06

     $SYSTEM OPTIONS
     ---------------
  REPLICATED MEMORY=     1000000 WORDS (ON EVERY NODE).
 DISTRIBUTED MEMDDI=           0 MILLION WORDS IN AGGREGATE,
 MEMDDI DISTRIBUTED OVER   1 PROCESSORS IS           0 WORDS/PROCESSOR.
 TOTAL MEMORY REQUESTED ON EACH PROCESSOR=     1000000 WORDS.
 TIMLIM=      525600.00 MINUTES, OR     365.0 DAYS.
 PARALL= F  BALTYP=  DLB     KDIAG=    0  COREFL= F
 MXSEQ2=     300 MXSEQ3=     150  mem10=         0

          ----------------
          PROPERTIES INPUT
          ----------------

     MOMENTS            FIELD           POTENTIAL          DENSITY
 IEMOM =       1   IEFLD =       0   IEPOT =       0   IEDEN =       0
 WHERE =COMASS     WHERE =NUCLEI     WHERE =NUCLEI     WHERE =NUCLEI  
 OUTPUT=BOTH       OUTPUT=BOTH       OUTPUT=BOTH       OUTPUT=BOTH    
 IEMINT=       0   IEFINT=       0                     IEDINT=       0
                                                       MORB  =       0
          EXTRAPOLATION IN EFFECT
          DIIS IN EFFECT
 ORBITAL PRINTING OPTION: NPREO=     1    49     2     1

     -------------------------------
     INTEGRAL TRANSFORMATION OPTIONS
     -------------------------------
     NWORD  =            0
     CUTOFF = 1.0E-09     MPTRAN =       0
     DIRTRF =       F     AOINTS =DUP     

          ----------------------
          INTEGRAL INPUT OPTIONS
          ----------------------
 NOPK  =       1 NORDER=       0 SCHWRZ=       F

   --- ENCODED Z MATRIX ---
 COORD  TYPE   I   J   K   L   M   N
    1      1    2   1
    2      1    3   1
    3      2    3   1   2

 THE DETERMINANT OF THE G MATRIX IS 10**(    -4)

 THE DETERMINANT OF THE G MATRIX IS 10**(    -4)
 * * * WARNING * * *
 YOUR B MATRIX HAS A SMALL DETERMINANT.
 THIS SUGGESTS YOU MAY HAVE BADLY CHOSEN COORDINATES.

     ------------------------------------------
     THE POINT GROUP IS C1 , NAXIS= 0, ORDER= 1
     ------------------------------------------

 -- VARIATIONAL SPACE WILL BE RESTRICTED TO PURE SPHERICAL HARMONICS ONLY --
 AFTER EXCLUDING CONTAMINANT COMBINATIONS FROM THE CARTESIAN GAUSSIAN BASIS
 SET, THE NUMBER OF SPHERICAL HARMONICS KEPT IN THE VARIATION SPACE IS   46

     DIMENSIONS OF THE SYMMETRY SUBSPACES ARE
 A   =   46

 ..... DONE SETTING UP THE RUN .....
 STEP CPU TIME =     0.03 TOTAL CPU TIME =          0.0 (      0.0 MIN)
 TOTAL WALL CLOCK TIME=          0.0 SECONDS, CPU UTILIZATION IS    75.00%

          ********************
          1 ELECTRON INTEGRALS
          ********************
 ...... END OF ONE-ELECTRON INTEGRALS ......
 STEP CPU TIME =     0.01 TOTAL CPU TIME =          0.0 (      0.0 MIN)
 TOTAL WALL CLOCK TIME=          0.0 SECONDS, CPU UTILIZATION IS   100.00%

          -------------
          GUESS OPTIONS
          -------------
          GUESS =HUCKEL            NORB  =       0          NORDER=       0
          MIX   =       F          PRTMO =       F          PUNMO =       F
          TOLZ  = 1.0E-08          TOLE  = 1.0E-05
          SYMDEN=       F          PURIFY=       F

 INITIAL GUESS ORBITALS GENERATED BY HUCKEL   ROUTINE.
 HUCKEL GUESS REQUIRES     21634 WORDS.

 STATISTICS FOR GENERATION OF SYMMETRY ORBITAL -Q- MATRIX
 NUMBER OF CARTESIAN ATOMIC ORBITALS=         49
 NUMBER OF SPHERICAL CONTAMINANTS DROPPED=     3
 NUMBER OF LINEARLY DEPENDENT MOS DROPPED=     0
 TOTAL NUMBER OF MOS IN VARIATION SPACE=      46

 SYMMETRIES FOR INITIAL GUESS ORBITALS FOLLOW.   BOTH SET(S).
    16 ORBITALS ARE OCCUPIED (    7 CORE ORBITALS).
     8=A        9=A       10=A       11=A       12=A       13=A       14=A   
    15=A       16=A       17=A       18=A       19=A       20=A       21=A   
    22=A       23=A       24=A       25=A       26=A   
 ...... END OF INITIAL ORBITAL SELECTION ......
 STEP CPU TIME =     0.00 TOTAL CPU TIME =          0.0 (      0.0 MIN)
 TOTAL WALL CLOCK TIME=          0.0 SECONDS, CPU UTILIZATION IS    80.00%

                    ----------------------
                    AO INTEGRAL TECHNOLOGY
                    ----------------------
     S,P,L SHELL ROTATED AXIS INTEGRALS, REPROGRAMMED BY
        KAZUYA ISHIMURA (IMS) AND JOSE SIERRA (SYNSTAR).
     S,P,D,L SHELL ROTATED AXIS INTEGRALS PROGRAMMED BY
        KAZUYA ISHIMURA (INSTITUTE FOR MOLECULAR SCIENCE).
     S,P,D,F,G SHELL TO TOTAL QUARTET ANGULAR MOMENTUM SUM 5,
        ERIC PROGRAM BY GRAHAM FLETCHER (ELORET AND NASA ADVANCED
        SUPERCOMPUTING DIVISION, AMES RESEARCH CENTER).
     S,P,D,F,G,L SHELL GENERAL RYS QUADRATURE PROGRAMMED BY
        MICHEL DUPUIS (PACIFIC NORTHWEST NATIONAL LABORATORY).

          --------------------
          2 ELECTRON INTEGRALS
          --------------------

 THE -PK- OPTION IS OFF, THE INTEGRALS ARE NOT IN SUPERMATRIX FORM.
 STORING   15000 INTEGRALS/RECORD ON DISK, USING 12 BYTES/INTEGRAL.
 TWO ELECTRON INTEGRAL EVALUATION REQUIRES   90606 WORDS OF MEMORY.
 II,JST,KST,LST =  1  1  1  1 NREC =         1 INTLOC =    1
 II,JST,KST,LST =  2  1  1  1 NREC =         1 INTLOC =    2
 II,JST,KST,LST =  3  1  1  1 NREC =         1 INTLOC =    7
 II,JST,KST,LST =  4  1  1  1 NREC =         1 INTLOC =   22
 II,JST,KST,LST =  5  1  1  1 NREC =         1 INTLOC =   56
 II,JST,KST,LST =  6  1  1  1 NREC =         1 INTLOC =  125
 II,JST,KST,LST =  7  1  1  1 NREC =         1 INTLOC =  329
 II,JST,KST,LST =  8  1  1  1 NREC =         1 INTLOC =  776
 II,JST,KST,LST =  9  1  1  1 NREC =         1 INTLOC = 2864
 II,JST,KST,LST = 10  1  1  1 NREC =         1 INTLOC = 4881
 II,JST,KST,LST = 11  1  1  1 NREC =         1 INTLOC = 7533
 II,JST,KST,LST = 12  1  1  1 NREC =         1 INTLOC =10644
 II,JST,KST,LST = 13  1  1  1 NREC =         2 INTLOC = 6512
 II,JST,KST,LST = 14  1  1  1 NREC =         3 INTLOC = 6757
 II,JST,KST,LST = 15  1  1  1 NREC =         6 INTLOC = 8645
 II,JST,KST,LST = 16  1  1  1 NREC =         7 INTLOC =  604
 II,JST,KST,LST = 17  1  1  1 NREC =         7 INTLOC =11707
 II,JST,KST,LST = 18  1  1  1 NREC =         8 INTLOC =10023
 II,JST,KST,LST = 19  1  1  1 NREC =        11 INTLOC = 2983
 II,JST,KST,LST = 20  1  1  1 NREC =        14 INTLOC = 9606
 TOTAL NUMBER OF NONZERO TWO-ELECTRON INTEGRALS =              331014
         23 INTEGRAL RECORDS WERE STORED ON DISK FILE  8.
  ...... END OF TWO-ELECTRON INTEGRALS .....
 STEP CPU TIME =     0.10 TOTAL CPU TIME =          0.1 (      0.0 MIN)
 TOTAL WALL CLOCK TIME=          0.2 SECONDS, CPU UTILIZATION IS    93.33%

          --------------------------
               R-PBE SCF CALCULATION
          --------------------------

     NUCLEAR ENERGY =        93.9531490621
     MAXIT =   30     NPUNCH=    2
     EXTRAP=T  DAMP=F  SHIFT=F  RSTRCT=F  DIIS=T  DEM=F  SOSCF=F
         DENSITY MATRIX CONVERGENCE THRESHOLD=  1.00E-05
     COARSE -> FINE DFT GRID SWITCH THRESHOLD=  3.00E-04 (SWITCH IN $DFT)
                   HF -> DFT SWITCH THRESHOLD=  5.00E-03 (SWOFF IN $DFT)
     MEMORY REQUIRED FOR RHF ITERS=    183108 WORDS.

 DFT CODE IS SWITCHING FROM THE FINE GRID NRAD= 96,  NLEB=  302
                      TO THE COARSE GRID NRAD0= 24, NLEB0=  110

     EXCHANGE FUNCTIONAL   =PBE       
     CORRELATION FUNCTIONAL=PBE       
     DFT THRESHOLD         =.460E-07
     GRID CHANGE THRESHOLD =.300E-03
 FOR AN EULER-MACLAURIN QUADRATURE USING  96 RADIAL POINTS:
 SMALLEST GAUSSIAN PRIMITIVE EXPONENT=        0.1001940000 OF TYPE -P-
 ON ATOM NUMBER   1 HAS RADIAL NORMALIZATION=  1.000000
  LARGEST GAUSSIAN PRIMITIVE EXPONENT=    49299.4000000000 OF TYPE -S-
 ON ATOM NUMBER   1 HAS RADIAL NORMALIZATION=  1.000000
 DFT IS SWITCHED OFF, PERFORMING PURE SCF UNTIL SWOFF THRESHOLD IS REACHED.

 ITER EX DEM     TOTAL ENERGY        E CHANGE  DENSITY CHANGE    DIIS ERROR
   1  0  0     -546.0119753272  -546.0119753272   0.652424835   0.851330606
          * * *   INITIATING DIIS PROCEDURE   * * *
   2  1  0     -546.5438028613    -0.5318275341   0.724120068   0.341518836
   3  2  0     -546.5530881949    -0.0092853336   0.291238511   0.333485112
   4  3  0     -547.0056724081    -0.4525842133   0.035799857   0.009934174
   5  4  0     -547.0064939720    -0.0008215639   0.006831653   0.006118905
   6  5  0     -547.0066145993    -0.0001206273   0.001759611   0.001556721
 CONVERGED TO SWOFF, SO DFT CALCULATION IS NOW SWITCHED ON.
          * * *   INITIATING DIIS PROCEDURE   * * *
   7  6  0     -548.1624089920    -1.1557943927   0.473382611   0.104305156
   8  7  0     -548.1434975152     0.0189114768   0.416652069   0.143741013
   9  8  0     -548.1582816462    -0.0147841310   0.128889789   0.133632255
  10  9  0     -548.2067166951    -0.0484350489   0.030984735   0.013630135
  11 10  0     -548.2074119477    -0.0006952526   0.001782090   0.001159053
  12 11  0     -548.2074169948    -0.0000050471   0.000687800   0.000424532
  13 12  0     -548.2074174610    -0.0000004662   0.000283028   0.000211377
 DFT CODE IS SWITCHING BACK TO THE FINE GRID
          * * *   INITIATING DIIS PROCEDURE   * * *
  14 13  0     -548.2140436167    -0.0066261557   0.018564375   0.009948955
  15 14  0     -548.2140362767     0.0000073400   0.022514199   0.008036321
  16 15  0     -548.2139423120     0.0000939647   0.014587566   0.009251926
  17 16  0     -548.2140109827    -0.0000686707   0.008239298   0.011656320
  18 17  0     -548.2142388023    -0.0002278196   0.000398328   0.000680752
  19 18  0     -548.2142397656    -0.0000009633   0.000136656   0.000067759
  20 19  0     -548.2142397817    -0.0000000162   0.000037668   0.000012550
  21 20  0     -548.2142397824    -0.0000000007   0.000005945   0.000003695
  22 21  0     -548.2142397824    -0.0000000000   0.000000421   0.000000284

          -----------------
          DENSITY CONVERGED
          -----------------
     TIME TO FORM FOCK OPERATORS=       2.4 SECONDS (       0.1 SEC/ITER)
     TIME TO SOLVE SCF EQUATIONS=       0.0 SECONDS (       0.0 SEC/ITER)

 FINAL R-PBE ENERGY IS     -548.2142397824 AFTER  22 ITERATIONS
 DFT EXCHANGE + CORRELATION ENERGY =       -42.2944098842
 TOTAL ELECTRON NUMBER             =        32.0000010812

          ------------
          EIGENVECTORS
          ------------

                      1          2          3          4          5
                  -88.2323   -18.8219   -18.8219    -7.8459    -5.8722
                     A          A          A          A          A   
    1  S  1  S    0.997762  -0.000001  -0.000000  -0.308394  -0.000000
    2  S  1  S    0.008221  -0.000074  -0.000000   1.031794   0.000000
    3  S  1  S   -0.002889  -0.000665  -0.000001   0.027652   0.000000
    4  S  1  S    0.000952   0.007536   0.000010  -0.005731  -0.000000
    5  S  1  X   -0.000000   0.000000  -0.000117  -0.000000   0.994676
    6  S  1  Y    0.000119  -0.000162  -0.000000   0.009814  -0.000001
    7  S  1  Z    0.000000   0.000000   0.000000   0.000000   0.000000
    8  S  1  X    0.000000  -0.000002   0.001611  -0.000000   0.017142
    9  S  1  Y   -0.000265   0.001403   0.000002   0.000988  -0.000000
   10  S  1  Z    0.000000   0.000000   0.000000   0.000000   0.000000
   11  S  1  X    0.000000  -0.000005   0.003773  -0.000000  -0.002530
   12  S  1  Y    0.000015   0.002981   0.000004  -0.000159   0.000000
   13  S  1  Z    0.000000   0.000000   0.000000   0.000000   0.000000
   14  S  1 XX   -0.000169   0.000792   0.000001   0.000652  -0.000000
   15  S  1 YY    0.000037   0.000045   0.000000  -0.000243  -0.000000
   16  S  1 ZZ    0.000132  -0.000837  -0.000001  -0.000409   0.000000
   17  S  1 XY    0.000000  -0.000001   0.000601  -0.000000   0.001257
   18  S  1 XZ    0.000000   0.000000   0.000000   0.000000   0.000000
   19  S  1 YZ    0.000000   0.000000   0.000000   0.000000   0.000000
   20  O  2  S   -0.000009   0.701439   0.703222   0.000014  -0.000113
   21  O  2  S   -0.000128   0.023817   0.023433   0.000000  -0.000079
   22  O  2  S    0.000231  -0.011677  -0.010476  -0.000321  -0.000764
   23  O  2  X   -0.000002  -0.000888  -0.000717   0.000199   0.000005
   24  O  2  Y    0.000003  -0.000328  -0.000527   0.000101   0.000031
   25  O  2  Z    0.000000   0.000000   0.000000   0.000000   0.000000
   26  O  2  X   -0.000296   0.002984   0.001552   0.000764   0.000975
   27  O  2  Y   -0.000182   0.000847   0.001546   0.000503   0.000627
   28  O  2  Z    0.000000   0.000000   0.000000   0.000000   0.000000
   29  O  2 XX    0.000133  -0.000311  -0.000111  -0.000203   0.000227
   30  O  2 YY   -0.000024   0.000109  -0.000040   0.000026  -0.000071
   31  O  2 ZZ   -0.000109   0.000202   0.000151   0.000177  -0.000156
   32  O  2 XY    0.000164  -0.000230  -0.000225  -0.000272   0.000200
   33  O  2 XZ    0.000000   0.000000   0.000000   0.000000   0.000000
   34  O  2 YZ    0.000000   0.000000   0.000000   0.000000   0.000000
   35  O  3  S   -0.000009   0.703234  -0.701428   0.000014   0.000113
   36  O  3  S   -0.000128   0.023877  -0.023372   0.000000   0.000079
   37  O  3  S    0.000231  -0.011704   0.010446  -0.000321   0.000764
   38  O  3  X    0.000002   0.000890  -0.000715  -0.000199   0.000005
   39  O  3  Y    0.000003  -0.000330   0.000527   0.000101  -0.000031
   40  O  3  Z    0.000000   0.000000   0.000000   0.000000   0.000000
   41  O  3  X    0.000296  -0.002988   0.001544  -0.000764   0.000975
   42  O  3  Y   -0.000182   0.000851  -0.001544   0.000503  -0.000627
   43  O  3  Z    0.000000   0.000000   0.000000   0.000000   0.000000
   44  O  3 XX    0.000133  -0.000311   0.000110  -0.000203  -0.000227
   45  O  3 YY   -0.000024   0.000109   0.000040   0.000026   0.000071
   46  O  3 ZZ   -0.000109   0.000203  -0.000151   0.000177   0.000156
   47  O  3 XY   -0.000164   0.000231  -0.000224   0.000272   0.000200
   48  O  3 XZ    0.000000   0.000000   0.000000   0.000000   0.000000
   49  O  3 YZ    0.000000   0.000000   0.000000   0.000000   0.000000

                      6          7          8          9         10
                   -5.8704    -5.8670    -0.9733    -0.9138    -0.6267
                     A          A          A          A          A   
    1  S  1  S    0.000000   0.003055   0.046510  -0.000000   0.071411
    2  S  1  S    0.000000  -0.010494  -0.287503   0.000000  -0.456230
    3  S  1  S    0.000000  -0.000218   0.407777  -0.000002   0.697882
    4  S  1  S    0.000000   0.001037   0.077977   0.000005   0.257728
    5  S  1  X    0.000000   0.000001  -0.000000   0.099307   0.000000
    6  S  1  Y    0.000000   0.994915  -0.048211  -0.000000   0.028859
    7  S  1  Z    0.994998   0.000000   0.000000   0.000000   0.000000
    8  S  1  X    0.000000   0.000000   0.000000  -0.225306   0.000000
    9  S  1  Y    0.000000   0.015990   0.107258   0.000000  -0.065939
   10  S  1  Z    0.015813   0.000000   0.000000   0.000000   0.000000
   11  S  1  X    0.000000  -0.000000   0.000003   0.004463  -0.000002
   12  S  1  Y    0.000000  -0.002742  -0.012499   0.000002  -0.034018
   13  S  1  Z   -0.003096   0.000000   0.000000   0.000000   0.000000
   14  S  1 XX    0.000000  -0.000086   0.036628   0.000001  -0.011694
   15  S  1 YY    0.000000   0.000626  -0.007789  -0.000000  -0.002309
   16  S  1 ZZ    0.000000  -0.000539  -0.028839  -0.000001   0.014003
   17  S  1 XY    0.000000   0.000000   0.000001  -0.058272  -0.000000
   18  S  1 XZ   -0.000000   0.000000   0.000000   0.000000   0.000000
   19  S  1 YZ    0.000545   0.000000   0.000000   0.000000   0.000000
   20  O  2  S    0.000000  -0.000072  -0.140091   0.165545   0.110303
   21  O  2  S    0.000000  -0.000026   0.286345  -0.344492  -0.235660
   22  O  2  S    0.000000  -0.000424   0.276684  -0.331269  -0.292397
   23  O  2  X    0.000000  -0.000024  -0.084319   0.072348  -0.104798
   24  O  2  Y    0.000000  -0.000054  -0.045454   0.045208  -0.067788
   25  O  2  Z   -0.000063   0.000000   0.000000   0.000000   0.000000
   26  O  2  X    0.000000   0.000617  -0.037387   0.024105  -0.049718
   27  O  2  Y    0.000000   0.000136  -0.018557   0.016807  -0.027468
   28  O  2  Z   -0.000087   0.000000   0.000000   0.000000   0.000000
   29  O  2 XX    0.000000   0.000029   0.007995  -0.004585   0.003582
   30  O  2 YY    0.000000   0.000102  -0.003528   0.002227   0.000805
   31  O  2 ZZ    0.000000  -0.000130  -0.004467   0.002358  -0.004387
   32  O  2 XY    0.000000   0.000304   0.008759  -0.007286   0.004957
   33  O  2 XZ    0.000165   0.000000   0.000000   0.000000   0.000000
   34  O  2 YZ    0.000087   0.000000   0.000000   0.000000   0.000000
   35  O  3  S    0.000000  -0.000072  -0.140091  -0.165544   0.110303
   36  O  3  S    0.000000  -0.000026   0.286344   0.344493  -0.235661
   37  O  3  S    0.000000  -0.000424   0.276690   0.331262  -0.292400
   38  O  3  X    0.000000   0.000024   0.084319   0.072348   0.104798
   39  O  3  Y    0.000000  -0.000054  -0.045454  -0.045208  -0.067789
   40  O  3  Z   -0.000063   0.000000   0.000000   0.000000   0.000000
   41  O  3  X    0.000000  -0.000617   0.037389   0.024102   0.049718
   42  O  3  Y    0.000000   0.000136  -0.018558  -0.016806  -0.027467
   43  O  3  Z   -0.000087   0.000000   0.000000   0.000000   0.000000
   44  O  3 XX    0.000000   0.000029   0.007995   0.004585   0.003582
   45  O  3 YY    0.000000   0.000102  -0.003528  -0.002227   0.000805
   46  O  3 ZZ    0.000000  -0.000130  -0.004467  -0.002358  -0.004387
   47  O  3 XY    0.000000  -0.000304  -0.008759  -0.007285  -0.004957
   48  O  3 XZ   -0.000165   0.000000   0.000000   0.000000   0.000000
   49  O  3 YZ    0.000087   0.000000   0.000000   0.000000   0.000000

                     11         12         13         14         15
                   -0.4371    -0.4101    -0.4082    -0.3161    -0.2978
                     A          A          A          A          A   
    1  S  1  S    0.000000  -0.011229   0.000000   0.000000   0.000000
    2  S  1  S   -0.000000   0.071326   0.000000   0.000000  -0.000001
    3  S  1  S   -0.000000  -0.084289   0.000000   0.000000   0.000000
    4  S  1  S   -0.000000  -0.182816   0.000000   0.000000   0.000005
    5  S  1  X   -0.186829  -0.000000   0.000000   0.000000  -0.018629
    6  S  1  Y    0.000000  -0.216689   0.000000   0.000000   0.000001
    7  S  1  Z    0.000000   0.000000  -0.219808  -0.000000   0.000000
    8  S  1  X    0.504613   0.000000   0.000000   0.000000   0.049771
    9  S  1  Y   -0.000000   0.584126   0.000000   0.000000  -0.000003
   10  S  1  Z    0.000000   0.000000   0.597106   0.000001   0.000000
   11  S  1  X    0.019986   0.000001   0.000000   0.000000   0.111813
   12  S  1  Y    0.000000   0.124364   0.000000   0.000000   0.000001
   13  S  1  Z    0.000000   0.000000   0.172914   0.000000   0.000000
   14  S  1 XX   -0.000000  -0.017197   0.000000   0.000000  -0.000001
   15  S  1 YY    0.000000   0.039412   0.000000   0.000000   0.000001
   16  S  1 ZZ    0.000000  -0.022215   0.000000   0.000000   0.000000
   17  S  1 XY    0.046055   0.000000   0.000000   0.000000  -0.088823
   18  S  1 XZ    0.000000   0.000000  -0.000000   0.096896   0.000000
   19  S  1 YZ    0.000000   0.000000   0.038050   0.000000   0.000000
   20  O  2  S    0.065930   0.027980   0.000000   0.000000   0.001800
   21  O  2  S   -0.139757  -0.060722   0.000000   0.000000  -0.002475
   22  O  2  S   -0.214382  -0.088908   0.000000   0.000000  -0.039177
   23  O  2  X   -0.281064  -0.286547   0.000000   0.000000   0.329872
   24  O  2  Y   -0.226561   0.094528   0.000000   0.000000  -0.339069
   25  O  2  Z    0.000000   0.000000   0.291565   0.470019   0.000000
   26  O  2  X   -0.145648  -0.177676   0.000000   0.000000   0.223887
   27  O  2  Y   -0.128071   0.064325   0.000000   0.000000  -0.234883
   28  O  2  Z    0.000000   0.000000   0.180010   0.334341   0.000000
   29  O  2 XX    0.004702   0.016626   0.000000   0.000000  -0.012452
   30  O  2 YY    0.002744  -0.011303   0.000000   0.000000   0.012727
   31  O  2 ZZ   -0.007446  -0.005322   0.000000   0.000000  -0.000275
   32  O  2 XY    0.012307  -0.000443   0.000000   0.000000   0.006673
   33  O  2 XZ    0.000000   0.000000  -0.015313  -0.014403   0.000000
   34  O  2 YZ    0.000000   0.000000  -0.008469  -0.009202   0.000000
   35  O  3  S   -0.065930   0.027980   0.000000   0.000000  -0.001799
   36  O  3  S    0.139756  -0.060723   0.000000   0.000000   0.002475
   37  O  3  S    0.214383  -0.088906   0.000000   0.000000   0.039175
   38  O  3  X   -0.281064   0.286548   0.000000   0.000000   0.329870
   39  O  3  Y    0.226561   0.094528   0.000000   0.000000   0.339077
   40  O  3  Z    0.000000   0.000000   0.291566  -0.470019   0.000000
   41  O  3  X   -0.145647   0.177677   0.000000   0.000000   0.223886
   42  O  3  Y    0.128071   0.064325   0.000000   0.000000   0.234889
   43  O  3  Z    0.000000   0.000000   0.180010  -0.334341   0.000000
   44  O  3 XX   -0.004702   0.016626   0.000000   0.000000   0.012452
   45  O  3 YY   -0.002744  -0.011303   0.000000   0.000000  -0.012727
   46  O  3 ZZ    0.007446  -0.005322   0.000000   0.000000   0.000275
   47  O  3 XY    0.012307   0.000443   0.000000   0.000000   0.006673
   48  O  3 XZ    0.000000   0.000000   0.015313  -0.014403   0.000000
   49  O  3 YZ    0.000000   0.000000  -0.008469   0.009202   0.000000

                     16         17         18         19         20
                   -0.2892    -0.2097    -0.0829    -0.0302     0.2139
                     A          A          A          A          A   
    1  S  1  S    0.018391   0.000000   0.029036   0.000000   0.000000
    2  S  1  S   -0.119199   0.000000  -0.195167  -0.000001   0.000000
    3  S  1  S    0.149443   0.000000   0.317820   0.000002   0.000000
    4  S  1  S    0.328976   0.000000   0.452936   0.000000   0.000000
    5  S  1  X    0.000000   0.000000   0.000001  -0.215156   0.000000
    6  S  1  Y    0.078057   0.000000  -0.198408  -0.000001   0.000000
    7  S  1  Z    0.000000  -0.218743   0.000000   0.000000   0.249403
    8  S  1  X   -0.000000   0.000000  -0.000002   0.664142   0.000000
    9  S  1  Y   -0.215275   0.000000   0.612210   0.000003   0.000000
   10  S  1  Z    0.000000   0.640523   0.000000   0.000000  -0.988057
   11  S  1  X   -0.000001   0.000000  -0.000010   0.769865   0.000000
   12  S  1  Y    0.000276   0.000000   0.474939   0.000003   0.000000
   13  S  1  Z    0.000000   0.258520   0.000000   0.000000   1.308197
   14  S  1 XX   -0.122943   0.000000  -0.114345  -0.000002   0.000000
   15  S  1 YY    0.075106   0.000000  -0.019717  -0.000000   0.000000
   16  S  1 ZZ    0.047837   0.000000   0.134062   0.000002   0.000000
   17  S  1 XY    0.000001   0.000000   0.000002  -0.187134   0.000000
   18  S  1 XZ    0.000000  -0.000000   0.000000   0.000000   0.000000
   19  S  1 YZ    0.000000  -0.047655   0.000000   0.000000  -0.092253
   20  O  2  S   -0.001065   0.000000   0.043049   0.050301   0.000000
   21  O  2  S    0.004818   0.000000  -0.092574  -0.100284   0.000000
   22  O  2  S   -0.037384   0.000000  -0.292508  -0.419199   0.000000
   23  O  2  X    0.048005   0.000000   0.392012   0.142760   0.000000
   24  O  2  Y    0.450367   0.000000  -0.016976   0.288774   0.000000
   25  O  2  Z    0.000000  -0.395376   0.000000   0.000000  -0.056059
   26  O  2  X    0.033747   0.000000   0.356811   0.154234   0.000000
   27  O  2  Y    0.323946   0.000000  -0.013737   0.260964   0.000000
   28  O  2  Z    0.000000  -0.306619   0.000000   0.000000  -0.130251
   29  O  2 XX    0.004062   0.000000   0.002989  -0.002953   0.000000
   30  O  2 YY   -0.007742   0.000000  -0.005014   0.005778   0.000000
   31  O  2 ZZ    0.003680   0.000000   0.002024  -0.002825   0.000000
   32  O  2 XY   -0.011112   0.000000  -0.002946   0.004561   0.000000
   33  O  2 XZ    0.000000   0.002371   0.000000   0.000000   0.013750
   34  O  2 YZ    0.000000   0.000666   0.000000   0.000000   0.006090
   35  O  3  S   -0.001064   0.000000   0.043050  -0.050299   0.000000
   36  O  3  S    0.004817   0.000000  -0.092579   0.100276   0.000000
   37  O  3  S   -0.037384   0.000000  -0.292514   0.419203   0.000000
   38  O  3  X   -0.048011   0.000000  -0.392015   0.142751   0.000000
   39  O  3  Y    0.450360   0.000000  -0.016972  -0.288775   0.000000
   40  O  3  Z    0.000000  -0.395376   0.000000   0.000000  -0.056059
   41  O  3  X   -0.033751   0.000000  -0.356812   0.154233   0.000000
   42  O  3  Y    0.323941   0.000000  -0.013733  -0.260966   0.000000
   43  O  3  Z    0.000000  -0.306618   0.000000   0.000000  -0.130250
   44  O  3 XX    0.004061   0.000000   0.002989   0.002953   0.000000
   45  O  3 YY   -0.007742   0.000000  -0.005014  -0.005779   0.000000
   46  O  3 ZZ    0.003680   0.000000   0.002024   0.002825   0.000000
   47  O  3 XY    0.011112   0.000000   0.002946   0.004561   0.000000
   48  O  3 XZ    0.000000  -0.002371   0.000000   0.000000  -0.013750
   49  O  3 YZ    0.000000   0.000666   0.000000   0.000000   0.006090

                     21         22         23         24         25
                    0.2200     0.2431     0.2454     0.4884     0.4961
                     A          A          A          A          A   
    1  S  1  S    0.024584  -0.061714  -0.000013   0.000000   0.000000
    2  S  1  S   -0.180299   0.455536   0.000093   0.000000   0.000000
    3  S  1  S    0.637167  -1.798989  -0.000365   0.000000   0.000000
    4  S  1  S   -0.603592   2.145296   0.000429   0.000000   0.000000
    5  S  1  X   -0.000001  -0.000056   0.270093   0.000000   0.000000
    6  S  1  Y    0.244085   0.063968   0.000014   0.000000   0.000000
    7  S  1  Z    0.000000   0.000000   0.000000  -0.000000   0.025899
    8  S  1  X    0.000005   0.000218  -1.047042   0.000000   0.000000
    9  S  1  Y   -0.959756  -0.246557  -0.000056   0.000000   0.000000
   10  S  1  Z    0.000000   0.000000   0.000000   0.000000  -0.107219
   11  S  1  X   -0.000005  -0.000300   1.476236   0.000000   0.000000
   12  S  1  Y    1.218785   0.688313   0.000144   0.000000   0.000000
   13  S  1  Z    0.000000   0.000000   0.000000  -0.000000   0.078047
   14  S  1 XX    0.118528  -0.032266  -0.000010   0.000000   0.000000
   15  S  1 YY   -0.105433  -0.057806  -0.000012   0.000000   0.000000
   16  S  1 ZZ   -0.013095   0.090072   0.000021   0.000000   0.000000
   17  S  1 XY    0.000000  -0.000014   0.083833   0.000000   0.000000
   18  S  1 XZ    0.000000   0.000000   0.000000   0.873596   0.000003
   19  S  1 YZ    0.000000   0.000000   0.000000  -0.000003   0.938004
   20  O  2  S    0.000609   0.026104   0.010230   0.000000   0.000000
   21  O  2  S    0.025034  -0.030072   0.033865   0.000000   0.000000
   22  O  2  S   -0.120797  -0.479115  -0.437424   0.000000   0.000000
   23  O  2  X   -0.056701  -0.110472  -0.222557   0.000000   0.000000
   24  O  2  Y   -0.041053  -0.125571  -0.082972   0.000000   0.000000
   25  O  2  Z    0.000000   0.000000   0.000000  -0.330518  -0.226538
   26  O  2  X    0.012292   0.175824  -0.063897   0.000000   0.000000
   27  O  2  Y   -0.114965   0.021274   0.041190   0.000000   0.000000
   28  O  2  Z    0.000000   0.000000   0.000000   0.145570   0.107847
   29  O  2 XX   -0.015434  -0.026800  -0.015209   0.000000   0.000000
   30  O  2 YY    0.012412   0.004479  -0.002417   0.000000   0.000000
   31  O  2 ZZ    0.003022   0.022321   0.017626   0.000000   0.000000
   32  O  2 XY    0.005144  -0.028028  -0.029236   0.000000   0.000000
   33  O  2 XZ    0.000000   0.000000   0.000000  -0.044668  -0.039203
   34  O  2 YZ    0.000000   0.000000   0.000000  -0.038120   0.000351
   35  O  3  S    0.000609   0.026109  -0.010219   0.000000   0.000000
   36  O  3  S    0.025032  -0.030068  -0.033888   0.000000   0.000000
   37  O  3  S   -0.120797  -0.479281   0.437244   0.000000   0.000000
   38  O  3  X    0.056702   0.110559  -0.222517   0.000000   0.000000
   39  O  3  Y   -0.041054  -0.125605   0.082919   0.000000   0.000000
   40  O  3  Z    0.000000   0.000000   0.000000   0.330519  -0.226537
   41  O  3  X   -0.012289  -0.175789  -0.063959   0.000000   0.000000
   42  O  3  Y   -0.114965   0.021288  -0.041185   0.000000   0.000000
   43  O  3  Z    0.000000   0.000000   0.000000  -0.145571   0.107846
   44  O  3 XX   -0.015435  -0.026806   0.015198   0.000000   0.000000
   45  O  3 YY    0.012412   0.004478   0.002418   0.000000   0.000000
   46  O  3 ZZ    0.003022   0.022329  -0.017617   0.000000   0.000000
   47  O  3 XY   -0.005143   0.028040  -0.029224   0.000000   0.000000
   48  O  3 XZ    0.000000   0.000000   0.000000  -0.044668   0.039202
   49  O  3 YZ    0.000000   0.000000   0.000000   0.038120   0.000351

                     26         27         28         29         30
                    0.4983     0.6403     0.6565     0.7956     0.8192
                     A          A          A          A          A   
    1  S  1  S   -0.000551   0.004837   0.000000   0.000000   0.014837
    2  S  1  S    0.004577  -0.036017  -0.000000   0.000000  -0.127654
    3  S  1  S   -0.021881  -0.024693   0.000001   0.000000   0.650196
    4  S  1  S    0.006049   0.875107  -0.000006   0.000000  -0.129533
    5  S  1  X   -0.000000  -0.000000  -0.115398   0.000000   0.000000
    6  S  1  Y    0.032678  -0.072578   0.000000   0.000000  -0.015582
    7  S  1  Z    0.000000   0.000000   0.000000   0.000000   0.000000
    8  S  1  X    0.000001   0.000001   0.566822   0.000000  -0.000000
    9  S  1  Y   -0.138131   0.340509  -0.000001   0.000000   0.191977
   10  S  1  Z    0.000000   0.000000   0.000000  -0.000000   0.000000
   11  S  1  X   -0.000001   0.000004   0.288052   0.000000   0.000001
   12  S  1  Y    0.103225   0.216872  -0.000002   0.000000  -0.144629
   13  S  1  Z    0.000000   0.000000   0.000000   0.000000   0.000000
   14  S  1 XX   -0.295703   0.775901   0.000000   0.000000  -0.393120
   15  S  1 YY    0.879555  -0.022019  -0.000000   0.000000   0.038102
   16  S  1 ZZ   -0.583852  -0.753882  -0.000000   0.000000   0.355018
   17  S  1 XY    0.000001   0.000001   0.846503   0.000000  -0.000000
   18  S  1 XZ    0.000000   0.000000   0.000000  -0.502327   0.000000
   19  S  1 YZ    0.000000   0.000000   0.000000   0.000000   0.000000
   20  O  2  S    0.000787   0.072408   0.071801   0.000000   0.003151
   21  O  2  S   -0.009913  -0.294100  -0.284244   0.000000  -0.036414
   22  O  2  S    0.002257  -0.211442  -0.186962   0.000000   0.080452
   23  O  2  X    0.142684  -0.187495  -0.037270   0.000000  -0.490966
   24  O  2  Y   -0.257408   0.095469  -0.211911   0.000000  -0.365686
   25  O  2  Z    0.000000   0.000000   0.000000  -0.562325   0.000000
   26  O  2  X   -0.086950   0.653944   0.550143   0.000000   0.595401
   27  O  2  Y    0.110216   0.188289   0.481095   0.000000   0.411017
   28  O  2  Z    0.000000   0.000000   0.000000   0.761123   0.000000
   29  O  2 XX    0.033558  -0.005853   0.043248   0.000000   0.037467
   30  O  2 YY   -0.020921   0.025971  -0.031173   0.000000  -0.031081
   31  O  2 ZZ   -0.012637  -0.020119  -0.012075   0.000000  -0.006386
   32  O  2 XY   -0.032122   0.020477   0.016303   0.000000   0.016623
   33  O  2 XZ    0.000000   0.000000   0.000000   0.045440   0.000000
   34  O  2 YZ    0.000000   0.000000   0.000000   0.032992   0.000000
   35  O  3  S    0.000787   0.072408  -0.071801   0.000000   0.003150
   36  O  3  S   -0.009914  -0.294106   0.284240   0.000000  -0.036405
   37  O  3  S    0.002258  -0.211432   0.186970   0.000000   0.080444
   38  O  3  X   -0.142684   0.187488  -0.037274   0.000000   0.490965
   39  O  3  Y   -0.257408   0.095467   0.211913   0.000000  -0.365681
   40  O  3  Z    0.000000   0.000000   0.000000   0.562325   0.000000
   41  O  3  X    0.086951  -0.653935   0.550150   0.000000  -0.595401
   42  O  3  Y    0.110216   0.188289  -0.481098   0.000000   0.411012
   43  O  3  Z    0.000000   0.000000   0.000000  -0.761123   0.000000
   44  O  3 XX    0.033558  -0.005853  -0.043248   0.000000   0.037467
   45  O  3 YY   -0.020921   0.025972   0.031173   0.000000  -0.031081
   46  O  3 ZZ   -0.012637  -0.020119   0.012075   0.000000  -0.006386
   47  O  3 XY    0.032122  -0.020477   0.016303   0.000000  -0.016623
   48  O  3 XZ    0.000000   0.000000   0.000000   0.045440   0.000000
   49  O  3 YZ    0.000000   0.000000   0.000000  -0.032992   0.000000

                     31         32         33         34         35
                    0.8290     0.8346     0.8465     0.8740     1.3917
                     A          A          A          A          A   
    1  S  1  S    0.002609   0.000000   0.000000   0.000000   0.000000
    2  S  1  S   -0.020767  -0.000002   0.000000  -0.000000  -0.000001
    3  S  1  S    0.069095   0.000006   0.000000   0.000000   0.000007
    4  S  1  S    0.078873   0.000000   0.000000   0.000003  -0.000012
    5  S  1  X    0.000001  -0.020484   0.000000  -0.026918  -0.070019
    6  S  1  Y   -0.018375  -0.000001   0.000000  -0.000000  -0.000000
    7  S  1  Z    0.000000   0.000000  -0.001335   0.000000   0.000000
    8  S  1  X   -0.000003   0.097025   0.000000   0.328864   0.450577
    9  S  1  Y    0.089974   0.000004   0.000000   0.000001   0.000000
   10  S  1  Z    0.000000   0.000000   0.006751   0.000000   0.000000
   11  S  1  X    0.000007  -0.249691   0.000000  -0.361904   0.932026
   12  S  1  Y   -0.448637  -0.000014   0.000000  -0.000000  -0.000006
   13  S  1  Z    0.000000   0.000000  -0.540445   0.000000   0.000000
   14  S  1 XX    0.499317   0.000011   0.000000   0.000001  -0.000003
   15  S  1 YY   -0.478705  -0.000013   0.000000  -0.000001   0.000000
   16  S  1 ZZ   -0.020612   0.000002   0.000000  -0.000000   0.000003
   17  S  1 XY   -0.000009   0.364463   0.000000  -0.514068   0.328742
   18  S  1 XZ    0.000000   0.000000  -0.000000   0.000000   0.000000
   19  S  1 YZ    0.000000   0.000000  -0.348316   0.000000   0.000000
   20  O  2  S    0.000481   0.000260   0.000000  -0.006618  -0.078195
   21  O  2  S    0.049488   0.049419   0.000000  -0.017593   1.206231
   22  O  2  S   -0.052226  -0.046494   0.000000   0.172792  -1.797469
   23  O  2  X    0.283359  -0.254274   0.000000  -0.588326  -0.021257
   24  O  2  Y   -0.459017   0.550679   0.000000  -0.204999  -0.108072
   25  O  2  Z    0.000000   0.000000  -0.602611   0.000000   0.000000
   26  O  2  X   -0.294876   0.470402   0.000000   0.643767   0.351505
   27  O  2  Y    0.768296  -0.650814   0.000000   0.229288   0.432409
   28  O  2  Z    0.000000   0.000000   0.881174   0.000000   0.000000
   29  O  2 XX   -0.034995   0.040893   0.000000  -0.008306   0.080669
   30  O  2 YY    0.046300  -0.029085   0.000000   0.028925  -0.007042
   31  O  2 ZZ   -0.011305  -0.011808   0.000000  -0.020619  -0.073627
   32  O  2 XY    0.050249  -0.000755   0.000000   0.024007   0.118037
   33  O  2 XZ    0.000000   0.000000   0.041035   0.000000   0.000000
   34  O  2 YZ    0.000000   0.000000   0.013683   0.000000   0.000000
   35  O  3  S    0.000481  -0.000261   0.000000   0.006617   0.078195
   36  O  3  S    0.049491  -0.049406   0.000000   0.017607  -1.206233
   37  O  3  S   -0.052229   0.046483   0.000000  -0.172808   1.797479
   38  O  3  X   -0.283341  -0.254288   0.000000  -0.588329  -0.021256
   39  O  3  Y   -0.458988  -0.550707   0.000000   0.204998   0.108071
   40  O  3  Z    0.000000   0.000000  -0.602611   0.000000   0.000000
   41  O  3  X    0.294847   0.470416   0.000000   0.643769   0.351508
   42  O  3  Y    0.768262   0.650859   0.000000  -0.229286  -0.432408
   43  O  3  Z    0.000000   0.000000   0.881174   0.000000   0.000000
   44  O  3 XX   -0.034993  -0.040894   0.000000   0.008306  -0.080668
   45  O  3 YY    0.046298   0.029087   0.000000  -0.028925   0.007041
   46  O  3 ZZ   -0.011305   0.011807   0.000000   0.020619   0.073627
   47  O  3 XY   -0.050249  -0.000758   0.000000   0.024006   0.118036
   48  O  3 XZ    0.000000   0.000000  -0.041035   0.000000   0.000000
   49  O  3 YZ    0.000000   0.000000   0.013683   0.000000   0.000000

                     36         37         38         39         40
                    1.5020     2.0778     2.0781     2.0809     2.0869
                     A          A          A          A          A   
    1  S  1  S   -0.000560  -0.000000   0.000000   0.000000  -0.000844
    2  S  1  S    0.009282   0.000000   0.000000   0.000000   0.006779
    3  S  1  S    0.305014  -0.000000   0.000000   0.000000  -0.025071
    4  S  1  S   -1.779905   0.000000   0.000000   0.000000   0.008855
    5  S  1  X   -0.000000  -0.006667   0.000000   0.000000   0.000000
    6  S  1  Y    0.051258   0.000000   0.000000   0.000000   0.003577
    7  S  1  Z    0.000000   0.000000  -0.000000  -0.013921   0.000000
    8  S  1  X    0.000002   0.019137   0.000000   0.000000  -0.000000
    9  S  1  Y   -0.314495  -0.000000   0.000000   0.000000  -0.016336
   10  S  1  Z    0.000000   0.000000   0.000001   0.045247   0.000000
   11  S  1  X   -0.000012   0.031469   0.000000   0.000000  -0.000000
   12  S  1  Y   -0.704663   0.000000   0.000000   0.000000   0.003391
   13  S  1  Z    0.000000   0.000000   0.000000   0.017129   0.000000
   14  S  1 XX   -0.311580   0.000000   0.000000   0.000000   0.026287
   15  S  1 YY   -0.010145   0.000000   0.000000   0.000000   0.034769
   16  S  1 ZZ    0.321725  -0.000000   0.000000   0.000000  -0.061056
   17  S  1 XY   -0.000003  -0.044294   0.000000   0.000000   0.000000
   18  S  1 XZ    0.000000   0.000000   0.028277  -0.000001   0.000000
   19  S  1 YZ    0.000000   0.000000  -0.000000  -0.001457   0.000000
   20  O  2  S    0.070962  -0.001478   0.000000   0.000000   0.001973
   21  O  2  S   -1.217991   0.014930   0.000000   0.000000  -0.012401
   22  O  2  S    1.937030  -0.022872   0.000000   0.000000   0.004994
   23  O  2  X    0.111673   0.010964   0.000000   0.000000   0.013576
   24  O  2  Y   -0.027016  -0.018444   0.000000   0.000000   0.002854
   25  O  2  Z    0.000000   0.000000   0.007652   0.014507   0.000000
   26  O  2  X   -0.687717  -0.020459   0.000000   0.000000  -0.014015
   27  O  2  Y   -0.136200   0.026728   0.000000   0.000000  -0.001616
   28  O  2  Z    0.000000   0.000000  -0.011760  -0.023683   0.000000
   29  O  2 XX   -0.143582   0.352379   0.000000   0.000000  -0.116296
   30  O  2 YY    0.047952   0.217809   0.000000   0.000000  -0.483977
   31  O  2 ZZ    0.095630  -0.570188   0.000000   0.000000   0.600273
   32  O  2 XY   -0.110645  -0.411761   0.000000   0.000000   0.307424
   33  O  2 XZ    0.000000   0.000000   0.468690  -0.147139   0.000000
   34  O  2 YZ    0.000000   0.000000  -0.529650   0.692194   0.000000
   35  O  3  S    0.070962   0.001478   0.000000   0.000000   0.001973
   36  O  3  S   -1.217989  -0.014930   0.000000   0.000000  -0.012401
   37  O  3  S    1.937018   0.022872   0.000000   0.000000   0.004993
   38  O  3  X   -0.111677   0.010964   0.000000   0.000000  -0.013576
   39  O  3  Y   -0.027019   0.018444   0.000000   0.000000   0.002854
   40  O  3  Z    0.000000   0.000000  -0.007652   0.014507   0.000000
   41  O  3  X    0.687722  -0.020459   0.000000   0.000000   0.014015
   42  O  3  Y   -0.136193  -0.026728   0.000000   0.000000  -0.001616
   43  O  3  Z    0.000000   0.000000   0.011759  -0.023683   0.000000
   44  O  3 XX   -0.143583  -0.352380   0.000000   0.000000  -0.116290
   45  O  3 YY    0.047952  -0.217816   0.000000   0.000000  -0.483976
   46  O  3 ZZ    0.095631   0.570196   0.000000   0.000000   0.600266
   47  O  3 XY    0.110645  -0.411766   0.000000   0.000000  -0.307418
   48  O  3 XZ    0.000000   0.000000   0.468697   0.147120   0.000000
   49  O  3 YZ    0.000000   0.000000   0.529678   0.692173   0.000000

                     41         42         43         44         45
                    2.1026     2.1396     2.1834     2.2470     2.5316
                     A          A          A          A          A   
    1  S  1  S   -0.000000   0.000000   0.000000  -0.003158  -0.028635
    2  S  1  S    0.000000   0.000000   0.000000   0.024894   0.219915
    3  S  1  S   -0.000000   0.000000   0.000000  -0.026059  -0.468415
    4  S  1  S    0.000000   0.000000   0.000000  -0.237916  -0.769757
    5  S  1  X    0.036060   0.000000   0.000000  -0.000000   0.000000
    6  S  1  Y    0.000000   0.000000   0.000000   0.053759   0.104903
    7  S  1  Z    0.000000   0.042791  -0.000000   0.000000   0.000000
    8  S  1  X   -0.151425   0.000000   0.000000   0.000000   0.000000
    9  S  1  Y   -0.000000   0.000000   0.000000  -0.204781  -0.520672
   10  S  1  Z    0.000000  -0.137671   0.000000   0.000000   0.000000
   11  S  1  X   -0.049157   0.000000   0.000000  -0.000001  -0.000003
   12  S  1  Y    0.000000   0.000000   0.000000  -0.173602  -0.137953
   13  S  1  Z    0.000000  -0.082040   0.000000   0.000000   0.000000
   14  S  1 XX    0.000000   0.000000   0.000000   0.227642  -0.510844
   15  S  1 YY   -0.000000   0.000000   0.000000  -0.297112   0.123377
   16  S  1 ZZ   -0.000000   0.000000   0.000000   0.069470   0.387466
   17  S  1 XY    0.143299   0.000000   0.000000  -0.000000  -0.000001
   18  S  1 XZ    0.000000   0.000000   0.334042   0.000000   0.000000
   19  S  1 YZ    0.000000  -0.209266   0.000000   0.000000   0.000000
   20  O  2  S    0.005655   0.000000   0.000000   0.008812   0.011404
   21  O  2  S   -0.083363   0.000000   0.000000  -0.165655  -0.502284
   22  O  2  S    0.118715   0.000000   0.000000   0.279873   0.953778
   23  O  2  X    0.011821   0.000000   0.000000   0.062338   0.064075
   24  O  2  Y    0.050003   0.000000   0.000000  -0.029011   0.036194
   25  O  2  Z    0.000000  -0.051528   0.039289   0.000000   0.000000
   26  O  2  X   -0.024671   0.000000   0.000000  -0.184583  -0.516345
   27  O  2  Y   -0.086181   0.000000   0.000000   0.076517  -0.289390
   28  O  2  Z    0.000000   0.109404  -0.091502   0.000000   0.000000
   29  O  2 XX   -0.394154   0.000000   0.000000   0.591594   0.403216
   30  O  2 YY    0.658269   0.000000   0.000000  -0.524705  -0.010010
   31  O  2 ZZ   -0.264115   0.000000   0.000000  -0.066888  -0.393206
   32  O  2 XY    0.255619   0.000000   0.000000  -0.314660   0.603000
   33  O  2 XZ    0.000000  -0.699682   0.539428   0.000000   0.000000
   34  O  2 YZ    0.000000  -0.153229   0.473656   0.000000   0.000000
   35  O  3  S   -0.005655   0.000000   0.000000   0.008812   0.011404
   36  O  3  S    0.083363   0.000000   0.000000  -0.165655  -0.502283
   37  O  3  S   -0.118715   0.000000   0.000000   0.279872   0.953774
   38  O  3  X    0.011821   0.000000   0.000000  -0.062338  -0.064076
   39  O  3  Y   -0.050003   0.000000   0.000000  -0.029011   0.036193
   40  O  3  Z    0.000000  -0.051528  -0.039289   0.000000   0.000000
   41  O  3  X   -0.024671   0.000000   0.000000   0.184584   0.516345
   42  O  3  Y    0.086181   0.000000   0.000000   0.076517  -0.289388
   43  O  3  Z    0.000000   0.109404   0.091502   0.000000   0.000000
   44  O  3 XX    0.394155   0.000000   0.000000   0.591593   0.403216
   45  O  3 YY   -0.658269   0.000000   0.000000  -0.524705  -0.010010
   46  O  3 ZZ    0.264114   0.000000   0.000000  -0.066888  -0.393206
   47  O  3 XY    0.255620   0.000000   0.000000   0.314660  -0.602999
   48  O  3 XZ    0.000000   0.699682   0.539426   0.000000   0.000000
   49  O  3 YZ    0.000000  -0.153231  -0.473655   0.000000   0.000000

                     46
                    2.6270
                     A   
    1  S  1  S    0.000000
    2  S  1  S   -0.000000
    3  S  1  S    0.000002
    4  S  1  S   -0.000004
    5  S  1  X   -0.189068
    6  S  1  Y    0.000000
    7  S  1  Z    0.000000
    8  S  1  X    0.914583
    9  S  1  Y   -0.000000
   10  S  1  Z    0.000000
   11  S  1  X    0.163455
   12  S  1  Y   -0.000002
   13  S  1  Z    0.000000
   14  S  1 XX   -0.000001
   15  S  1 YY    0.000000
   16  S  1 ZZ    0.000001
   17  S  1 XY    0.581976
   18  S  1 XZ    0.000000
   19  S  1 YZ    0.000000
   20  O  2  S   -0.005044
   21  O  2  S    0.418766
   22  O  2  S   -0.830200
   23  O  2  X   -0.033336
   24  O  2  Y   -0.018764
   25  O  2  Z    0.000000
   26  O  2  X    0.483631
   27  O  2  Y    0.283081
   28  O  2  Z    0.000000
   29  O  2 XX   -0.526721
   30  O  2 YY    0.165650
   31  O  2 ZZ    0.361071
   32  O  2 XY   -0.567878
   33  O  2 XZ    0.000000
   34  O  2 YZ    0.000000
   35  O  3  S    0.005044
   36  O  3  S   -0.418768
   37  O  3  S    0.830205
   38  O  3  X   -0.033336
   39  O  3  Y    0.018764
   40  O  3  Z    0.000000
   41  O  3  X    0.483633
   42  O  3  Y   -0.283082
   43  O  3  Z    0.000000
   44  O  3 XX    0.526721
   45  O  3 YY   -0.165650
   46  O  3 ZZ   -0.361072
   47  O  3 XY   -0.567878
   48  O  3 XZ    0.000000
   49  O  3 YZ    0.000000
 ...... END OF RHF CALCULATION ......
 STEP CPU TIME =     2.48 TOTAL CPU TIME =          2.6 (      0.0 MIN)
 TOTAL WALL CLOCK TIME=          2.7 SECONDS, CPU UTILIZATION IS    98.87%

     ---------------------------------------------------------------------
     PROPERTIES FOR THE PBE      DFT FUNCTIONAL (RHF  TYPE) DENSITY MATRIX
     ---------------------------------------------------------------------

          -----------------
          ENERGY COMPONENTS
          -----------------

         WAVEFUNCTION NORMALIZATION =       1.0000000000

                ONE ELECTRON ENERGY =    -942.2848186283
                TWO ELECTRON ENERGY =     300.1174297838
           NUCLEAR REPULSION ENERGY =      93.9531490621
                                      ------------------
                       TOTAL ENERGY =    -548.2142397824

 ELECTRON-ELECTRON POTENTIAL ENERGY =     300.1174297838
  NUCLEUS-ELECTRON POTENTIAL ENERGY =   -1489.1081479272
   NUCLEUS-NUCLEUS POTENTIAL ENERGY =      93.9531490621
                                      ------------------
             TOTAL POTENTIAL ENERGY =   -1095.0375690813
               TOTAL KINETIC ENERGY =     546.8233292989
                 VIRIAL RATIO (V/T) =       2.0025436195

          ---------------------------------------
          MULLIKEN AND LOWDIN POPULATION ANALYSES
          ---------------------------------------

     ATOMIC MULLIKEN POPULATION IN EACH MOLECULAR ORBITAL

                      1          2          3          4          5

                  2.000000   2.000000   2.000000   2.000000   2.000000

    1             1.999972   0.001015   0.000742   2.000578   2.000333
    2             0.000014   0.996938   1.002184  -0.000289  -0.000167
    3             0.000014   1.002047   0.997075  -0.000289  -0.000167

                      6          7          8          9         10

                  2.000000   2.000000   2.000000   2.000000   2.000000

    1             2.000010   2.000108   0.610385   0.263178   1.144213
    2            -0.000005  -0.000054   0.694803   0.868416   0.427892
    3            -0.000005  -0.000054   0.694812   0.868405   0.427895

                     11         12         13         14         15

                  2.000000   2.000000   2.000000   2.000000   2.000000

    1             0.564417   1.054278   1.132696   0.055522   0.106508
    2             0.717793   0.472860   0.433651   0.972240   0.946736
    3             0.717791   0.472862   0.433652   0.972239   0.946756

                     16

                  2.000000

    1             0.333086
    2             0.833469
    3             0.833445

               ----- POPULATIONS IN EACH AO -----
                             MULLIKEN      LOWDIN
              1  S  1  S      1.99984     1.99927
              2  S  1  S      1.99251     1.88809
              3  S  1  S      1.35573     0.69292
              4  S  1  S      0.53678     0.46611
              5  S  1  X      1.99352     1.95675
              6  S  1  Y      1.99466     1.96494
              7  S  1  Z      1.99393     1.96123
              8  S  1  X      0.80409     0.68468
              9  S  1  Y      0.99538     0.91295
             10  S  1  Z      0.88767     0.80121
             11  S  1  X      0.05071     0.20502
             12  S  1  Y      0.14918     0.29457
             13  S  1  Z      0.24342     0.34985
             14  S  1 XX      0.02740     0.30350
             15  S  1 YY      0.09217     0.29817
             16  S  1 ZZ      0.08686     0.29517
             17  S  1 XY      0.05552     0.10196
             18  S  1 XZ      0.00768     0.06513
             19  S  1 YZ      0.00000     0.00744
             20  O  2  S      1.99567     1.97293
             21  O  2  S      0.96482     0.70877
             22  O  2  S      0.97523     0.55030
             23  O  2  X      0.84107     0.79979
             24  O  2  Y      1.05485     1.02383
             25  O  2  Z      0.83717     0.80442
             26  O  2  X      0.47398     0.58051
             27  O  2  Y      0.64529     0.70093
             28  O  2  Z      0.56493     0.59813
             29  O  2 XX      0.00160     0.21051
             30  O  2 YY      0.00391     0.20386
             31  O  2 ZZ      0.00418     0.20878
             32  O  2 XY      0.00283     0.00773
             33  O  2 XZ      0.00096     0.00377
             34  O  2 YZ      0.00000     0.00125
             35  O  3  S      1.99567     1.97293
             36  O  3  S      0.96482     0.70877
             37  O  3  S      0.97523     0.55030
             38  O  3  X      0.84107     0.79979
             39  O  3  Y      1.05485     1.02383
             40  O  3  Z      0.83717     0.80442
             41  O  3  X      0.47398     0.58051
             42  O  3  Y      0.64529     0.70093
             43  O  3  Z      0.56493     0.59813
             44  O  3 XX      0.00160     0.21051
             45  O  3 YY      0.00391     0.20386
             46  O  3 ZZ      0.00418     0.20878
             47  O  3 XY      0.00283     0.00773
             48  O  3 XZ      0.00096     0.00377
             49  O  3 YZ      0.00000     0.00125

          ----- MULLIKEN ATOMIC OVERLAP POPULATIONS -----
          (OFF-DIAGONAL ELEMENTS NEED TO BE MULTIPLIED BY 2)

             1           2           3

    1   14.7112884
    2    0.2778760   8.1074616
    3    0.2778774  -0.0188578   8.1074589

          TOTAL MULLIKEN AND LOWDIN ATOMIC POPULATIONS
       ATOM         MULL.POP.    CHARGE          LOW.POP.     CHARGE
    1 S            15.267042    0.732958        15.248970    0.751030
    2 O             8.366480   -0.366480         8.375515   -0.375515
    3 O             8.366478   -0.366478         8.375515   -0.375515

          MULLIKEN SPHERICAL HARMONIC POPULATIONS
       ATOM           S       P       D      F      G      H      I    TOTAL
    1 S             5.88    9.11    0.27   0.00   0.00   0.00   0.00   15.27
    2 O             3.94    4.42    0.01   0.00   0.00   0.00   0.00    8.37
    3 O             3.94    4.42    0.01   0.00   0.00   0.00   0.00    8.37

          -------------------------------
          BOND ORDER AND VALENCE ANALYSIS     BOND ORDER THRESHOLD=0.050
          -------------------------------

                   BOND                       BOND                       BOND
  ATOM PAIR DIST  ORDER      ATOM PAIR DIST  ORDER      ATOM PAIR DIST  ORDER
    1   2  1.650  1.707        1   3  1.650  1.707        2   3  2.858  0.410

                       TOTAL       BONDED        FREE
      ATOM            VALENCE     VALENCE     VALENCE
    1 S                 3.415       3.415      -0.000
    2 O                 2.117       2.117       0.000
    3 O                 2.117       2.117       0.000

          ---------------------
          ELECTROSTATIC MOMENTS
          ---------------------

 POINT   1           X           Y           Z (BOHR)    CHARGE
                 0.000000   -0.000000    0.000000        0.00 (A.U.)
         DX          DY          DZ         /D/  (DEBYE)
    -0.000002   -2.006350    0.000000    2.006350
 ...... END OF PROPERTY EVALUATION ......
 STEP CPU TIME =     0.00 TOTAL CPU TIME =          2.6 (      0.0 MIN)
 TOTAL WALL CLOCK TIME=          2.7 SECONDS, CPU UTILIZATION IS    98.50%
                580000  WORDS OF DYNAMIC MEMORY USED
 EXECUTION OF GAMESS TERMINATED NORMALLY Sun Sep 29 10:52:53 2019
 DDI: 263640 bytes (0.3 MB / 0 MWords) used by master data server.

 ----------------------------------------
 CPU timing information for all processes
 ========================================
 0: 2.544 + 0.81 = 2.625
 ----------------------------------------
 ddikick.x: exited gracefully.
----- accounting info -----
Files used on the master node crcfe02.crc.nd.edu were:
-rw-r--r-- 1 cdrisko campus     208 Sep 29 10:52 /afs/crc.nd.edu/user/c/cdrisko/SO2.F05
-rw-r--r-- 1 cdrisko campus   37566 Sep 29 10:52 /afs/crc.nd.edu/user/c/cdrisko/SO2.F07
-rw-r--r-- 1 cdrisko campus 4140368 Sep 29 10:52 /afs/crc.nd.edu/user/c/cdrisko/SO2.F08
-rw-r--r-- 1 cdrisko campus 1766880 Sep 29 10:52 /afs/crc.nd.edu/user/c/cdrisko/SO2.F10
Sun Sep 29 10:52:56 EDT 2019
0.433u 0.244s 0:06.30 10.6%	0+0k 0+24io 0pf+0w
