   4   4   0   0
  0.1380482E+02  0.3808000E-09  0.3808000E-09  0.3808000E-09  0.5000000E-15
  1.000000000000000E-004
  CAR 
 unknown system                          
     48.08869369     -1.12019680  301     13.64722215      1.00000000
     -1.120  0.0000E+00  0.0000E+00
     -0.956  0.0000E+00  0.0000E+00
     -0.792  0.0000E+00  0.0000E+00
     -0.628  0.0000E+00  0.0000E+00
     -0.464  0.0000E+00  0.0000E+00
     -0.300  0.0000E+00  0.0000E+00
     -0.136  0.0000E+00  0.0000E+00
      0.028  0.0000E+00  0.0000E+00
      0.192 -0.3297E-38 -0.5407E-39
      0.356 -0.2735E-26 -0.4486E-27
      0.520 -0.9957E-17 -0.1633E-17
      0.684 -0.1462E-09 -0.2398E-10
      0.848 -0.8182E-05 -0.1342E-05
      1.012 -0.5052E-03 -0.8421E-04
      1.176  0.1234E-01  0.1940E-02
      1.340  0.8377E-01  0.1568E-01
      1.504  0.1793E+00  0.4510E-01
      1.668  0.1465E+00  0.6913E-01
      1.832  0.8888E-01  0.8371E-01
      1.996  0.3251E+00  0.1370E+00
      2.160  0.4536E+00  0.2115E+00
      2.324  0.6074E-01  0.2214E+00
      2.488  0.2007E+00  0.2543E+00
      2.652  0.4936E+00  0.3353E+00
      2.817  0.4390E+00  0.4073E+00
      2.981  0.5129E+00  0.4915E+00
      3.145  0.1492E+00  0.5159E+00
      3.309  0.1036E+01  0.6859E+00
      3.473  0.3226E+00  0.7388E+00
      3.637  0.2523E+00  0.7802E+00
      3.801  0.1436E+01  0.1016E+01
      3.965  0.7703E+00  0.1142E+01
      4.129  0.2945E+01  0.1625E+01
      4.293  0.2326E+01  0.2007E+01
      4.457  0.2957E+01  0.2492E+01
      4.621  0.4783E+01  0.3276E+01
      4.785  0.5454E+01  0.4171E+01
      4.949  0.5150E+01  0.5016E+01
      5.113  0.6388E+01  0.6063E+01
      5.277  0.6298E+01  0.7096E+01
      5.441  0.3902E+01  0.7736E+01
      5.605  0.5039E+01  0.8563E+01
      5.769  0.6076E+01  0.9559E+01
      5.933  0.2841E+01  0.1003E+02
      6.097  0.2575E+01  0.1045E+02
      6.261  0.6155E+01  0.1146E+02
      6.425  0.5208E+01  0.1231E+02
      6.589  0.5285E+01  0.1318E+02
      6.753  0.5075E+01  0.1401E+02
      6.917  0.4381E+01  0.1473E+02
      7.081  0.7364E+01  0.1594E+02
      7.245  0.5903E+01  0.1691E+02
      7.409  0.4559E+01  0.1765E+02
      7.573  0.8949E+01  0.1912E+02
      7.737  0.7687E+01  0.2038E+02
      7.901  0.9239E+01  0.2190E+02
      8.065  0.7024E+01  0.2305E+02
      8.229  0.6368E+01  0.2409E+02
      8.394  0.4349E+01  0.2481E+02
      8.558  0.5460E+01  0.2570E+02
      8.722  0.3428E+01  0.2627E+02
      8.886  0.6039E+01  0.2726E+02
      9.050  0.3110E+01  0.2777E+02
      9.214  0.6126E+01  0.2877E+02
      9.378  0.6162E+01  0.2978E+02
      9.542  0.7166E+01  0.3096E+02
      9.706  0.5427E+01  0.3185E+02
      9.870  0.3782E+01  0.3247E+02
     10.034  0.3469E+01  0.3304E+02
     10.198  0.3528E+01  0.3362E+02
     10.362  0.7202E+01  0.3480E+02
     10.526  0.3271E+01  0.3533E+02
     10.690  0.4077E+01  0.3600E+02
     10.854  0.5154E+01  0.3685E+02
     11.018  0.5218E+01  0.3770E+02
     11.182  0.8247E+01  0.3906E+02
     11.346  0.6278E+01  0.4009E+02
     11.510  0.6605E+01  0.4117E+02
     11.674  0.6120E+01  0.4217E+02
     11.838  0.1188E+01  0.4237E+02
     12.002  0.2694E+00  0.4241E+02
     12.166  0.1115E+00  0.4243E+02
     12.330  0.9159E+00  0.4258E+02
     12.494  0.2460E+01  0.4298E+02
     12.658  0.1980E+01  0.4331E+02
     12.822 -0.8902E-01  0.4329E+02
     12.986  0.1065E+01  0.4347E+02
     13.150  0.6783E+00  0.4358E+02
     13.314  0.6333E+00  0.4368E+02
     13.478  0.1104E+01  0.4387E+02
     13.642  0.7789E+00  0.4399E+02
     13.806  0.1197E+01  0.4419E+02
     13.971  0.1374E+01  0.4441E+02
     14.135  0.5737E+00  0.4451E+02
     14.299  0.8680E+00  0.4465E+02
     14.463  0.8373E+00  0.4479E+02
     14.627  0.1553E+01  0.4504E+02
     14.791  0.1522E+01  0.4529E+02
     14.955  0.8062E+00  0.4543E+02
     15.119  0.3825E+00  0.4549E+02
     15.283  0.4111E+00  0.4556E+02
     15.447  0.7931E+00  0.4569E+02
     15.611  0.1282E+01  0.4590E+02
     15.775  0.1002E+01  0.4606E+02
     15.939  0.1504E+01  0.4631E+02
     16.103  0.4355E+00  0.4638E+02
     16.267  0.5230E+00  0.4646E+02
     16.431  0.1022E+01  0.4663E+02
     16.595  0.2196E+00  0.4667E+02
     16.759  0.1009E+01  0.4683E+02
     16.923  0.1387E+01  0.4706E+02
     17.087  0.8566E+00  0.4720E+02
     17.251  0.1090E+01  0.4738E+02
     17.415 -0.4989E-01  0.4737E+02
     17.579  0.3281E+00  0.4743E+02
     17.743  0.8415E+00  0.4756E+02
     17.907  0.3080E+01  0.4807E+02
     18.071  0.1803E+01  0.4836E+02
     18.235  0.1094E+01  0.4854E+02
     18.399  0.2726E+00  0.4859E+02
     18.563  0.6459E+00  0.4870E+02
     18.727  0.1423E+01  0.4893E+02
     18.891  0.1575E+01  0.4919E+02
     19.055  0.2184E+01  0.4955E+02
     19.219  0.4174E+00  0.4961E+02
     19.384  0.7590E+00  0.4974E+02
     19.548  0.1548E+00  0.4976E+02
     19.712  0.1617E+01  0.5003E+02
     19.876  0.2080E+01  0.5037E+02
     20.040  0.1260E+01  0.5058E+02
     20.204  0.1859E+01  0.5088E+02
     20.368  0.5004E+00  0.5096E+02
     20.532  0.7600E+00  0.5109E+02
     20.696  0.7749E+00  0.5122E+02
     20.860  0.1550E+01  0.5147E+02
     21.024  0.6842E+00  0.5158E+02
     21.188  0.5031E+00  0.5166E+02
     21.352  0.1322E+01  0.5188E+02
     21.516  0.1590E+01  0.5214E+02
     21.680  0.1083E+01  0.5232E+02
     21.844  0.1789E+01  0.5261E+02
     22.008  0.2022E+01  0.5294E+02
     22.172  0.9205E+00  0.5310E+02
     22.336  0.3652E+00  0.5316E+02
     22.500  0.1145E+01  0.5334E+02
     22.664  0.9225E+00  0.5349E+02
     22.828  0.5613E+00  0.5359E+02
     22.992  0.1754E+01  0.5387E+02
     23.156  0.1419E+01  0.5411E+02
     23.320  0.3019E+01  0.5460E+02
     23.484  0.6758E+00  0.5471E+02
     23.648  0.4064E+00  0.5478E+02
     23.812  0.1234E+01  0.5498E+02
     23.976  0.2047E+01  0.5532E+02
     24.140  0.2217E+01  0.5568E+02
     24.304  0.1322E+01  0.5590E+02
     24.468  0.1741E+01  0.5618E+02
     24.632  0.1669E+01  0.5646E+02
     24.796  0.2434E+01  0.5686E+02
     24.961  0.1565E+01  0.5711E+02
     25.125  0.6373E+00  0.5722E+02
     25.289  0.1020E+01  0.5739E+02
     25.453  0.2069E+01  0.5773E+02
     25.617  0.1367E+01  0.5795E+02
     25.781  0.4478E+01  0.5868E+02
     25.945  0.1041E+01  0.5885E+02
     26.109  0.2235E+01  0.5922E+02
     26.273  0.1317E+01  0.5944E+02
     26.437  0.8970E+00  0.5958E+02
     26.601  0.2185E+01  0.5994E+02
     26.765  0.1961E+01  0.6026E+02
     26.929  0.2352E+01  0.6065E+02
     27.093  0.3270E+01  0.6119E+02
     27.257  0.1187E+01  0.6138E+02
     27.421  0.7117E+00  0.6150E+02
     27.585  0.3805E+01  0.6212E+02
     27.749  0.3160E+01  0.6264E+02
     27.913  0.2962E+01  0.6313E+02
     28.077  0.4026E+01  0.6379E+02
     28.241  0.3895E+01  0.6443E+02
     28.405  0.1277E+01  0.6464E+02
     28.569  0.2860E+01  0.6510E+02
     28.733  0.1501E+01  0.6535E+02
     28.897  0.3778E+01  0.6597E+02
     29.061  0.1537E+01  0.6622E+02
     29.225  0.1718E+01  0.6650E+02
     29.389  0.2331E+01  0.6689E+02
     29.553  0.1556E+01  0.6714E+02
     29.717  0.4278E+01  0.6784E+02
     29.881  0.4064E+01  0.6851E+02
     30.045  0.1651E+01  0.6878E+02
     30.209  0.1522E+01  0.6903E+02
     30.373  0.2266E+01  0.6940E+02
     30.538  0.1244E+01  0.6961E+02
     30.702  0.7469E+00  0.6973E+02
     30.866  0.1381E+01  0.6996E+02
     31.030  0.1254E+01  0.7016E+02
     31.194  0.6797E+00  0.7027E+02
     31.358  0.1110E+01  0.7045E+02
     31.522  0.1395E+01  0.7068E+02
     31.686  0.1676E+01  0.7096E+02
     31.850  0.1574E+01  0.7122E+02
     32.014  0.3450E+01  0.7178E+02
     32.178  0.1478E+01  0.7202E+02
     32.342  0.3987E+01  0.7268E+02
     32.506  0.1107E+01  0.7286E+02
     32.670  0.3712E+01  0.7347E+02
     32.834  0.2696E+01  0.7391E+02
     32.998  0.2052E+01  0.7425E+02
     33.162  0.4361E+01  0.7496E+02
     33.326  0.1717E+01  0.7524E+02
     33.490  0.2762E+01  0.7570E+02
     33.654  0.4359E+01  0.7641E+02
     33.818  0.1456E+01  0.7665E+02
     33.982  0.1519E+01  0.7690E+02
     34.146  0.3771E+01  0.7752E+02
     34.310  0.2455E+01  0.7792E+02
     34.474  0.1944E+01  0.7824E+02
     34.638  0.2071E+01  0.7858E+02
     34.802  0.2529E+01  0.7900E+02
     34.966  0.4402E+00  0.7907E+02
     35.130  0.7271E+00  0.7919E+02
     35.294  0.7798E+00  0.7931E+02
     35.458  0.2712E+01  0.7976E+02
     35.622  0.1845E+01  0.8006E+02
     35.786  0.1331E+01  0.8028E+02
     35.951  0.7261E+00  0.8040E+02
     36.115  0.1143E+01  0.8059E+02
     36.279  0.1146E+01  0.8077E+02
     36.443  0.1372E+01  0.8100E+02
     36.607  0.1476E+01  0.8124E+02
     36.771  0.1172E+01  0.8143E+02
     36.935  0.1291E+01  0.8165E+02
     37.099  0.2607E+01  0.8207E+02
     37.263  0.2364E+01  0.8246E+02
     37.427  0.3567E+01  0.8305E+02
     37.591  0.1038E+01  0.8322E+02
     37.755  0.2370E+01  0.8361E+02
     37.919  0.1706E+01  0.8389E+02
     38.083  0.1011E+01  0.8405E+02
     38.247  0.1980E+01  0.8438E+02
     38.411  0.1822E+01  0.8468E+02
     38.575  0.1773E+01  0.8497E+02
     38.739  0.2167E+01  0.8532E+02
     38.903  0.3061E+01  0.8582E+02
     39.067  0.1989E+01  0.8615E+02
     39.231  0.8569E+00  0.8629E+02
     39.395  0.2965E+01  0.8678E+02
     39.559  0.2007E+01  0.8711E+02
     39.723  0.2863E+01  0.8758E+02
     39.887  0.2070E+01  0.8792E+02
     40.051  0.3286E+01  0.8845E+02
     40.215  0.2811E+01  0.8892E+02
     40.379  0.7383E+00  0.8904E+02
     40.543  0.1995E+01  0.8936E+02
     40.707  0.3251E+01  0.8990E+02
     40.871  0.2586E+01  0.9032E+02
     41.035  0.1927E+01  0.9064E+02
     41.199  0.3778E+01  0.9126E+02
     41.363  0.5977E+01  0.9224E+02
     41.528  0.5000E+01  0.9306E+02
     41.692  0.5682E+01  0.9399E+02
     41.856  0.4089E+01  0.9466E+02
     42.020  0.2146E+01  0.9501E+02
     42.184  0.2584E+01  0.9544E+02
     42.348  0.1604E+01  0.9570E+02
     42.512  0.1015E+01  0.9587E+02
     42.676  0.5996E+00  0.9596E+02
     42.840  0.1086E+00  0.9598E+02
     43.004 -0.5695E-02  0.9598E+02
     43.168 -0.8686E-05  0.9598E+02
     43.332 -0.3259E-10  0.9598E+02
     43.496 -0.4689E-15  0.9598E+02
     43.660 -0.3872E-08  0.9598E+02
     43.824 -0.1146E-03  0.9598E+02
     43.988 -0.3293E-03  0.9598E+02
     44.152  0.9920E-01  0.9600E+02
     44.316  0.1767E-02  0.9600E+02
     44.480 -0.1665E-03  0.9600E+02
     44.644 -0.7620E-08  0.9600E+02
     44.808 -0.1226E-14  0.9600E+02
     44.972 -0.1005E-34  0.9600E+02
     45.136 -0.1900E-23  0.9600E+02
     45.300 -0.1516E-14  0.9600E+02
     45.464 -0.5072E-08  0.9600E+02
     45.628 -0.5783E-04  0.9600E+02
     45.792  0.1422E-02  0.9600E+02
     45.956  0.1585E-01  0.9600E+02
     46.120 -0.4785E-03  0.9600E+02
     46.284 -0.8182E-05  0.9600E+02
     46.448 -0.1462E-09  0.9600E+02
     46.612 -0.1114E-16  0.9600E+02
     46.776  0.0000E+00  0.9600E+02
     46.940  0.0000E+00  0.9600E+02
     47.105  0.0000E+00  0.9600E+02
     47.269  0.0000E+00  0.9600E+02
     47.433  0.0000E+00  0.9600E+02
     47.597  0.0000E+00  0.9600E+02
     47.761  0.0000E+00  0.9600E+02
     47.925  0.0000E+00  0.9600E+02
     48.089  0.0000E+00  0.9600E+02
