    4    4    1    1
  0.1380482E+02  0.3808000E-09  0.3808000E-09  0.3808000E-09  0.5000000E-15
  1.000000000000000E-004
  CAR 
 unknown system                          
     44     35     48
 
  0.0000000E+00  0.0000000E+00  0.0000000E+00  0.1371742E-02
    1        1.116571   1.000000
    2        4.078386   1.000000
    3        4.078386   1.000000
    4        4.078386   1.000000
    5        4.516971   1.000000
    6        4.516971   1.000000
    7        4.516971   1.000000
    8        7.419262   1.000000
    9        7.419262   1.000000
   10        7.419262   1.000000
   11        9.608801   1.000000
   12        9.608801   1.000000
   13       11.288485   1.000000
   14       11.288485   1.000000
   15       11.288485   1.000000
   16       11.814157   1.000000
   17       11.814157   1.000000
   18       11.814157   1.000000
   19       11.814157   1.000000
   20       11.814157   1.000000
   21       11.814157   1.000000
   22       13.850739  -0.007124
   23       13.850739  -0.007124
   24       13.850739  -0.007124
   25       21.192107   0.000000
   26       21.192107   0.000000
   27       21.192107   0.000000
   28       24.009733   0.000000
   29       24.009733   0.000000
   30       24.009733   0.000000
   31       24.009733   0.000000
   32       24.009733   0.000000
   33       24.009733   0.000000
   34       27.399973   0.000000
   35       32.639458   0.000000
   36       32.639458   0.000000
   37       32.639458   0.000000
   38       33.101273   0.000000
   39       33.101273   0.000000
   40       33.101273   0.000000
   41       36.491922   0.000000
   42       36.491922   0.000000
   43       36.491922   0.000000
   44       38.294084   0.000000
   45       42.219629   0.000000
   46       42.219629   0.000000
   47       42.219629   0.000000
   48       45.851926   0.000000
 
  0.1111111E+00  0.0000000E+00  0.0000000E+00  0.8230453E-02
    1        1.292697   1.000000
    2        4.151955   1.000000
    3        4.204956   1.000000
    4        4.204956   1.000000
    5        4.587531   1.000000
    6        4.627843   1.000000
    7        4.627843   1.000000
    8        7.307335   1.000000
    9        7.508941   1.000000
   10        7.508941   1.000000
   11        9.485078   1.000000
   12        9.654039   1.000000
   13       10.942663   1.000000
   14       10.942663   1.000000
   15       11.105366   1.000000
   16       11.105366   1.000000
   17       11.231329   1.000000
   18       11.595562   1.000000
   19       11.595562   1.000000
   20       11.814611   1.000000
   21       11.814611   1.000000
   22       12.947767   1.000000
   23       14.818825  -0.000000
   24       14.818825  -0.000000
   25       20.863927   0.000000
   26       20.863927   0.000000
   27       22.351235   0.000000
   28       23.854744   0.000000
   29       23.854744   0.000000
   30       24.138301   0.000000
   31       24.138301   0.000000
   32       24.417611   0.000000
   33       24.417611   0.000000
   34       27.670748   0.000000
   35       32.114250   0.000000
   36       32.675222   0.000000
   37       32.675222   0.000000
   38       32.897210   0.000000
   39       33.723899   0.000000
   40       33.723899   0.000000
   41       36.210743   0.000000
   42       36.442916   0.000000
   43       36.442916   0.000000
   44       39.397097   0.000000
   45       41.992050   0.000000
   46       41.992050   0.000000
   47       42.480880   0.000000
   48       44.074237   0.000000
 
  0.2222222E+00  0.0000000E+00  0.0000000E+00  0.8230453E-02
    1        1.806559   1.000000
    2        4.335418   1.000000
    3        4.560472   1.000000
    4        4.560472   1.000000
    5        4.795018   1.000000
    6        4.958656   1.000000
    7        4.958656   1.000000
    8        6.997140   1.000000
    9        7.775426   1.000000
   10        7.775426   1.000000
   11        9.145805   1.000000
   12        9.603458   1.000000
   13        9.603458   1.000000
   14        9.785893   1.000000
   15       10.597137   1.000000
   16       10.597137   1.000000
   17       11.026195   1.000000
   18       11.026195   1.000000
   19       11.069585   1.000000
   20       11.177174   1.000000
   21       11.815657   1.000000
   22       11.815657   1.000000
   23       16.437664   0.000000
   24       16.437664   0.000000
   25       20.236149   0.000000
   26       20.236149   0.000000
   27       23.365085   0.000000
   28       23.365085   0.000000
   29       24.309522   0.000000
   30       24.309522   0.000000
   31       24.902301   0.000000
   32       25.544155   0.000000
   33       25.544155   0.000000
   34       28.447286   0.000000
   35       31.247302   0.000000
   36       32.412387   0.000000
   37       32.657608   0.000000
   38       32.657608   0.000000
   39       35.400531   0.000000
   40       35.421439   0.000000
   41       35.421439   0.000000
   42       36.417737   0.000000
   43       36.417737   0.000000
   44       41.164671   0.000000
   45       41.164671   0.000000
   46       41.778962   0.000000
   47       41.778964   0.000000
   48       41.902938   0.000000
 
  0.3333333E+00  0.0000000E+00  0.0000000E+00  0.8230453E-02
    1        2.603613   1.000000
    2        4.483989   1.000000
    3        5.054794   1.000000
    4        5.054794   1.000000
    5        5.125982   1.000000
    6        5.504672   1.000000
    7        5.504672   1.000000
    8        6.552588   1.000000
    9        8.210554   1.000000
   10        8.210554   1.000000
   11        8.330989   1.000000
   12        8.330989   1.000000
   13        8.694631   1.000000
   14        9.507287   1.000000
   15        9.915356   1.000000
   16        9.915356   1.000000
   17        9.992732   1.000000
   18       10.279923   1.000000
   19       10.279923   1.000000
   20       10.828915   1.000000
   21       11.816836   1.000000
   22       11.816836   1.000000
   23       18.141768   0.000000
   24       18.141768   0.000000
   25       19.721423   0.000000
   26       19.721423   0.000000
   27       22.503822   0.000000
   28       22.503822   0.000000
   29       24.379462   0.000000
   30       24.379462   0.000000
   31       27.175720   0.000000
   32       27.175720   0.000000
   33       27.877052   0.000000
   34       29.633658   0.000000
   35       30.645189   0.000000
   36       31.999127   0.000000
   37       32.184730   0.000000
   38       32.184730   0.000000
   39       34.164122   0.000000
   40       36.657642   0.000000
   41       36.657642   0.000000
   42       37.796837   0.000000
   43       37.796837   0.000000
   44       39.653204   0.000000
   45       39.815974   0.000000
   46       39.815974   0.000000
   47       40.326893   0.000000
   48       40.326893   0.000000
 
  0.4444444E+00  0.0000000E+00  0.0000000E+00  0.8230453E-02
    1        3.540336   1.000000
    2        4.280972   1.000000
    3        5.468386   1.000000
    4        5.468386   1.000000
    5        5.556546   1.000000
    6        6.049689   1.000000
    7        6.257720   1.000000
    8        6.257720   1.000000
    9        7.205690   1.000000
   10        7.205690   1.000000
   11        8.342192   1.000000
   12        8.487898   1.000000
   13        8.797458   1.000000
   14        8.797458   1.000000
   15        9.372967   1.000000
   16        9.372967   1.000000
   17        9.505482   1.000000
   18        9.505482   1.000000
   19       10.254788   1.000000
   20       10.544921   1.000000
   21       11.817585   1.000000
   22       11.817585   1.000000
   23       19.456541   0.000000
   24       19.456541   0.000000
   25       19.794989   0.000000
   26       19.794989   0.000000
   27       21.286282   0.000000
   28       21.286282   0.000000
   29       24.389670   0.000000
   30       24.389670   0.000000
   31       29.067170   0.000000
   32       29.067170   0.000000
   33       30.030282   0.000000
   34       30.382469   0.000000
   35       30.896697   0.000000
   36       30.896697   0.000000
   37       31.093561   0.000000
   38       32.664850   0.000000
   39       32.839280   0.000000
   40       35.957419   0.000000
   41       37.323557   0.000000
   42       37.323557   0.000000
   43       38.423182   0.000000
   44       38.423182   0.000000
   45       40.182271   0.000000
   46       40.182271   0.000000
   47       40.241288   0.000000
   48       40.241289   0.000000
 
  0.1111111E+00  0.1111111E+00  0.0000000E+00  0.1646091E-01
    1        1.464759   1.000000
    2        4.280361   1.000000
    3        4.280361   1.000000
    4        4.304777   1.000000
    5        4.696004   1.000000
    6        4.696004   1.000000
    7        4.756152   1.000000
    8        7.258711   1.000000
    9        7.541598   1.000000
   10        7.584128   1.000000
   11        9.452330   1.000000
   12        9.627968   1.000000
   13       10.487639   1.000000
   14       10.564055   1.000000
   15       10.564055   1.000000
   16       10.944454   1.000000
   17       11.138037   1.000000
   18       11.138037   1.000000
   19       11.595096   1.000000
   20       11.595096   1.000000
   21       11.674049   1.000000
   22       13.971444  -0.000023
   23       13.971444  -0.000023
   24       15.513855  -0.000000
   25       20.438567   0.000000
   26       21.932545   0.000000
   27       21.932545   0.000000
   28       23.428723   0.000000
   29       24.257711   0.000000
   30       24.257711   0.000000
   31       24.605272   0.000000
   32       24.605272   0.000000
   33       24.771252   0.000000
   34       27.921174   0.000000
   35       31.210871   0.000000
   36       32.701544   0.000000
   37       33.387356   0.000000
   38       33.543917   0.000000
   39       33.543917   0.000000
   40       33.908637   0.000000
   41       36.180929   0.000000
   42       36.180929   0.000000
   43       36.673860   0.000000
   44       39.980630   0.000000
   45       41.860920   0.000000
   46       42.180464   0.000000
   47       42.180464   0.000000
   48       42.690366   0.000000
 
  0.2222222E+00  0.1111111E+00  0.0000000E+00  0.3292181E-01
    1        1.966721   1.000000
    2        4.469170   1.000000
    3        4.598155   1.000000
    4        4.642111   1.000000
    5        4.896230   1.000000
    6        5.019422   1.000000
    7        5.120663   1.000000
    8        6.994131   1.000000
    9        7.779274   1.000000
   10        7.797894   1.000000
   11        9.175233   1.000000
   12        9.258501   1.000000
   13        9.422043   1.000000
   14        9.758912   1.000000
   15        9.763795   1.000000
   16       10.489358   1.000000
   17       10.656971   1.000000
   18       10.948948   1.000000
   19       11.023804   1.000000
   20       11.593526   1.000000
   21       11.599513   1.000000
   22       12.486826   1.000000
   23       15.453266  -0.000000
   24       16.942383   0.000000
   25       19.631488   0.000000
   26       21.227381   0.000000
   27       22.970469   0.000000
   28       23.755177   0.000000
   29       24.025365   0.000000
   30       24.840477   0.000000
   31       25.336961   0.000000
   32       25.366833   0.000000
   33       26.000520   0.000000
   34       28.632338   0.000000
   35       30.204638   0.000000
   36       32.660760   0.000000
   37       33.176399   0.000000
   38       33.864179   0.000000
   39       34.387420   0.000000
   40       35.210972   0.000000
   41       35.424601   0.000000
   42       36.208839   0.000000
   43       37.573730   0.000000
   44       39.520076   0.000000
   45       41.218848   0.000000
   46       41.320028   0.000000
   47       41.778550   0.000000
   48       42.548781   0.000000
 
  0.3333333E+00  0.1111111E+00  0.0000000E+00  0.3292181E-01
    1        2.746113   1.000000
    2        4.623286   1.000000
    3        5.054318   1.000000
    4        5.148966   1.000000
    5        5.215186   1.000000
    6        5.551996   1.000000
    7        5.652255   1.000000
    8        6.578484   1.000000
    9        8.048414   1.000000
   10        8.054783   1.000000
   11        8.207865   1.000000
   12        8.263537   1.000000
   13        8.754860   1.000000
   14        8.864270   1.000000
   15        9.866529   1.000000
   16       10.006001   1.000000
   17       10.022917   1.000000
   18       10.275957   1.000000
   19       10.451746   1.000000
   20       11.374865   1.000000
   21       11.583965   1.000000
   22       11.590702   1.000000
   23       16.815462   0.000000
   24       18.562315   0.000000
   25       18.932566   0.000000
   26       20.818043   0.000000
   27       22.379604   0.000000
   28       22.879614   0.000000
   29       24.984772   0.000000
   30       25.463636   0.000000
   31       26.072270   0.000000
   32       26.960110   0.000000
   33       28.125589   0.000000
   34       29.454528   0.000000
   35       29.662972   0.000000
   36       32.223687   0.000000
   37       33.111861   0.000000
   38       33.411781   0.000000
   39       34.271970   0.000000
   40       35.084365   0.000000
   41       36.522252   0.000000
   42       36.997885   0.000000
   43       38.202194   0.000000
   44       39.322644   0.000000
   45       39.899822   0.000000
   46       40.563024   0.000000
   47       40.606007   0.000000
   48       41.215491   0.000000
 
  0.4444444E+00  0.1111111E+00  0.0000000E+00  0.3292181E-01
    1        3.668222   1.000000
    2        4.413495   1.000000
    3        5.526941   1.000000
    4        5.575293   1.000000
    5        5.628930   1.000000
    6        6.100681   1.000000
    7        6.254884   1.000000
    8        6.283427   1.000000
    9        7.023219   1.000000
   10        7.196884   1.000000
   11        8.010948   1.000000
   12        8.064084   1.000000
   13        8.792917   1.000000
   14        9.064622   1.000000
   15        9.385125   1.000000
   16        9.448228   1.000000
   17        9.500700   1.000000
   18        9.707742   1.000000
   19       10.364242   1.000000
   20       10.780043   1.000000
   21       11.583408   1.000000
   22       11.586889   1.000000
   23       17.804296   0.000000
   24       18.401202   0.000000
   25       20.177317   0.000000
   26       20.981045   0.000000
   27       21.637543   0.000000
   28       21.656561   0.000000
   29       25.124773   0.000000
   30       25.312376   0.000000
   31       27.780356   0.000000
   32       28.764307   0.000000
   33       28.820222   0.000000
   34       30.141626   0.000000
   35       30.202029   0.000000
   36       31.773879   0.000000
   37       31.877876   0.000000
   38       32.905165   0.000000
   39       34.222770   0.000000
   40       36.014096   0.000000
   41       36.612817   0.000000
   42       37.012082   0.000000
   43       37.267500   0.000000
   44       38.444149   0.000000
   45       39.826468   0.000000
   46       40.559117   0.000000
   47       40.760094   0.000000
   48       41.520547   0.000000
 
  0.2222222E+00  0.2222222E+00  0.0000000E+00  0.1646091E-01
    1        2.433313   1.000000
    2        4.772077   1.000000
    3        4.849540   1.000000
    4        4.849540   1.000000
    5        5.197163   1.000000
    6        5.197163   1.000000
    7        5.518251   1.000000
    8        6.893857   1.000000
    9        7.863432   1.000000
   10        7.897726   1.000000
   11        8.532960   1.000000
   12        8.532960   1.000000
   13        8.861970   1.000000
   14        9.088716   1.000000
   15        9.891624   1.000000
   16       10.165235   1.000000
   17       10.571919   1.000000
   18       10.571919   1.000000
   19       11.017463   1.000000
   20       11.017463   1.000000
   21       11.271697   1.000000
   22       13.845681  -0.008400
   23       13.845681  -0.008400
   24       18.141548   0.000000
   25       18.522919   0.000000
   26       22.577427   0.000000
   27       22.878662   0.000000
   28       22.878662   0.000000
   29       24.819308   0.000000
   30       24.819308   0.000000
   31       26.325893   0.000000
   32       26.325893   0.000000
   33       26.784857   0.000000
   34       28.971068   0.000000
   35       29.124015   0.000000
   36       32.593214   0.000000
   37       33.344539   0.000000
   38       34.871667   0.000000
   39       34.871667   0.000000
   40       35.463054   0.000000
   41       35.598916   0.000000
   42       35.598916   0.000000
   43       36.887397   0.000000
   44       39.232076   0.000000
   45       41.223479   0.000000
   46       41.514610   0.000000
   47       41.514611   0.000000
   48       41.624704   0.000000
 
  0.3333333E+00  0.2222222E+00  0.0000000E+00  0.3292181E-01
    1        3.158112   1.000000
    2        5.022312   1.000000
    3        5.125640   1.000000
    4        5.397782   1.000000
    5        5.478004   1.000000
    6        5.688707   1.000000
    7        6.001753   1.000000
    8        6.615910   1.000000
    9        7.457037   1.000000
   10        7.786560   1.000000
   11        7.880797   1.000000
   12        8.037632   1.000000
   13        8.249519   1.000000
   14        8.914380   1.000000
   15        9.689694   1.000000
   16       10.022680   1.000000
   17       10.181970   1.000000
   18       10.267634   1.000000
   19       10.291223   1.000000
   20       11.010022   1.000000
   21       11.093240   1.000000
   22       12.502185   1.000000
   23       15.065656  -0.000000
   24       17.561485   0.000000
   25       19.628287   0.000000
   26       22.060648   0.000000
   27       22.188849   0.000000
   28       23.893617   0.000000
   29       24.497738   0.000000
   30       26.320306   0.000000
   31       26.580676   0.000000
   32       27.545939   0.000000
   33       27.994839   0.000000
   34       28.253320   0.000000
   35       29.627217   0.000000
   36       32.391956   0.000000
   37       33.204113   0.000000
   38       34.107490   0.000000
   39       34.659560   0.000000
   40       35.047006   0.000000
   41       35.972346   0.000000
   42       36.111337   0.000000
   43       37.234904   0.000000
   44       40.148891   0.000000
   45       41.136872   0.000000
   46       41.156780   0.000000
   47       41.278064   0.000000
   48       41.627930   0.000000
 
  0.4444444E+00  0.2222222E+00  0.0000000E+00  0.3292181E-01
    1        4.029119   1.000000
    2        4.783628   1.000000
    3        5.636158   1.000000
    4        5.837035   1.000000
    5        5.882220   1.000000
    6        6.235467   1.000000
    7        6.330679   1.000000
    8        6.353109   1.000000
    9        6.610152   1.000000
   10        7.157467   1.000000
   11        7.452080   1.000000
   12        7.648725   1.000000
   13        8.801796   1.000000
   14        9.088642   1.000000
   15        9.342103   1.000000
   16        9.495150   1.000000
   17        9.496231   1.000000
   18        9.598228   1.000000
   19       10.850456   1.000000
   20       11.008067   1.000000
   21       11.025668   1.000000
   22       11.551915   1.000000
   23       16.044143  -0.000000
   24       16.806501   0.000000
   25       21.178623   0.000000
   26       21.735777   0.000000
   27       21.847350   0.000000
   28       22.643806   0.000000
   29       25.969659   0.000000
   30       26.937894   0.000000
   31       27.104550   0.000000
   32       27.386835   0.000000
   33       27.967014   0.000000
   34       29.311247   0.000000
   35       30.048338   0.000000
   36       31.878718   0.000000
   37       32.618975   0.000000
   38       33.556629   0.000000
   39       34.128183   0.000000
   40       35.375860   0.000000
   41       36.366412   0.000000
   42       37.068633   0.000000
   43       38.463797   0.000000
   44       38.618240   0.000000
   45       38.892229   0.000000
   46       40.101302   0.000000
   47       41.426890   0.000000
   48       42.295960   0.000000
 
  0.3333333E+00  0.3333333E+00  0.0000000E+00  0.1646091E-01
    1        3.790309   1.000000
    2        5.330983   1.000000
    3        5.611881   1.000000
    4        5.611881   1.000000
    5        5.898351   1.000000
    6        5.898351   1.000000
    7        6.402291   1.000000
    8        6.569789   1.000000
    9        6.938507   1.000000
   10        6.938507   1.000000
   11        7.619670   1.000000
   12        7.752097   1.000000
   13        8.454415   1.000000
   14        8.743109   1.000000
   15        9.369843   1.000000
   16        9.734876   1.000000
   17        9.734876   1.000000
   18       10.266998   1.000000
   19       10.266998   1.000000
   20       10.660097   1.000000
   21       10.878251   1.000000
   22       13.614527   0.760979
   23       13.614527   0.760979
   24       16.380158   0.000000
   25       21.024400   0.000000
   26       22.027120   0.000000
   27       23.215603   0.000000
   28       23.215603   0.000000
   29       25.301829   0.000000
   30       25.301829   0.000000
   31       26.753735   0.000000
   32       28.464723   0.000000
   33       28.464723   0.000000
   34       29.212242   0.000000
   35       29.576845   0.000000
   36       31.813867   0.000000
   37       32.817843   0.000000
   38       32.835103   0.000000
   39       35.428013   0.000000
   40       35.428013   0.000000
   41       35.619167   0.000000
   42       35.619167   0.000000
   43       37.888761   0.000000
   44       40.047678   0.000000
   45       40.882840   0.000000
   46       41.437177   0.000000
   47       42.059818   0.000000
   48       42.059844   0.000000
 
  0.4444444E+00  0.3333333E+00  0.0000000E+00  0.3292181E-01
    1        4.551111   1.000000
    2        5.282050   1.000000
    3        5.689769   1.000000
    4        6.128537   1.000000
    5        6.150712   1.000000
    6        6.351686   1.000000
    7        6.397355   1.000000
    8        6.443109   1.000000
    9        6.587728   1.000000
   10        7.008909   1.000000
   11        7.050613   1.000000
   12        7.446264   1.000000
   13        8.806942   1.000000
   14        8.891726   1.000000
   15        9.117179   1.000000
   16        9.230004   1.000000
   17        9.281649   1.000000
   18        9.523522   1.000000
   19       10.298633   1.000000
   20       10.407538   1.000000
   21       11.630890   1.000000
   22       12.512080   1.000000
   23       14.594492  -0.000000
   24       15.458203  -0.000000
   25       22.036830   0.000000
   26       22.394243   0.000000
   27       22.531783   0.000000
   28       23.999833   0.000000
   29       24.419153   0.000000
   30       25.607698   0.000000
   31       26.840931   0.000000
   32       28.236406   0.000000
   33       28.935101   0.000000
   34       29.686622   0.000000
   35       30.013421   0.000000
   36       31.322410   0.000000
   37       32.623597   0.000000
   38       33.601124   0.000000
   39       34.420010   0.000000
   40       34.536706   0.000000
   41       36.335775   0.000000
   42       36.617371   0.000000
   43       37.630146   0.000000
   44       38.210571   0.000000
   45       41.315751   0.000000
   46       41.446976   0.000000
   47       41.807073   0.000000
   48       42.203057   0.000000
 
  0.4444444E+00  0.4444444E+00  0.0000000E+00  0.1646091E-01
    1        5.119309   1.000000
    2        5.644619   1.000000
    3        5.644619   1.000000
    4        5.712440   1.000000
    5        6.504723   1.000000
    6        6.511447   1.000000
    7        6.511447   1.000000
    8        6.834401   1.000000
    9        6.849109   1.000000
   10        6.875234   1.000000
   11        6.875234   1.000000
   12        7.278059   1.000000
   13        8.615812   1.000000
   14        8.819907   1.000000
   15        8.861254   1.000000
   16        8.861254   1.000000
   17        9.155381   1.000000
   18        9.640423   1.000000
   19        9.640423   1.000000
   20        9.922194   1.000000
   21       12.513424   1.000000
   22       13.466497   1.014154
   23       13.466497   1.014154
   24       14.403355  -0.000000
   25       22.457110   0.000000
   26       23.239899   0.000000
   27       23.239899   0.000000
   28       24.021510   0.000000
   29       24.320498   0.000000
   30       25.495213   0.000000
   31       25.495213   0.000000
   32       26.948896   0.000000
   33       30.249271   0.000000
   34       30.249271   0.000000
   35       30.725435   0.000000
   36       30.806348   0.000000
   37       32.788319   0.000000
   38       34.705101   0.000000
   39       34.710236   0.000000
   40       34.710236   0.000000
   41       35.793227   0.000000
   42       35.793227   0.000000
   43       36.104037   0.000000
   44       37.185414   0.000000
   45       41.068986   0.000000
   46       41.633144   0.000000
   47       41.633144   0.000000
   48       41.788125   0.000000
 
  0.1111111E+00  0.1111111E+00  0.1111111E+00  0.1097394E-01
    1        1.631587   1.000000
    2        4.378114   1.000000
    3        4.378114   1.000000
    4        4.378114   1.000000
    5        4.825015   1.000000
    6        4.825015   1.000000
    7        4.825015   1.000000
    8        7.223811   1.000000
    9        7.606207   1.000000
   10        7.606207   1.000000
   11        9.520650   1.000000
   12        9.520650   1.000000
   13       10.181185   1.000000
   14       10.181185   1.000000
   15       10.181185   1.000000
   16       10.758711   1.000000
   17       10.758711   1.000000
   18       10.758711   1.000000
   19       11.629887   1.000000
   20       11.629887   1.000000
   21       11.629887   1.000000
   22       14.618123  -0.000000
   23       14.618123  -0.000000
   24       14.618123  -0.000000
   25       21.356716   0.000000
   26       21.356716   0.000000
   27       21.356716   0.000000
   28       24.082336   0.000000
   29       24.082336   0.000000
   30       24.082336   0.000000
   31       25.125327   0.000000
   32       25.125327   0.000000
   33       25.125327   0.000000
   34       28.147164   0.000000
   35       30.433368   0.000000
   36       33.422616   0.000000
   37       33.422616   0.000000
   38       33.701751   0.000000
   39       33.701751   0.000000
   40       33.701751   0.000000
   41       36.468512   0.000000
   42       36.468512   0.000000
   43       36.468512   0.000000
   44       39.972514   0.000000
   45       42.000956   0.000000
   46       42.000956   0.000000
   47       42.000957   0.000000
   48       42.559733   0.000000
 
  0.2222222E+00  0.1111111E+00  0.1111111E+00  0.3292181E-01
    1        2.117777   1.000000
    2        4.559847   1.000000
    3        4.666639   1.000000
    4        4.666639   1.000000
    5        5.028085   1.000000
    6        5.189635   1.000000
    7        5.189635   1.000000
    8        7.005182   1.000000
    9        7.784674   1.000000
   10        7.800251   1.000000
   11        9.123158   1.000000
   12        9.123158   1.000000
   13        9.248259   1.000000
   14        9.388114   1.000000
   15        9.717826   1.000000
   16       10.297120   1.000000
   17       10.383823   1.000000
   18       10.383823   1.000000
   19       11.464153   1.000000
   20       11.544220   1.000000
   21       11.544220   1.000000
   22       13.007173   1.000000
   23       15.883508  -0.000000
   24       15.883508  -0.000000
   25       20.390174   0.000000
   26       20.390174   0.000000
   27       23.047082   0.000000
   28       23.831852   0.000000
   29       23.831852   0.000000
   30       25.645889   0.000000
   31       25.645889   0.000000
   32       25.863631   0.000000
   33       26.128814   0.000000
   34       28.772889   0.000000
   35       29.398659   0.000000
   36       33.245700   0.000000
   37       33.385204   0.000000
   38       34.118990   0.000000
   39       34.118990   0.000000
   40       34.158614   0.000000
   41       35.906179   0.000000
   42       37.451707   0.000000
   43       37.451707   0.000000
   44       38.925422   0.000000
   45       40.962756   0.000000
   46       41.338080   0.000000
   47       41.338080   0.000000
   48       42.211574   0.000000
 
  0.3333333E+00  0.1111111E+00  0.1111111E+00  0.3292181E-01
    1        2.871693   1.000000
    2        4.705240   1.000000
    3        5.121774   1.000000
    4        5.121774   1.000000
    5        5.347037   1.000000
    6        5.709211   1.000000
    7        5.709211   1.000000
    8        6.627092   1.000000
    9        7.989476   1.000000
   10        8.024988   1.000000
   11        8.024988   1.000000
   12        8.122622   1.000000
   13        8.442010   1.000000
   14        9.056890   1.000000
   15        9.709924   1.000000
   16        9.864131   1.000000
   17        9.864131   1.000000
   18       10.021210   1.000000
   19       11.171837   1.000000
   20       11.463801   1.000000
   21       11.463801   1.000000
   22       11.512833   1.000000
   23       17.147632   0.000000
   24       17.147632   0.000000
   25       19.650327   0.000000
   26       19.650327   0.000000
   27       23.487425   0.000000
   28       23.487425   0.000000
   29       24.825445   0.000000
   30       25.744672   0.000000
   31       25.744672   0.000000
   32       27.639258   0.000000
   33       28.121889   0.000000
   34       28.505543   0.000000
   35       29.719232   0.000000
   36       32.803744   0.000000
   37       32.878163   0.000000
   38       33.851208   0.000000
   39       34.730079   0.000000
   40       34.730079   0.000000
   41       35.250627   0.000000
   42       37.967313   0.000000
   43       38.681634   0.000000
   44       38.681634   0.000000
   45       39.602096   0.000000
   46       40.774284   0.000000
   47       40.774285   0.000000
   48       41.678700   0.000000
 
  0.4444444E+00  0.1111111E+00  0.1111111E+00  0.3292181E-01
    1        3.764667   1.000000
    2        4.494141   1.000000