       N       E                     dE             d eps       ncg     rms          rms(c)
DAV:   1     0.195229185590E+03    0.19523E+03   -0.18908E+04  3360   0.735E+02
DAV:   2    -0.820772829628E+01   -0.20344E+03   -0.19352E+03  4680   0.191E+02
DAV:   3    -0.108306950549E+02   -0.26230E+01   -0.26210E+01  4224   0.215E+01
DAV:   4    -0.108401205214E+02   -0.94255E-02   -0.94253E-02  4848   0.144E+00
DAV:   5    -0.108401893351E+02   -0.68814E-04   -0.68815E-04  4104   0.120E-01    0.367E+01
DAV:   6    -0.999980943178E+01    0.84038E+00   -0.10126E+00  4320   0.535E+00    0.218E+01
DAV:   7    -0.985564081097E+01    0.14417E+00   -0.40221E-01  4392   0.336E+00    0.355E+00
DAV:   8    -0.983656398753E+01    0.19077E-01   -0.52655E-02  4152   0.118E+00    0.522E-01
DAV:   9    -0.983657429375E+01   -0.10306E-04   -0.18169E-04  4512   0.655E-02
   1 F= -.98365743E+01 E0= -.98361493E+01  d E =-.127485E-02
