 vasp.5.4.1 05Feb16 (build Feb 08 2018 09:21:51) complex                        
  
 executed on             LinuxIFC date 2019.11.21  15:55:06
 running on   24 total cores
 distrk:  each k-point on   24 cores,    1 groups
 distr:  one band on NCORES_PER_BAND=   1 cores,   24 groups


--------------------------------------------------------------------------------------------------------


 INCAR:
 POTCAR:    PAW_PBE Au 04Oct2007                  

 ----------------------------------------------------------------------------- 
|                                                                             |
|           W    W    AA    RRRRR   N    N  II  N    N   GGGG   !!!           |
|           W    W   A  A   R    R  NN   N  II  NN   N  G    G  !!!           |
|           W    W  A    A  R    R  N N  N  II  N N  N  G       !!!           |
|           W WW W  AAAAAA  RRRRR   N  N N  II  N  N N  G  GGG   !            |
|           WW  WW  A    A  R   R   N   NN  II  N   NN  G    G                |
|           W    W  A    A  R    R  N    N  II  N    N   GGGG   !!!           |
|                                                                             |
|      For optimal performance we recommend to set                            |
|        NCORE= 4 - approx SQRT( number of cores)                             |
|      NCORE specifies how many cores store one orbital (NPAR=cpu/NCORE).     |
|      This setting can  greatly improve the performance of VASP for DFT.     |
|      The default, NPAR=number of cores might be grossly inefficient         |
|      on modern multi-core architectures or massively parallel machines.     |
|      Do your own testing !!!!                                               |
|      Unfortunately you need to use the default for GW and RPA calculations. |
|      (for HF NCORE is supported but not extensively tested yet)             |
|                                                                             |
 ----------------------------------------------------------------------------- 

 POTCAR:    PAW_PBE Au 04Oct2007                  
   VRHFIN =Au: s1d10                                                            
   LEXCH  = PE                                                                  
   EATOM  =   926.0867 eV,   68.0654 Ry                                         
                                                                                
   TITEL  = PAW_PBE Au 04Oct2007                                                
   LULTRA =        F    use ultrasoft PP ?                                      
   IUNSCR =        1    unscreen: 0-lin 1-nonlin 2-no                           
   RPACOR =    2.330    partial core radius                                     
   POMASS =  196.966; ZVAL   =   11.000    mass and valenz                      
   RCORE  =    2.500    outmost cutoff radius                                   
   RWIGS  =    2.840; RWIGS  =    1.503    wigner-seitz radius (au A)           
   ENMAX  =  229.943; ENMIN  =  172.457 eV                                      
   ICORE  =        3    local potential                                         
   LCOR   =        T    correct aug charges                                     
   LPAW   =        T    paw PP                                                  
   EAUG   =  356.670                                                            
   DEXC   =    0.000                                                            
   RMAX   =    2.562    core radius for proj-oper                               
   RAUG   =    1.300    factor for augmentation sphere                          
   RDEP   =    2.598    radius for radial grids                                 
   RDEPT  =    2.193    core radius for aug-charge                              
                                                                                
   Atomic configuration                                                         
   16 entries                                                                   
     n  l   j            E        occ.                                          
     1  0  0.50    -80748.5001   2.0000                                         
     2  0  0.50    -14244.7466   2.0000                                         
     2  1  1.50    -12310.9591   6.0000                                         
     3  0  0.50     -3362.1768   2.0000                                         
     3  1  1.50     -2801.5463   6.0000                                         
     3  2  2.50     -2203.8206  10.0000                                         
     4  0  0.50      -729.8168   2.0000                                         
     4  1  1.50      -546.0527   6.0000                                         
     4  2  2.50      -325.7302  10.0000                                         
     4  3  3.50       -81.1472  14.0000                                         
     5  0  0.50      -108.3201   2.0000                                         
     5  1  1.50       -59.7479   6.0000                                         
     5  2  2.50        -6.8783  10.0000                                         
     6  0  0.50        -5.7602   1.0000                                         
     6  1  1.50        -6.8029   0.0000                                         
     5  3  2.50        -1.3606   0.0000                                         
   Description                                                                  
     l       E           TYP  RCUT    TYP  RCUT                                 
     2     -6.8782861     23  2.500                                             
     2     -8.2388687     23  2.500                                             
     0     -5.7601759     23  2.500                                             
     0     -0.8493231     23  2.500                                             
     1     -2.7211652     23  2.500                                             
     1     27.2116520     23  2.500                                             
     3     -1.3605826     23  2.500                                             
  local pseudopotential read in
  partial core-charges read in
  partial kinetic energy density read in
  atomic valenz-charges read in
  non local Contribution for L=           2  read in
    real space projection operators read in
  non local Contribution for L=           2  read in
    real space projection operators read in
  non local Contribution for L=           0  read in
    real space projection operators read in
  non local Contribution for L=           0  read in
    real space projection operators read in
  non local Contribution for L=           1  read in
    real space projection operators read in
  non local Contribution for L=           1  read in
    real space projection operators read in
    PAW grid and wavefunctions read in
 
   number of l-projection  operators is LMAX  =           6
   number of lm-projection operators is LMMAX =          18
 
  PAW_PBE Au 04Oct2007                  :
 energy of atom  1       EATOM= -926.0867
 kinetic energy error for atom=    0.0062 (will be added to EATOM!!)
 
 
 POSCAR: Au                                      
  positions in cartesian coordinates
  No initial velocities read in
 exchange correlation table for  LEXCH =        8
   RHO(1)=    0.500       N(1)  =     2000
   RHO(2)=  100.500       N(2)  =     4000
 


--------------------------------------------------------------------------------------------------------


 ion  position               nearest neighbor table
   1  0.000  0.000  0.000-   2 2.69   3 2.69   4 2.69   2 2.69   3 2.69   2 2.69   4 2.69   2 2.69
                             3 2.69   4 2.69   3 2.69   4 2.69
   2  0.000  0.500  0.500-   1 2.69   3 2.69   4 2.69   1 2.69   4 2.69   1 2.69   3 2.69   1 2.69
                             3 2.69   4 2.69   4 2.69   3 2.69
   3  0.500  0.000  0.500-   1 2.69   2 2.69   4 2.69   1 2.69   4 2.69   2 2.69   4 2.69   4 2.69
                             1 2.69   2 2.69   1 2.69   2 2.69
   4  0.500  0.500  0.000-   1 2.69   2 2.69   3 2.69   2 2.69   3 2.69   1 2.69   3 2.69   3 2.69
                             1 2.69   2 2.69   2 2.69   1 2.69
 
  LATTYP: Found a simple cubic cell.
 ALAT       =     3.8080000000
  
  Lattice vectors:
  
 A1 = (   3.8080000000,   0.0000000000,   0.0000000000)
 A2 = (   0.0000000000,   3.8080000000,   0.0000000000)
 A3 = (   0.0000000000,   0.0000000000,   3.8080000000)


Analysis of symmetry for initial positions (statically):
=====================================================================
 Subroutine PRICEL returns following result:
 
  LATTYP: Found a face centered cubic cell.
 ALAT       =     3.8080000000
  
  Lattice vectors:
  
 A1 = (   1.9040000000,   1.9040000000,  -0.0000000000)
 A2 = (   1.9040000000,   0.0000000000,  -1.9040000000)
 A3 = (   0.0000000000,   1.9040000000,  -1.9040000000)
 
   4 primitive cells build up your supercell.
 

 Routine SETGRP: Setting up the symmetry group for a 
 simple cubic supercell.


 Subroutine GETGRP returns: Found 48 space group operations
 (whereof 48 operations were pure point group operations)
 out of a pool of 48 trial point group operations.


The static configuration has the point symmetry O_h .


Analysis of symmetry for dynamics (positions and initial velocities):
=====================================================================
 Subroutine PRICEL returns following result:
 
  LATTYP: Found a face centered cubic cell.
 ALAT       =     3.8080000000
  
  Lattice vectors:
  
 A1 = (   1.9040000000,   1.9040000000,  -0.0000000000)
 A2 = (   1.9040000000,   0.0000000000,  -1.9040000000)
 A3 = (   0.0000000000,   1.9040000000,  -1.9040000000)
 
   4 primitive cells build up your supercell.
 

 Routine SETGRP: Setting up the symmetry group for a 
 simple cubic supercell.


 Subroutine GETGRP returns: Found 48 space group operations
 (whereof 48 operations were pure point group operations)
 out of a pool of 48 trial point group operations.


The dynamic configuration has the point symmetry O_h .


 Subroutine INISYM returns: Found 48 space group operations
 (whereof 48 operations are pure point group operations),
 and found     4 'primitive' translations

 
 
 KPOINTS: KPOINTS created by Atomic Simulation Env

Automatic generation of k-mesh.
Space group operators:
 irot       det(A)        alpha          n_x          n_y          n_z        tau_x        tau_y        tau_z
    1     1.000000     0.000000     1.000000     0.000000     0.000000     0.000000     0.000000     0.000000
    2    -1.000000     0.000000     1.000000     0.000000     0.000000     0.000000     0.000000     0.000000
    3     1.000000   120.000000    -0.577350    -0.577350    -0.577350     0.000000     0.000000     0.000000
    4    -1.000000   120.000000    -0.577350    -0.577350    -0.577350     0.000000     0.000000     0.000000
    5     1.000000   120.000000     0.577350     0.577350     0.577350     0.000000     0.000000     0.000000
    6    -1.000000   120.000000     0.577350     0.577350     0.577350     0.000000     0.000000     0.000000
    7     1.000000    90.000000     0.000000     0.000000    -1.000000     0.000000     0.000000     0.000000
    8    -1.000000    90.000000     0.000000     0.000000    -1.000000     0.000000     0.000000     0.000000
    9     1.000000   180.000000     0.000000     0.707107     0.707107     0.000000     0.000000     0.000000
   10    -1.000000   180.000000     0.000000     0.707107     0.707107     0.000000     0.000000     0.000000
   11     1.000000    90.000000     0.000000     1.000000     0.000000     0.000000     0.000000     0.000000
   12    -1.000000    90.000000     0.000000     1.000000     0.000000     0.000000     0.000000     0.000000
   13     1.000000   180.000000     0.000000     0.000000     1.000000     0.000000     0.000000     0.000000
   14    -1.000000   180.000000     0.000000     0.000000     1.000000     0.000000     0.000000     0.000000
   15     1.000000   120.000000    -0.577350     0.577350     0.577350     0.000000     0.000000     0.000000
   16    -1.000000   120.000000    -0.577350     0.577350     0.577350     0.000000     0.000000     0.000000
   17     1.000000   120.000000    -0.577350     0.577350    -0.577350     0.000000     0.000000     0.000000
   18    -1.000000   120.000000    -0.577350     0.577350    -0.577350     0.000000     0.000000     0.000000
   19     1.000000    90.000000     0.000000     0.000000     1.000000     0.000000     0.000000     0.000000
   20    -1.000000    90.000000     0.000000     0.000000     1.000000     0.000000     0.000000     0.000000
   21     1.000000    90.000000    -1.000000     0.000000     0.000000     0.000000     0.000000     0.000000
   22    -1.000000    90.000000    -1.000000     0.000000     0.000000     0.000000     0.000000     0.000000
   23     1.000000   180.000000     0.707107     0.000000     0.707107     0.000000     0.000000     0.000000
   24    -1.000000   180.000000     0.707107     0.000000     0.707107     0.000000     0.000000     0.000000
   25     1.000000   120.000000     0.577350    -0.577350     0.577350     0.000000     0.000000     0.000000
   26    -1.000000   120.000000     0.577350    -0.577350     0.577350     0.000000     0.000000     0.000000
   27     1.000000   120.000000    -0.577350    -0.577350     0.577350     0.000000     0.000000     0.000000
   28    -1.000000   120.000000    -0.577350    -0.577350     0.577350     0.000000     0.000000     0.000000
   29     1.000000   180.000000     1.000000     0.000000     0.000000     0.000000     0.000000     0.000000
   30    -1.000000   180.000000     1.000000     0.000000     0.000000     0.000000     0.000000     0.000000
   31     1.000000    90.000000     0.000000    -1.000000     0.000000     0.000000     0.000000     0.000000
   32    -1.000000    90.000000     0.000000    -1.000000     0.000000     0.000000     0.000000     0.000000
   33     1.000000   180.000000     0.707107     0.707107     0.000000     0.000000     0.000000     0.000000
   34    -1.000000   180.000000     0.707107     0.707107     0.000000     0.000000     0.000000     0.000000
   35     1.000000    90.000000     1.000000     0.000000     0.000000     0.000000     0.000000     0.000000
   36    -1.000000    90.000000     1.000000     0.000000     0.000000     0.000000     0.000000     0.000000
   37     1.000000   120.000000     0.577350    -0.577350    -0.577350     0.000000     0.000000     0.000000
   38    -1.000000   120.000000     0.577350    -0.577350    -0.577350     0.000000     0.000000     0.000000
   39     1.000000   180.000000     0.000000     1.000000     0.000000     0.000000     0.000000     0.000000
   40    -1.000000   180.000000     0.000000     1.000000     0.000000     0.000000     0.000000     0.000000
   41     1.000000   120.000000     0.577350     0.577350    -0.577350     0.000000     0.000000     0.000000
   42    -1.000000   120.000000     0.577350     0.577350    -0.577350     0.000000     0.000000     0.000000
   43     1.000000   180.000000     0.000000    -0.707107     0.707107     0.000000     0.000000     0.000000
   44    -1.000000   180.000000     0.000000    -0.707107     0.707107     0.000000     0.000000     0.000000
   45     1.000000   180.000000     0.707107    -0.707107     0.000000     0.000000     0.000000     0.000000
   46    -1.000000   180.000000     0.707107    -0.707107     0.000000     0.000000     0.000000     0.000000
   47     1.000000   180.000000     0.707107     0.000000    -0.707107     0.000000     0.000000     0.000000
   48    -1.000000   180.000000     0.707107     0.000000    -0.707107     0.000000     0.000000     0.000000
 
 Subroutine IBZKPT returns following result:
 ===========================================
 
 Found     35 irreducible k-points:
 
 Following reciprocal coordinates:
            Coordinates               Weight
  0.000000  0.000000  0.000000      1.000000
  0.111111  0.000000  0.000000      6.000000
  0.222222  0.000000  0.000000      6.000000
  0.333333  0.000000  0.000000      6.000000
  0.444444  0.000000  0.000000      6.000000
  0.111111  0.111111  0.000000     12.000000
  0.222222  0.111111  0.000000     24.000000
  0.333333  0.111111  0.000000     24.000000
  0.444444  0.111111  0.000000     24.000000
  0.222222  0.222222  0.000000     12.000000
  0.333333  0.222222  0.000000     24.000000
  0.444444  0.222222  0.000000     24.000000
  0.333333  0.333333  0.000000     12.000000
  0.444444  0.333333  0.000000     24.000000
  0.444444  0.444444  0.000000     12.000000
  0.111111  0.111111  0.111111      8.000000
  0.222222  0.111111  0.111111     24.000000
  0.333333  0.111111  0.111111     24.000000
  0.444444  0.111111  0.111111     24.000000
  0.222222  0.222222  0.111111     24.000000
  0.333333  0.222222  0.111111     48.000000
  0.444444  0.222222  0.111111     48.000000
  0.333333  0.333333  0.111111     24.000000
  0.444444  0.333333  0.111111     48.000000
  0.444444  0.444444  0.111111     24.000000
  0.222222  0.222222  0.222222      8.000000
  0.333333  0.222222  0.222222     24.000000
  0.444444  0.222222  0.222222     24.000000
  0.333333  0.333333  0.222222     24.000000
  0.444444  0.333333  0.222222     48.000000
  0.444444  0.444444  0.222222     24.000000
  0.333333  0.333333  0.333333      8.000000
  0.444444  0.333333  0.333333     24.000000
  0.444444  0.444444  0.333333     24.000000
  0.444444  0.444444  0.444444      8.000000
 
 Following cartesian coordinates:
            Coordinates               Weight
  0.000000  0.000000  0.000000      1.000000
  0.029178  0.000000  0.000000      6.000000
  0.058357  0.000000  0.000000      6.000000
  0.087535  0.000000  0.000000      6.000000
  0.116713  0.000000  0.000000      6.000000
  0.029178  0.029178  0.000000     12.000000
  0.058357  0.029178  0.000000     24.000000
  0.087535  0.029178  0.000000     24.000000
  0.116713  0.029178  0.000000     24.000000
  0.058357  0.058357  0.000000     12.000000
  0.087535  0.058357  0.000000     24.000000
  0.116713  0.058357  0.000000     24.000000
  0.087535  0.087535  0.000000     12.000000
  0.116713  0.087535  0.000000     24.000000
  0.116713  0.116713  0.000000     12.000000
  0.029178  0.029178  0.029178      8.000000
  0.058357  0.029178  0.029178     24.000000
  0.087535  0.029178  0.029178     24.000000
  0.116713  0.029178  0.029178     24.000000
  0.058357  0.058357  0.029178     24.000000
  0.087535  0.058357  0.029178     48.000000
  0.116713  0.058357  0.029178     48.000000
  0.087535  0.087535  0.029178     24.000000
  0.116713  0.087535  0.029178     48.000000
  0.116713  0.116713  0.029178     24.000000
  0.058357  0.058357  0.058357      8.000000
  0.087535  0.058357  0.058357     24.000000
  0.116713  0.058357  0.058357     24.000000
  0.087535  0.087535  0.058357     24.000000
  0.116713  0.087535  0.058357     48.000000
  0.116713  0.116713  0.058357     24.000000
  0.087535  0.087535  0.087535      8.000000
  0.116713  0.087535  0.087535     24.000000
  0.116713  0.116713  0.087535     24.000000
  0.116713  0.116713  0.116713      8.000000
 


--------------------------------------------------------------------------------------------------------




 Dimension of arrays:
   k-points           NKPTS =     35   k-points in BZ     NKDIM =     35   number of bands    NBANDS=     48
   number of dos      NEDOS =    301   number of ions     NIONS =      4
   non local maximal  LDIM  =      6   non local SUM 2l+1 LMDIM =     18
   total plane-waves  NPLWV =   8000
   max r-space proj   IRMAX =      1   max aug-charges    IRDMAX=   9058
   dimension x,y,z NGX =    20 NGY =   20 NGZ =   20
   dimension x,y,z NGXF=    40 NGYF=   40 NGZF=   40
   support grid    NGXF=    40 NGYF=   40 NGZF=   40
   ions per type =               4
 NGX,Y,Z   is equivalent  to a cutoff of   8.73,  8.73,  8.73 a.u.
 NGXF,Y,Z  is equivalent  to a cutoff of  17.46, 17.46, 17.46 a.u.


 I would recommend the setting:
   dimension x,y,z NGX =    19 NGY =   19 NGZ =   19
 SYSTEM =  unknown system                          
 POSCAR =  Au                                      

 Startparameter for this run:
   NWRITE =      2    write-flag & timer
   PREC   = normal    normal or accurate (medium, high low for compatibility)
   ISTART =      0    job   : 0-new  1-cont  2-samecut
   ICHARG =      2    charge: 1-file 2-atom 10-const
   ISPIN  =      1    spin polarized calculation?
   LNONCOLLINEAR =      F non collinear calculations
   LSORBIT =      F    spin-orbit coupling
   INIWAV =      1    electr: 0-lowe 1-rand  2-diag
   LASPH  =      F    aspherical Exc in radial PAW
   METAGGA=      F    non-selfconsistent MetaGGA calc.

 Electronic Relaxation 1
   ENCUT  =  400.0 eV  29.40 Ry    5.42 a.u.   6.21  6.21  6.21*2*pi/ulx,y,z
   ENINI  =  400.0     initial cutoff
   ENAUG  =  356.7 eV  augmentation charge cutoff
   NELM   =     60;   NELMIN=  2; NELMDL= -5     # of ELM steps 
   EDIFF  = 0.1E-03   stopping-criterion for ELM
   LREAL  =      F    real-space projection
   NLSPLINE    = F    spline interpolate recip. space projectors
   LCOMPAT=      F    compatible to vasp.4.4
   GGA_COMPAT  = T    GGA compatible to vasp.4.4-vasp.4.6
   LMAXPAW     = -100 max onsite density
   LMAXMIX     =    2 max onsite mixed and CHGCAR
   VOSKOWN=      0    Vosko Wilk Nusair interpolation
   ROPT   =    0.00000
 Ionic relaxation
   EDIFFG = 0.1E-02   stopping-criterion for IOM
   NSW    =      0    number of steps for IOM
   NBLOCK =      1;   KBLOCK =      1    inner block; outer block 
   IBRION =     -1    ionic relax: 0-MD 1-quasi-New 2-CG
   NFREE  =      0    steps in history (QN), initial steepest desc. (CG)
   ISIF   =      2    stress and relaxation
   IWAVPR =     10    prediction:  0-non 1-charg 2-wave 3-comb
   ISYM   =      2    0-nonsym 1-usesym 2-fastsym
   LCORR  =      T    Harris-Foulkes like correction to forces

   POTIM  = 0.5000    time-step for ionic-motion
   TEIN   =    0.0    initial temperature
   TEBEG  =    0.0;   TEEND  =   0.0 temperature during run
   SMASS  =  -3.00    Nose mass-parameter (am)
   estimated Nose-frequenzy (Omega)   =  0.10E-29 period in steps =****** mass=  -0.331E-27a.u.
   SCALEE = 1.0000    scale energy and forces
   NPACO  =    256;   APACO  = 16.0  distance and # of slots for P.C.
   PSTRESS=    0.0 pullay stress

  Mass of Ions in am
   POMASS = 196.97
  Ionic Valenz
   ZVAL   =  11.00
  Atomic Wigner-Seitz radii
   RWIGS  =  -1.00
  virtual crystal weights 
   VCA    =   1.00
   NELECT =      44.0000    total number of electrons
   NUPDOWN=      -1.0000    fix difference up-down

 DOS related values:
   EMIN   =  10.00;   EMAX   =-10.00  energy-range for DOS
   EFERMI =   0.00
   ISMEAR =     1;   SIGMA  =   0.10  broadening in eV -4-tet -1-fermi 0-gaus

 Electronic relaxation 2 (details)
   IALGO  =     38    algorithm
   LDIAG  =      T    sub-space diagonalisation (order eigenvalues)
   LSUBROT=      F    optimize rotation matrix (better conditioning)
   TURBO    =      0    0=normal 1=particle mesh
   IRESTART =      0    0=no restart 2=restart with 2 vectors
   NREBOOT  =      0    no. of reboots
   NMIN     =      0    reboot dimension
   EREF     =   0.00    reference energy to select bands
   IMIX   =      4    mixing-type and parameters
     AMIX     =   0.40;   BMIX     =  1.00
     AMIX_MAG =   1.60;   BMIX_MAG =  1.00
     AMIN     =   0.10
     WC   =   100.;   INIMIX=   1;  MIXPRE=   1;  MAXMIX= -45

 Intra band minimization:
   WEIMIN = 0.0000     energy-eigenvalue tresh-hold
   EBREAK =  0.52E-06  absolut break condition
   DEPER  =   0.30     relativ break condition  

   TIME   =   0.40     timestep for ELM

  volume/ion in A,a.u.               =      13.80        93.16
  Fermi-wavevector in a.u.,A,eV,Ry     =   1.517733  2.868100 31.341214  2.303514
  Thomas-Fermi vector in A             =   2.626949
 
 Write flags
   LWAVE  =      F    write WAVECAR
   LCHARG =      F    write CHGCAR
   LVTOT  =      F    write LOCPOT, total local potential
   LVHAR  =      F    write LOCPOT, Hartree potential only
   LELF   =      F    write electronic localiz. function (ELF)
   LORBIT =      0    0 simple, 1 ext, 2 COOP (PROOUT)


 Dipole corrections
   LMONO  =      F    monopole corrections only (constant potential shift)
   LDIPOL =      F    correct potential (dipole corrections)
   IDIPOL =      0    1-x, 2-y, 3-z, 4-all directions 
   EPSILON=  1.0000000 bulk dielectric constant

 Exchange correlation treatment:
   GGA     =    --    GGA type
   LEXCH   =     8    internal setting for exchange type
   VOSKOWN=      0    Vosko Wilk Nusair interpolation
   LHFCALC =     F    Hartree Fock is set to
   LHFONE  =     F    Hartree Fock one center treatment
   AEXX    =    0.0000 exact exchange contribution

 Linear response parameters
   LEPSILON=     F    determine dielectric tensor
   LRPA    =     F    only Hartree local field effects (RPA)
   LNABLA  =     F    use nabla operator in PAW spheres
   LVEL    =     F    velocity operator in full k-point grid
   LINTERFAST=   F  fast interpolation
   KINTER  =     0    interpolate to denser k-point grid
   CSHIFT  =0.1000    complex shift for real part using Kramers Kronig
   OMEGAMAX=  -1.0    maximum frequency
   DEG_THRESHOLD= 0.2000000E-02 threshold for treating states as degnerate
   RTIME   =    0.100 relaxation time in fs

 Orbital magnetization related:
   ORBITALMAG=     F  switch on orbital magnetization
   LCHIMAG   =     F  perturbation theory with respect to B field
   DQ        =  0.001000  dq finite difference perturbation B field



--------------------------------------------------------------------------------------------------------


 Static calculation
 charge density and potential will be updated during run
 non-spin polarized calculation
 Variant of blocked Davidson
 Davidson routine will perform the subspace rotation
 perform sub-space diagonalisation
    after iterative eigenvector-optimisation
 modified Broyden-mixing scheme, WC =      100.0
 initial mixing is a Kerker type mixing with AMIX =  0.4000 and BMIX =      1.0000
 Hartree-type preconditioning will be used
 using additional bands           26
 reciprocal scheme for non local part
 use partial core corrections
 calculate Harris-corrections to forces 
   (improved forces if not selfconsistent)
 use gradient corrections 
 use of overlap-Matrix (Vanderbilt PP)
 Methfessel and Paxton  Order N= 1 SIGMA  =   0.10


--------------------------------------------------------------------------------------------------------


  energy-cutoff  :      400.00
  volume of cell :       55.22
      direct lattice vectors                 reciprocal lattice vectors
     3.808000000  0.000000000  0.000000000     0.262605042  0.000000000  0.000000000
     0.000000000  3.808000000  0.000000000     0.000000000  0.262605042  0.000000000
     0.000000000  0.000000000  3.808000000     0.000000000  0.000000000  0.262605042

  length of vectors
     3.808000000  3.808000000  3.808000000     0.262605042  0.262605042  0.262605042


 
 k-points in units of 2pi/SCALE and weight: KPOINTS created by Atomic Simulation Env
   0.00000000  0.00000000  0.00000000       0.001
   0.02917834  0.00000000  0.00000000       0.008
   0.05835668  0.00000000  0.00000000       0.008
   0.08753501  0.00000000  0.00000000       0.008
   0.11671335  0.00000000  0.00000000       0.008
   0.02917834  0.02917834  0.00000000       0.016
   0.05835668  0.02917834  0.00000000       0.033
   0.08753501  0.02917834  0.00000000       0.033
   0.11671335  0.02917834  0.00000000       0.033
   0.05835668  0.05835668  0.00000000       0.016
   0.08753501  0.05835668  0.00000000       0.033
   0.11671335  0.05835668  0.00000000       0.033
   0.08753501  0.08753501  0.00000000       0.016
   0.11671335  0.08753501  0.00000000       0.033
   0.11671335  0.11671335  0.00000000       0.016
   0.02917834  0.02917834  0.02917834       0.011
   0.05835668  0.02917834  0.02917834       0.033
   0.08753501  0.02917834  0.02917834       0.033
   0.11671335  0.02917834  0.02917834       0.033
   0.05835668  0.05835668  0.02917834       0.033
   0.08753501  0.05835668  0.02917834       0.066
   0.11671335  0.05835668  0.02917834       0.066
   0.08753501  0.08753501  0.02917834       0.033
   0.11671335  0.08753501  0.02917834       0.066
   0.11671335  0.11671335  0.02917834       0.033
   0.05835668  0.05835668  0.05835668       0.011
   0.08753501  0.05835668  0.05835668       0.033
   0.11671335  0.05835668  0.05835668       0.033
   0.08753501  0.08753501  0.05835668       0.033
   0.11671335  0.08753501  0.05835668       0.066
   0.11671335  0.11671335  0.05835668       0.033
   0.08753501  0.08753501  0.08753501       0.011
   0.11671335  0.08753501  0.08753501       0.033
   0.11671335  0.11671335  0.08753501       0.033
   0.11671335  0.11671335  0.11671335       0.011
 
 k-points in reciprocal lattice and weights: KPOINTS created by Atomic Simulation Env
   0.00000000  0.00000000  0.00000000       0.001
   0.11111111  0.00000000  0.00000000       0.008
   0.22222222  0.00000000  0.00000000       0.008
   0.33333333  0.00000000  0.00000000       0.008
   0.44444444  0.00000000  0.00000000       0.008
   0.11111111  0.11111111  0.00000000       0.016
   0.22222222  0.11111111  0.00000000       0.033
   0.33333333  0.11111111  0.00000000       0.033
   0.44444444  0.11111111  0.00000000       0.033
   0.22222222  0.22222222  0.00000000       0.016
   0.33333333  0.22222222  0.00000000       0.033
   0.44444444  0.22222222  0.00000000       0.033
   0.33333333  0.33333333  0.00000000       0.016
   0.44444444  0.33333333  0.00000000       0.033
   0.44444444  0.44444444  0.00000000       0.016
   0.11111111  0.11111111  0.11111111       0.011
   0.22222222  0.11111111  0.11111111       0.033
   0.33333333  0.11111111  0.11111111       0.033
   0.44444444  0.11111111  0.11111111       0.033
   0.22222222  0.22222222  0.11111111       0.033
   0.33333333  0.22222222  0.11111111       0.066
   0.44444444  0.22222222  0.11111111       0.066
   0.33333333  0.33333333  0.11111111       0.033
   0.44444444  0.33333333  0.11111111       0.066
   0.44444444  0.44444444  0.11111111       0.033
   0.22222222  0.22222222  0.22222222       0.011
   0.33333333  0.22222222  0.22222222       0.033
   0.44444444  0.22222222  0.22222222       0.033
   0.33333333  0.33333333  0.22222222       0.033
   0.44444444  0.33333333  0.22222222       0.066
   0.44444444  0.44444444  0.22222222       0.033
   0.33333333  0.33333333  0.33333333       0.011
   0.44444444  0.33333333  0.33333333       0.033
   0.44444444  0.44444444  0.33333333       0.033
   0.44444444  0.44444444  0.44444444       0.011
 
 position of ions in fractional coordinates (direct lattice) 
   0.00000000  0.00000000  0.00000000
   0.00000000  0.50000000  0.50000000
   0.50000000  0.00000000  0.50000000
   0.50000000  0.50000000  0.00000000
 
 position of ions in cartesian coordinates  (Angst):
   0.00000000  0.00000000  0.00000000
   0.00000000  1.90400000  1.90400000
   1.90400000  0.00000000  1.90400000
   1.90400000  1.90400000  0.00000000
 


--------------------------------------------------------------------------------------------------------


 k-point  1 :   0.0000 0.0000 0.0000  plane waves:    1021
 k-point  2 :   0.1111 0.0000 0.0000  plane waves:    1001
 k-point  3 :   0.2222 0.0000 0.0000  plane waves:    1000
 k-point  4 :   0.3333 0.0000 0.0000  plane waves:    1000
 k-point  5 :   0.4444 0.0000 0.0000  plane waves:    1004
 k-point  6 :   0.1111 0.1111 0.0000  plane waves:     997
 k-point  7 :   0.2222 0.1111 0.0000  plane waves:     998
 k-point  8 :   0.3333 0.1111 0.0000  plane waves:    1004
 k-point  9 :   0.4444 0.1111 0.0000  plane waves:    1004
 k-point 10 :   0.2222 0.2222 0.0000  plane waves:     999
 k-point 11 :   0.3333 0.2222 0.0000  plane waves:    1007
 k-point 12 :   0.4444 0.2222 0.0000  plane waves:     996
 k-point 13 :   0.3333 0.3333 0.0000  plane waves:    1009
 k-point 14 :   0.4444 0.3333 0.0000  plane waves:    1010
 k-point 15 :   0.4444 0.4444 0.0000  plane waves:    1008
 k-point 16 :   0.1111 0.1111 0.1111  plane waves:     991
 k-point 17 :   0.2222 0.1111 0.1111  plane waves:     996
 k-point 18 :   0.3333 0.1111 0.1111  plane waves:    1001
 k-point 19 :   0.4444 0.1111 0.1111  plane waves:    1007
 k-point 20 :   0.2222 0.2222 0.1111  plane waves:    1008
 k-point 21 :   0.3333 0.2222 0.1111  plane waves:    1005
 k-point 22 :   0.4444 0.2222 0.1111  plane waves:    1002
 k-point 23 :   0.3333 0.3333 0.1111  plane waves:    1001
 k-point 24 :   0.4444 0.3333 0.1111  plane waves:    1005
 k-point 25 :   0.4444 0.4444 0.1111  plane waves:    1007
 k-point 26 :   0.2222 0.2222 0.2222  plane waves:    1003
 k-point 27 :   0.3333 0.2222 0.2222  plane waves:    1001
 k-point 28 :   0.4444 0.2222 0.2222  plane waves:     994
 k-point 29 :   0.3333 0.3333 0.2222  plane waves:     999
 k-point 30 :   0.4444 0.3333 0.2222  plane waves:     995
 k-point 31 :   0.4444 0.4444 0.2222  plane waves:    1003
 k-point 32 :   0.3333 0.3333 0.3333  plane waves:    1009
 k-point 33 :   0.4444 0.3333 0.3333  plane waves:    1004
 k-point 34 :   0.4444 0.4444 0.3333  plane waves:    1005
 k-point 35 :   0.4444 0.4444 0.4444  plane waves:    1004

 maximum and minimum number of plane-waves per node :      1021      991

 maximum number of plane-waves:      1021
 maximum index in each direction: 
   IXMAX=    6   IYMAX=    6   IZMAX=    6
   IXMIN=   -6   IYMIN=   -6   IZMIN=   -6

 WARNING: aliasing errors must be expected set NGX to  26 to avoid them
 WARNING: aliasing errors must be expected set NGY to  26 to avoid them
 WARNING: aliasing errors must be expected set NGZ to  26 to avoid them
 aliasing errors are usually negligible using standard VASP settings
 and one can safely disregard these warnings

 serial   3D FFT for wavefunctions
 parallel 3D FFT for charge:
    minimum data exchange during FFTs selected (reduces bandwidth)


 total amount of memory used by VASP on root node    37197. kBytes
========================================================================

   base      :      30000. kBytes
   nonl-proj :       5267. kBytes
   fftplans  :        147. kBytes
   grid      :        485. kBytes
   one-center:         62. kBytes
   wavefun   :       1236. kBytes
 
     INWAV:  cpu time    0.0000: real time    0.0001
 Broyden mixing: mesh for mixing (old mesh)
   NGX = 13   NGY = 13   NGZ = 13
  (NGX  = 40   NGY  = 40   NGZ  = 40)
  gives a total of   2197 points

 initial charge density was supplied:
 charge density of overlapping atoms calculated
 number of electron      44.0000000 magnetization 
 keeping initial charge density in first step


--------------------------------------------------------------------------------------------------------


 Maximum index for augmentation-charges          505 (set IRDMAX)


--------------------------------------------------------------------------------------------------------


 First call to EWALD:  gamma=   0.465
 Maximum number of real-space cells 3x 3x 3
 Maximum number of reciprocal cells 3x 3x 3

 FEWALD executed in parallel
    FEWALD:  cpu time    0.0015: real time    0.0015


----------------------------------------- Iteration    1(   1)  ---------------------------------------


    POTLOK:  cpu time    0.0661: real time    0.0661
    SETDIJ:  cpu time    0.0027: real time    0.0028
     EDDAV:  cpu time    0.4825: real time    0.4826
       DOS:  cpu time    0.0015: real time    0.0015
    --------------------------------------------
      LOOP:  cpu time    0.5546: real time    0.5691

 eigenvalue-minimisations  :  3360
 total energy-change (2. order) : 0.1952292E+03  (-0.1890806E+04)
 number of electron      44.0000000 magnetization 
 augmentation part       44.0000000 magnetization 

 Free energy of the ion-electron system (eV)
  ---------------------------------------------------
  alpha Z        PSCENC =       337.50409978
  Ewald energy   TEWEN  =     -4195.66475295
  -Hartree energ DENC   =      -392.46063143
  -exchange      EXHF   =         0.00000000
  -V(xc)+E(xc)   XCENC  =        66.15870399
  PAW double counting   =      3496.39001341    -3404.04053930
  entropy T*S    EENTRO =        -0.00215573
  eigenvalues    EBANDS =       583.02237274
  atomic energy  EATOM  =      3704.32207507
  Solvation  Ediel_sol  =         0.00000000
  ---------------------------------------------------
  free energy    TOTEN  =       195.22918559 eV

  energy without entropy =      195.23134132  energy(sigma->0) =      195.22990417


--------------------------------------------------------------------------------------------------------




----------------------------------------- Iteration    1(   2)  ---------------------------------------


     EDDAV:  cpu time    0.7322: real time    0.7323
       DOS:  cpu time    0.0007: real time    0.0007
    --------------------------------------------
      LOOP:  cpu time    0.7342: real time    0.7357

 eigenvalue-minimisations  :  4680
 total energy-change (2. order) :-0.2034369E+03  (-0.1935202E+03)
 number of electron      44.0000000 magnetization 
 augmentation part       44.0000000 magnetization 

 Free energy of the ion-electron system (eV)
  ---------------------------------------------------
  alpha Z        PSCENC =       337.50409978
  Ewald energy   TEWEN  =     -4195.66475295
  -Hartree energ DENC   =      -392.46063143
  -exchange      EXHF   =         0.00000000
  -V(xc)+E(xc)   XCENC  =        66.15870399
  PAW double counting   =      3496.39001341    -3404.04053930
  entropy T*S    EENTRO =        -0.00008340
  eigenvalues    EBANDS =       379.58338652
  atomic energy  EATOM  =      3704.32207507
  Solvation  Ediel_sol  =         0.00000000
  ---------------------------------------------------
  free energy    TOTEN  =        -8.20772830 eV

  energy without entropy =       -8.20764489  energy(sigma->0) =       -8.20770050


--------------------------------------------------------------------------------------------------------




----------------------------------------- Iteration    1(   3)  ---------------------------------------


     EDDAV:  cpu time    0.6238: real time    0.6245
       DOS:  cpu time    0.0009: real time    0.0009
    --------------------------------------------
      LOOP:  cpu time    0.6256: real time    0.6328

 eigenvalue-minimisations  :  4224
 total energy-change (2. order) :-0.2622967E+01  (-0.2620973E+01)
 number of electron      44.0000000 magnetization 
 augmentation part       44.0000000 magnetization 

 Free energy of the ion-electron system (eV)
  ---------------------------------------------------
  alpha Z        PSCENC =       337.50409978
  Ewald energy   TEWEN  =     -4195.66475295
  -Hartree energ DENC   =      -392.46063143
  -exchange      EXHF   =         0.00000000
  -V(xc)+E(xc)   XCENC  =        66.15870399
  PAW double counting   =      3496.39001341    -3404.04053930
  entropy T*S    EENTRO =        -0.00039663
  eigenvalues    EBANDS =       376.96073300
  atomic energy  EATOM  =      3704.32207507
  Solvation  Ediel_sol  =         0.00000000
  ---------------------------------------------------
  free energy    TOTEN  =       -10.83069505 eV

  energy without entropy =      -10.83029842  energy(sigma->0) =      -10.83056284


--------------------------------------------------------------------------------------------------------




----------------------------------------- Iteration    1(   4)  ---------------------------------------


     EDDAV:  cpu time    0.7648: real time    0.7655
       DOS:  cpu time    0.0010: real time    0.0010
    --------------------------------------------
      LOOP:  cpu time    0.7667: real time    0.7691

 eigenvalue-minimisations  :  4848
 total energy-change (2. order) :-0.9425466E-02  (-0.9425327E-02)
 number of electron      44.0000000 magnetization 
 augmentation part       44.0000000 magnetization 

 Free energy of the ion-electron system (eV)
  ---------------------------------------------------
  alpha Z        PSCENC =       337.50409978
  Ewald energy   TEWEN  =     -4195.66475295
  -Hartree energ DENC   =      -392.46063143
  -exchange      EXHF   =         0.00000000
  -V(xc)+E(xc)   XCENC  =        66.15870399
  PAW double counting   =      3496.39001341    -3404.04053930
  entropy T*S    EENTRO =        -0.00039898
  eigenvalues    EBANDS =       376.95130987
  atomic energy  EATOM  =      3704.32207507
  Solvation  Ediel_sol  =         0.00000000
  ---------------------------------------------------
  free energy    TOTEN  =       -10.84012052 eV

  energy without entropy =      -10.83972155  energy(sigma->0) =      -10.83998753


--------------------------------------------------------------------------------------------------------




----------------------------------------- Iteration    1(   5)  ---------------------------------------


     EDDAV:  cpu time    0.6002: real time    0.6007
       DOS:  cpu time    0.0009: real time    0.0010
    CHARGE:  cpu time    0.0113: real time    0.0113
    MIXING:  cpu time    0.0005: real time    0.0005
    --------------------------------------------
      LOOP:  cpu time    0.6139: real time    0.6163

 eigenvalue-minimisations  :  4104
 total energy-change (2. order) :-0.6881376E-04  (-0.6881532E-04)
 number of electron      43.9999893 magnetization 
 augmentation part       15.4121732 magnetization 

 Broyden mixing:
  rms(total) = 0.36698E+01    rms(broyden)= 0.36698E+01
  rms(prec ) = 0.39301E+01
  weight for this iteration     100.00

 Free energy of the ion-electron system (eV)
  ---------------------------------------------------
  alpha Z        PSCENC =       337.50409978
  Ewald energy   TEWEN  =     -4195.66475295
  -Hartree energ DENC   =      -392.46063143
  -exchange      EXHF   =         0.00000000
  -V(xc)+E(xc)   XCENC  =        66.15870399
  PAW double counting   =      3496.39001341    -3404.04053930
  entropy T*S    EENTRO =        -0.00039899
  eigenvalues    EBANDS =       376.95124107
  atomic energy  EATOM  =      3704.32207507
  Solvation  Ediel_sol  =         0.00000000
  ---------------------------------------------------
  free energy    TOTEN  =       -10.84018934 eV

  energy without entropy =      -10.83979034  energy(sigma->0) =      -10.84005634


--------------------------------------------------------------------------------------------------------




----------------------------------------- Iteration    1(   6)  ---------------------------------------


    POTLOK:  cpu time    0.0045: real time    0.0045
    SETDIJ:  cpu time    0.0024: real time    0.0024
     EDDAV:  cpu time    0.6701: real time    0.6708
       DOS:  cpu time    0.0008: real time    0.0008
    CHARGE:  cpu time    0.0103: real time    0.0104
    MIXING:  cpu time    0.0004: real time    0.0004
    --------------------------------------------
      LOOP:  cpu time    0.6895: real time    0.6920

 eigenvalue-minimisations  :  4320
 total energy-change (2. order) : 0.8403799E+00  (-0.1012606E+00)
 number of electron      43.9999892 magnetization 
 augmentation part       15.7632203 magnetization 

 Broyden mixing:
  rms(total) = 0.21842E+01    rms(broyden)= 0.21842E+01
  rms(prec ) = 0.22405E+01
  weight for this iteration     100.00

 eigenvalues of (default mixing * dielectric matrix)
  average eigenvalue GAMMA=   2.4062
  2.4062

 Free energy of the ion-electron system (eV)
  ---------------------------------------------------
  alpha Z        PSCENC =       337.50409978
  Ewald energy   TEWEN  =     -4195.66475295
  -Hartree energ DENC   =      -366.53894296
  -exchange      EXHF   =         0.00000000
  -V(xc)+E(xc)   XCENC  =        65.03954639
  PAW double counting   =      4111.77848795    -4026.75964085
  entropy T*S    EENTRO =        -0.00151668
  eigenvalues    EBANDS =       360.32083481
  atomic energy  EATOM  =      3704.32207507
  Solvation  Ediel_sol  =         0.00000000
  ---------------------------------------------------
  free energy    TOTEN  =        -9.99980943 eV

  energy without entropy =       -9.99829275  energy(sigma->0) =       -9.99930387


--------------------------------------------------------------------------------------------------------




----------------------------------------- Iteration    1(   7)  ---------------------------------------


    POTLOK:  cpu time    0.0037: real time    0.0037
    SETDIJ:  cpu time    0.0020: real time    0.0020
     EDDAV:  cpu time    0.6740: real time    0.6747
       DOS:  cpu time    0.0008: real time    0.0008
    CHARGE:  cpu time    0.0102: real time    0.0103
    MIXING:  cpu time    0.0002: real time    0.0002
    --------------------------------------------
      LOOP:  cpu time    0.6921: real time    0.6943

 eigenvalue-minimisations  :  4392
 total energy-change (2. order) : 0.1441686E+00  (-0.4022092E-01)
 number of electron      43.9999890 magnetization 
 augmentation part       15.9815107 magnetization 

 Broyden mixing:
  rms(total) = 0.35539E+00    rms(broyden)= 0.35539E+00
  rms(prec ) = 0.38282E+00
  weight for this iteration     100.00

 eigenvalues of (default mixing * dielectric matrix)
  average eigenvalue GAMMA=   2.0052
  1.3914  2.6190

 Free energy of the ion-electron system (eV)
  ---------------------------------------------------
  alpha Z        PSCENC =       337.50409978
  Ewald energy   TEWEN  =     -4195.66475295
  -Hartree energ DENC   =      -347.26447165
  -exchange      EXHF   =         0.00000000
  -V(xc)+E(xc)   XCENC  =        64.21645479
  PAW double counting   =      4949.16830793    -4872.51860474
  entropy T*S    EENTRO =        -0.00138276
  eigenvalues    EBANDS =       350.38263370
  atomic energy  EATOM  =      3704.32207507
  Solvation  Ediel_sol  =         0.00000000
  ---------------------------------------------------
  free energy    TOTEN  =        -9.85564081 eV

  energy without entropy =       -9.85425805  energy(sigma->0) =       -9.85517989


--------------------------------------------------------------------------------------------------------




----------------------------------------- Iteration    1(   8)  ---------------------------------------


    POTLOK:  cpu time    0.0046: real time    0.0046
    SETDIJ:  cpu time    0.0021: real time    0.0021
     EDDAV:  cpu time    0.6273: real time    0.6278
       DOS:  cpu time    0.0008: real time    0.0008
    CHARGE:  cpu time    0.0098: real time    0.0098
    MIXING:  cpu time    0.0003: real time    0.0003
    --------------------------------------------
      LOOP:  cpu time    0.6460: real time    0.6482

 eigenvalue-minimisations  :  4152
 total energy-change (2. order) : 0.1907682E-01  (-0.5265461E-02)
 number of electron      43.9999891 magnetization 
 augmentation part       15.9143486 magnetization 

 Broyden mixing:
  rms(total) = 0.52185E-01    rms(broyden)= 0.52185E-01
  rms(prec ) = 0.52419E-01
  weight for this iteration     100.00

 eigenvalues of (default mixing * dielectric matrix)
  average eigenvalue GAMMA=   1.6810
  2.4413  1.1831  1.4186

 Free energy of the ion-electron system (eV)
  ---------------------------------------------------
  alpha Z        PSCENC =       337.50409978
  Ewald energy   TEWEN  =     -4195.66475295
  -Hartree energ DENC   =      -349.95624264
  -exchange      EXHF   =         0.00000000
  -V(xc)+E(xc)   XCENC  =        64.32547227
  PAW double counting   =      5067.86235977    -4992.28136948
  entropy T*S    EENTRO =        -0.00127495
  eigenvalues    EBANDS =       354.05306913
  atomic energy  EATOM  =      3704.32207507
  Solvation  Ediel_sol  =         0.00000000
  ---------------------------------------------------
  free energy    TOTEN  =        -9.83656399 eV

  energy without entropy =       -9.83528903  energy(sigma->0) =       -9.83613900


--------------------------------------------------------------------------------------------------------




----------------------------------------- Iteration    1(   9)  ---------------------------------------


    POTLOK:  cpu time    0.0049: real time    0.0049
    SETDIJ:  cpu time    0.0022: real time    0.0022
     EDDAV:  cpu time    0.7019: real time    0.7026
       DOS:  cpu time    0.0009: real time    0.0009
    --------------------------------------------
      LOOP:  cpu time    0.7109: real time    0.7131

 eigenvalue-minimisations  :  4512
 total energy-change (2. order) :-0.1030622E-04  (-0.1816852E-04)
 number of electron      43.9999891 magnetization 
 augmentation part       15.9143486 magnetization 

 Free energy of the ion-electron system (eV)
  ---------------------------------------------------
  alpha Z        PSCENC =       337.50409978
  Ewald energy   TEWEN  =     -4195.66475295
  -Hartree energ DENC   =      -350.15391795
  -exchange      EXHF   =         0.00000000
  -V(xc)+E(xc)   XCENC  =        64.33387915
  PAW double counting   =      5046.13424978    -4970.31283559
  entropy T*S    EENTRO =        -0.00127485
  eigenvalues    EBANDS =       354.00190326
  atomic energy  EATOM  =      3704.32207507
  Solvation  Ediel_sol  =         0.00000000
  ---------------------------------------------------
  free energy    TOTEN  =        -9.83657429 eV

  energy without entropy =       -9.83529944  energy(sigma->0) =       -9.83614934


--------------------------------------------------------------------------------------------------------




 average (electrostatic) potential at core
  the test charge radii are     1.2098
  (the norm of the test charge is              1.0000)
       1 -60.9943       2 -60.9943       3 -60.9943       4 -60.9943
 
 
 
 E-fermi :  13.6472     XC(G=0): -14.0113     alpha+bet :-17.2006


 k-point     1 :       0.0000    0.0000    0.0000
  band No.  band energies     occupation 
      1       1.1166      2.00000
      2       4.0784      2.00000
      3       4.0784      2.00000
      4       4.0784      2.00000
      5       4.5170      2.00000
      6       4.5170      2.00000
      7       4.5170      2.00000
      8       7.4193      2.00000
      9       7.4193      2.00000
     10       7.4193      2.00000
     11       9.6088      2.00000
     12       9.6088      2.00000
     13      11.2885      2.00000
     14      11.2885      2.00000
     15      11.2885      2.00000
     16      11.8142      2.00000
     17      11.8142      2.00000
     18      11.8142      2.00000
     19      11.8142      2.00000
     20      11.8142      2.00000
     21      11.8142      2.00000
     22      13.8507     -0.01425
     23      13.8507     -0.01425
     24      13.8507     -0.01425
     25      21.1921      0.00000
     26      21.1921      0.00000
     27      21.1921      0.00000
     28      24.0097      0.00000
     29      24.0097      0.00000
     30      24.0097      0.00000
     31      24.0097      0.00000
     32      24.0097      0.00000
     33      24.0097      0.00000
     34      27.4000      0.00000
     35      32.6395      0.00000
     36      32.6395      0.00000
     37      32.6395      0.00000
     38      33.1013      0.00000
     39      33.1013      0.00000
     40      33.1013      0.00000
     41      36.4919      0.00000
     42      36.4919      0.00000
     43      36.4919      0.00000
     44      38.2941      0.00000
     45      42.2196      0.00000
     46      42.2196      0.00000
     47      42.2196      0.00000
     48      45.8519      0.00000

 k-point     2 :       0.1111    0.0000    0.0000
  band No.  band energies     occupation 
      1       1.2927      2.00000
      2       4.1520      2.00000
      3       4.2050      2.00000
      4       4.2050      2.00000
      5       4.5875      2.00000
      6       4.6278      2.00000
      7       4.6278      2.00000
      8       7.3073      2.00000
      9       7.5089      2.00000
     10       7.5089      2.00000
     11       9.4851      2.00000
     12       9.6540      2.00000
     13      10.9427      2.00000
     14      10.9427      2.00000
     15      11.1054      2.00000
     16      11.1054      2.00000
     17      11.2313      2.00000
     18      11.5956      2.00000
     19      11.5956      2.00000
     20      11.8146      2.00000
     21      11.8146      2.00000
     22      12.9478      2.00000
     23      14.8188     -0.00000
     24      14.8188     -0.00000
     25      20.8639      0.00000
     26      20.8639      0.00000
     27      22.3512      0.00000
     28      23.8547      0.00000
     29      23.8547      0.00000
     30      24.1383      0.00000
     31      24.1383      0.00000
     32      24.4176      0.00000
     33      24.4176      0.00000
     34      27.6707      0.00000
     35      32.1143      0.00000
     36      32.6752      0.00000
     37      32.6752      0.00000
     38      32.8972      0.00000
     39      33.7239      0.00000
     40      33.7239      0.00000
     41      36.2107      0.00000
     42      36.4429      0.00000
     43      36.4429      0.00000
     44      39.3971      0.00000
     45      41.9920      0.00000
     46      41.9921      0.00000
     47      42.4809      0.00000
     48      44.0742      0.00000

 k-point     3 :       0.2222    0.0000    0.0000
  band No.  band energies     occupation 
      1       1.8066      2.00000
      2       4.3354      2.00000
      3       4.5605      2.00000
      4       4.5605      2.00000
      5       4.7950      2.00000
      6       4.9587      2.00000
      7       4.9587      2.00000
      8       6.9971      2.00000
      9       7.7754      2.00000
     10       7.7754      2.00000
     11       9.1458      2.00000
     12       9.6035      2.00000
     13       9.6035      2.00000
     14       9.7859      2.00000
     15      10.5971      2.00000
     16      10.5971      2.00000
     17      11.0262      2.00000
     18      11.0262      2.00000
     19      11.0696      2.00000
     20      11.1772      2.00000
     21      11.8157      2.00000
     22      11.8157      2.00000
     23      16.4377      0.00000
     24      16.4377      0.00000
     25      20.2361      0.00000
     26      20.2361      0.00000
     27      23.3651      0.00000
     28      23.3651      0.00000
     29      24.3095      0.00000
     30      24.3095      0.00000
     31      24.9023      0.00000
     32      25.5442      0.00000
     33      25.5442      0.00000
     34      28.4473      0.00000
     35      31.2473      0.00000
     36      32.4124      0.00000
     37      32.6576      0.00000
     38      32.6576      0.00000
     39      35.4005      0.00000
     40      35.4214      0.00000
     41      35.4214      0.00000
     42      36.4177      0.00000
     43      36.4177      0.00000
     44      41.1647      0.00000
     45      41.1647      0.00000
     46      41.7790      0.00000
     47      41.7790      0.00000
     48      41.9029      0.00000

 k-point     4 :       0.3333    0.0000    0.0000
  band No.  band energies     occupation 
      1       2.6036      2.00000
      2       4.4840      2.00000
      3       5.0548      2.00000
      4       5.0548      2.00000
      5       5.1260      2.00000
      6       5.5047      2.00000
      7       5.5047      2.00000
      8       6.5526      2.00000
      9       8.2106      2.00000
     10       8.2106      2.00000
     11       8.3310      2.00000
     12       8.3310      2.00000
     13       8.6946      2.00000
     14       9.5073      2.00000
     15       9.9154      2.00000
     16       9.9154      2.00000
     17       9.9927      2.00000
     18      10.2799      2.00000
     19      10.2799      2.00000
     20      10.8289      2.00000
     21      11.8168      2.00000
     22      11.8168      2.00000
     23      18.1418      0.00000
     24      18.1418      0.00000
     25      19.7214      0.00000
     26      19.7214      0.00000
     27      22.5038      0.00000
     28      22.5038      0.00000
     29      24.3795      0.00000
     30      24.3795      0.00000
     31      27.1757      0.00000
     32      27.1757      0.00000
     33      27.8771      0.00000
     34      29.6337      0.00000
     35      30.6452      0.00000
     36      31.9991      0.00000
     37      32.1847      0.00000
     38      32.1847      0.00000
     39      34.1641      0.00000
     40      36.6576      0.00000
     41      36.6576      0.00000
     42      37.7968      0.00000
     43      37.7968      0.00000
     44      39.6532      0.00000
     45      39.8160      0.00000
     46      39.8160      0.00000
     47      40.3269      0.00000
     48      40.3269      0.00000

 k-point     5 :       0.4444    0.0000    0.0000
  band No.  band energies     occupation 
      1       3.5403      2.00000
      2       4.2810      2.00000
      3       5.4684      2.00000
      4       5.4684      2.00000
      5       5.5565      2.00000
      6       6.0497      2.00000
      7       6.2577      2.00000
      8       6.2577      2.00000
      9       7.2057      2.00000
     10       7.2057      2.00000
     11       8.3422      2.00000
     12       8.4879      2.00000
     13       8.7975      2.00000
     14       8.7975      2.00000
     15       9.3730      2.00000
     16       9.3730      2.00000
     17       9.5055      2.00000
     18       9.5055      2.00000
     19      10.2548      2.00000
     20      10.5449      2.00000
     21      11.8176      2.00000
     22      11.8176      2.00000
     23      19.4565      0.00000
     24      19.4565      0.00000
     25      19.7950      0.00000
     26      19.7950      0.00000
     27      21.2863      0.00000
     28      21.2863      0.00000
     29      24.3897      0.00000
     30      24.3897      0.00000
     31      29.0672      0.00000
     32      29.0672      0.00000
     33      30.0303      0.00000
     34      30.3825      0.00000
     35      30.8967      0.00000
     36      30.8967      0.00000
     37      31.0936      0.00000
     38      32.6648      0.00000
     39      32.8393      0.00000
     40      35.9574      0.00000
     41      37.3236      0.00000
     42      37.3236      0.00000
     43      38.4232      0.00000
     44      38.4232      0.00000
     45      40.1823      0.00000
     46      40.1823      0.00000
     47      40.2413      0.00000
     48      40.2413      0.00000

 k-point     6 :       0.1111    0.1111    0.0000
  band No.  band energies     occupation 
      1       1.4648      2.00000
      2       4.2804      2.00000
      3       4.2804      2.00000
      4       4.3048      2.00000
      5       4.6960      2.00000
      6       4.6960      2.00000
      7       4.7562      2.00000
      8       7.2587      2.00000
      9       7.5416      2.00000
     10       7.5841      2.00000
     11       9.4523      2.00000
     12       9.6280      2.00000
     13      10.4876      2.00000
     14      10.5641      2.00000
     15      10.5641      2.00000
     16      10.9445      2.00000
     17      11.1380      2.00000
     18      11.1380      2.00000
     19      11.5951      2.00000
     20      11.5951      2.00000
     21      11.6740      2.00000
     22      13.9714     -0.00005
     23      13.9714     -0.00005
     24      15.5139     -0.00000
     25      20.4386      0.00000
     26      21.9325      0.00000
     27      21.9325      0.00000
     28      23.4287      0.00000
     29      24.2577      0.00000
     30      24.2577      0.00000
     31      24.6053      0.00000
     32      24.6053      0.00000
     33      24.7713      0.00000
     34      27.9212      0.00000
     35      31.2109      0.00000
     36      32.7015      0.00000
     37      33.3874      0.00000
     38      33.5439      0.00000
     39      33.5439      0.00000
     40      33.9086      0.00000
     41      36.1809      0.00000
     42      36.1809      0.00000
     43      36.6739      0.00000
     44      39.9806      0.00000
     45      41.8609      0.00000
     46      42.1805      0.00000
     47      42.1805      0.00000
     48      42.6904      0.00000

 k-point     7 :       0.2222    0.1111    0.0000
  band No.  band energies     occupation 
      1       1.9667      2.00000
      2       4.4692      2.00000
      3       4.5982      2.00000
      4       4.6421      2.00000
      5       4.8962      2.00000
      6       5.0194      2.00000
      7       5.1207      2.00000
      8       6.9941      2.00000
      9       7.7793      2.00000
     10       7.7979      2.00000
     11       9.1752      2.00000
     12       9.2585      2.00000
     13       9.4220      2.00000
     14       9.7589      2.00000
     15       9.7638      2.00000
     16      10.4894      2.00000
     17      10.6570      2.00000
     18      10.9489      2.00000
     19      11.0238      2.00000
     20      11.5935      2.00000
     21      11.5995      2.00000
     22      12.4868      2.00000
     23      15.4533     -0.00000
     24      16.9424      0.00000
     25      19.6315      0.00000
     26      21.2274      0.00000
     27      22.9705      0.00000
     28      23.7552      0.00000
     29      24.0254      0.00000
     30      24.8405      0.00000
     31      25.3370      0.00000
     32      25.3668      0.00000
     33      26.0005      0.00000
     34      28.6323      0.00000
     35      30.2046      0.00000
     36      32.6608      0.00000
     37      33.1764      0.00000
     38      33.8642      0.00000
     39      34.3874      0.00000
     40      35.2110      0.00000
     41      35.4246      0.00000
     42      36.2088      0.00000
     43      37.5737      0.00000
     44      39.5201      0.00000
     45      41.2188      0.00000
     46      41.3200      0.00000
     47      41.7785      0.00000
     48      42.5488      0.00000

 k-point     8 :       0.3333    0.1111    0.0000
  band No.  band energies     occupation 
      1       2.7461      2.00000
      2       4.6233      2.00000
      3       5.0543      2.00000
      4       5.1490      2.00000
      5       5.2152      2.00000
      6       5.5520      2.00000
      7       5.6523      2.00000
      8       6.5785      2.00000
      9       8.0484      2.00000
     10       8.0548      2.00000
     11       8.2079      2.00000
     12       8.2635      2.00000
     13       8.7549      2.00000
     14       8.8643      2.00000
     15       9.8665      2.00000
     16      10.0060      2.00000
     17      10.0229      2.00000
     18      10.2760      2.00000
     19      10.4517      2.00000
     20      11.3749      2.00000
     21      11.5840      2.00000
     22      11.5907      2.00000
     23      16.8155      0.00000
     24      18.5623      0.00000
     25      18.9326      0.00000
     26      20.8180      0.00000
     27      22.3796      0.00000
     28      22.8796      0.00000
     29      24.9848      0.00000
     30      25.4636      0.00000
     31      26.0723      0.00000
     32      26.9601      0.00000
     33      28.1256      0.00000
     34      29.4545      0.00000
     35      29.6630      0.00000
     36      32.2237      0.00000
     37      33.1119      0.00000
     38      33.4118      0.00000
     39      34.2720      0.00000
     40      35.0844      0.00000
     41      36.5223      0.00000
     42      36.9979      0.00000
     43      38.2022      0.00000
     44      39.3226      0.00000
     45      39.8998      0.00000
     46      40.5630      0.00000
     47      40.6060      0.00000
     48      41.2155      0.00000

 k-point     9 :       0.4444    0.1111    0.0000
  band No.  band energies     occupation 
      1       3.6682      2.00000
      2       4.4135      2.00000
      3       5.5269      2.00000
      4       5.5753      2.00000
      5       5.6289      2.00000
      6       6.1007      2.00000
      7       6.2549      2.00000
      8       6.2834      2.00000
      9       7.0232      2.00000
     10       7.1969      2.00000
     11       8.0109      2.00000
     12       8.0641      2.00000
     13       8.7929      2.00000
     14       9.0646      2.00000
     15       9.3851      2.00000
     16       9.4482      2.00000
     17       9.5007      2.00000
     18       9.7077      2.00000
     19      10.3642      2.00000
     20      10.7800      2.00000
     21      11.5834      2.00000
     22      11.5869      2.00000
     23      17.8043      0.00000
     24      18.4012      0.00000
     25      20.1773      0.00000
     26      20.9810      0.00000
     27      21.6375      0.00000
     28      21.6566      0.00000
     29      25.1248      0.00000
     30      25.3124      0.00000
     31      27.7804      0.00000
     32      28.7643      0.00000
     33      28.8202      0.00000
     34      30.1416      0.00000
     35      30.2020      0.00000
     36      31.7739      0.00000
     37      31.8779      0.00000
     38      32.9052      0.00000
     39      34.2228      0.00000
     40      36.0141      0.00000
     41      36.6128      0.00000
     42      37.0121      0.00000
     43      37.2675      0.00000
     44      38.4441      0.00000
     45      39.8265      0.00000
     46      40.5591      0.00000
     47      40.7601      0.00000
     48      41.5205      0.00000

 k-point    10 :       0.2222    0.2222    0.0000
  band No.  band energies     occupation 
      1       2.4333      2.00000
      2       4.7721      2.00000
      3       4.8495      2.00000
      4       4.8495      2.00000
      5       5.1972      2.00000
      6       5.1972      2.00000
      7       5.5183      2.00000
      8       6.8939      2.00000
      9       7.8634      2.00000
     10       7.8977      2.00000
     11       8.5330      2.00000
     12       8.5330      2.00000
     13       8.8620      2.00000
     14       9.0887      2.00000
     15       9.8916      2.00000
     16      10.1652      2.00000
     17      10.5719      2.00000
     18      10.5719      2.00000
     19      11.0175      2.00000
     20      11.0175      2.00000
     21      11.2717      2.00000
     22      13.8457     -0.01680
     23      13.8457     -0.01680
     24      18.1415      0.00000
     25      18.5229      0.00000
     26      22.5774      0.00000
     27      22.8787      0.00000
     28      22.8787      0.00000
     29      24.8193      0.00000
     30      24.8193      0.00000
     31      26.3259      0.00000
     32      26.3259      0.00000
     33      26.7849      0.00000
     34      28.9711      0.00000
     35      29.1240      0.00000
     36      32.5932      0.00000
     37      33.3445      0.00000
     38      34.8717      0.00000
     39      34.8717      0.00000
     40      35.4631      0.00000
     41      35.5989      0.00000
     42      35.5989      0.00000
     43      36.8874      0.00000
     44      39.2321      0.00000
     45      41.2235      0.00000
     46      41.5146      0.00000
     47      41.5146      0.00000
     48      41.6247      0.00000

 k-point    11 :       0.3333    0.2222    0.0000
  band No.  band energies     occupation 
      1       3.1581      2.00000
      2       5.0223      2.00000
      3       5.1256      2.00000
      4       5.3978      2.00000
      5       5.4780      2.00000
      6       5.6887      2.00000
      7       6.0018      2.00000
      8       6.6159      2.00000
      9       7.4570      2.00000
     10       7.7866      2.00000
     11       7.8808      2.00000
     12       8.0376      2.00000
     13       8.2495      2.00000
     14       8.9144      2.00000
     15       9.6897      2.00000
     16      10.0227      2.00000
     17      10.1820      2.00000
     18      10.2676      2.00000
     19      10.2912      2.00000
     20      11.0100      2.00000
     21      11.0932      2.00000
     22      12.5022      2.00000
     23      15.0657     -0.00000
     24      17.5615      0.00000
     25      19.6283      0.00000
     26      22.0606      0.00000
     27      22.1888      0.00000
     28      23.8936      0.00000
     29      24.4977      0.00000
     30      26.3203      0.00000
     31      26.5807      0.00000
     32      27.5459      0.00000
     33      27.9948      0.00000
     34      28.2533      0.00000
     35      29.6272      0.00000
     36      32.3920      0.00000
     37      33.2041      0.00000
     38      34.1075      0.00000
     39      34.6596      0.00000
     40      35.0470      0.00000
     41      35.9723      0.00000
     42      36.1113      0.00000
     43      37.2349      0.00000
     44      40.1489      0.00000
     45      41.1369      0.00000
     46      41.1568      0.00000
     47      41.2781      0.00000
     48      41.6279      0.00000

 k-point    12 :       0.4444    0.2222    0.0000
  band No.  band energies     occupation 
      1       4.0291      2.00000
      2       4.7836      2.00000
      3       5.6362      2.00000
      4       5.8370      2.00000
      5       5.8822      2.00000
      6       6.2355      2.00000
      7       6.3307      2.00000
      8       6.3531      2.00000
      9       6.6102      2.00000
     10       7.1575      2.00000
     11       7.4521      2.00000
     12       7.6487      2.00000
     13       8.8018      2.00000
     14       9.0886      2.00000
     15       9.3421      2.00000
     16       9.4951      2.00000
     17       9.4962      2.00000
     18       9.5982      2.00000
     19      10.8505      2.00000
     20      11.0081      2.00000
     21      11.0257      2.00000
     22      11.5519      2.00000
     23      16.0441     -0.00000
     24      16.8065      0.00000
     25      21.1786      0.00000
     26      21.7358      0.00000
     27      21.8473      0.00000
     28      22.6438      0.00000
     29      25.9697      0.00000
     30      26.9379      0.00000
     31      27.1045      0.00000
     32      27.3868      0.00000
     33      27.9670      0.00000
     34      29.3112      0.00000
     35      30.0483      0.00000
     36      31.8787      0.00000
     37      32.6190      0.00000
     38      33.5566      0.00000
     39      34.1282      0.00000
     40      35.3759      0.00000
     41      36.3664      0.00000
     42      37.0686      0.00000
     43      38.4638      0.00000
     44      38.6182      0.00000
     45      38.8922      0.00000
     46      40.1013      0.00000
     47      41.4269      0.00000
     48      42.2960      0.00000

 k-point    13 :       0.3333    0.3333    0.0000
  band No.  band energies     occupation 
      1       3.7903      2.00000
      2       5.3310      2.00000
      3       5.6119      2.00000
      4       5.6119      2.00000
      5       5.8984      2.00000
      6       5.8984      2.00000
      7       6.4023      2.00000
      8       6.5698      2.00000
      9       6.9385      2.00000
     10       6.9385      2.00000
     11       7.6197      2.00000
     12       7.7521      2.00000
     13       8.4544      2.00000
     14       8.7431      2.00000
     15       9.3698      2.00000
     16       9.7349      2.00000
     17       9.7349      2.00000
     18      10.2670      2.00000
     19      10.2670      2.00000
     20      10.6601      2.00000
     21      10.8783      2.00000
     22      13.6145      1.52196
     23      13.6145      1.52196
     24      16.3802      0.00000
     25      21.0244      0.00000
     26      22.0271      0.00000
     27      23.2156      0.00000
     28      23.2156      0.00000
     29      25.3018      0.00000
     30      25.3018      0.00000
     31      26.7537      0.00000
     32      28.4647      0.00000
     33      28.4647      0.00000
     34      29.2122      0.00000
     35      29.5768      0.00000
     36      31.8139      0.00000
     37      32.8178      0.00000
     38      32.8351      0.00000
     39      35.4280      0.00000
     40      35.4280      0.00000
     41      35.6192      0.00000
     42      35.6192      0.00000
     43      37.8888      0.00000
     44      40.0477      0.00000
     45      40.8828      0.00000
     46      41.4372      0.00000
     47      42.0598      0.00000
     48      42.0598      0.00000

 k-point    14 :       0.4444    0.3333    0.0000
  band No.  band energies     occupation 
      1       4.5511      2.00000
      2       5.2820      2.00000
      3       5.6898      2.00000
      4       6.1285      2.00000
      5       6.1507      2.00000
      6       6.3517      2.00000
      7       6.3974      2.00000
      8       6.4431      2.00000
      9       6.5877      2.00000
     10       7.0089      2.00000
     11       7.0506      2.00000
     12       7.4463      2.00000
     13       8.8069      2.00000
     14       8.8917      2.00000
     15       9.1172      2.00000
     16       9.2300      2.00000
     17       9.2816      2.00000
     18       9.5235      2.00000
     19      10.2986      2.00000
     20      10.4075      2.00000
     21      11.6309      2.00000
     22      12.5121      2.00000
     23      14.5945     -0.00000
     24      15.4582     -0.00000
     25      22.0368      0.00000
     26      22.3942      0.00000
     27      22.5318      0.00000
     28      23.9998      0.00000
     29      24.4192      0.00000
     30      25.6077      0.00000
     31      26.8409      0.00000
     32      28.2364      0.00000
     33      28.9351      0.00000
     34      29.6866      0.00000
     35      30.0134      0.00000
     36      31.3224      0.00000
     37      32.6236      0.00000
     38      33.6011      0.00000
     39      34.4200      0.00000
     40      34.5367      0.00000
     41      36.3358      0.00000
     42      36.6174      0.00000
     43      37.6301      0.00000
     44      38.2106      0.00000
     45      41.3158      0.00000
     46      41.4470      0.00000
     47      41.8071      0.00000
     48      42.2031      0.00000

 k-point    15 :       0.4444    0.4444    0.0000
  band No.  band energies     occupation 
      1       5.1193      2.00000
      2       5.6446      2.00000
      3       5.6446      2.00000
      4       5.7124      2.00000
      5       6.5047      2.00000
      6       6.5114      2.00000
      7       6.5114      2.00000
      8       6.8344      2.00000
      9       6.8491      2.00000
     10       6.8752      2.00000
     11       6.8752      2.00000
     12       7.2781      2.00000
     13       8.6158      2.00000
     14       8.8199      2.00000
     15       8.8613      2.00000
     16       8.8613      2.00000
     17       9.1554      2.00000
     18       9.6404      2.00000
     19       9.6404      2.00000
     20       9.9222      2.00000
     21      12.5134      2.00000
     22      13.4665      2.02831
     23      13.4665      2.02831
     24      14.4034     -0.00000
     25      22.4571      0.00000
     26      23.2399      0.00000
     27      23.2399      0.00000
     28      24.0215      0.00000
     29      24.3205      0.00000
     30      25.4952      0.00000
     31      25.4952      0.00000
     32      26.9489      0.00000
     33      30.2493      0.00000
     34      30.2493      0.00000
     35      30.7254      0.00000
     36      30.8063      0.00000
     37      32.7883      0.00000
     38      34.7051      0.00000
     39      34.7102      0.00000
     40      34.7102      0.00000
     41      35.7932      0.00000
     42      35.7932      0.00000
     43      36.1040      0.00000
     44      37.1854      0.00000
     45      41.0690      0.00000
     46      41.6331      0.00000
     47      41.6331      0.00000
     48      41.7881      0.00000

 k-point    16 :       0.1111    0.1111    0.1111
  band No.  band energies     occupation 
      1       1.6316      2.00000
      2       4.3781      2.00000
      3       4.3781      2.00000
      4       4.3781      2.00000
      5       4.8250      2.00000
      6       4.8250      2.00000
      7       4.8250      2.00000
      8       7.2238      2.00000
      9       7.6062      2.00000
     10       7.6062      2.00000
     11       9.5206      2.00000
     12       9.5206      2.00000
     13      10.1812      2.00000
     14      10.1812      2.00000
     15      10.1812      2.00000
     16      10.7587      2.00000
     17      10.7587      2.00000
     18      10.7587      2.00000
     19      11.6299      2.00000
     20      11.6299      2.00000
     21      11.6299      2.00000
     22      14.6181     -0.00000
     23      14.6181     -0.00000
     24      14.6181     -0.00000
     25      21.3567      0.00000
     26      21.3567      0.00000
     27      21.3567      0.00000
     28      24.0823      0.00000
     29      24.0823      0.00000
     30      24.0823      0.00000
     31      25.1253      0.00000
     32      25.1253      0.00000
     33      25.1253      0.00000
     34      28.1472      0.00000
     35      30.4334      0.00000
     36      33.4226      0.00000
     37      33.4226      0.00000
     38      33.7018      0.00000
     39      33.7018      0.00000
     40      33.7018      0.00000
     41      36.4685      0.00000
     42      36.4685      0.00000
     43      36.4685      0.00000
     44      39.9725      0.00000
     45      42.0010      0.00000
     46      42.0010      0.00000
     47      42.0010      0.00000
     48      42.5597      0.00000

 k-point    17 :       0.2222    0.1111    0.1111
  band No.  band energies     occupation 
      1       2.1178      2.00000
      2       4.5598      2.00000
      3       4.6666      2.00000
      4       4.6666      2.00000
      5       5.0281      2.00000
      6       5.1896      2.00000
      7       5.1896      2.00000
      8       7.0052      2.00000
      9       7.7847      2.00000
     10       7.8003      2.00000
     11       9.1232      2.00000
     12       9.1232      2.00000
     13       9.2483      2.00000
     14       9.3881      2.00000
     15       9.7178      2.00000
     16      10.2971      2.00000
     17      10.3838      2.00000
     18      10.3838      2.00000
     19      11.4642      2.00000
     20      11.5442      2.00000
     21      11.5442      2.00000
     22      13.0072      2.00000
     23      15.8835     -0.00000
     24      15.8835     -0.00000
     25      20.3902      0.00000
     26      20.3902      0.00000
     27      23.0471      0.00000
     28      23.8319      0.00000
     29      23.8319      0.00000
     30      25.6459      0.00000
     31      25.6459      0.00000
     32      25.8636      0.00000
     33      26.1288      0.00000
     34      28.7729      0.00000
     35      29.3987      0.00000
     36      33.2457      0.00000
     37      33.3852      0.00000
     38      34.1190      0.00000
     39      34.1190      0.00000
     40      34.1586      0.00000
     41      35.9062      0.00000
     42      37.4517      0.00000
     43      37.4517      0.00000
     44      38.9254      0.00000
     45      40.9628      0.00000
     46      41.3381      0.00000
     47      41.3381      0.00000
     48      42.2116      0.00000

 k-point    18 :       0.3333    0.1111    0.1111
  band No.  band energies     occupation 
      1       2.8717      2.00000
      2       4.7052      2.00000
      3       5.1218      2.00000
      4       5.1218      2.00000
      5       5.3470      2.00000
      6       5.7092      2.00000
      7       5.7092      2.00000
      8       6.6271      2.00000
      9       7.9895      2.00000
     10       8.0250      2.00000
     11       8.0250      2.00000
     12       8.1226      2.00000
     13       8.4420      2.00000
     14       9.0569      2.00000
     15       9.7099      2.00000
     16       9.8641      2.00000
     17       9.8641      2.00000
[...]
  band No.  band energies     occupation 
      1       4.1538      2.00000
      2       4.5691      2.00000
      3       4.9974      2.00000
      4       5.0368      2.00000
      5       6.5600      2.00000
      6       6.6013      2.00000
      7       7.0623      2.00000
      8       7.4197      2.00000
      9       7.5243      2.00000
     10       7.6198      2.00000
     11       7.8932      2.00000
     12       7.9014      2.00000
     13       8.1227      2.00000
     14       8.1738      2.00000
     15       8.3701      2.00000
     16       8.4246      2.00000
     17      10.2365      2.00000
     18      10.9024      2.00000
     19      11.0330      2.00000
     20      11.0456      2.00000
     21      11.3049      2.00000
     22      12.3077      2.00000
     23      14.7795     -0.00000
     24      15.6816     -0.00000
     25      17.9560      0.00000
     26      18.8692      0.00000
     27      21.4392      0.00000
     28      22.8539      0.00000
     29      26.9894      0.00000
     30      27.7627      0.00000
     31      28.5001      0.00000
     32      28.5407      0.00000
     33      28.5546      0.00000
     34      29.2669      0.00000
     35      30.2310      0.00000
     36      31.5875      0.00000
     37      31.9131      0.00000
     38      32.2253      0.00000
     39      33.0026      0.00000
     40      34.7399      0.00000
     41      37.7844      0.00000
     42      38.9604      0.00000
     43      39.4158      0.00000
     44      39.9524      0.00000
     45      40.0889      0.00000
     46      41.2570      0.00000
     47      41.5888      0.00000
     48      41.6723      0.00000

 k-point    31 :       0.4444    0.4444    0.2222
  band No.  band energies     occupation 
      1       4.3425      2.00000
      2       4.6285      2.00000
      3       4.6285      2.00000
      4       4.7819      2.00000
      5       6.8282      2.00000
      6       6.9898      2.00000
      7       6.9898      2.00000
      8       7.2889      2.00000
      9       7.8014      2.00000
     10       7.9408      2.00000
     11       7.9408      2.00000
     12       8.0555      2.00000
     13       8.1775      2.00000
     14       8.2592      2.00000
     15       8.2592      2.00000
     16       8.4156      2.00000
     17      10.2517      2.00000
     18      10.6730      2.00000
     19      10.6730      2.00000
     20      10.7676      2.00000
     21      12.1819      2.00000
     22      13.2702      2.00000
     23      13.2702      2.00000
     24      14.3388     -0.00000
     25      18.9356      0.00000
     26      20.0904      0.00000
     27      20.0904      0.00000
     28      21.4225      0.00000
     29      27.4493      0.00000
     30      27.9889      0.00000
     31      27.9889      0.00000
     32      28.1635      0.00000
     33      29.6931      0.00000
     34      29.7246      0.00000
     35      29.7246      0.00000
     36      30.7830      0.00000
     37      32.1797      0.00000
     38      33.1067      0.00000
     39      33.1067      0.00000
     40      34.4991      0.00000
     41      37.6755      0.00000
     42      38.7219      0.00000
     43      38.7219      0.00000
     44      39.4436      0.00000
     45      41.2125      0.00000
     46      41.4322      0.00000
     47      41.7772      0.00000
     48      41.7772      0.00000

 k-point    32 :       0.3333    0.3333    0.3333
  band No.  band energies     occupation 
      1       3.8279      2.00000
      2       4.6876      2.00000
      3       4.6876      2.00000
      4       4.6876      2.00000
      5       6.7724      2.00000
      6       6.7724      2.00000
      7       6.7724      2.00000
      8       7.6157      2.00000
      9       7.6157      2.00000
     10       8.1478      2.00000
     11       8.1478      2.00000
     12       8.1478      2.00000
     13       8.2038      2.00000
     14       8.2038      2.00000
     15       8.2038      2.00000
     16       8.2339      2.00000
     17      10.4544      2.00000
     18      10.4544      2.00000
     19      11.4037      2.00000
     20      11.4037      2.00000
     21      11.4037      2.00000
     22      14.2275     -0.00000
     23      14.2275     -0.00000
     24      14.2275     -0.00000
     25      18.6023      0.00000
     26      18.6023      0.00000
     27      18.6023      0.00000
     28      22.7090      0.00000
     29      27.8974      0.00000
     30      27.8974      0.00000
     31      27.8974      0.00000
     32      28.1744      0.00000
     33      30.3571      0.00000
     34      30.3571      0.00000
     35      30.3571      0.00000
     36      30.7550      0.00000
     37      30.7550      0.00000
     38      30.7550      0.00000
     39      34.5536      0.00000
     40      34.5536      0.00000
     41      38.4630      0.00000
     42      39.0174      0.00000
     43      39.0174      0.00000
     44      40.7724      0.00000
     45      40.7724      0.00000
     46      40.7724      0.00000
     47      42.0987      0.00000
     48      42.0987      0.00000

 k-point    33 :       0.4444    0.3333    0.3333
  band No.  band energies     occupation 
      1       4.0116      2.00000
      2       4.3105      2.00000
      3       4.5707      2.00000
      4       4.5707      2.00000
      5       6.8431      2.00000
      6       6.8431      2.00000
      7       7.1329      2.00000
      8       7.4334      2.00000
      9       7.6254      2.00000
     10       7.8081      2.00000
     11       7.9361      2.00000
     12       7.9361      2.00000
     13       8.4959      2.00000
     14       8.6541      2.00000
     15       8.7474      2.00000
     16       8.7474      2.00000
     17      10.9468      2.00000
     18      10.9807      2.00000
     19      11.2575      2.00000
     20      11.2575      2.00000
     21      11.3194      2.00000
     22      12.3469      2.00000
     23      14.5599     -0.00000
     24      14.5599     -0.00000
     25      17.7769      0.00000
     26      17.7769      0.00000
     27      19.8854      0.00000
     28      21.2685      0.00000
     29      27.8259      0.00000
     30      27.8259      0.00000
     31      27.8542      0.00000
     32      27.9132      0.00000
     33      29.8493      0.00000
     34      29.8493      0.00000
     35      31.2980      0.00000
     36      31.4859      0.00000
     37      31.4859      0.00000
     38      32.1958      0.00000
     39      32.7086      0.00000
     40      33.7779      0.00000
     41      39.6548      0.00000
     42      39.7718      0.00000
     43      40.2977      0.00000
     44      40.7360      0.00000
     45      40.7360      0.00000
     46      40.9375      0.00000
     47      41.7148      0.00000
     48      41.8377      0.00000

 k-point    34 :       0.4444    0.4444    0.3333
  band No.  band energies     occupation 
      1       4.0308      2.00000
      2       4.2216      2.00000
      3       4.2216      2.00000
      4       4.3090      2.00000
      5       7.0566      2.00000
      6       7.1505      2.00000
      7       7.1505      2.00000
      8       7.3809      2.00000
      9       7.5043      2.00000
     10       7.6329      2.00000
     11       7.6329      2.00000
     12       7.6710      2.00000
     13       9.2909      2.00000
     14       9.2909      2.00000
     15       9.3510      2.00000
     16       9.4501      2.00000
     17      10.8280      2.00000
     18      11.1689      2.00000
     19      11.1689      2.00000
     20      11.1791      2.00000
     21      11.7408      2.00000
     22      12.9299      2.00000
     23      12.9299      2.00000
     24      13.7633     -0.06955
     25      17.8708      0.00000
     26      18.6722      0.00000
     27      18.6722      0.00000
     28      19.8726      0.00000
     29      27.4830      0.00000
     30      27.5435      0.00000
     31      27.5464      0.00000
     32      27.5464      0.00000
     33      30.5675      0.00000
     34      30.9523      0.00000
     35      30.9523      0.00000
     36      31.8487      0.00000
     37      31.9259      0.00000
     38      32.2937      0.00000
     39      32.2937      0.00000
     40      33.2864      0.00000
     41      39.8755      0.00000
     42      40.5460      0.00000
     43      40.5460      0.00000
     44      41.0502      0.00000
     45      41.2632      0.00000
     46      41.5835      0.00000
     47      41.8589      0.00000
     48      41.8695      0.00000

 k-point    35 :       0.4444    0.4444    0.4444
  band No.  band energies     occupation 
      1       3.9173      2.00000
      2       4.0123      2.00000
      3       4.0123      2.00000
      4       4.0123      2.00000
      5       7.2647      2.00000
      6       7.2647      2.00000
      7       7.2647      2.00000
      8       7.3801      2.00000
      9       7.3801      2.00000
     10       7.4377      2.00000
     11       7.4377      2.00000
     12       7.4377      2.00000
     13      10.2462      2.00000
     14      10.2462      2.00000
     15      10.2462      2.00000
     16      10.7896      2.00000
     17      11.2218      2.00000
     18      11.2218      2.00000
     19      11.3478      2.00000
     20      11.3478      2.00000
     21      11.3478      2.00000
     22      12.4896      2.00000
     23      12.4896      2.00000
     24      12.4896      2.00000
     25      17.9185      0.00000
     26      17.9185      0.00000
     27      17.9185      0.00000
     28      18.6738      0.00000
     29      27.0593      0.00000
     30      27.1110      0.00000
     31      27.1110      0.00000
     32      27.1110      0.00000
     33      31.7975      0.00000
     34      31.7975      0.00000
     35      31.7975      0.00000
     36      31.8632      0.00000
     37      31.8632      0.00000
     38      31.8632      0.00000
     39      32.3497      0.00000
     40      32.3497      0.00000
     41      41.4272      0.00000
     42      41.4272      0.00000
     43      41.5680      0.00000
     44      41.5680      0.00000
     45      41.5680      0.00000
     46      41.8548      0.00000
     47      41.8548      0.00000
     48      41.8550      0.00000


--------------------------------------------------------------------------------------------------------


 soft charge-density along one line, spin component           1
         0         1         2         3         4         5         6         7         8         9
 total charge-density along one line
 
 pseudopotential strength for first ion, spin component:           1
 -2.366   0.000  -0.000   0.000  -0.000  -2.639   0.000  -0.000
  0.000  -2.366   0.000   0.000   0.000   0.000  -2.639   0.000
 -0.000   0.000  -2.347   0.000   0.000  -0.000   0.000  -2.620
  0.000   0.000   0.000  -2.366   0.000   0.000   0.000   0.000
 -0.000   0.000   0.000   0.000  -2.347  -0.000   0.000  -0.000
 -2.639   0.000  -0.000   0.000  -0.000  -2.893   0.000  -0.000
  0.000  -2.639   0.000   0.000   0.000   0.000  -2.893   0.000
 -0.000   0.000  -2.620   0.000  -0.000  -0.000   0.000  -2.874
  0.000   0.000   0.000  -2.639   0.000   0.000   0.000   0.000
 -0.000   0.000   0.000   0.000  -2.620  -0.000   0.000   0.000
 -0.000  -0.000   0.000  -0.000   0.000  -0.000  -0.000   0.000
 -0.000  -0.000   0.000  -0.000   0.000  -0.000  -0.000  -0.000
 -0.000   0.000  -0.000  -0.000   0.000  -0.000   0.000  -0.000
 -0.000  -0.000   0.000  -0.000   0.000  -0.000  -0.000   0.000
  0.000  -0.000   0.000   0.000   0.000   0.000  -0.000   0.000
 -0.000   0.000  -0.000  -0.000   0.000   0.000   0.000  -0.000
 -0.000  -0.000   0.000  -0.000   0.000  -0.000  -0.000   0.000
  0.000  -0.000  -0.000   0.000  -0.000   0.000  -0.000   0.000
 total augmentation occupancy for first ion, spin component:           1
  7.469   0.000   0.000   0.000  -0.000  -5.666  -0.000  -0.000  -0.000   0.000   0.000   0.000   0.000   0.000   0.000   0.000
  0.000   7.469   0.000   0.000   0.000   0.000  -5.666  -0.000   0.000   0.000   0.000   0.000  -0.000   0.000   0.000  -0.000
 -0.000   0.000   6.764  -0.000   0.000  -0.000  -0.000  -4.695   0.000  -0.000   0.000   0.000  -0.000   0.000   0.000  -0.000
 -0.000  -0.000  -0.000   7.469  -0.000  -0.000  -0.000  -0.000  -5.666  -0.000   0.000   0.000   0.000  -0.000  -0.000  -0.000
 -0.000   0.000   0.000  -0.000   6.764   0.000   0.000  -0.000   0.000  -4.695  -0.000   0.000   0.000  -0.000   0.000  -0.000
 -5.666   0.000  -0.000  -0.000  -0.000   5.775  -0.000   0.000   0.000  -0.000  -0.000  -0.000   0.000   0.000  -0.000   0.000
 -0.000  -5.666  -0.000  -0.000   0.000  -0.000   5.775   0.000   0.000   0.000  -0.000   0.000   0.000   0.000  -0.000  -0.000
 -0.000  -0.000  -4.695  -0.000  -0.000   0.000   0.000   4.595   0.000   0.000  -0.000   0.000   0.000   0.000   0.000  -0.000
 -0.000  -0.000  -0.000  -5.666   0.000   0.000   0.000  -0.000   5.775  -0.000   0.000   0.000  -0.000  -0.000   0.000  -0.000
  0.000   0.000   0.000  -0.000  -4.695  -0.000   0.000  -0.000  -0.000   4.595   0.000  -0.000   0.000  -0.000  -0.000   0.000
  0.000   0.000   0.000   0.000  -0.000  -0.000  -0.000  -0.000   0.000  -0.000   3.806  -1.196  -0.000  -0.000  -0.000  -0.000
  0.000   0.000   0.000   0.000   0.000   0.000   0.000  -0.000   0.000   0.000  -1.196   0.440  -0.000  -0.000   0.000  -0.000
  0.000   0.000   0.000   0.000  -0.000   0.000   0.000   0.000   0.000  -0.000  -0.000  -0.000   0.298  -0.000   0.000  -0.010
  0.000   0.000   0.000  -0.000   0.000  -0.000   0.000   0.000  -0.000  -0.000  -0.000  -0.000  -0.000   0.298  -0.000  -0.000
  0.000   0.000  -0.000  -0.000   0.000  -0.000  -0.000  -0.000   0.000  -0.000  -0.000  -0.000   0.000   0.000   0.298   0.000
  0.000  -0.000   0.000  -0.000  -0.000   0.000  -0.000   0.000  -0.000   0.000  -0.000   0.000  -0.010   0.000  -0.000   0.000
  0.000   0.000   0.000   0.000   0.000   0.000   0.000  -0.000  -0.000  -0.000  -0.000   0.000  -0.000  -0.010  -0.000  -0.000
  0.000   0.000   0.000  -0.000  -0.000   0.000   0.000  -0.000   0.000   0.000   0.000  -0.000   0.000   0.000  -0.010  -0.000


------------------------ aborting loop because EDIFF is reached ----------------------------------------


    CHARGE:  cpu time    0.0089: real time    0.0090
    FORLOC:  cpu time    0.0002: real time    0.0002
    FORNL :  cpu time    0.0608: real time    0.0609
    STRESS:  cpu time    0.2102: real time    0.2104
    FORCOR:  cpu time    0.0056: real time    0.0056
    FORHAR:  cpu time    0.0008: real time    0.0008
    MIXING:  cpu time    0.0002: real time    0.0002
    OFIELD:  cpu time    0.0000: real time    0.0001

  FORCE on cell =-STRESS in cart. coord.  units (eV):
  Direction    XX          YY          ZZ          XY          YZ          ZX
  --------------------------------------------------------------------------------------
  Alpha Z   337.50410   337.50410   337.50410
  Ewald   -1398.55553 -1398.55553 -1398.55553    -0.00000    -0.00000    -0.00000
  Hartree   116.70594   116.70594   116.70594    -0.00000    -0.00000    -0.00000
  E(xc)    -202.79525  -202.79525  -202.79525    -0.00000    -0.00000    -0.00000
  Local     251.10226   251.10226   251.10226     0.00000     0.00000     0.00000
  n-local    53.15361    25.24180    17.67349     2.56086     8.18358     3.43798
  augment   268.11958   268.11958   268.11958    -0.00000     0.00000    -0.00000
  Kinetic   626.98723   624.89734   617.20194    -7.21701    -4.44241    -4.44299
  Fock        0.00000     0.00000     0.00000     0.00000     0.00000     0.00000
  -------------------------------------------------------------------------------------
  Total      27.13289    27.13289    27.13289    -0.00000    -0.00000     0.00000
  in kB     787.25581   787.25581   787.25581    -0.00000    -0.00000     0.00000
  external pressure =      787.26 kB  Pullay stress =        0.00 kB


 VOLUME and BASIS-vectors are now :
 -----------------------------------------------------------------------------
  energy-cutoff  :      400.00
  volume of cell :       55.22
      direct lattice vectors                 reciprocal lattice vectors
     3.808000000  0.000000000  0.000000000     0.262605042  0.000000000  0.000000000
     0.000000000  3.808000000  0.000000000     0.000000000  0.262605042  0.000000000
     0.000000000  0.000000000  3.808000000     0.000000000  0.000000000  0.262605042

  length of vectors
     3.808000000  3.808000000  3.808000000     0.262605042  0.262605042  0.262605042


 FORCES acting on ions
    electron-ion (+dipol)            ewald-force                    non-local-force                 convergence-correction
 -----------------------------------------------------------------------------------------------
   0.282E-13 0.422E-13 0.159E-13   0.998E-14 -.118E-13 -.580E-14   -.124E-23 0.331E-23 0.196E-22   0.118E-15 -.149E-13 0.796E-14
   0.284E-13 -.531E-13 -.859E-13   0.891E-14 0.144E-13 0.420E-14   0.662E-23 0.662E-23 0.513E-22   0.448E-14 0.195E-13 -.190E-13
   -.676E-13 0.365E-13 0.306E-12   -.911E-14 -.136E-13 0.434E-14   0.000E+00 0.000E+00 -.157E-22   -.154E-14 -.558E-14 -.356E-13
   -.656E-13 -.610E-13 -.348E-12   -.102E-13 0.125E-13 -.596E-14   -.165E-23 0.000E+00 0.132E-22   -.913E-14 0.224E-13 0.350E-13
 -----------------------------------------------------------------------------------------------
   -.765E-13 -.354E-13 -.112E-12   -.401E-15 0.148E-14 -.322E-14   0.372E-23 0.993E-23 0.684E-22   -.607E-14 0.214E-13 -.116E-13
 
 
 POSITION                                       TOTAL-FORCE (eV/Angst)
 -----------------------------------------------------------------------------------
      0.00000      0.00000      0.00000         0.000000      0.000000     -0.000000
      0.00000      1.90400      1.90400         0.000000      0.000000      0.000000
      1.90400      0.00000      1.90400        -0.000000     -0.000000     -0.000000
      1.90400      1.90400      0.00000        -0.000000     -0.000000     -0.000000
 -----------------------------------------------------------------------------------
    total drift:                               -0.000000     -0.000000     -0.000000


--------------------------------------------------------------------------------------------------------



  FREE ENERGIE OF THE ION-ELECTRON SYSTEM (eV)
  ---------------------------------------------------
  free  energy   TOTEN  =        -9.83657429 eV

  energy  without entropy=       -9.83529944  energy(sigma->0) =       -9.83614934
 


--------------------------------------------------------------------------------------------------------


    POTLOK:  cpu time    0.0054: real time    0.0054


--------------------------------------------------------------------------------------------------------


     LOOP+:  cpu time    6.3411: real time    6.3894
    4ORBIT:  cpu time    0.0000: real time    0.0000

 total amount of memory used by VASP on root node    37197. kBytes
========================================================================

   base      :      30000. kBytes
   nonl-proj :       5267. kBytes
   fftplans  :        147. kBytes
   grid      :        485. kBytes
   one-center:         62. kBytes
   wavefun   :       1236. kBytes
 
  
  
 General timing and accounting informations for this job:
 ========================================================
  
                  Total CPU time used (sec):       25.774
                            User time (sec):       25.653
                          System time (sec):        0.121
                         Elapsed time (sec):       25.959
  
                   Maximum memory used (kb):       66104.
                   Average memory used (kb):           0.
  
                          Minor page faults:        14434
                          Major page faults:            9
                 Voluntary context switches:         1453
