<?xml version="1.0" encoding="ISO-8859-1"?>
<modeling>
 <generator>
  <i name="program" type="string">vasp </i>
  <i name="version" type="string">5.4.1  </i>
  <i name="subversion" type="string">05Feb16 (build Feb 08 2018 09:21:51) complex                          parallel </i>
  <i name="platform" type="string">LinuxIFC </i>
  <i name="date" type="string">2019 11 21 </i>
  <i name="time" type="string">15:55:06 </i>
 </generator>
 <incar>
  <i type="string" name="PREC">normal</i>
  <i name="ENCUT">    400.00000000</i>
  <i type="int" name="ISMEAR">     1</i>
  <i name="SIGMA">      0.10000000</i>
  <i type="logical" name="LWAVE"> F  </i>
  <i type="logical" name="LCHARG"> F  </i>
  <v type="int" name="KPOINT_BSE">    -1     0     0     0</v>
 </incar>
 <kpoints>
  <generation param="Monkhorst-Pack">
   <v type="int" name="divisions">       9        9        9 </v>
   <v name="usershift">      0.00000000       0.00000000       0.00000000 </v>
   <v name="genvec1">      0.11111111       0.00000000       0.00000000 </v>
   <v name="genvec2">      0.00000000       0.11111111       0.00000000 </v>
   <v name="genvec3">      0.00000000       0.00000000       0.11111111 </v>
   <v name="shift">      0.00000000       0.00000000       0.00000000 </v>
  </generation>
  <varray name="kpointlist" >
   <v>       0.00000000       0.00000000       0.00000000 </v>
   <v>       0.11111111       0.00000000       0.00000000 </v>
   <v>       0.22222222       0.00000000       0.00000000 </v>
   <v>       0.33333333       0.00000000       0.00000000 </v>
   <v>       0.44444444       0.00000000       0.00000000 </v>
   <v>       0.11111111       0.11111111       0.00000000 </v>
   <v>       0.22222222       0.11111111       0.00000000 </v>
   <v>       0.33333333       0.11111111       0.00000000 </v>
   <v>       0.44444444       0.11111111       0.00000000 </v>
   <v>       0.22222222       0.22222222       0.00000000 </v>
   <v>       0.33333333       0.22222222       0.00000000 </v>
   <v>       0.44444444       0.22222222       0.00000000 </v>
   <v>       0.33333333       0.33333333       0.00000000 </v>
   <v>       0.44444444       0.33333333       0.00000000 </v>
   <v>       0.44444444       0.44444444       0.00000000 </v>
   <v>       0.11111111       0.11111111       0.11111111 </v>
   <v>       0.22222222       0.11111111       0.11111111 </v>
   <v>       0.33333333       0.11111111       0.11111111 </v>
   <v>       0.44444444       0.11111111       0.11111111 </v>
   <v>       0.22222222       0.22222222       0.11111111 </v>
   <v>       0.33333333       0.22222222       0.11111111 </v>
   <v>       0.44444444       0.22222222       0.11111111 </v>
   <v>       0.33333333       0.33333333       0.11111111 </v>
   <v>       0.44444444       0.33333333       0.11111111 </v>
   <v>       0.44444444       0.44444444       0.11111111 </v>
   <v>       0.22222222       0.22222222       0.22222222 </v>
   <v>       0.33333333       0.22222222       0.22222222 </v>
   <v>       0.44444444       0.22222222       0.22222222 </v>
   <v>       0.33333333       0.33333333       0.22222222 </v>
   <v>       0.44444444       0.33333333       0.22222222 </v>
   <v>       0.44444444       0.44444444       0.22222222 </v>
   <v>       0.33333333       0.33333333       0.33333333 </v>
   <v>       0.44444444       0.33333333       0.33333333 </v>
   <v>       0.44444444       0.44444444       0.33333333 </v>
   <v>       0.44444444       0.44444444       0.44444444 </v>
  </varray>
  <varray name="weights" >
   <v>       0.00137174 </v>
   <v>       0.00823045 </v>
   <v>       0.00823045 </v>
   <v>       0.00823045 </v>
   <v>       0.00823045 </v>
   <v>       0.01646091 </v>
   <v>       0.03292181 </v>
   <v>       0.03292181 </v>
   <v>       0.03292181 </v>
   <v>       0.01646091 </v>
   <v>       0.03292181 </v>
   <v>       0.03292181 </v>
   <v>       0.01646091 </v>
   <v>       0.03292181 </v>
   <v>       0.01646091 </v>
   <v>       0.01097394 </v>
   <v>       0.03292181 </v>
   <v>       0.03292181 </v>
   <v>       0.03292181 </v>
   <v>       0.03292181 </v>
   <v>       0.06584362 </v>
   <v>       0.06584362 </v>
   <v>       0.03292181 </v>
   <v>       0.06584362 </v>
   <v>       0.03292181 </v>
   <v>       0.01097394 </v>
   <v>       0.03292181 </v>
   <v>       0.03292181 </v>
   <v>       0.03292181 </v>
   <v>       0.06584362 </v>
   <v>       0.03292181 </v>
   <v>       0.01097394 </v>
   <v>       0.03292181 </v>
   <v>       0.03292181 </v>
   <v>       0.01097394 </v>
  </varray>
 </kpoints>
 <parameters>
  <separator name="general" >
   <i type="string" name="SYSTEM">unknown system</i>
   <i type="logical" name="LCOMPAT"> F  </i>
  </separator>
  <separator name="electronic" >
   <i type="string" name="PREC">normal</i>
   <i name="ENMAX">    400.00000000</i>
   <i name="ENAUG">    356.67000000</i>
   <i name="EDIFF">      0.00010000</i>
   <i type="int" name="IALGO">    38</i>
   <i type="int" name="IWAVPR">    10</i>
   <i type="int" name="NBANDS">    48</i>
   <i name="NELECT">     44.00000000</i>
   <i type="int" name="TURBO">     0</i>
   <i type="int" name="IRESTART">     0</i>
   <i type="int" name="NREBOOT">     0</i>
   <i type="int" name="NMIN">     0</i>
   <i name="EREF">      0.00000000</i>
   <separator name="electronic smearing" >
    <i type="int" name="ISMEAR">     1</i>
    <i name="SIGMA">      0.10000000</i>
    <i name="KSPACING">      0.50000000</i>
    <i type="logical" name="KGAMMA"> T  </i>
   </separator>
   <separator name="electronic projectors" >
    <i type="logical" name="LREAL"> F  </i>
    <v name="ROPT">      0.00000000</v>
    <i type="int" name="LMAXPAW">  -100</i>
    <i type="int" name="LMAXMIX">     2</i>
    <i type="logical" name="NLSPLINE"> F  </i>
   </separator>
   <separator name="electronic startup" >
    <i type="int" name="ISTART">     0</i>
    <i type="int" name="ICHARG">     2</i>
    <i type="int" name="INIWAV">     1</i>
   </separator>
   <separator name="electronic spin" >
    <i type="int" name="ISPIN">     1</i>
    <i type="logical" name="LNONCOLLINEAR"> F  </i>
    <v name="MAGMOM">      1.00000000      1.00000000      1.00000000      1.00000000</v>
    <i name="NUPDOWN">     -1.00000000</i>
    <i type="logical" name="LSORBIT"> F  </i>
    <v name="SAXIS">      0.00000000      0.00000000      1.00000000</v>
    <i type="logical" name="LSPIRAL"> F  </i>
    <v name="QSPIRAL">      0.00000000      0.00000000      0.00000000</v>
    <i type="logical" name="LZEROZ"> F  </i>
   </separator>
   <separator name="electronic exchange-correlation" >
    <i type="logical" name="LASPH"> F  </i>
    <i type="logical" name="LMETAGGA"> F  </i>
   </separator>
   <separator name="electronic convergence" >
    <i type="int" name="NELM">    60</i>
    <i type="int" name="NELMDL">    -5</i>
    <i type="int" name="NELMIN">     2</i>
    <i name="ENINI">    400.00000000</i>
    <separator name="electronic convergence detail" >
     <i type="logical" name="LDIAG"> T  </i>
     <i type="logical" name="LSUBROT"> F  </i>
     <i name="WEIMIN">      0.00000000</i>
     <i name="EBREAK">      0.00000052</i>
     <i name="DEPER">      0.30000000</i>
     <i type="int" name="NRMM">     4</i>
     <i name="TIME">      0.40000000</i>
    </separator>
   </separator>
   <separator name="electronic mixer" >
    <i name="AMIX">      0.40000000</i>
    <i name="BMIX">      1.00000000</i>
    <i name="AMIN">      0.10000000</i>
    <i name="AMIX_MAG">      1.60000000</i>
    <i name="BMIX_MAG">      1.00000000</i>
    <separator name="electronic mixer details" >
     <i type="int" name="IMIX">     4</i>
     <i type="logical" name="MIXFIRST"> F  </i>
     <i type="int" name="MAXMIX">   -45</i>
     <i name="WC">    100.00000000</i>
     <i type="int" name="INIMIX">     1</i>
     <i type="int" name="MIXPRE">     1</i>
     <i type="int" name="MREMOVE">     5</i>
    </separator>
   </separator>
   <separator name="electronic dipolcorrection" >
    <i type="logical" name="LDIPOL"> F  </i>
    <i type="logical" name="LMONO"> F  </i>
    <i type="int" name="IDIPOL">     0</i>
    <i name="EPSILON">      1.00000000</i>
    <v name="DIPOL">   -100.00000000   -100.00000000   -100.00000000</v>
    <i name="EFIELD">      0.00000000</i>
   </separator>
  </separator>
  <separator name="grids" >
   <i type="int" name="NGX">    20</i>
   <i type="int" name="NGY">    20</i>
   <i type="int" name="NGZ">    20</i>
   <i type="int" name="NGXF">    40</i>
   <i type="int" name="NGYF">    40</i>
   <i type="int" name="NGZF">    40</i>
   <i type="logical" name="ADDGRID"> F  </i>
  </separator>
  <separator name="ionic" >
   <i type="int" name="NSW">     0</i>
   <i type="int" name="IBRION">    -1</i>
   <i type="int" name="ISIF">     2</i>
   <i name="PSTRESS">      0.00000000</i>
   <i name="EDIFFG">      0.00100000</i>
   <i type="int" name="NFREE">     0</i>
   <i name="POTIM">      0.50000000</i>
   <i name="SMASS">     -3.00000000</i>
   <i name="SCALEE">      1.00000000</i>
  </separator>
  <separator name="ionic md" >
   <i name="TEBEG">      0.00010000</i>
   <i name="TEEND">      0.00010000</i>
   <i type="int" name="NBLOCK">     1</i>
   <i type="int" name="KBLOCK">     1</i>
   <i type="int" name="NPACO">   256</i>
   <i name="APACO">     16.00000000</i>
  </separator>
  <separator name="symmetry" >
   <i type="int" name="ISYM">     2</i>
   <i name="SYMPREC">      0.00001000</i>
  </separator>
  <separator name="dos" >
   <i type="logical" name="LORBIT"> F  </i>
   <v name="RWIGS">     -1.00000000</v>
   <i type="int" name="NEDOS">   301</i>
   <i name="EMIN">     10.00000000</i>
   <i name="EMAX">    -10.00000000</i>
   <i name="EFERMI">      0.00000000</i>
  </separator>
  <separator name="writing" >
   <i type="int" name="NWRITE">     2</i>
   <i type="logical" name="LWAVE"> F  </i>
   <i type="logical" name="LCHARG"> F  </i>
   <i type="logical" name="LPARD"> F  </i>
   <i type="logical" name="LVTOT"> F  </i>
   <i type="logical" name="LVHAR"> F  </i>
   <i type="logical" name="LELF"> F  </i>
   <i type="logical" name="LOPTICS"> F  </i>
   <v name="STM">      0.00000000      0.00000000      0.00000000      0.00000000      0.00000000      0.00000000      0.00000000</v>
  </separator>
  <separator name="performance" >
   <i type="int" name="NPAR">    24</i>
   <i type="int" name="NSIM">     4</i>
   <i type="int" name="NBLK">    -1</i>
   <i type="logical" name="LPLANE"> T  </i>
   <i type="logical" name="LSCALAPACK"> F  </i>
   <i type="logical" name="LSCAAWARE"> F  </i>
   <i type="logical" name="LSCALU"> F  </i>
   <i type="logical" name="LASYNC"> F  </i>
   <i type="logical" name="LORBITALREAL"> F  </i>
  </separator>
  <separator name="miscellaneous" >
   <i type="int" name="IDIOT">     3</i>
   <i type="logical" name="LMUSIC"> F  </i>
   <v name="POMASS">    196.96600000</v>
   <v name="DARWINR">      0.00000000</v>
   <v name="DARWINV">      1.00000000</v>
   <i type="logical" name="LCORR"> T  </i>
  </separator>
  <i type="logical" name="GGA_COMPAT"> T  </i>
  <i type="logical" name="LBERRY"> F  </i>
  <i type="int" name="ICORELEVEL">     0</i>
  <i type="logical" name="LDAU"> F  </i>
  <i type="int" name="I_CONSTRAINED_M">     0</i>
  <separator name="electronic exchange-correlation" >
   <i type="string" name="GGA">--</i>
   <i type="int" name="VOSKOWN">     0</i>
   <i type="logical" name="LHFCALC"> F  </i>
   <i type="string" name="PRECFOCK"></i>
   <i type="logical" name="LSYMGRAD"> F  </i>
   <i type="logical" name="LHFONE"> F  </i>
   <i type="logical" name="LRHFCALC"> F  </i>
   <i type="logical" name="LTHOMAS"> F  </i>
   <i type="logical" name="LMODELHF"> F  </i>
   <i name="ENCUT4O">     -1.00000000</i>
   <i type="int" name="EXXOEP">     0</i>
   <i type="int" name="FOURORBIT">     0</i>
   <i name="AEXX">      0.00000000</i>
   <i name="HFALPHA">      0.00000000</i>
   <i name="MCALPHA">      0.00000000</i>
   <i name="ALDAX">      1.00000000</i>
   <i name="AGGAX">      1.00000000</i>
   <i name="ALDAC">      1.00000000</i>
   <i name="AGGAC">      1.00000000</i>
   <i type="int" name="NKREDX">     1</i>
   <i type="int" name="NKREDY">     1</i>
   <i type="int" name="NKREDZ">     1</i>
   <i type="logical" name="SHIFTRED"> F  </i>
   <i type="logical" name="ODDONLY"> F  </i>
   <i type="logical" name="EVENONLY"> F  </i>
   <i type="int" name="LMAXFOCK">     0</i>
   <i type="int" name="NMAXFOCKAE">     0</i>
   <i type="logical" name="LFOCKAEDFT"> F  </i>
   <i name="HFSCREEN">      0.00000000</i>
   <i name="HFSCREENC">      0.00000000</i>
   <i type="int" name="NBANDSGWLOW">     0</i>
  </separator>
  <separator name="vdW DFT" >
   <i type="logical" name="LUSE_VDW"> F  </i>
   <i name="Zab_VDW">     -0.84910000</i>
   <i name="PARAM1">      0.12340000</i>
   <i name="PARAM2">      1.00000000</i>
   <i name="PARAM3">      0.00000000</i>
  </separator>
  <separator name="model GW" >
   <i type="int" name="MODEL_GW">     0</i>
   <i name="MODEL_EPS0">      8.28289352</i>
   <i name="MODEL_ALPHA">      1.00000000</i>
  </separator>
  <separator name="linear response parameters" >
   <i type="logical" name="LEPSILON"> F  </i>
   <i type="logical" name="LRPA"> F  </i>
   <i type="logical" name="LNABLA"> F  </i>
   <i type="logical" name="LVEL"> F  </i>
   <i type="int" name="KINTER">     0</i>
   <i name="CSHIFT">      0.10000000</i>
   <i name="OMEGAMAX">     -1.00000000</i>
   <i name="DEG_THRESHOLD">      0.00200000</i>
  </separator>
  <separator name="orbital magnetization" >
   <i type="logical" name="NUCIND"> F  </i>
   <v name="MAGPOS">      0.00000000      0.00000000      0.00000000</v>
   <i type="logical" name="LNICSALL"> T  </i>
   <i type="logical" name="ORBITALMAG"> F  </i>
   <i type="logical" name="LMAGBLOCH"> F  </i>
   <i type="logical" name="LCHIMAG"> F  </i>
   <i type="logical" name="LGAUGE"> T  </i>
   <i type="int" name="MAGATOM">     0</i>
   <v name="MAGDIPOL">      0.00000000      0.00000000      0.00000000</v>
   <v name="AVECCONST">      0.00000000      0.00000000      0.00000000</v>
  </separator>
  <separator name="response functions" >
   <i type="logical" name="LADDER"> F  </i>
   <i type="logical" name="LFXC"> F  </i>
   <i type="logical" name="LHARTREE"> T  </i>
   <i type="int" name="IBSE">     0</i>
   <v type="int" name="KPOINT">    -1     0     0     0</v>
   <i type="logical" name="LTCTE"> F  </i>
   <i type="logical" name="LTETE"> F  </i>
   <i type="logical" name="LTRIPLET"> F  </i>
   <i type="logical" name="LFXCEPS"> F  </i>
   <i type="logical" name="LFXHEG"> F  </i>
   <i type="int" name="NATURALO">     0</i>
   <i type="logical" name="L2ORDER"> F  </i>
   <i type="logical" name="LUSEW"> F  </i>
   <i name="ENCUTGW">     -2.00000000</i>
   <i name="ENCUTGWSOFT">     -2.00000000</i>
   <i name="ENCUTLF">     -1.00000000</i>
   <i type="int" name="LMAXMP2">    -1</i>
   <i name="SCISSOR">      0.00000000</i>
   <i type="int" name="NOMEGA">     0</i>
   <i type="int" name="NOMEGAR">     0</i>
   <i type="int" name="NBANDSGW">    -1</i>
   <i type="int" name="NBANDSO">    -1</i>
   <i type="int" name="NBANDSV">    -1</i>
   <i type="int" name="NELM">     1</i>
   <i type="int" name="NELMHF">     1</i>
   <i type="int" name="DIM">     3</i>
   <i type="int" name="ANTIRES">     0</i>
   <i name="OMEGAMAX">    -30.00000000</i>
   <i name="OMEGAMIN">    -30.00000000</i>
   <i name="OMEGATL">   -200.00000000</i>
   <i type="int" name="OMEGAGRID">     0</i>
   <i name="CSHIFT">     -0.10000000</i>
   <i type="logical" name="SELFENERGY"> F  </i>
   <i type="logical" name="LSPECTRAL"> F  </i>
   <i type="logical" name="LSPECTRALGW"> F  </i>
   <i type="logical" name="LSINGLES"> F  </i>
   <i type="logical" name="LFERMIGW"> F  </i>
   <i type="logical" name="ODDONLYGW"> F  </i>
   <i type="logical" name="EVENONLYGW"> F  </i>
   <i type="int" name="NKREDLFX">     1</i>
   <i type="int" name="NKREDLFY">     1</i>
   <i type="int" name="NKREDLFZ">     1</i>
   <i type="int" name="MAXMEM">  1800</i>
   <i type="int" name="TELESCOPE">     0</i>
   <i type="int" name="TAUPAR">     1</i>
   <i type="int" name="OMEGAPAR">    -1</i>
   <i name="LAMBDA">      1.00000000</i>
  </separator>
  <separator name="External order field" >
   <i name="OFIELD_KAPPA">      0.00000000</i>
   <v name="OFIELD_K">      0.00000000      0.00000000      0.00000000</v>
   <i name="OFIELD_Q6_NEAR">      0.00000000</i>
   <i name="OFIELD_Q6_FAR">      0.00000000</i>
   <i name="OFIELD_A">      0.00000000</i>
  </separator>
 </parameters>
 <atominfo>
  <atoms>       4 </atoms>
  <types>       1 </types>
  <array name="atoms" >
   <dimension dim="1">ion</dimension>
   <field type="string">element</field>
   <field type="int">atomtype</field>
   <set>
    <rc><c>Au</c><c>   1</c></rc>
    <rc><c>Au</c><c>   1</c></rc>
    <rc><c>Au</c><c>   1</c></rc>
    <rc><c>Au</c><c>   1</c></rc>
   </set>
  </array>
  <array name="atomtypes" >
   <dimension dim="1">type</dimension>
   <field type="int">atomspertype</field>
   <field type="string">element</field>
   <field>mass</field>
   <field>valence</field>
   <field type="string">pseudopotential</field>
   <set>
    <rc><c>   4</c><c>Au</c><c>    196.96600000</c><c>     11.00000000</c><c>  PAW_PBE Au 04Oct2007                  </c></rc>
   </set>
  </array>
 </atominfo>
 <structure name="initialpos" >
  <crystal>
   <varray name="basis" >
    <v>       3.80800000       0.00000000       0.00000000 </v>
    <v>       0.00000000       3.80800000       0.00000000 </v>
    <v>       0.00000000       0.00000000       3.80800000 </v>
   </varray>
   <i name="volume">     55.21929011 </i>
   <varray name="rec_basis" >
    <v>       0.26260504       0.00000000       0.00000000 </v>
    <v>       0.00000000       0.26260504       0.00000000 </v>
    <v>       0.00000000       0.00000000       0.26260504 </v>
   </varray>
  </crystal>
  <varray name="positions" >
   <v>       0.00000000       0.00000000       0.00000000 </v>
   <v>       0.00000000       0.50000000       0.50000000 </v>
   <v>       0.50000000       0.00000000       0.50000000 </v>
   <v>       0.50000000       0.50000000       0.00000000 </v>
  </varray>
 </structure>
 <calculation>
  <scstep>
   <time name="dav">    0.48    0.48</time>
   <time name="total">    0.55    0.57</time>
   <energy>
    <i name="alphaZ">    337.50409978 </i>
    <i name="ewald">  -4195.66475295 </i>
    <i name="hartreedc">   -392.46063143 </i>
    <i name="XCdc">     66.15870399 </i>
    <i name="pawpsdc">   3496.39001341 </i>
    <i name="pawaedc">  -3404.04053930 </i>
    <i name="eentropy">     -0.00215573 </i>
    <i name="bandstr">    583.02237274 </i>
    <i name="atom">   3704.32207507 </i>
    <i name="e_fr_energy">    195.22918559 </i>
    <i name="e_wo_entrp">    195.23134132 </i>
    <i name="e_0_energy">    195.22990417 </i>
   </energy>
  </scstep>
  <scstep>
   <time name="dav">    0.73    0.73</time>
   <time name="total">    0.73    0.74</time>
   <energy>
    <i name="e_fr_energy">     -8.20772830 </i>
    <i name="e_wo_entrp">     -8.20764489 </i>
    <i name="e_0_energy">     -8.20770050 </i>
   </energy>
  </scstep>
  <scstep>
   <time name="dav">    0.62    0.62</time>
   <time name="total">    0.63    0.63</time>
   <energy>
    <i name="e_fr_energy">    -10.83069505 </i>
    <i name="e_wo_entrp">    -10.83029842 </i>
    <i name="e_0_energy">    -10.83056284 </i>
   </energy>
  </scstep>
  <scstep>
   <time name="dav">    0.76    0.77</time>
   <time name="total">    0.77    0.77</time>
   <energy>
    <i name="e_fr_energy">    -10.84012052 </i>
    <i name="e_wo_entrp">    -10.83972155 </i>
    <i name="e_0_energy">    -10.83998753 </i>
   </energy>
  </scstep>
  <scstep>
   <time name="dav">    0.60    0.60</time>
   <time name="total">    0.61    0.62</time>
   <energy>
    <i name="e_fr_energy">    -10.84018934 </i>
    <i name="e_wo_entrp">    -10.83979034 </i>
    <i name="e_0_energy">    -10.84005634 </i>
   </energy>
  </scstep>
  <scstep>
   <time name="dav">    0.67    0.67</time>
   <time name="total">    0.69    0.69</time>
   <energy>
    <i name="e_fr_energy">     -9.99980943 </i>
    <i name="e_wo_entrp">     -9.99829275 </i>
    <i name="e_0_energy">     -9.99930387 </i>
   </energy>
  </scstep>
  <scstep>
   <time name="dav">    0.67    0.67</time>
   <time name="total">    0.69    0.69</time>
   <energy>
    <i name="e_fr_energy">     -9.85564081 </i>
    <i name="e_wo_entrp">     -9.85425805 </i>
    <i name="e_0_energy">     -9.85517989 </i>
   </energy>
  </scstep>
  <scstep>
   <time name="dav">    0.63    0.63</time>
   <time name="total">    0.65    0.65</time>
   <energy>
    <i name="e_fr_energy">     -9.83656399 </i>
    <i name="e_wo_entrp">     -9.83528903 </i>
    <i name="e_0_energy">     -9.83613900 </i>
   </energy>
  </scstep>
  <scstep>
   <time name="dav">    0.70    0.70</time>
   <time name="total">    0.71    0.71</time>
   <energy>
    <i name="alphaZ">    337.50409978 </i>
    <i name="ewald">  -4195.66475295 </i>
    <i name="hartreedc">   -350.15391795 </i>
    <i name="XCdc">     64.33387915 </i>
    <i name="pawpsdc">   5046.13424978 </i>
    <i name="pawaedc">  -4970.31283559 </i>
    <i name="eentropy">     -0.00127485 </i>
    <i name="bandstr">    354.00190326 </i>
    <i name="atom">   3704.32207507 </i>
    <i name="e_fr_energy">     -9.83657429 </i>
    <i name="e_wo_entrp">     -9.83529944 </i>
    <i name="e_0_energy">     -9.83614934 </i>
   </energy>
  </scstep>
  <structure>
   <crystal>
    <varray name="basis" >
     <v>       3.80800000       0.00000000       0.00000000 </v>
     <v>       0.00000000       3.80800000       0.00000000 </v>
     <v>       0.00000000       0.00000000       3.80800000 </v>
    </varray>
    <i name="volume">     55.21929011 </i>
    <varray name="rec_basis" >
     <v>       0.26260504       0.00000000       0.00000000 </v>
     <v>       0.00000000       0.26260504       0.00000000 </v>
     <v>       0.00000000       0.00000000       0.26260504 </v>
    </varray>
   </crystal>
   <varray name="positions" >
    <v>       0.00000000       0.00000000       0.00000000 </v>
    <v>       0.00000000       0.50000000       0.50000000 </v>
    <v>       0.50000000       0.00000000       0.50000000 </v>
    <v>       0.50000000       0.50000000       0.00000000 </v>
   </varray>
  </structure>
  <varray name="forces" >
   <v>       0.00000000       0.00000000      -0.00000000 </v>
   <v>       0.00000000       0.00000000       0.00000000 </v>
   <v>      -0.00000000      -0.00000000      -0.00000000 </v>
   <v>      -0.00000000      -0.00000000      -0.00000000 </v>
  </varray>
  <varray name="stress" >
   <v>     787.25580939      -0.00000000       0.00000000 </v>
   <v>      -0.00000000     787.25580939       0.00000000 </v>
   <v>      -0.00000000      -0.00000000     787.25580939 </v>
  </varray>
  <energy>
   <i name="e_fr_energy">     -9.83657429 </i>
   <i name="e_wo_entrp">     -9.83614934 </i>
   <i name="e_0_energy">     -0.00127485 </i>
  </energy>
  <time name="totalsc">    6.34    6.39</time>
  <eigenvalues>
   <array>
    <dimension dim="1">band</dimension>
    <dimension dim="2">kpoint</dimension>
    <dimension dim="3">spin</dimension>
    <field>eigene</field>
    <field>occ</field>
    <set>
     <set comment="spin 1">
      <set comment="kpoint 1">
       <r>    1.1166    1.0000 </r>
       <r>    4.0784    1.0000 </r>
       <r>    4.0784    1.0000 </r>
       <r>    4.0784    1.0000 </r>
       <r>    4.5170    1.0000 </r>
       <r>    4.5170    1.0000 </r>
       <r>    4.5170    1.0000 </r>
       <r>    7.4193    1.0000 </r>
       <r>    7.4193    1.0000 </r>
       <r>    7.4193    1.0000 </r>
       <r>    9.6088    1.0000 </r>
       <r>    9.6088    1.0000 </r>
       <r>   11.2885    1.0000 </r>
       <r>   11.2885    1.0000 </r>
       <r>   11.2885    1.0000 </r>
       <r>   11.8142    1.0000 </r>
       <r>   11.8142    1.0000 </r>
       <r>   11.8142    1.0000 </r>
       <r>   11.8142    1.0000 </r>
       <r>   11.8142    1.0000 </r>
       <r>   11.8142    1.0000 </r>
       <r>   13.8507   -0.0071 </r>
       <r>   13.8507   -0.0071 </r>
       <r>   13.8507   -0.0071 </r>
       <r>   21.1921    0.0000 </r>
       <r>   21.1921    0.0000 </r>
       <r>   21.1921    0.0000 </r>
       <r>   24.0097    0.0000 </r>
       <r>   24.0097    0.0000 </r>
       <r>   24.0097    0.0000 </r>
       <r>   24.0097    0.0000 </r>
       <r>   24.0097    0.0000 </r>
       <r>   24.0097    0.0000 </r>
       <r>   27.4000    0.0000 </r>
       <r>   32.6395    0.0000 </r>
       <r>   32.6395    0.0000 </r>
       <r>   32.6395    0.0000 </r>
       <r>   33.1013    0.0000 </r>
       <r>   33.1013    0.0000 </r>
       <r>   33.1013    0.0000 </r>
       <r>   36.4919    0.0000 </r>
       <r>   36.4919    0.0000 </r>
       <r>   36.4919    0.0000 </r>
       <r>   38.2941    0.0000 </r>
       <r>   42.2196    0.0000 </r>
       <r>   42.2196    0.0000 </r>
       <r>   42.2196    0.0000 </r>
       <r>   45.8519    0.0000 </r>
      </set>
      <set comment="kpoint 2">
       <r>    1.2927    1.0000 </r>
       <r>    4.1520    1.0000 </r>
       <r>    4.2050    1.0000 </r>
       <r>    4.2050    1.0000 </r>
       <r>    4.5875    1.0000 </r>
       <r>    4.6278    1.0000 </r>
       <r>    4.6278    1.0000 </r>
       <r>    7.3073    1.0000 </r>
       <r>    7.5089    1.0000 </r>
       <r>    7.5089    1.0000 </r>
       <r>    9.4851    1.0000 </r>
       <r>    9.6540    1.0000 </r>
       <r>   10.9427    1.0000 </r>
       <r>   10.9427    1.0000 </r>
       <r>   11.1054    1.0000 </r>
       <r>   11.1054    1.0000 </r>
       <r>   11.2313    1.0000 </r>
       <r>   11.5956    1.0000 </r>
       <r>   11.5956    1.0000 </r>
       <r>   11.8146    1.0000 </r>
       <r>   11.8146    1.0000 </r>
       <r>   12.9478    1.0000 </r>
       <r>   14.8188   -0.0000 </r>
       <r>   14.8188   -0.0000 </r>
       <r>   20.8639    0.0000 </r>
       <r>   20.8639    0.0000 </r>
       <r>   22.3512    0.0000 </r>
       <r>   23.8547    0.0000 </r>
       <r>   23.8547    0.0000 </r>
       <r>   24.1383    0.0000 </r>
       <r>   24.1383    0.0000 </r>
       <r>   24.4176    0.0000 </r>
       <r>   24.4176    0.0000 </r>
       <r>   27.6707    0.0000 </r>
       <r>   32.1143    0.0000 </r>
       <r>   32.6752    0.0000 </r>
       <r>   32.6752    0.0000 </r>
       <r>   32.8972    0.0000 </r>
       <r>   33.7239    0.0000 </r>
       <r>   33.7239    0.0000 </r>
       <r>   36.2107    0.0000 </r>
       <r>   36.4429    0.0000 </r>
       <r>   36.4429    0.0000 </r>
       <r>   39.3971    0.0000 </r>
       <r>   41.9920    0.0000 </r>
       <r>   41.9921    0.0000 </r>
       <r>   42.4809    0.0000 </r>
       <r>   44.0742    0.0000 </r>
      </set>
      <set comment="kpoint 3">
       <r>    1.8066    1.0000 </r>
       <r>    4.3354    1.0000 </r>
       <r>    4.5605    1.0000 </r>
       <r>    4.5605    1.0000 </r>
       <r>    4.7950    1.0000 </r>
       <r>    4.9587    1.0000 </r>
       <r>    4.9587    1.0000 </r>
       <r>    6.9971    1.0000 </r>
       <r>    7.7754    1.0000 </r>
       <r>    7.7754    1.0000 </r>
       <r>    9.1458    1.0000 </r>
       <r>    9.6035    1.0000 </r>
       <r>    9.6035    1.0000 </r>
       <r>    9.7859    1.0000 </r>
       <r>   10.5971    1.0000 </r>
       <r>   10.5971    1.0000 </r>
       <r>   11.0262    1.0000 </r>
       <r>   11.0262    1.0000 </r>
       <r>   11.0696    1.0000 </r>
       <r>   11.1772    1.0000 </r>
       <r>   11.8157    1.0000 </r>
       <r>   11.8157    1.0000 </r>
       <r>   16.4377    0.0000 </r>
       <r>   16.4377    0.0000 </r>
       <r>   20.2361    0.0000 </r>
       <r>   20.2361    0.0000 </r>
       <r>   23.3651    0.0000 </r>
       <r>   23.3651    0.0000 </r>
       <r>   24.3095    0.0000 </r>
       <r>   24.3095    0.0000 </r>
       <r>   24.9023    0.0000 </r>
       <r>   25.5442    0.0000 </r>
       <r>   25.5442    0.0000 </r>
       <r>   28.4473    0.0000 </r>
       <r>   31.2473    0.0000 </r>
       <r>   32.4124    0.0000 </r>
       <r>   32.6576    0.0000 </r>
       <r>   32.6576    0.0000 </r>
       <r>   35.4005    0.0000 </r>
       <r>   35.4214    0.0000 </r>
       <r>   35.4214    0.0000 </r>
       <r>   36.4177    0.0000 </r>
       <r>   36.4177    0.0000 </r>
       <r>   41.1647    0.0000 </r>
       <r>   41.1647    0.0000 </r>
       <r>   41.7790    0.0000 </r>
       <r>   41.7790    0.0000 </r>
       <r>   41.9029    0.0000 </r>
      </set>
      <set comment="kpoint 4">
       <r>    2.6036    1.0000 </r>
       <r>    4.4840    1.0000 </r>
       <r>    5.0548    1.0000 </r>
       <r>    5.0548    1.0000 </r>
       <r>    5.1260    1.0000 </r>
       <r>    5.5047    1.0000 </r>
       <r>    5.5047    1.0000 </r>
       <r>    6.5526    1.0000 </r>
       <r>    8.2106    1.0000 </r>
       <r>    8.2106    1.0000 </r>
       <r>    8.3310    1.0000 </r>
       <r>    8.3310    1.0000 </r>
       <r>    8.6946    1.0000 </r>
       <r>    9.5073    1.0000 </r>
       <r>    9.9154    1.0000 </r>
       <r>    9.9154    1.0000 </r>
       <r>    9.9927    1.0000 </r>
       <r>   10.2799    1.0000 </r>
       <r>   10.2799    1.0000 </r>
       <r>   10.8289    1.0000 </r>
       <r>   11.8168    1.0000 </r>
       <r>   11.8168    1.0000 </r>
       <r>   18.1418    0.0000 </r>
       <r>   18.1418    0.0000 </r>
       <r>   19.7214    0.0000 </r>
       <r>   19.7214    0.0000 </r>
       <r>   22.5038    0.0000 </r>
       <r>   22.5038    0.0000 </r>
       <r>   24.3795    0.0000 </r>
       <r>   24.3795    0.0000 </r>
       <r>   27.1757    0.0000 </r>
       <r>   27.1757    0.0000 </r>
       <r>   27.8771    0.0000 </r>
       <r>   29.6337    0.0000 </r>
       <r>   30.6452    0.0000 </r>
       <r>   31.9991    0.0000 </r>
       <r>   32.1847    0.0000 </r>
       <r>   32.1847    0.0000 </r>
       <r>   34.1641    0.0000 </r>
       <r>   36.6576    0.0000 </r>
       <r>   36.6576    0.0000 </r>
       <r>   37.7968    0.0000 </r>
       <r>   37.7968    0.0000 </r>
       <r>   39.6532    0.0000 </r>
       <r>   39.8160    0.0000 </r>
       <r>   39.8160    0.0000 </r>
       <r>   40.3269    0.0000 </r>
       <r>   40.3269    0.0000 </r>
      </set>
      <set comment="kpoint 5">
       <r>    3.5403    1.0000 </r>
       <r>    4.2810    1.0000 </r>
       <r>    5.4684    1.0000 </r>
       <r>    5.4684    1.0000 </r>
       <r>    5.5565    1.0000 </r>
       <r>    6.0497    1.0000 </r>
       <r>    6.2577    1.0000 </r>
       <r>    6.2577    1.0000 </r>
       <r>    7.2057    1.0000 </r>
       <r>    7.2057    1.0000 </r>
       <r>    8.3422    1.0000 </r>
       <r>    8.4879    1.0000 </r>
       <r>    8.7975    1.0000 </r>
       <r>    8.7975    1.0000 </r>
       <r>    9.3730    1.0000 </r>
       <r>    9.3730    1.0000 </r>
       <r>    9.5055    1.0000 </r>
       <r>    9.5055    1.0000 </r>
       <r>   10.2548    1.0000 </r>
       <r>   10.5449    1.0000 </r>
       <r>   11.8176    1.0000 </r>
       <r>   11.8176    1.0000 </r>
       <r>   19.4565    0.0000 </r>
       <r>   19.4565    0.0000 </r>
       <r>   19.7950    0.0000 </r>
       <r>   19.7950    0.0000 </r>
       <r>   21.2863    0.0000 </r>
       <r>   21.2863    0.0000 </r>
       <r>   24.3897    0.0000 </r>
       <r>   24.3897    0.0000 </r>
       <r>   29.0672    0.0000 </r>
       <r>   29.0672    0.0000 </r>
       <r>   30.0303    0.0000 </r>
       <r>   30.3825    0.0000 </r>
       <r>   30.8967    0.0000 </r>
       <r>   30.8967    0.0000 </r>
       <r>   31.0936    0.0000 </r>
       <r>   32.6648    0.0000 </r>
       <r>   32.8393    0.0000 </r>
       <r>   35.9574    0.0000 </r>
       <r>   37.3236    0.0000 </r>
       <r>   37.3236    0.0000 </r>
       <r>   38.4232    0.0000 </r>
       <r>   38.4232    0.0000 </r>
       <r>   40.1823    0.0000 </r>
       <r>   40.1823    0.0000 </r>
       <r>   40.2413    0.0000 </r>
       <r>   40.2413    0.0000 </r>
      </set>
      <set comment="kpoint 6">
       <r>    1.4648    1.0000 </r>
       <r>    4.2804    1.0000 </r>
       <r>    4.2804    1.0000 </r>
       <r>    4.3048    1.0000 </r>
       <r>    4.6960    1.0000 </r>
       <r>    4.6960    1.0000 </r>
       <r>    4.7562    1.0000 </r>
       <r>    7.2587    1.0000 </r>
       <r>    7.5416    1.0000 </r>
       <r>    7.5841    1.0000 </r>
       <r>    9.4523    1.0000 </r>
       <r>    9.6280    1.0000 </r>
       <r>   10.4876    1.0000 </r>
       <r>   10.5641    1.0000 </r>
       <r>   10.5641    1.0000 </r>
       <r>   10.9445    1.0000 </r>
       <r>   11.1380    1.0000 </r>
       <r>   11.1380    1.0000 </r>
       <r>   11.5951    1.0000 </r>
       <r>   11.5951    1.0000 </r>
       <r>   11.6740    1.0000 </r>
       <r>   13.9714   -0.0000 </r>
       <r>   13.9714   -0.0000 </r>
       <r>   15.5139   -0.0000 </r>
       <r>   20.4386    0.0000 </r>
       <r>   21.9325    0.0000 </r>
       <r>   21.9325    0.0000 </r>
       <r>   23.4287    0.0000 </r>
       <r>   24.2577    0.0000 </r>
       <r>   24.2577    0.0000 </r>
       <r>   24.6053    0.0000 </r>
       <r>   24.6053    0.0000 </r>
       <r>   24.7713    0.0000 </r>
       <r>   27.9212    0.0000 </r>
       <r>   31.2109    0.0000 </r>
       <r>   32.7015    0.0000 </r>
       <r>   33.3874    0.0000 </r>
       <r>   33.5439    0.0000 </r>
       <r>   33.5439    0.0000 </r>
       <r>   33.9086    0.0000 </r>
       <r>   36.1809    0.0000 </r>
       <r>   36.1809    0.0000 </r>
       <r>   36.6739    0.0000 </r>
       <r>   39.9806    0.0000 </r>
       <r>   41.8609    0.0000 </r>
       <r>   42.1805    0.0000 </r>
       <r>   42.1805    0.0000 </r>
       <r>   42.6904    0.0000 </r>
      </set>
      <set comment="kpoint 7">
       <r>    1.9667    1.0000 </r>
       <r>    4.4692    1.0000 </r>
       <r>    4.5982    1.0000 </r>
       <r>    4.6421    1.0000 </r>
       <r>    4.8962    1.0000 </r>
       <r>    5.0194    1.0000 </r>
       <r>    5.1207    1.0000 </r>
       <r>    6.9941    1.0000 </r>
       <r>    7.7793    1.0000 </r>
       <r>    7.7979    1.0000 </r>
       <r>    9.1752    1.0000 </r>
       <r>    9.2585    1.0000 </r>
       <r>    9.4220    1.0000 </r>
       <r>    9.7589    1.0000 </r>
       <r>    9.7638    1.0000 </r>
       <r>   10.4894    1.0000 </r>
       <r>   10.6570    1.0000 </r>
       <r>   10.9489    1.0000 </r>
       <r>   11.0238    1.0000 </r>
       <r>   11.5935    1.0000 </r>
       <r>   11.5995    1.0000 </r>
       <r>   12.4868    1.0000 </r>
       <r>   15.4533   -0.0000 </r>
       <r>   16.9424    0.0000 </r>
       <r>   19.6315    0.0000 </r>
       <r>   21.2274    0.0000 </r>
       <r>   22.9705    0.0000 </r>
       <r>   23.7552    0.0000 </r>
       <r>   24.0254    0.0000 </r>
       <r>   24.8405    0.0000 </r>
       <r>   25.3370    0.0000 </r>
       <r>   25.3668    0.0000 </r>
       <r>   26.0005    0.0000 </r>
       <r>   28.6323    0.0000 </r>
       <r>   30.2046    0.0000 </r>
       <r>   32.6608    0.0000 </r>
       <r>   33.1764    0.0000 </r>
       <r>   33.8642    0.0000 </r>
       <r>   34.3874    0.0000 </r>
       <r>   35.2110    0.0000 </r>
       <r>   35.4246    0.0000 </r>
       <r>   36.2088    0.0000 </r>
       <r>   37.5737    0.0000 </r>
       <r>   39.5201    0.0000 </r>
       <r>   41.2188    0.0000 </r>
       <r>   41.3200    0.0000 </r>
       <r>   41.7785    0.0000 </r>
       <r>   42.5488    0.0000 </r>
      </set>
      <set comment="kpoint 8">
       <r>    2.7461    1.0000 </r>
       <r>    4.6233    1.0000 </r>
       <r>    5.0543    1.0000 </r>
       <r>    5.1490    1.0000 </r>
       <r>    5.2152    1.0000 </r>
       <r>    5.5520    1.0000 </r>
       <r>    5.6523    1.0000 </r>
       <r>    6.5785    1.0000 </r>
       <r>    8.0484    1.0000 </r>
       <r>    8.0548    1.0000 </r>
       <r>    8.2079    1.0000 </r>
       <r>    8.2635    1.0000 </r>
       <r>    8.7549    1.0000 </r>
       <r>    8.8643    1.0000 </r>
       <r>    9.8665    1.0000 </r>
       <r>   10.0060    1.0000 </r>
       <r>   10.0229    1.0000 </r>
       <r>   10.2760    1.0000 </r>
       <r>   10.4517    1.0000 </r>
       <r>   11.3749    1.0000 </r>
       <r>   11.5840    1.0000 </r>
       <r>   11.5907    1.0000 </r>
       <r>   16.8155    0.0000 </r>
       <r>   18.5623    0.0000 </r>
       <r>   18.9326    0.0000 </r>
       <r>   20.8180    0.0000 </r>
       <r>   22.3796    0.0000 </r>
       <r>   22.8796    0.0000 </r>
       <r>   24.9848    0.0000 </r>
       <r>   25.4636    0.0000 </r>
       <r>   26.0723    0.0000 </r>
       <r>   26.9601    0.0000 </r>
       <r>   28.1256    0.0000 </r>
       <r>   29.4545    0.0000 </r>
       <r>   29.6630    0.0000 </r>
       <r>   32.2237    0.0000 </r>
       <r>   33.1119    0.0000 </r>
       <r>   33.4118    0.0000 </r>
       <r>   34.2720    0.0000 </r>
       <r>   35.0844    0.0000 </r>
       <r>   36.5223    0.0000 </r>
       <r>   36.9979    0.0000 </r>
       <r>   38.2022    0.0000 </r>
       <r>   39.3226    0.0000 </r>
       <r>   39.8998    0.0000 </r>
       <r>   40.5630    0.0000 </r>
       <r>   40.6060    0.0000 </r>
       <r>   41.2155    0.0000 </r>
      </set>
      <set comment="kpoint 9">
       <r>    3.6682    1.0000 </r>
       <r>    4.4135    1.0000 </r>
       <r>    5.5269    1.0000 </r>
       <r>    5.5753    1.0000 </r>
       <r>    5.6289    1.0000 </r>
       <r>    6.1007    1.0000 </r>
       <r>    6.2549    1.0000 </r>
       <r>    6.2834    1.0000 </r>
       <r>    7.0232    1.0000 </r>
       <r>    7.1969    1.0000 </r>
       <r>    8.0109    1.0000 </r>
       <r>    8.0641    1.0000 </r>
       <r>    8.7929    1.0000 </r>
       <r>    9.0646    1.0000 </r>
       <r>    9.3851    1.0000 </r>
       <r>    9.4482    1.0000 </r>
       <r>    9.5007    1.0000 </r>
       <r>    9.7077    1.0000 </r>
       <r>   10.3642    1.0000 </r>
       <r>   10.7800    1.0000 </r>
       <r>   11.5834    1.0000 </r>
       <r>   11.5869    1.0000 </r>
       <r>   17.8043    0.0000 </r>
       <r>   18.4012    0.0000 </r>
       <r>   20.1773    0.0000 </r>
       <r>   20.9810    0.0000 </r>
       <r>   21.6375    0.0000 </r>
       <r>   21.6566    0.0000 </r>
       <r>   25.1248    0.0000 </r>
       <r>   25.3124    0.0000 </r>
       <r>   27.7804    0.0000 </r>
       <r>   28.7643    0.0000 </r>
       <r>   28.8202    0.0000 </r>
       <r>   30.1416    0.0000 </r>
       <r>   30.2020    0.0000 </r>
       <r>   31.7739    0.0000 </r>
       <r>   31.8779    0.0000 </r>
       <r>   32.9052    0.0000 </r>
       <r>   34.2228    0.0000 </r>
       <r>   36.0141    0.0000 </r>
       <r>   36.6128    0.0000 </r>
       <r>   37.0121    0.0000 </r>
       <r>   37.2675    0.0000 </r>
       <r>   38.4441    0.0000 </r>
       <r>   39.8265    0.0000 </r>
       <r>   40.5591    0.0000 </r>
       <r>   40.7601    0.0000 </r>
       <r>   41.5205    0.0000 </r>
      </set>
      <set comment="kpoint 10">
       <r>    2.4333    1.0000 </r>
       <r>    4.7721    1.0000 </r>
       <r>    4.8495    1.0000 </r>
       <r>    4.8495    1.0000 </r>
       <r>    5.1972    1.0000 </r>
       <r>    5.1972    1.0000 </r>
       <r>    5.5183    1.0000 </r>
       <r>    6.8939    1.0000 </r>
       <r>    7.8634    1.0000 </r>
       <r>    7.8977    1.0000 </r>
       <r>    8.5330    1.0000 </r>
       <r>    8.5330    1.0000 </r>
       <r>    8.8620    1.0000 </r>
       <r>    9.0887    1.0000 </r>
       <r>    9.8916    1.0000 </r>
       <r>   10.1652    1.0000 </r>
       <r>   10.5719    1.0000 </r>
       <r>   10.5719    1.0000 </r>
       <r>   11.0175    1.0000 </r>
       <r>   11.0175    1.0000 </r>
       <r>   11.2717    1.0000 </r>
       <r>   13.8457   -0.0084 </r>
       <r>   13.8457   -0.0084 </r>
       <r>   18.1415    0.0000 </r>
       <r>   18.5229    0.0000 </r>
       <r>   22.5774    0.0000 </r>
       <r>   22.8787    0.0000 </r>
       <r>   22.8787    0.0000 </r>
       <r>   24.8193    0.0000 </r>
       <r>   24.8193    0.0000 </r>
       <r>   26.3259    0.0000 </r>
       <r>   26.3259    0.0000 </r>
       <r>   26.7849    0.0000 </r>
       <r>   28.9711    0.0000 </r>
       <r>   29.1240    0.0000 </r>
       <r>   32.5932    0.0000 </r>
       <r>   33.3445    0.0000 </r>
       <r>   34.8717    0.0000 </r>
       <r>   34.8717    0.0000 </r>
       <r>   35.4631    0.0000 </r>
       <r>   35.5989    0.0000 </r>
       <r>   35.5989    0.0000 </r>
       <r>   36.8874    0.0000 </r>
       <r>   39.2321    0.0000 </r>
       <r>   41.2235    0.0000 </r>
       <r>   41.5146    0.0000 </r>
       <r>   41.5146    0.0000 </r>
       <r>   41.6247    0.0000 </r>
      </set>
      <set comment="kpoint 11">
       <r>    3.1581    1.0000 </r>
       <r>    5.0223    1.0000 </r>
       <r>    5.1256    1.0000 </r>
       <r>    5.3978    1.0000 </r>
       <r>    5.4780    1.0000 </r>
       <r>    5.6887    1.0000 </r>
       <r>    6.0018    1.0000 </r>
       <r>    6.6159    1.0000 </r>
       <r>    7.4570    1.0000 </r>
       <r>    7.7866    1.0000 </r>
       <r>    7.8808    1.0000 </r>
       <r>    8.0376    1.0000 </r>
       <r>    8.2495    1.0000 </r>
       <r>    8.9144    1.0000 </r>
       <r>    9.6897    1.0000 </r>
       <r>   10.0227    1.0000 </r>
       <r>   10.1820    1.0000 </r>
       <r>   10.2676    1.0000 </r>
       <r>   10.2912    1.0000 </r>
       <r>   11.0100    1.0000 </r>
       <r>   11.0932    1.0000 </r>
       <r>   12.5022    1.0000 </r>
       <r>   15.0657   -0.0000 </r>
       <r>   17.5615    0.0000 </r>
       <r>   19.6283    0.0000 </r>
       <r>   22.0606    0.0000 </r>
       <r>   22.1888    0.0000 </r>
       <r>   23.8936    0.0000 </r>
       <r>   24.4977    0.0000 </r>
       <r>   26.3203    0.0000 </r>
       <r>   26.5807    0.0000 </r>
       <r>   27.5459    0.0000 </r>
       <r>   27.9948    0.0000 </r>
       <r>   28.2533    0.0000 </r>
       <r>   29.6272    0.0000 </r>
       <r>   32.3920    0.0000 </r>
       <r>   33.2041    0.0000 </r>
       <r>   34.1075    0.0000 </r>
       <r>   34.6596    0.0000 </r>
       <r>   35.0470    0.0000 </r>
       <r>   35.9723    0.0000 </r>
       <r>   36.1113    0.0000 </r>
       <r>   37.2349    0.0000 </r>
       <r>   40.1489    0.0000 </r>
       <r>   41.1369    0.0000 </r>
       <r>   41.1568    0.0000 </r>
       <r>   41.2781    0.0000 </r>
       <r>   41.6279    0.0000 </r>
      </set>
      <set comment="kpoint 12">
       <r>    4.0291    1.0000 </r>
       <r>    4.7836    1.0000 </r>
       <r>    5.6362    1.0000 </r>
       <r>    5.8370    1.0000 </r>
       <r>    5.8822    1.0000 </r>
       <r>    6.2355    1.0000 </r>
       <r>    6.3307    1.0000 </r>
       <r>    6.3531    1.0000 </r>
       <r>    6.6102    1.0000 </r>
       <r>    7.1575    1.0000 </r>
       <r>    7.4521    1.0000 </r>
       <r>    7.6487    1.0000 </r>
       <r>    8.8018    1.0000 </r>
       <r>    9.0886    1.0000 </r>
       <r>    9.3421    1.0000 </r>
       <r>    9.4951    1.0000 </r>
       <r>    9.4962    1.0000 </r>
       <r>    9.5982    1.0000 </r>
       <r>   10.8505    1.0000 </r>
       <r>   11.0081    1.0000 </r>
       <r>   11.0257    1.0000 </r>
       <r>   11.5519    1.0000 </r>
       <r>   16.0441   -0.0000 </r>
       <r>   16.8065    0.0000 </r>
       <r>   21.1786    0.0000 </r>
       <r>   21.7358    0.0000 </r>
       <r>   21.8473    0.0000 </r>
       <r>   22.6438    0.0000 </r>
       <r>   25.9697    0.0000 </r>
       <r>   26.9379    0.0000 </r>
       <r>   27.1045    0.0000 </r>
       <r>   27.3868    0.0000 </r>
       <r>   27.9670    0.0000 </r>
       <r>   29.3112    0.0000 </r>
       <r>   30.0483    0.0000 </r>
       <r>   31.8787    0.0000 </r>
       <r>   32.6190    0.0000 </r>
       <r>   33.5566    0.0000 </r>
       <r>   34.1282    0.0000 </r>
       <r>   35.3759    0.0000 </r>
       <r>   36.3664    0.0000 </r>
       <r>   37.0686    0.0000 </r>
       <r>   38.4638    0.0000 </r>
       <r>   38.6182    0.0000 </r>
       <r>   38.8922    0.0000 </r>
       <r>   40.1013    0.0000 </r>
       <r>   41.4269    0.0000 </r>
       <r>   42.2960    0.0000 </r>
      </set>
      <set comment="kpoint 13">
       <r>    3.7903    1.0000 </r>
       <r>    5.3310    1.0000 </r>
       <r>    5.6119    1.0000 </r>
       <r>    5.6119    1.0000 </r>
       <r>    5.8984    1.0000 </r>
       <r>    5.8984    1.0000 </r>
       <r>    6.4023    1.0000 </r>
       <r>    6.5698    1.0000 </r>
       <r>    6.9385    1.0000 </r>
       <r>    6.9385    1.0000 </r>
       <r>    7.6197    1.0000 </r>
       <r>    7.7521    1.0000 </r>
       <r>    8.4544    1.0000 </r>
       <r>    8.7431    1.0000 </r>
       <r>    9.3698    1.0000 </r>
       <r>    9.7349    1.0000 </r>
       <r>    9.7349    1.0000 </r>
       <r>   10.2670    1.0000 </r>
       <r>   10.2670    1.0000 </r>
       <r>   10.6601    1.0000 </r>
       <r>   10.8783    1.0000 </r>
       <r>   13.6145    0.7610 </r>
       <r>   13.6145    0.7610 </r>
       <r>   16.3802    0.0000 </r>
       <r>   21.0244    0.0000 </r>
       <r>   22.0271    0.0000 </r>
       <r>   23.2156    0.0000 </r>
       <r>   23.2156    0.0000 </r>
       <r>   25.3018    0.0000 </r>
       <r>   25.3018    0.0000 </r>
       <r>   26.7537    0.0000 </r>
       <r>   28.4647    0.0000 </r>
       <r>   28.4647    0.0000 </r>
       <r>   29.2122    0.0000 </r>
       <r>   29.5768    0.0000 </r>
       <r>   31.8139    0.0000 </r>
       <r>   32.8178    0.0000 </r>
       <r>   32.8351    0.0000 </r>
       <r>   35.4280    0.0000 </r>
       <r>   35.4280    0.0000 </r>
       <r>   35.6192    0.0000 </r>
       <r>   35.6192    0.0000 </r>
       <r>   37.8888    0.0000 </r>
       <r>   40.0477    0.0000 </r>
       <r>   40.8828    0.0000 </r>
       <r>   41.4372    0.0000 </r>
       <r>   42.0598    0.0000 </r>
       <r>   42.0598    0.0000 </r>
      </set>
      <set comment="kpoint 14">
       <r>    4.5511    1.0000 </r>
       <r>    5.2820    1.0000 </r>
       <r>    5.6898    1.0000 </r>
       <r>    6.1285    1.0000 </r>
       <r>    6.1507    1.0000 </r>
       <r>    6.3517    1.0000 </r>
       <r>    6.3974    1.0000 </r>
       <r>    6.4431    1.0000 </r>
       <r>    6.5877    1.0000 </r>
       <r>    7.0089    1.0000 </r>
       <r>    7.0506    1.0000 </r>
       <r>    7.4463    1.0000 </r>
       <r>    8.8069    1.0000 </r>
       <r>    8.8917    1.0000 </r>
       <r>    9.1172    1.0000 </r>
       <r>    9.2300    1.0000 </r>
       <r>    9.2816    1.0000 </r>
       <r>    9.5235    1.0000 </r>
       <r>   10.2986    1.0000 </r>
       <r>   10.4075    1.0000 </r>
       <r>   11.6309    1.0000 </r>
       <r>   12.5121    1.0000 </r>
       <r>   14.5945   -0.0000 </r>
       <r>   15.4582   -0.0000 </r>
       <r>   22.0368    0.0000 </r>
       <r>   22.3942    0.0000 </r>
       <r>   22.5318    0.0000 </r>
       <r>   23.9998    0.0000 </r>
       <r>   24.4192    0.0000 </r>
       <r>   25.6077    0.0000 </r>
       <r>   26.8409    0.0000 </r>
       <r>   28.2364    0.0000 </r>
       <r>   28.9351    0.0000 </r>
       <r>   29.6866    0.0000 </r>
       <r>   30.0134    0.0000 </r>
       <r>   31.3224    0.0000 </r>
       <r>   32.6236    0.0000 </r>
       <r>   33.6011    0.0000 </r>
       <r>   34.4200    0.0000 </r>
       <r>   34.5367    0.0000 </r>
       <r>   36.3358    0.0000 </r>
       <r>   36.6174    0.0000 </r>
       <r>   37.6301    0.0000 </r>
       <r>   38.2106    0.0000 </r>
       <r>   41.3158    0.0000 </r>
       <r>   41.4470    0.0000 </r>
       <r>   41.8071    0.0000 </r>
       <r>   42.2031    0.0000 </r>
      </set>
      <set comment="kpoint 15">
       <r>    5.1193    1.0000 </r>
       <r>    5.6446    1.0000 </r>
       <r>    5.6446    1.0000 </r>
       <r>    5.7124    1.0000 </r>
       <r>    6.5047    1.0000 </r>
       <r>    6.5114    1.0000 </r>
       <r>    6.5114    1.0000 </r>
       <r>    6.8344    1.0000 </r>
       <r>    6.8491    1.0000 </r>
       <r>    6.8752    1.0000 </r>
       <r>    6.8752    1.0000 </r>
       <r>    7.2781    1.0000 </r>
       <r>    8.6158    1.0000 </r>
       <r>    8.8199    1.0000 </r>
       <r>    8.8613    1.0000 </r>
       <r>    8.8613    1.0000 </r>
       <r>    9.1554    1.0000 </r>
       <r>    9.6404    1.0000 </r>
       <r>    9.6404    1.0000 </r>
       <r>    9.9222    1.0000 </r>
       <r>   12.5134    1.0000 </r>
       <r>   13.4665    1.0142 </r>
       <r>   13.4665    1.0142 </r>
       <r>   14.4034   -0.0000 </r>
       <r>   22.4571    0.0000 </r>
       <r>   23.2399    0.0000 </r>
       <r>   23.2399    0.0000 </r>
       <r>   24.0215    0.0000 </r>
       <r>   24.3205    0.0000 </r>
       <r>   25.4952    0.0000 </r>
       <r>   25.4952    0.0000 </r>
       <r>   26.9489    0.0000 </r>
       <r>   30.2493    0.0000 </r>
       <r>   30.2493    0.0000 </r>
       <r>   30.7254    0.0000 </r>
       <r>   30.8063    0.0000 </r>
       <r>   32.7883    0.0000 </r>
       <r>   34.7051    0.0000 </r>
       <r>   34.7102    0.0000 </r>
       <r>   34.7102    0.0000 </r>
       <r>   35.7932    0.0000 </r>
       <r>   35.7932    0.0000 </r>
       <r>   36.1040    0.0000 </r>
       <r>   37.1854    0.0000 </r>
       <r>   41.0690    0.0000 </r>
       <r>   41.6331    0.0000 </r>
       <r>   41.6331    0.0000 </r>
       <r>   41.7881    0.0000 </r>
      </set>
      <set comment="kpoint 16">
       <r>    1.6316    1.0000 </r>
       <r>    4.3781    1.0000 </r>
       <r>    4.3781    1.0000 </r>
       <r>    4.3781    1.0000 </r>
       <r>    4.8250    1.0000 </r>
       <r>    4.8250    1.0000 </r>
       <r>    4.8250    1.0000 </r>
       <r>    7.2238    1.0000 </r>
       <r>    7.6062    1.0000 </r>
       <r>    7.6062    1.0000 </r>
       <r>    9.5206    1.0000 </r>
       <r>    9.5206    1.0000 </r>
       <r>   10.1812    1.0000 </r>
       <r>   10.1812    1.0000 </r>
       <r>   10.1812    1.0000 </r>
       <r>   10.7587    1.0000 </r>
       <r>   10.7587    1.0000 </r>
       <r>   10.7587    1.0000 </r>
       <r>   11.6299    1.0000 </r>
       <r>   11.6299    1.0000 </r>
       <r>   11.6299    1.0000 </r>
       <r>   14.6181   -0.0000 </r>
       <r>   14.6181   -0.0000 </r>
       <r>   14.6181   -0.0000 </r>
       <r>   21.3567    0.0000 </r>
       <r>   21.3567    0.0000 </r>
       <r>   21.3567    0.0000 </r>
       <r>   24.0823    0.0000 </r>
       <r>   24.0823    0.0000 </r>
       <r>   24.0823    0.0000 </r>
       <r>   25.1253    0.0000 </r>
       <r>   25.1253    0.0000 </r>
       <r>   25.1253    0.0000 </r>
       <r>   28.1472    0.0000 </r>
       <r>   30.4334    0.0000 </r>
       <r>   33.4226    0.0000 </r>
       <r>   33.4226    0.0000 </r>
       <r>   33.7018    0.0000 </r>
       <r>   33.7018    0.0000 </r>
       <r>   33.7018    0.0000 </r>
       <r>   36.4685    0.0000 </r>
       <r>   36.4685    0.0000 </r>
       <r>   36.4685    0.0000 </r>
       <r>   39.9725    0.0000 </r>
       <r>   42.0010    0.0000 </r>
       <r>   42.0010    0.0000 </r>
       <r>   42.0010    0.0000 </r>
       <r>   42.5597    0.0000 </r>
      </set>
      <set comment="kpoint 17">
       <r>    2.1178    1.0000 </r>
       <r>    4.5598    1.0000 </r>
       <r>    4.6666    1.0000 </r>
       <r>    4.6666    1.0000 </r>
       <r>    5.0281    1.0000 </r>
       <r>    5.1896    1.0000 </r>
       <r>    5.1896    1.0000 </r>
       <r>    7.0052    1.0000 </r>
       <r>    7.7847    1.0000 </r>
       <r>    7.8003    1.0000 </r>
       <r>    9.1232    1.0000 </r>
       <r>    9.1232    1.0000 </r>
       <r>    9.2483    1.0000 </r>
       <r>    9.3881    1.0000 </r>
       <r>    9.7178    1.0000 </r>
       <r>   10.2971    1.0000 </r>
       <r>   10.3838    1.0000 </r>
       <r>   10.3838    1.0000 </r>
       <r>   11.4642    1.0000 </r>
       <r>   11.5442    1.0000 </r>
       <r>   11.5442    1.0000 </r>
       <r>   13.0072    1.0000 </r>
       <r>   15.8835   -0.0000 </r>
       <r>   15.8835   -0.0000 </r>
       <r>   20.3902    0.0000 </r>
       <r>   20.3902    0.0000 </r>
       <r>   23.0471    0.0000 </r>
       <r>   23.8319    0.0000 </r>
       <r>   23.8319    0.0000 </r>
       <r>   25.6459    0.0000 </r>
       <r>   25.6459    0.0000 </r>
       <r>   25.8636    0.0000 </r>
       <r>   26.1288    0.0000 </r>
       <r>   28.7729    0.0000 </r>
       <r>   29.3987    0.0000 </r>
       <r>   33.2457    0.0000 </r>
       <r>   33.3852    0.0000 </r>
       <r>   34.1190    0.0000 </r>
       <r>   34.1190    0.0000 </r>
       <r>   34.1586    0.0000 </r>
       <r>   35.9062    0.0000 </r>
       <r>   37.4517    0.0000 </r>
       <r>   37.4517    0.0000 </r>
       <r>   38.9254    0.0000 </r>
       <r>   40.9628    0.0000 </r>
       <r>   41.3381    0.0000 </r>
       <r>   41.3381    0.0000 </r>
       <r>   42.2116    0.0000 </r>
      </set>
      <set comment="kpoint 18">
       <r>    2.8717    1.0000 </r>
       <r>    4.7052    1.0000 </r>
       <r>    5.1218    1.0000 </r>
       <r>    5.1218    1.0000 </r>
       <r>    5.3470    1.0000 </r>
       <r>    5.7092    1.0000 </r>
       <r>    5.7092    1.0000 </r>
       <r>    6.6271    1.0000 </r>
       <r>    7.9895    1.0000 </r>
       <r>    8.0250    1.0000 </r>
       <r>    8.0250    1.0000 </r>
       <r>    8.1226    1.0000 </r>
       <r>    8.4420    1.0000 </r>
       <r>    9.0569    1.0000 </r>
       <r>    9.7099    1.0000 </r>
       <r>    9.8641    1.0000 </r>
       <r>    9.8641    1.0000 </r>
       <r>   10.0212    1.0000 </r>
       <r>   11.1718    1.0000 </r>
       <r>   11.4638    1.0000 </r>
       <r>   11.4638    1.0000 </r>
       <r>   11.5128    1.0000 </r>
       <r>   17.1476    0.0000 </r>
       <r>   17.1476    0.0000 </r>
       <r>   19.6503    0.0000 </r>
       <r>   19.6503    0.0000 </r>
       <r>   23.4874    0.0000 </r>
       <r>   23.4874    0.0000 </r>
       <r>   24.8254    0.0000 </r>
       <r>   25.7447    0.0000 </r>
       <r>   25.7447    0.0000 </r>
       <r>   27.6393    0.0000 </r>
       <r>   28.1219    0.0000 </r>
       <r>   28.5055    0.0000 </r>
       <r>   29.7192    0.0000 </r>
       <r>   32.8037    0.0000 </r>
       <r>   32.8782    0.0000 </r>
       <r>   33.8512    0.0000 </r>
       <r>   34.7301    0.0000 </r>
       <r>   34.7301    0.0000 </r>
       <r>   35.2506    0.0000 </r>
       <r>   37.9673    0.0000 </r>
       <r>   38.6816    0.0000 </r>
       <r>   38.6816    0.0000 </r>
       <r>   39.6021    0.0000 </r>
       <r>   40.7743    0.0000 </r>
       <r>   40.7743    0.0000 </r>
       <r>   41.6787    0.0000 </r>
      </set>
      <set comment="kpoint 19">
       <r>    3.7647    1.0000 </r>
       <r>    4.4941    1.0000 </r>
       <r>    5.6201    1.0000 </r>
       <r>    5.6201    1.0000 </r>
       <r>    5.7430    1.0000 </r>
       <r>    6.1837    1.0000 </r>
       <r>    6.2012    1.0000 </r>
       <r>    6.2012    1.0000 </r>
       <r>    7.1353    1.0000 </r>
       <r>    7.1353    1.0000 </r>
       <r>    7.8544    1.0000 </r>
       <r>    7.8721    1.0000 </r>
       <r>    8.5657    1.0000 </r>
       <r>    9.1086    1.0000 </r>
       <r>    9.3941    1.0000 </r>
       <r>    9.3941    1.0000 </r>
       <r>    9.4426    1.0000 </r>
       <r>   10.3140    1.0000 </r>
       <r>   10.3959    1.0000 </r>
       <r>   10.7970    1.0000 </r>
       <r>   11.4286    1.0000 </r>
       <r>   11.4286    1.0000 </r>
       <r>   17.9948    0.0000 </r>
       <r>   17.9948    0.0000 </r>
       <r>   19.2829    0.0000 </r>
       <r>   19.2829    0.0000 </r>
       <r>   23.1669    0.0000 </r>
       <r>   23.1669    0.0000 </r>
       <r>   25.6587    0.0000 </r>
       <r>   25.6587    0.0000 </r>
       <r>   26.4668    0.0000 </r>
       <r>   27.6707    0.0000 </r>
       <r>   29.4706    0.0000 </r>
       <r>   29.9583    0.0000 </r>
       <r>   30.5058    0.0000 </r>
       <r>   31.3535    0.0000 </r>
       <r>   32.6136    0.0000 </r>
       <r>   32.7339    0.0000 </r>
       <r>   35.3666    0.0000 </r>
       <r>   35.3666    0.0000 </r>
       <r>   35.4532    0.0000 </r>
       <r>   37.0348    0.0000 </r>
       <r>   38.3185    0.0000 </r>
       <r>   38.3185    0.0000 </r>
       <r>   39.6319    0.0000 </r>
       <r>   40.5984    0.0000 </r>
       <r>   40.6346    0.0000 </r>
       <r>   41.5584    0.0000 </r>
      </set>
      <set comment="kpoint 20">
       <r>    2.5561    1.0000 </r>
       <r>    4.8178    1.0000 </r>
       <r>    4.8287    1.0000 </r>
       <r>    4.8287    1.0000 </r>
       <r>    5.3983    1.0000 </r>
       <r>    5.3983    1.0000 </r>
       <r>    5.5917    1.0000 </r>
       <r>    6.9518    1.0000 </r>
       <r>    7.8446    1.0000 </r>
       <r>    7.8581    1.0000 </r>
       <r>    8.4452    1.0000 </r>
       <r>    8.4452    1.0000 </r>
       <r>    8.6451    1.0000 </r>
       <r>    9.2535    1.0000 </r>
       <r>    9.8161    1.0000 </r>
       <r>    9.9134    1.0000 </r>
       <r>    9.9938    1.0000 </r>
       <r>    9.9938    1.0000 </r>
       <r>   11.3871    1.0000 </r>
       <r>   11.3871    1.0000 </r>
       <r>   11.3878    1.0000 </r>
       <r>   14.1356   -0.0000 </r>
       <r>   14.1356   -0.0000 </r>
       <r>   16.8719    0.0000 </r>
       <r>   19.0694    0.0000 </r>
       <r>   21.7065    0.0000 </r>
       <r>   21.7065    0.0000 </r>
       <r>   23.8047    0.0000 </r>
       <r>   25.7271    0.0000 </r>
       <r>   25.7271    0.0000 </r>
       <r>   26.5858    0.0000 </r>
       <r>   26.5858    0.0000 </r>
       <r>   27.0111    0.0000 </r>
       <r>   28.1690    0.0000 </r>
       <r>   29.1905    0.0000 </r>
       <r>   33.0326    0.0000 </r>
       <r>   33.5400    0.0000 </r>
       <r>   33.5400    0.0000 </r>
       <r>   33.5840    0.0000 </r>
       <r>   35.5130    0.0000 </r>
       <r>   36.9878    0.0000 </r>
       <r>   37.1658    0.0000 </r>
       <r>   37.1658    0.0000 </r>
       <r>   39.2001    0.0000 </r>
       <r>   40.5795    0.0000 </r>
       <r>   41.2546    0.0000 </r>
       <r>   41.3673    0.0000 </r>
       <r>   41.4554    0.0000 </r>
      </set>
      <set comment="kpoint 21">
       <r>    3.2312    1.0000 </r>
       <r>    4.9371    1.0000 </r>
       <r>    5.1439    1.0000 </r>
       <r>    5.2595    1.0000 </r>
       <r>    5.7260    1.0000 </r>
       <r>    5.9023    1.0000 </r>
       <r>    6.0493    1.0000 </r>
       <r>    6.7356    1.0000 </r>
       <r>    7.5211    1.0000 </r>
       <r>    7.7346    1.0000 </r>
       <r>    7.8548    1.0000 </r>
       <r>    7.9234    1.0000 </r>
       <r>    8.0750    1.0000 </r>
       <r>    9.2105    1.0000 </r>
       <r>    9.4316    1.0000 </r>
       <r>    9.5008    1.0000 </r>
       <r>    9.6641    1.0000 </r>
       <r>   10.2286    1.0000 </r>
       <r>   11.0360    1.0000 </r>
       <r>   11.1918    1.0000 </r>
       <r>   11.1931    1.0000 </r>
       <r>   12.5719    1.0000 </r>
       <r>   15.2881   -0.0000 </r>
       <r>   17.7828    0.0000 </r>
       <r>   18.1828    0.0000 </r>
       <r>   20.6151    0.0000 </r>
       <r>   23.2243    0.0000 </r>
       <r>   23.8250    0.0000 </r>
       <r>   25.3104    0.0000 </r>
       <r>   26.7300    0.0000 </r>
       <r>   27.1110    0.0000 </r>
       <r>   27.5350    0.0000 </r>
       <r>   27.6716    0.0000 </r>
       <r>   28.2058    0.0000 </r>
       <r>   29.6237    0.0000 </r>
       <r>   32.8489    0.0000 </r>
       <r>   33.1011    0.0000 </r>
       <r>   33.1121    0.0000 </r>
       <r>   34.0125    0.0000 </r>
       <r>   34.5903    0.0000 </r>
       <r>   36.9572    0.0000 </r>
       <r>   37.3618    0.0000 </r>
       <r>   38.1143    0.0000 </r>
       <r>   39.6135    0.0000 </r>
       <r>   40.0417    0.0000 </r>
       <r>   41.0799    0.0000 </r>
       <r>   41.0957    0.0000 </r>
       <r>   41.4993    0.0000 </r>
      </set>
      <set comment="kpoint 22">
       <r>    4.0299    1.0000 </r>
       <r>    4.7052    1.0000 </r>
       <r>    5.6278    1.0000 </r>
       <r>    5.7952    1.0000 </r>
       <r>    6.0834    1.0000 </r>
       <r>    6.1031    1.0000 </r>
       <r>    6.2053    1.0000 </r>
       <r>    6.4210    1.0000 </r>
       <r>    7.0664    1.0000 </r>
       <r>    7.3299    1.0000 </r>
       <r>    7.4187    1.0000 </r>
       <r>    7.6184    1.0000 </r>
       <r>    8.4114    1.0000 </r>
       <r>    8.8732    1.0000 </r>
       <r>    9.1942    1.0000 </r>
       <r>    9.2865    1.0000 </r>
       <r>    9.6248    1.0000 </r>
       <r>   10.3800    1.0000 </r>
       <r>   10.7791    1.0000 </r>
       <r>   11.0708    1.0000 </r>
       <r>   11.0718    1.0000 </r>
       <r>   11.4790    1.0000 </r>
       <r>   16.2670   -0.0000 </r>
       <r>   17.0762    0.0000 </r>
       <r>   19.0142    0.0000 </r>
       <r>   19.7909    0.0000 </r>
       <r>   24.0882    0.0000 </r>
       <r>   24.6601    0.0000 </r>
       <r>   24.7492    0.0000 </r>
       <r>   26.0496    0.0000 </r>
       <r>   26.9812    0.0000 </r>
       <r>   27.4252    0.0000 </r>
       <r>   29.0358    0.0000 </r>
       <r>   29.7267    0.0000 </r>
       <r>   29.8473    0.0000 </r>
       <r>   31.6174    0.0000 </r>
       <r>   33.0923    0.0000 </r>
       <r>   33.4424    0.0000 </r>
       <r>   33.5759    0.0000 </r>
       <r>   34.1865    0.0000 </r>
       <r>   37.3250    0.0000 </r>
       <r>   38.1269    0.0000 </r>
       <r>   38.4256    0.0000 </r>
       <r>   38.8138    0.0000 </r>
       <r>   38.8861    0.0000 </r>
       <r>   40.1179    0.0000 </r>
       <r>   41.3036    0.0000 </r>
       <r>   42.1004    0.0000 </r>
      </set>
      <set comment="kpoint 23">
       <r>    3.7716    1.0000 </r>
       <r>    5.2736    1.0000 </r>
       <r>    5.2736    1.0000 </r>
       <r>    5.2789    1.0000 </r>
       <r>    6.2613    1.0000 </r>
       <r>    6.2613    1.0000 </r>
       <r>    6.3827    1.0000 </r>
       <r>    6.7981    1.0000 </r>
       <r>    7.0764    1.0000 </r>
       <r>    7.0764    1.0000 </r>
       <r>    7.7140    1.0000 </r>
       <r>    7.7484    1.0000 </r>
       <r>    8.1036    1.0000 </r>
       <r>    9.1003    1.0000 </r>
       <r>    9.2014    1.0000 </r>
       <r>    9.2046    1.0000 </r>
       <r>    9.2046    1.0000 </r>
       <r>   10.7812    1.0000 </r>
       <r>   10.7812    1.0000 </r>
       <r>   10.7998    1.0000 </r>
       <r>   10.8849    1.0000 </r>
       <r>   13.6688    0.3223 </r>
       <r>   13.6688    0.3223 </r>
       <r>   16.6149    0.0000 </r>
       <r>   18.9590    0.0000 </r>
       <r>   21.8489    0.0000 </r>
       <r>   21.8489    0.0000 </r>
       <r>   24.1491    0.0000 </r>
       <r>   25.8102    0.0000 </r>
       <r>   26.7437    0.0000 </r>
       <r>   26.7437    0.0000 </r>
       <r>   28.3559    0.0000 </r>
       <r>   28.3559    0.0000 </r>
       <r>   29.3530    0.0000 </r>
       <r>   29.6273    0.0000 </r>
       <r>   31.4347    0.0000 </r>
       <r>   32.5137    0.0000 </r>
       <r>   33.6149    0.0000 </r>
       <r>   33.6149    0.0000 </r>
       <r>   34.3680    0.0000 </r>
       <r>   37.6349    0.0000 </r>
       <r>   37.6349    0.0000 </r>
       <r>   37.9262    0.0000 </r>
       <r>   39.4713    0.0000 </r>
       <r>   40.4309    0.0000 </r>
       <r>   40.9286    0.0000 </r>
       <r>   41.3938    0.0000 </r>
       <r>   42.1506    0.0000 </r>
      </set>
      <set comment="kpoint 24">
       <r>    4.3993    1.0000 </r>
       <r>    4.9679    1.0000 </r>
       <r>    5.5002    1.0000 </r>
       <r>    5.5684    1.0000 </r>
       <r>    6.4169    1.0000 </r>
       <r>    6.4466    1.0000 </r>
       <r>    6.6150    1.0000 </r>
       <r>    6.7465    1.0000 </r>
       <r>    7.0459    1.0000 </r>
       <r>    7.0934    1.0000 </r>
       <r>    7.4580    1.0000 </r>
       <r>    7.4823    1.0000 </r>
       <r>    8.2911    1.0000 </r>
       <r>    8.6889    1.0000 </r>
       <r>    8.8496    1.0000 </r>
       <r>    8.9431    1.0000 </r>
       <r>    9.5166    1.0000 </r>
       <r>   10.1568    1.0000 </r>
       <r>   10.6128    1.0000 </r>
       <r>   10.6485    1.0000 </r>
       <r>   11.5467    1.0000 </r>
       <r>   12.4534    1.0000 </r>
       <r>   14.6632   -0.0000 </r>
       <r>   15.5854   -0.0000 </r>
       <r>   19.8607    0.0000 </r>
       <r>   20.7635    0.0000 </r>
       <r>   23.2065    0.0000 </r>
       <r>   24.5422    0.0000 </r>
       <r>   24.7743    0.0000 </r>
       <r>   25.7109    0.0000 </r>
       <r>   27.9856    0.0000 </r>
       <r>   28.7833    0.0000 </r>
       <r>   28.8612    0.0000 </r>
       <r>   29.5479    0.0000 </r>
       <r>   29.7354    0.0000 </r>
       <r>   31.0448    0.0000 </r>
       <r>   32.2186    0.0000 </r>
       <r>   33.4760    0.0000 </r>
       <r>   33.9920    0.0000 </r>
       <r>   34.4509    0.0000 </r>
       <r>   37.2121    0.0000 </r>
       <r>   37.3425    0.0000 </r>
       <r>   37.7298    0.0000 </r>
       <r>   38.7960    0.0000 </r>
       <r>   40.4657    0.0000 </r>
       <r>   41.5230    0.0000 </r>
       <r>   41.6573    0.0000 </r>
       <r>   42.3548    0.0000 </r>
      </set>
      <set comment="kpoint 25">
       <r>    4.8003    1.0000 </r>
       <r>    5.1948    1.0000 </r>
       <r>    5.1948    1.0000 </r>
       <r>    5.3570    1.0000 </r>
       <r>    6.6843    1.0000 </r>
       <r>    6.8269    1.0000 </r>
       <r>    6.8269    1.0000 </r>
       <r>    6.9538    1.0000 </r>
       <r>    7.2057    1.0000 </r>
       <r>    7.2057    1.0000 </r>
       <r>    7.3802    1.0000 </r>
       <r>    7.5190    1.0000 </r>
       <r>    8.2401    1.0000 </r>
       <r>    8.5053    1.0000 </r>
       <r>    8.5053    1.0000 </r>
       <r>    8.5250    1.0000 </r>
       <r>    9.6067    1.0000 </r>
       <r>   10.0542    1.0000 </r>
       <r>   10.0542    1.0000 </r>
       <r>   10.2429    1.0000 </r>
       <r>   12.4332    1.0000 </r>
       <r>   13.4252    1.0037 </r>
       <r>   13.4252    1.0037 </r>
       <r>   14.4156   -0.0000 </r>
       <r>   20.8201    0.0000 </r>
       <r>   21.9077    0.0000 </r>
       <r>   21.9077    0.0000 </r>
       <r>   23.1697    0.0000 </r>
       <r>   25.6836    0.0000 </r>
       <r>   26.8063    0.0000 </r>
       <r>   26.8063    0.0000 </r>
       <r>   27.9058    0.0000 </r>
       <r>   29.8685    0.0000 </r>
       <r>   29.8685    0.0000 </r>
       <r>   30.2793    0.0000 </r>
       <r>   30.3747    0.0000 </r>
       <r>   32.5970    0.0000 </r>
       <r>   34.0377    0.0000 </r>
       <r>   34.0377    0.0000 </r>
       <r>   35.6225    0.0000 </r>
       <r>   35.6718    0.0000 </r>
       <r>   36.8682    0.0000 </r>
       <r>   36.8682    0.0000 </r>
       <r>   37.8837    0.0000 </r>
       <r>   41.1923    0.0000 </r>
       <r>   41.4408    0.0000 </r>
       <r>   41.6809    0.0000 </r>
       <r>   41.6809    0.0000 </r>
      </set>
      <set comment="kpoint 26">
       <r>    2.9085    1.0000 </r>
       <r>    4.9026    1.0000 </r>
       <r>    4.9026    1.0000 </r>
       <r>    4.9026    1.0000 </r>
       <r>    5.8234    1.0000 </r>
       <r>    5.8234    1.0000 </r>
       <r>    5.8234    1.0000 </r>
       <r>    7.0601    1.0000 </r>
       <r>    7.8206    1.0000 </r>
       <r>    7.8206    1.0000 </r>
       <r>    8.1226    1.0000 </r>
       <r>    8.1226    1.0000 </r>
       <r>    8.1226    1.0000 </r>
       <r>    9.4069    1.0000 </r>
       <r>    9.4069    1.0000 </r>
       <r>    9.4069    1.0000 </r>
       <r>    9.6554    1.0000 </r>
       <r>    9.6554    1.0000 </r>
       <r>   11.4992    1.0000 </r>
       <r>   11.4992    1.0000 </r>
       <r>   11.4992    1.0000 </r>
       <r>   14.9021   -0.0000 </r>
       <r>   14.9021   -0.0000 </r>
       <r>   14.9021   -0.0000 </r>
       <r>   20.1155    0.0000 </r>
       <r>   20.1155    0.0000 </r>
       <r>   20.1155    0.0000 </r>
       <r>   26.0472    0.0000 </r>
       <r>   26.0472    0.0000 </r>
       <r>   26.0472    0.0000 </r>
       <r>   26.8837    0.0000 </r>
       <r>   27.6964    0.0000 </r>
       <r>   27.6964    0.0000 </r>
       <r>   27.6964    0.0000 </r>
       <r>   29.2482    0.0000 </r>
       <r>   32.3575    0.0000 </r>
       <r>   32.3575    0.0000 </r>
       <r>   32.3575    0.0000 </r>
       <r>   35.4152    0.0000 </r>
       <r>   35.4152    0.0000 </r>
       <r>   36.9863    0.0000 </r>
       <r>   39.1011    0.0000 </r>
       <r>   39.1011    0.0000 </r>
       <r>   39.2006    0.0000 </r>
       <r>   39.2006    0.0000 </r>
       <r>   39.2006    0.0000 </r>
       <r>   41.1895    0.0000 </r>
       <r>   41.1895    0.0000 </r>
      </set>
      <set comment="kpoint 27">
       <r>    3.4406    1.0000 </r>
       <r>    4.8839    1.0000 </r>
       <r>    5.1191    1.0000 </r>
       <r>    5.1191    1.0000 </r>
       <r>    6.2115    1.0000 </r>
       <r>    6.2328    1.0000 </r>
       <r>    6.2328    1.0000 </r>
       <r>    7.0590    1.0000 </r>
       <r>    7.5797    1.0000 </r>
       <r>    7.6945    1.0000 </r>
       <r>    7.6945    1.0000 </r>
       <r>    7.7810    1.0000 </r>
       <r>    7.8823    1.0000 </r>
       <r>    8.8768    1.0000 </r>
       <r>    9.0696    1.0000 </r>
       <r>    9.0696    1.0000 </r>
       <r>    9.6803    1.0000 </r>
       <r>   10.1636    1.0000 </r>
       <r>   11.3288    1.0000 </r>
       <r>   11.3288    1.0000 </r>
       <r>   11.4176    1.0000 </r>
       <r>   13.0205    1.0000 </r>
       <r>   15.8493   -0.0000 </r>
       <r>   15.8493   -0.0000 </r>
       <r>   18.8057    0.0000 </r>
       <r>   18.8057    0.0000 </r>
       <r>   21.5119    0.0000 </r>
       <r>   25.6557    0.0000 </r>
       <r>   26.2082    0.0000 </r>
       <r>   26.2082    0.0000 </r>
       <r>   28.0550    0.0000 </r>
       <r>   28.0550    0.0000 </r>
       <r>   28.0952    0.0000 </r>
       <r>   28.8425    0.0000 </r>
       <r>   29.2566    0.0000 </r>
       <r>   31.9345    0.0000 </r>
       <r>   32.1594    0.0000 </r>
       <r>   32.1594    0.0000 </r>
       <r>   34.2689    0.0000 </r>
       <r>   35.6517    0.0000 </r>
       <r>   37.3257    0.0000 </r>
       <r>   38.3554    0.0000 </r>
       <r>   39.3282    0.0000 </r>
       <r>   39.3351    0.0000 </r>
       <r>   39.9552    0.0000 </r>
       <r>   39.9552    0.0000 </r>
       <r>   40.7324    0.0000 </r>
       <r>   41.9977    0.0000 </r>
      </set>
      <set comment="kpoint 28">
       <r>    4.0576    1.0000 </r>
       <r>    4.6001    1.0000 </r>
       <r>    5.3938    1.0000 </r>
       <r>    5.3938    1.0000 </r>
       <r>    6.2687    1.0000 </r>
       <r>    6.2687    1.0000 </r>
       <r>    6.6539    1.0000 </r>
       <r>    6.9267    1.0000 </r>
       <r>    7.3342    1.0000 </r>
       <r>    7.5359    1.0000 </r>
       <r>    7.6288    1.0000 </r>
       <r>    7.6288    1.0000 </r>
       <r>    8.0809    1.0000 </r>
       <r>    8.4192    1.0000 </r>
       <r>    8.8312    1.0000 </r>
       <r>    8.8312    1.0000 </r>
       <r>   10.2740    1.0000 </r>
       <r>   10.6823    1.0000 </r>
       <r>   11.1270    1.0000 </r>
       <r>   11.1349    1.0000 </r>
       <r>   11.1349    1.0000 </r>
       <r>   11.4372    1.0000 </r>
       <r>   16.7236    0.0000 </r>
       <r>   16.7236    0.0000 </r>
       <r>   17.8352    0.0000 </r>
       <r>   17.8352    0.0000 </r>
       <r>   23.0128    0.0000 </r>
       <r>   24.4111    0.0000 </r>
       <r>   26.5089    0.0000 </r>
       <r>   26.5089    0.0000 </r>
       <r>   27.5766    0.0000 </r>
       <r>   27.5766    0.0000 </r>
       <r>   29.0667    0.0000 </r>
       <r>   29.2173    0.0000 </r>
       <r>   30.4150    0.0000 </r>
       <r>   32.3155    0.0000 </r>
       <r>   32.5809    0.0000 </r>
       <r>   32.6099    0.0000 </r>
       <r>   32.6099    0.0000 </r>
       <r>   34.0456    0.0000 </r>
       <r>   38.6670    0.0000 </r>
       <r>   38.9154    0.0000 </r>
       <r>   39.3182    0.0000 </r>
       <r>   39.3182    0.0000 </r>
       <r>   39.3580    0.0000 </r>
       <r>   39.8622    0.0000 </r>
       <r>   40.6695    0.0000 </r>
       <r>   41.9929    0.0000 </r>
      </set>
      <set comment="kpoint 29">
       <r>    3.7602    1.0000 </r>
       <r>    4.9238    1.0000 </r>
       <r>    4.9238    1.0000 </r>
       <r>    5.0555    1.0000 </r>
       <r>    6.4803    1.0000 </r>
       <r>    6.5969    1.0000 </r>
       <r>    6.5969    1.0000 </r>
       <r>    7.4057    1.0000 </r>
       <r>    7.5385    1.0000 </r>
       <r>    7.5385    1.0000 </r>
       <r>    7.7323    1.0000 </r>
       <r>    7.7800    1.0000 </r>
       <r>    7.9315    1.0000 </r>
       <r>    8.5871    1.0000 </r>
       <r>    8.5871    1.0000 </r>
       <r>    8.6074    1.0000 </r>
       <r>    9.8314    1.0000 </r>
       <r>   10.5994    1.0000 </r>
       <r>   11.2280    1.0000 </r>
       <r>   11.2808    1.0000 </r>
       <r>   11.2808    1.0000 </r>
       <r>   13.8672   -0.0040 </r>
       <r>   13.8672   -0.0040 </r>
       <r>   16.3053   -0.0000 </r>
       <r>   17.6219    0.0000 </r>
       <r>   20.0406    0.0000 </r>
       <r>   20.0406    0.0000 </r>
       <r>   24.2384    0.0000 </r>
       <r>   26.4944    0.0000 </r>
       <r>   28.1092    0.0000 </r>
       <r>   28.1092    0.0000 </r>
       <r>   28.7527    0.0000 </r>
       <r>   28.7527    0.0000 </r>
       <r>   28.8145    0.0000 </r>
       <r>   29.8410    0.0000 </r>
       <r>   30.7124    0.0000 </r>
       <r>   31.9696    0.0000 </r>
       <r>   31.9696    0.0000 </r>
       <r>   33.6671    0.0000 </r>
       <r>   36.4370    0.0000 </r>
       <r>   36.7086    0.0000 </r>
       <r>   38.5559    0.0000 </r>
       <r>   39.6514    0.0000 </r>
       <r>   39.7179    0.0000 </r>
       <r>   39.7179    0.0000 </r>
       <r>   40.9595    0.0000 </r>
       <r>   41.2634    0.0000 </r>
       <r>   42.4662    0.0000 </r>
      </set>
      <set comment="kpoint 30">
       <r>    4.1538    1.0000 </r>
       <r>    4.5691    1.0000 </r>
       <r>    4.9974    1.0000 </r>
       <r>    5.0368    1.0000 </r>
       <r>    6.5600    1.0000 </r>
       <r>    6.6013    1.0000 </r>
       <r>    7.0623    1.0000 </r>
       <r>    7.4197    1.0000 </r>
       <r>    7.5243    1.0000 </r>
       <r>    7.6198    1.0000 </r>
       <r>    7.8932    1.0000 </r>
       <r>    7.9014    1.0000 </r>
       <r>    8.1227    1.0000 </r>
       <r>    8.1738    1.0000 </r>
       <r>    8.3701    1.0000 </r>
       <r>    8.4246    1.0000 </r>
       <r>   10.2365    1.0000 </r>
       <r>   10.9024    1.0000 </r>
       <r>   11.0330    1.0000 </r>
       <r>   11.0456    1.0000 </r>
       <r>   11.3049    1.0000 </r>
       <r>   12.3077    1.0000 </r>
       <r>   14.7795   -0.0000 </r>
       <r>   15.6816   -0.0000 </r>
       <r>   17.9560    0.0000 </r>
       <r>   18.8692    0.0000 </r>
       <r>   21.4392    0.0000 </r>
       <r>   22.8539    0.0000 </r>
       <r>   26.9894    0.0000 </r>
       <r>   27.7627    0.0000 </r>
       <r>   28.5001    0.0000 </r>
       <r>   28.5407    0.0000 </r>
       <r>   28.5546    0.0000 </r>
       <r>   29.2669    0.0000 </r>
       <r>   30.2310    0.0000 </r>
       <r>   31.5875    0.0000 </r>
       <r>   31.9131    0.0000 </r>
       <r>   32.2253    0.0000 </r>
       <r>   33.0026    0.0000 </r>
       <r>   34.7399    0.0000 </r>
       <r>   37.7844    0.0000 </r>
       <r>   38.9604    0.0000 </r>
       <r>   39.4158    0.0000 </r>
       <r>   39.9524    0.0000 </r>
       <r>   40.0889    0.0000 </r>
       <r>   41.2570    0.0000 </r>
       <r>   41.5888    0.0000 </r>
       <r>   41.6723    0.0000 </r>
      </set>
      <set comment="kpoint 31">
       <r>    4.3425    1.0000 </r>
       <r>    4.6285    1.0000 </r>
       <r>    4.6285    1.0000 </r>
       <r>    4.7819    1.0000 </r>
       <r>    6.8282    1.0000 </r>
       <r>    6.9898    1.0000 </r>
       <r>    6.9898    1.0000 </r>
       <r>    7.2889    1.0000 </r>
       <r>    7.8014    1.0000 </r>
       <r>    7.9408    1.0000 </r>
       <r>    7.9408    1.0000 </r>
       <r>    8.0555    1.0000 </r>
       <r>    8.1775    1.0000 </r>
       <r>    8.2592    1.0000 </r>
       <r>    8.2592    1.0000 </r>
       <r>    8.4156    1.0000 </r>
       <r>   10.2517    1.0000 </r>
       <r>   10.6730    1.0000 </r>
       <r>   10.6730    1.0000 </r>
       <r>   10.7676    1.0000 </r>
       <r>   12.1819    1.0000 </r>
       <r>   13.2702    1.0000 </r>
       <r>   13.2702    1.0000 </r>
       <r>   14.3388   -0.0000 </r>
       <r>   18.9356    0.0000 </r>
       <r>   20.0904    0.0000 </r>
       <r>   20.0904    0.0000 </r>
       <r>   21.4225    0.0000 </r>
       <r>   27.4493    0.0000 </r>
       <r>   27.9889    0.0000 </r>
       <r>   27.9889    0.0000 </r>
       <r>   28.1635    0.0000 </r>
       <r>   29.6931    0.0000 </r>
       <r>   29.7246    0.0000 </r>
       <r>   29.7246    0.0000 </r>
       <r>   30.7830    0.0000 </r>
       <r>   32.1797    0.0000 </r>
       <r>   33.1067    0.0000 </r>
       <r>   33.1067    0.0000 </r>
       <r>   34.4991    0.0000 </r>
       <r>   37.6755    0.0000 </r>
       <r>   38.7219    0.0000 </r>
       <r>   38.7219    0.0000 </r>
       <r>   39.4436    0.0000 </r>
       <r>   41.2125    0.0000 </r>
       <r>   41.4322    0.0000 </r>
       <r>   41.7772    0.0000 </r>
       <r>   41.7772    0.0000 </r>
      </set>
      <set comment="kpoint 32">
       <r>    3.8279    1.0000 </r>
       <r>    4.6876    1.0000 </r>
       <r>    4.6876    1.0000 </r>
       <r>    4.6876    1.0000 </r>
       <r>    6.7724    1.0000 </r>
       <r>    6.7724    1.0000 </r>
       <r>    6.7724    1.0000 </r>
       <r>    7.6157    1.0000 </r>
       <r>    7.6157    1.0000 </r>
       <r>    8.1478    1.0000 </r>
       <r>    8.1478    1.0000 </r>
       <r>    8.1478    1.0000 </r>
       <r>    8.2038    1.0000 </r>
       <r>    8.2038    1.0000 </r>
       <r>    8.2038    1.0000 </r>
       <r>    8.2339    1.0000 </r>
       <r>   10.4544    1.0000 </r>
       <r>   10.4544    1.0000 </r>
       <r>   11.4037    1.0000 </r>
       <r>   11.4037    1.0000 </r>
       <r>   11.4037    1.0000 </r>
       <r>   14.2275   -0.0000 </r>
       <r>   14.2275   -0.0000 </r>
       <r>   14.2275   -0.0000 </r>
       <r>   18.6023    0.0000 </r>
       <r>   18.6023    0.0000 </r>
       <r>   18.6023    0.0000 </r>
       <r>   22.7090    0.0000 </r>
       <r>   27.8974    0.0000 </r>
       <r>   27.8974    0.0000 </r>
       <r>   27.8974    0.0000 </r>
       <r>   28.1744    0.0000 </r>
       <r>   30.3571    0.0000 </r>
       <r>   30.3571    0.0000 </r>
       <r>   30.3571    0.0000 </r>
       <r>   30.7550    0.0000 </r>
       <r>   30.7550    0.0000 </r>
       <r>   30.7550    0.0000 </r>
       <r>   34.5536    0.0000 </r>
       <r>   34.5536    0.0000 </r>
       <r>   38.4630    0.0000 </r>
       <r>   39.0174    0.0000 </r>
       <r>   39.0174    0.0000 </r>
       <r>   40.7724    0.0000 </r>
[...]
       <r>   39.7718    0.0000 </r>
       <r>   40.2977    0.0000 </r>
       <r>   40.7360    0.0000 </r>
       <r>   40.7360    0.0000 </r>
       <r>   40.9375    0.0000 </r>
       <r>   41.7148    0.0000 </r>
       <r>   41.8377    0.0000 </r>
      </set>
      <set comment="kpoint 34">
       <r>    4.0308    1.0000 </r>
       <r>    4.2216    1.0000 </r>
       <r>    4.2216    1.0000 </r>
       <r>    4.3090    1.0000 </r>
       <r>    7.0566    1.0000 </r>
       <r>    7.1505    1.0000 </r>
       <r>    7.1505    1.0000 </r>
       <r>    7.3809    1.0000 </r>
       <r>    7.5043    1.0000 </r>
       <r>    7.6329    1.0000 </r>
       <r>    7.6329    1.0000 </r>
       <r>    7.6710    1.0000 </r>
       <r>    9.2909    1.0000 </r>
       <r>    9.2909    1.0000 </r>
       <r>    9.3510    1.0000 </r>
       <r>    9.4501    1.0000 </r>
       <r>   10.8280    1.0000 </r>
       <r>   11.1689    1.0000 </r>
       <r>   11.1689    1.0000 </r>
       <r>   11.1791    1.0000 </r>
       <r>   11.7408    1.0000 </r>
       <r>   12.9299    1.0000 </r>
       <r>   12.9299    1.0000 </r>
       <r>   13.7633   -0.0348 </r>
       <r>   17.8708    0.0000 </r>
       <r>   18.6722    0.0000 </r>
       <r>   18.6722    0.0000 </r>
       <r>   19.8726    0.0000 </r>
       <r>   27.4830    0.0000 </r>
       <r>   27.5435    0.0000 </r>
       <r>   27.5464    0.0000 </r>
       <r>   27.5464    0.0000 </r>
       <r>   30.5675    0.0000 </r>
       <r>   30.9523    0.0000 </r>
       <r>   30.9523    0.0000 </r>
       <r>   31.8487    0.0000 </r>
       <r>   31.9259    0.0000 </r>
       <r>   32.2937    0.0000 </r>
       <r>   32.2937    0.0000 </r>
       <r>   33.2864    0.0000 </r>
       <r>   39.8755    0.0000 </r>
       <r>   40.5460    0.0000 </r>
       <r>   40.5460    0.0000 </r>
       <r>   41.0502    0.0000 </r>
       <r>   41.2632    0.0000 </r>
       <r>   41.5835    0.0000 </r>
       <r>   41.8589    0.0000 </r>
       <r>   41.8695    0.0000 </r>
      </set>
      <set comment="kpoint 35">
       <r>    3.9173    1.0000 </r>
       <r>    4.0123    1.0000 </r>
       <r>    4.0123    1.0000 </r>
       <r>    4.0123    1.0000 </r>
       <r>    7.2647    1.0000 </r>
       <r>    7.2647    1.0000 </r>
       <r>    7.2647    1.0000 </r>
       <r>    7.3801    1.0000 </r>
       <r>    7.3801    1.0000 </r>
       <r>    7.4377    1.0000 </r>
       <r>    7.4377    1.0000 </r>
       <r>    7.4377    1.0000 </r>
       <r>   10.2462    1.0000 </r>
       <r>   10.2462    1.0000 </r>
       <r>   10.2462    1.0000 </r>
       <r>   10.7896    1.0000 </r>
       <r>   11.2218    1.0000 </r>
       <r>   11.2218    1.0000 </r>
       <r>   11.3478    1.0000 </r>
       <r>   11.3478    1.0000 </r>
       <r>   11.3478    1.0000 </r>
       <r>   12.4896    1.0000 </r>
       <r>   12.4896    1.0000 </r>
       <r>   12.4896    1.0000 </r>
       <r>   17.9185    0.0000 </r>
       <r>   17.9185    0.0000 </r>
       <r>   17.9185    0.0000 </r>
       <r>   18.6738    0.0000 </r>
       <r>   27.0593    0.0000 </r>
       <r>   27.1110    0.0000 </r>
       <r>   27.1110    0.0000 </r>
       <r>   27.1110    0.0000 </r>
       <r>   31.7975    0.0000 </r>
       <r>   31.7975    0.0000 </r>
       <r>   31.7975    0.0000 </r>
       <r>   31.8632    0.0000 </r>
       <r>   31.8632    0.0000 </r>
       <r>   31.8632    0.0000 </r>
       <r>   32.3497    0.0000 </r>
       <r>   32.3497    0.0000 </r>
       <r>   41.4272    0.0000 </r>
       <r>   41.4272    0.0000 </r>
       <r>   41.5680    0.0000 </r>
       <r>   41.5680    0.0000 </r>
       <r>   41.5680    0.0000 </r>
       <r>   41.8548    0.0000 </r>
       <r>   41.8548    0.0000 </r>
       <r>   41.8550    0.0000 </r>
      </set>
     </set>
    </set>
   </array>
  </eigenvalues>
  <separator name="orbital magnetization" >
   <v name="MAGDIPOLOUT">      0.00000000      0.00000000      0.00000000</v>
  </separator>
  <dos>
   <i name="efermi">     13.64722215 </i>
   <total>
    <array>
     <dimension dim="1">gridpoints</dimension>
     <dimension dim="2">spin</dimension>
     <field>energy</field>
     <field>total</field>
     <field>integrated</field>
     <set>
      <set comment="spin 1">
       <r>    -1.1202     0.0000     0.0000 </r>
       <r>    -0.9562     0.0000     0.0000 </r>
       <r>    -0.7921     0.0000     0.0000 </r>
       <r>    -0.6281     0.0000     0.0000 </r>
       <r>    -0.4641     0.0000     0.0000 </r>
       <r>    -0.3000     0.0000     0.0000 </r>
       <r>    -0.1360     0.0000     0.0000 </r>
       <r>     0.0280     0.0000     0.0000 </r>
       <r>     0.1920    -0.0000    -0.0000 </r>
       <r>     0.3561    -0.0000    -0.0000 </r>
       <r>     0.5201    -0.0000    -0.0000 </r>
       <r>     0.6841    -0.0000    -0.0000 </r>
       <r>     0.8482    -0.0000    -0.0000 </r>
       <r>     1.0122    -0.0005    -0.0001 </r>
       <r>     1.1762     0.0123     0.0019 </r>
       <r>     1.3402     0.0838     0.0157 </r>
       <r>     1.5043     0.1793     0.0451 </r>
       <r>     1.6683     0.1465     0.0691 </r>
       <r>     1.8323     0.0889     0.0837 </r>
       <r>     1.9964     0.3251     0.1370 </r>
       <r>     2.1604     0.4536     0.2115 </r>
       <r>     2.3244     0.0607     0.2214 </r>
       <r>     2.4885     0.2007     0.2543 </r>
       <r>     2.6525     0.4936     0.3353 </r>
       <r>     2.8165     0.4390     0.4073 </r>
       <r>     2.9805     0.5129     0.4915 </r>
       <r>     3.1446     0.1492     0.5159 </r>
       <r>     3.3086     1.0362     0.6859 </r>
       <r>     3.4726     0.3226     0.7388 </r>
       <r>     3.6367     0.2523     0.7802 </r>
       <r>     3.8007     1.4363     1.0158 </r>
       <r>     3.9647     0.7703     1.1421 </r>
       <r>     4.1288     2.9445     1.6251 </r>
       <r>     4.2928     2.3262     2.0067 </r>
       <r>     4.4568     2.9573     2.4918 </r>
       <r>     4.6208     4.7827     3.2763 </r>
       <r>     4.7849     5.4539     4.1709 </r>
       <r>     4.9489     5.1495     5.0156 </r>
       <r>     5.1129     6.3878     6.0634 </r>
       <r>     5.2770     6.2976     7.0964 </r>
       <r>     5.4410     3.9017     7.7363 </r>
       <r>     5.6050     5.0386     8.5628 </r>
       <r>     5.7690     6.0757     9.5594 </r>
       <r>     5.9331     2.8408    10.0254 </r>
       <r>     6.0971     2.5749    10.4478 </r>
       <r>     6.2611     6.1547    11.4573 </r>
       <r>     6.4252     5.2080    12.3116 </r>
       <r>     6.5892     5.2854    13.1786 </r>
       <r>     6.7532     5.0752    14.0110 </r>
       <r>     6.9173     4.3805    14.7296 </r>
       <r>     7.0813     7.3643    15.9375 </r>
       <r>     7.2453     5.9033    16.9058 </r>
       <r>     7.4093     4.5587    17.6536 </r>
       <r>     7.5734     8.9486    19.1214 </r>
       <r>     7.7374     7.6875    20.3824 </r>
       <r>     7.9014     9.2392    21.8979 </r>
       <r>     8.0655     7.0238    23.0500 </r>
       <r>     8.2295     6.3676    24.0945 </r>
       <r>     8.3935     4.3495    24.8079 </r>
       <r>     8.5576     5.4602    25.7036 </r>
       <r>     8.7216     3.4282    26.2659 </r>
       <r>     8.8856     6.0388    27.2564 </r>
       <r>     9.0496     3.1099    27.7665 </r>
       <r>     9.2137     6.1262    28.7714 </r>
       <r>     9.3777     6.1617    29.7821 </r>
       <r>     9.5417     7.1663    30.9576 </r>
       <r>     9.7058     5.4273    31.8478 </r>
       <r>     9.8698     3.7818    32.4682 </r>
       <r>    10.0338     3.4687    33.0371 </r>
       <r>    10.1978     3.5285    33.6159 </r>
       <r>    10.3619     7.2015    34.7972 </r>
       <r>    10.5259     3.2709    35.3337 </r>
       <r>    10.6899     4.0765    36.0024 </r>
       <r>    10.8540     5.1536    36.8477 </r>
       <r>    11.0180     5.2178    37.7036 </r>
       <r>    11.1820     8.2474    39.0564 </r>
       <r>    11.3461     6.2776    40.0861 </r>
       <r>    11.5101     6.6046    41.1695 </r>
       <r>    11.6741     6.1201    42.1733 </r>
       <r>    11.8381     1.1880    42.3682 </r>
       <r>    12.0022     0.2694    42.4124 </r>
       <r>    12.1662     0.1115    42.4307 </r>
       <r>    12.3302     0.9159    42.5809 </r>
       <r>    12.4943     2.4596    42.9844 </r>
       <r>    12.6583     1.9796    43.3091 </r>
       <r>    12.8223    -0.0890    43.2945 </r>
       <r>    12.9864     1.0653    43.4692 </r>
       <r>    13.1504     0.6783    43.5805 </r>
       <r>    13.3144     0.6333    43.6844 </r>
       <r>    13.4784     1.1045    43.8655 </r>
       <r>    13.6425     0.7789    43.9933 </r>
       <r>    13.8065     1.1965    44.1895 </r>
       <r>    13.9705     1.3744    44.4150 </r>
       <r>    14.1346     0.5737    44.5091 </r>
       <r>    14.2986     0.8680    44.6515 </r>
       <r>    14.4626     0.8373    44.7888 </r>
       <r>    14.6266     1.5532    45.0436 </r>
       <r>    14.7907     1.5224    45.2933 </r>
       <r>    14.9547     0.8062    45.4255 </r>
       <r>    15.1187     0.3825    45.4883 </r>
       <r>    15.2828     0.4111    45.5557 </r>
       <r>    15.4468     0.7931    45.6858 </r>
       <r>    15.6108     1.2823    45.8961 </r>
       <r>    15.7749     1.0016    46.0604 </r>
       <r>    15.9389     1.5040    46.3071 </r>
       <r>    16.1029     0.4355    46.3786 </r>
       <r>    16.2669     0.5230    46.4644 </r>
       <r>    16.4310     1.0220    46.6320 </r>
       <r>    16.5950     0.2196    46.6680 </r>
       <r>    16.7590     1.0090    46.8335 </r>
       <r>    16.9231     1.3870    47.0610 </r>
       <r>    17.0871     0.8566    47.2016 </r>
       <r>    17.2511     1.0902    47.3804 </r>
       <r>    17.4152    -0.0499    47.3722 </r>
       <r>    17.5792     0.3281    47.4260 </r>
       <r>    17.7432     0.8415    47.5641 </r>
       <r>    17.9072     3.0796    48.0692 </r>
       <r>    18.0713     1.8027    48.3649 </r>
       <r>    18.2353     1.0940    48.5444 </r>
       <r>    18.3993     0.2726    48.5891 </r>
       <r>    18.5634     0.6459    48.6950 </r>
       <r>    18.7274     1.4234    48.9285 </r>
       <r>    18.8914     1.5747    49.1868 </r>
       <r>    19.0554     2.1841    49.5450 </r>
       <r>    19.2195     0.4174    49.6135 </r>
       <r>    19.3835     0.7590    49.7380 </r>
       <r>    19.5475     0.1548    49.7634 </r>
       <r>    19.7116     1.6170    50.0286 </r>
       <r>    19.8756     2.0803    50.3699 </r>
       <r>    20.0396     1.2598    50.5765 </r>
       <r>    20.2037     1.8591    50.8815 </r>
       <r>    20.3677     0.5004    50.9635 </r>
       <r>    20.5317     0.7600    51.0882 </r>
       <r>    20.6957     0.7749    51.2153 </r>
       <r>    20.8598     1.5501    51.4696 </r>
       <r>    21.0238     0.6842    51.5818 </r>
       <r>    21.1878     0.5031    51.6643 </r>
       <r>    21.3519     1.3217    51.8811 </r>
       <r>    21.5159     1.5899    52.1419 </r>
       <r>    21.6799     1.0826    52.3195 </r>
       <r>    21.8440     1.7891    52.6129 </r>
       <r>    22.0080     2.0218    52.9446 </r>
       <r>    22.1720     0.9205    53.0956 </r>
       <r>    22.3360     0.3652    53.1555 </r>
       <r>    22.5001     1.1452    53.3433 </r>
       <r>    22.6641     0.9225    53.4946 </r>
       <r>    22.8281     0.5613    53.5867 </r>
       <r>    22.9922     1.7544    53.8745 </r>
       <r>    23.1562     1.4195    54.1073 </r>
       <r>    23.3202     3.0187    54.6025 </r>
       <r>    23.4842     0.6758    54.7133 </r>
       <r>    23.6483     0.4064    54.7800 </r>
       <r>    23.8123     1.2344    54.9825 </r>
       <r>    23.9763     2.0466    55.3182 </r>
       <r>    24.1404     2.2173    55.6819 </r>
       <r>    24.3044     1.3222    55.8988 </r>
       <r>    24.4684     1.7408    56.1843 </r>
       <r>    24.6325     1.6694    56.4581 </r>
       <r>    24.7965     2.4342    56.8574 </r>
       <r>    24.9605     1.5647    57.1141 </r>
       <r>    25.1245     0.6373    57.2186 </r>
       <r>    25.2886     1.0203    57.3860 </r>
       <r>    25.4526     2.0689    57.7253 </r>
       <r>    25.6166     1.3672    57.9496 </r>
       <r>    25.7807     4.4785    58.6842 </r>
       <r>    25.9447     1.0406    58.8549 </r>
       <r>    26.1087     2.2354    59.2215 </r>
       <r>    26.2728     1.3172    59.4376 </r>
       <r>    26.4368     0.8970    59.5847 </r>
       <r>    26.6008     2.1854    59.9432 </r>
       <r>    26.7648     1.9605    60.2648 </r>
       <r>    26.9289     2.3525    60.6507 </r>
       <r>    27.0929     3.2705    61.1871 </r>
       <r>    27.2569     1.1870    61.3818 </r>
       <r>    27.4210     0.7117    61.4986 </r>
       <r>    27.5850     3.8053    62.1228 </r>
       <r>    27.7490     3.1600    62.6411 </r>
       <r>    27.9130     2.9621    63.1270 </r>
       <r>    28.0771     4.0258    63.7873 </r>
       <r>    28.2411     3.8949    64.4262 </r>
       <r>    28.4051     1.2768    64.6356 </r>
       <r>    28.5692     2.8598    65.1047 </r>
       <r>    28.7332     1.5011    65.3509 </r>
       <r>    28.8972     3.7784    65.9707 </r>
       <r>    29.0613     1.5369    66.2228 </r>
       <r>    29.2253     1.7175    66.5045 </r>
       <r>    29.3893     2.3307    66.8869 </r>
       <r>    29.5533     1.5555    67.1420 </r>
       <r>    29.7174     4.2783    67.8438 </r>
       <r>    29.8814     4.0637    68.5103 </r>
       <r>    30.0454     1.6514    68.7812 </r>
       <r>    30.2095     1.5218    69.0308 </r>
       <r>    30.3735     2.2655    69.4025 </r>
       <r>    30.5375     1.2439    69.6065 </r>
       <r>    30.7016     0.7469    69.7290 </r>
       <r>    30.8656     1.3806    69.9555 </r>
       <r>    31.0296     1.2542    70.1612 </r>
       <r>    31.1936     0.6797    70.2727 </r>
       <r>    31.3577     1.1095    70.4547 </r>
       <r>    31.5217     1.3947    70.6834 </r>
       <r>    31.6857     1.6757    70.9583 </r>
       <r>    31.8498     1.5737    71.2164 </r>
       <r>    32.0138     3.4504    71.7824 </r>
       <r>    32.1778     1.4776    72.0248 </r>
       <r>    32.3418     3.9874    72.6788 </r>
       <r>    32.5059     1.1066    72.8603 </r>
       <r>    32.6699     3.7115    73.4691 </r>
       <r>    32.8339     2.6955    73.9113 </r>
       <r>    32.9980     2.0516    74.2478 </r>
       <r>    33.1620     4.3606    74.9631 </r>
       <r>    33.3260     1.7165    75.2446 </r>
       <r>    33.4901     2.7620    75.6977 </r>
       <r>    33.6541     4.3586    76.4126 </r>
       <r>    33.8181     1.4559    76.6514 </r>
       <r>    33.9821     1.5188    76.9005 </r>
       <r>    34.1462     3.7710    77.5191 </r>
       <r>    34.3102     2.4546    77.9217 </r>
       <r>    34.4742     1.9439    78.2406 </r>
       <r>    34.6383     2.0710    78.5803 </r>
       <r>    34.8023     2.5292    78.9951 </r>
       <r>    34.9663     0.4402    79.0673 </r>
       <r>    35.1304     0.7271    79.1866 </r>
       <r>    35.2944     0.7798    79.3145 </r>
       <r>    35.4584     2.7123    79.7594 </r>
       <r>    35.6224     1.8451    80.0621 </r>
       <r>    35.7865     1.3312    80.2804 </r>
       <r>    35.9505     0.7261    80.3995 </r>
       <r>    36.1145     1.1429    80.5870 </r>
       <r>    36.2786     1.1461    80.7750 </r>
       <r>    36.4426     1.3723    81.0001 </r>
       <r>    36.6066     1.4758    81.2422 </r>
       <r>    36.7706     1.1723    81.4344 </r>
       <r>    36.9347     1.2908    81.6462 </r>
       <r>    37.0987     2.6072    82.0738 </r>
       <r>    37.2627     2.3644    82.4617 </r>
       <r>    37.4268     3.5670    83.0468 </r>
       <r>    37.5908     1.0379    83.2170 </r>
       <r>    37.7548     2.3698    83.6057 </r>
       <r>    37.9189     1.7064    83.8856 </r>
       <r>    38.0829     1.0110    84.0515 </r>
       <r>    38.2469     1.9800    84.3762 </r>
       <r>    38.4109     1.8215    84.6750 </r>
       <r>    38.5750     1.7729    84.9658 </r>
       <r>    38.7390     2.1674    85.3213 </r>
       <r>    38.9030     3.0612    85.8235 </r>
       <r>    39.0671     1.9892    86.1498 </r>
       <r>    39.2311     0.8569    86.2903 </r>
       <r>    39.3951     2.9654    86.7768 </r>
       <r>    39.5592     2.0069    87.1060 </r>
       <r>    39.7232     2.8629    87.5755 </r>
       <r>    39.8872     2.0705    87.9152 </r>
       <r>    40.0512     3.2861    88.4542 </r>
       <r>    40.2153     2.8105    88.9152 </r>
       <r>    40.3793     0.7383    89.0363 </r>
       <r>    40.5433     1.9949    89.3635 </r>
       <r>    40.7074     3.2511    89.8968 </r>
       <r>    40.8714     2.5856    90.3209 </r>
       <r>    41.0354     1.9274    90.6371 </r>
       <r>    41.1994     3.7784    91.2568 </r>
       <r>    41.3635     5.9771    92.2373 </r>
       <r>    41.5275     4.9998    93.0574 </r>
       <r>    41.6915     5.6817    93.9893 </r>
       <r>    41.8556     4.0891    94.6601 </r>
       <r>    42.0196     2.1459    95.0121 </r>
       <r>    42.1836     2.5844    95.4360 </r>
       <r>    42.3477     1.6041    95.6991 </r>
       <r>    42.5117     1.0149    95.8656 </r>
       <r>    42.6757     0.5996    95.9639 </r>
       <r>    42.8397     0.1086    95.9817 </r>
       <r>    43.0038    -0.0057    95.9808 </r>
       <r>    43.1678    -0.0000    95.9808 </r>
       <r>    43.3318    -0.0000    95.9808 </r>
       <r>    43.4959    -0.0000    95.9808 </r>
       <r>    43.6599    -0.0000    95.9808 </r>
       <r>    43.8239    -0.0001    95.9808 </r>
       <r>    43.9880    -0.0003    95.9807 </r>
       <r>    44.1520     0.0992    95.9970 </r>
       <r>    44.3160     0.0018    95.9973 </r>
       <r>    44.4800    -0.0002    95.9973 </r>
       <r>    44.6441    -0.0000    95.9973 </r>
       <r>    44.8081    -0.0000    95.9973 </r>
       <r>    44.9721    -0.0000    95.9973 </r>
       <r>    45.1362    -0.0000    95.9973 </r>
       <r>    45.3002    -0.0000    95.9973 </r>
       <r>    45.4642    -0.0000    95.9973 </r>
       <r>    45.6282    -0.0001    95.9972 </r>
       <r>    45.7923     0.0014    95.9975 </r>
       <r>    45.9563     0.0158    96.0001 </r>
       <r>    46.1203    -0.0005    96.0000 </r>
       <r>    46.2844    -0.0000    96.0000 </r>
       <r>    46.4484    -0.0000    96.0000 </r>
       <r>    46.6124    -0.0000    96.0000 </r>
       <r>    46.7765     0.0000    96.0000 </r>
       <r>    46.9405     0.0000    96.0000 </r>
       <r>    47.1045     0.0000    96.0000 </r>
       <r>    47.2685     0.0000    96.0000 </r>
       <r>    47.4326     0.0000    96.0000 </r>
       <r>    47.5966     0.0000    96.0000 </r>
       <r>    47.7606     0.0000    96.0000 </r>
       <r>    47.9247     0.0000    96.0000 </r>
       <r>    48.0887     0.0000    96.0000 </r>
      </set>
     </set>
    </array>
   </total>
  </dos>
 </calculation>
 <structure name="finalpos" >
  <crystal>
   <varray name="basis" >
    <v>       3.80800000       0.00000000       0.00000000 </v>
    <v>       0.00000000       3.80800000       0.00000000 </v>
    <v>       0.00000000       0.00000000       3.80800000 </v>
   </varray>
   <i name="volume">     55.21929011 </i>
   <varray name="rec_basis" >
    <v>       0.26260504       0.00000000       0.00000000 </v>
    <v>       0.00000000       0.26260504       0.00000000 </v>
    <v>       0.00000000       0.00000000       0.26260504 </v>
   </varray>
  </crystal>
  <varray name="positions" >
   <v>       0.00000000       0.00000000       0.00000000 </v>
   <v>       0.00000000       0.50000000       0.50000000 </v>
   <v>       0.50000000       0.00000000       0.50000000 </v>
   <v>       0.50000000       0.50000000       0.00000000 </v>
  </varray>
 </structure>
</modeling>
