----- GAMESS execution script 'rungms' -----
This job is running on host crcfe02.crc.nd.edu
under operating system Linux at Thu Dec 12 13:19:31 EST 2019
Available scratch disk space (Kbyte units) at beginning of the job is
Filesystem      1K-blocks  Used  Available Use% Mounted on
AFS            2147483647     0 2147483647   0% /afs
GAMESS temporary binary files will be written to /afs/crc.nd.edu/user/c/cdrisko
GAMESS supplementary output files will be written to /afs/crc.nd.edu/user/c/cdrisko/scr
Copying input file acetaldehyde.inp to your run's scratch directory...

 Distributed Data Interface kickoff program.
 Initiating 1 compute processes on 1 nodes to run the following command:
 /afs/crc.nd.edu/x86_64_linux/g/gamess/nov-2017/gamess/gamess.00.x acetaldehyde 

          ******************************************************
          *         GAMESS VERSION = 11 NOV 2017 (R3)         *
          *             FROM IOWA STATE UNIVERSITY             *
          * M.W.SCHMIDT, K.K.BALDRIDGE, J.A.BOATZ, S.T.ELBERT, *
          *   M.S.GORDON, J.H.JENSEN, S.KOSEKI, N.MATSUNAGA,   *
          *          K.A.NGUYEN, S.J.SU, T.L.WINDUS,           *
          *       TOGETHER WITH M.DUPUIS, J.A.MONTGOMERY       *
          *         J.COMPUT.CHEM.  14, 1347-1363(1993)        *
          **************** 64 BIT INTEL VERSION ****************

  SINCE 1993, STUDENTS AND POSTDOCS WORKING AT IOWA STATE UNIVERSITY
  AND ALSO IN THEIR VARIOUS JOBS AFTER LEAVING ISU HAVE MADE IMPORTANT
  CONTRIBUTIONS TO THE CODE:
     IVANA ADAMOVIC, CHRISTINE AIKENS, YURI ALEXEEV, POOJA ARORA,
     ANDREY ASADCHEV, ROB BELL, PRADIPTA BANDYOPADHYAY, JONATHAN BENTZ,
     BRETT BODE, KURT BRORSEN, CALEB CARLIN, GALINA CHABAN, WEI CHEN,
     CHEOL HO CHOI, PAUL DAY, ALBERT DEFUSCO, NUWAN DESILVA, TIM DUDLEY,
     DMITRI FEDOROV, ALEX FINDLATER, GRAHAM FLETCHER, MARK FREITAG,
     KURT GLAESEMANN, ANASTASIA GUININA,
     DAN KEMP, GRANT MERRILL, NORIYUKI MINEZAWA, JONATHAN MULLIN,
     TAKESHI NAGATA, SEAN NEDD, HEATHER NETZLOFF, BOSILJKA NJEGIC, RYAN OLSON,
     MIKE PAK, BUU PHAM,
     SPENCER PRUITT, LUKE ROSKOP, JIM SHOEMAKER, LYUDMILA SLIPCHENKO,
     TONY SMITH, SAROM SOK LEANG, JIE SONG, TETSUYA TAKETSUGU, SIMON WEBB,
     PENG XU, SOOHAENG YOO, FEDERICO ZAHARIEV

  ADDITIONAL CODE HAS BEEN PROVIDED BY COLLABORATORS IN OTHER GROUPS:
     IOWA STATE UNIVERSITY:
          JOE IVANIC, AARON WEST, LAIMUTIS BYTAUTAS, KLAUS RUEDENBERG
     UNIVERSITY OF TOKYO: KIMIHIKO HIRAO, TAKAHITO NAKAJIMA,
          TAKAO TSUNEDA, MUNEAKI KAMIYA, SUSUMU YANAGISAWA,
          KIYOSHI YAGI, MAHITO CHIBA, SEIKEN TOKURA, NAOAKI KAWAKAMI
     UNIVERSITY OF AARHUS: FRANK JENSEN
     UNIVERSITY OF IOWA: VISVALDAS KAIRYS, HUI LI
     NATIONAL INST. OF STANDARDS AND TECHNOLOGY: WALT STEVENS, DAVID GARMER
     UNIVERSITY OF PISA: BENEDETTA MENNUCCI, JACOPO TOMASI
     UNIVERSITY OF MEMPHIS: HENRY KURTZ, PRAKASHAN KORAMBATH
     UNIVERSITY OF ALBERTA: TOBY ZENG, MARIUSZ KLOBUKOWSKI
     UNIVERSITY OF NEW ENGLAND: MARK SPACKMAN
     MIE UNIVERSITY: HIROAKI UMEDA
     NAT. INST. OF ADVANCED INDUSTRIAL SCIENCE AND TECHNOLOGY: KAZUO KITAURA
     MICHIGAN STATE UNIVERSITY:
          KAROL KOWALSKI, MARTA WLOCH, JEFFREY GOUR, JESSE LUTZ,
          WEI LI, PIOTR PIECUCH
     UNIVERSITY OF SILESIA: MONIKA MUSIAL, STANISLAW KUCHARSKI
     FACULTES UNIVERSITAIRES NOTRE-DAME DE LA PAIX:
          OLIVIER QUINET, BENOIT CHAMPAGNE
     UNIVERSITY OF CALIFORNIA - SANTA BARBARA: BERNARD KIRTMAN
     INSTITUTE FOR MOLECULAR SCIENCE:
          KAZUYA ISHIMURA, MICHIO KATOUDA, AND SHIGERU NAGASE
     UNIVERSITY OF NOTRE DAME: ANNA POMOGAEVA, DAN CHIPMAN
     KYUSHU UNIVERSITY:
          HARUYUKI NAKANO,
          FENG LONG GU, JACEK KORCHOWIEC, MARCIN MAKOWSKI, AND YURIKO AOKI,
          HIROTOSHI MORI AND EISAKU MIYOSHI
     PENNSYLVANIA STATE UNIVERSITY:
          TZVETELIN IORDANOV, CHET SWALINA, JONATHAN SKONE,
          SHARON HAMMES-SCHIFFER
     WASEDA UNIVERSITY:
          MASATO KOBAYASHI, TOMOKO AKAMA, TSUGUKI TOUMA,
          TAKESHI YOSHIKAWA, YASUHIRO IKABATA, JUNJI SEINO,
          YUYA NAKAJIMA, HIROMI NAKAI
     NANJING UNIVERSITY: SHUHUA LI
     UNIVERSITY OF NEBRASKA:
          PEIFENG SU, DEJUN SI, NANDUN THELLAMUREGE, YALI WANG, HUI LI
     UNIVERSITY OF ZURICH: ROBERTO PEVERATI, KIM BALDRIDGE
     N. COPERNICUS UNIVERSITY AND JACKSON STATE UNIVERSITY:
          MARIA BARYSZ
     UNIVERSITY OF COPENHAGEN: Jimmy Kromann, CASPER STEINMANN
     TOKYO INSTITUTE OF TECHNOLOGY: HIROYA NAKATA
     NAGOYA UNIVERSITY: YOSHIO NISHIMOTO, STEPHAN IRLE
     MOSCOW STATE UNIVERSITY: VLADIMIR MIRONOV

 EXECUTION OF GAMESS BEGUN Thu Dec 12 13:19:31 2019

            ECHO OF THE FIRST FEW INPUT CARDS -
 INPUT CARD> $CONTRL SCFTYP=RHF DFTTYP=B3LYP RUNTYP=ENERGY                                  
 INPUT CARD>       ISPHER=1 MULT=1 COORD=ZMT NZVAR=15 $END                                  
 INPUT CARD> $BASIS GBASIS=N31 NGAUSS=6 NDFUNC=1 $END                                       
 INPUT CARD> $STATPT IFREEZ(1)=9 $END                                                       
 INPUT CARD> $DATA                                                                          
 INPUT CARD>Title Single Point Energy Calculation of Acetaldehyde                           
 INPUT CARD>C1                                                                              
 INPUT CARD>C                                                                               
 INPUT CARD>C      1   1.5086892                                                            
 INPUT CARD>O      2   1.2107245  1  124.7161                                               
 INPUT CARD>H      2   1.1145804  1  114.7739  3  180.0000  0                               
 INPUT CARD>H      1   1.0926781  2  110.5176  3  130.      0                               
 INPUT CARD>H      1   1.0983769  2  109.8265  3  121.4889  0                               
 INPUT CARD>H      1   1.0983769  2  109.8265  3 -121.4889  0                               
 INPUT CARD> $END                                                                           
    1000000 WORDS OF MEMORY AVAILABLE

     BASIS OPTIONS
     -------------
     GBASIS=N31          IGAUSS=       6      POLAR=POPN31  
     NDFUNC=       1     NFFUNC=       0     DIFFSP=       F
     NPFUNC=       0      DIFFS=       F     BASNAM=        


     RUN TITLE
     ---------
 Title Single Point Energy Calculation of Acetaldehyde                           

 THE POINT GROUP OF THE MOLECULE IS C1      
 THE ORDER OF THE PRINCIPAL AXIS IS     0

 YOUR FULLY SUBSTITUTED Z-MATRIX IS
 C   
 C      1   1.5086892
 O      2   1.2107245  1  124.7161
 H      2   1.1145804  1  114.7739  3  180.0000  0
 H      1   1.0926781  2  110.5176  3  130.0000  0
 H      1   1.0983769  2  109.8265  3  121.4889  0
 H      1   1.0983769  2  109.8265  3 -121.4889  0

 THE MOMENTS OF INERTIA ARE (AMU-ANGSTROM**2)
 IXX=     7.793   IYY=    52.908   IZZ=    56.461

 ATOM      ATOMIC                      COORDINATES (BOHR)
           CHARGE         X                   Y                   Z
 C           6.0    -2.3381457611        0.4911666812        0.0861366949
 C           6.0     0.2356175474       -0.7348109926        0.0549186101
 O           8.0     2.2188690778        0.4012446346       -0.0487598301
 H           1.0     0.2118037716       -2.8393598451        0.1361750687
 H           1.0    -3.5697931285       -0.3755087135       -1.3265113273
 H           1.0    -3.4617961097       -0.1897110731       -1.5207425697
 H           1.0    -3.3608239019       -0.0624310913        1.8054111117

          INTERNUCLEAR DISTANCES (ANGS.)
          ------------------------------

                1 C          2 C          3 O          4 H          5 H     

   1 C       0.0000000    1.5086892 *  2.4129941 *  2.2198436 *  1.0926781 *
   2 C       1.5086892 *  0.0000000    1.2107245 *  1.1145804 *  2.1507392 *
   3 O       2.4129941 *  1.2107245 *  0.0000000    2.0194911 *  3.1637810  
   4 H       2.2198436 *  1.1145804 *  2.0194911 *  0.0000000    2.5106931 *
   5 H       1.0926781 *  2.1507392 *  3.1637810    2.5106931 *  0.0000000  
   6 H       1.0983769 *  2.1463151 *  3.1210656    2.5522231 *  0.1532879 *
   7 H       1.0983769 *  2.1463151 *  3.1210656    2.5522231 *  1.6692690 *

                6 H          7 H     

   1 C       1.0983769 *  1.0983769 *
   2 C       2.1463151 *  2.1463151 *
   3 O       3.1210656    3.1210656  
   4 H       2.5522231 *  2.5522231 *
   5 H       0.1532879 *  1.6692690 *
   6 H       0.0000000    1.7622233 *
   7 H       1.7622233 *  0.0000000  

  * ... LESS THAN  3.000


     ATOMIC BASIS SET
     ----------------
 THE CONTRACTED PRIMITIVE FUNCTIONS HAVE BEEN UNNORMALIZED
 THE CONTRACTED BASIS FUNCTIONS ARE NOW NORMALIZED TO UNITY

  SHELL TYPE  PRIMITIVE        EXPONENT          CONTRACTION COEFFICIENT(S)

 C         

      1   S       1          3047.5248800    0.001834737132
      1   S       2           457.3695180    0.014037322813
      1   S       3           103.9486850    0.068842622264
      1   S       4            29.2101553    0.232184443216
      1   S       5             9.2866630    0.467941348435
      1   S       6             3.1639270    0.362311985337

      2   L       7             7.8682723   -0.119332419775    0.068999066591
      2   L       8             1.8812885   -0.160854151696    0.316423960957
      2   L       9             0.5442493    1.143456437840    0.744308290898

      3   L      10             0.1687145    1.000000000000    1.000000000000

      4   D      11             0.8000000    1.000000000000

 C         

      5   S      12          3047.5248800    0.001834737132
      5   S      13           457.3695180    0.014037322813
      5   S      14           103.9486850    0.068842622264
      5   S      15            29.2101553    0.232184443216
      5   S      16             9.2866630    0.467941348435
      5   S      17             3.1639270    0.362311985337

      6   L      18             7.8682723   -0.119332419775    0.068999066591
      6   L      19             1.8812885   -0.160854151696    0.316423960957
      6   L      20             0.5442493    1.143456437840    0.744308290898

      7   L      21             0.1687145    1.000000000000    1.000000000000

      8   D      22             0.8000000    1.000000000000

 O         

      9   S      23          5484.6716600    0.001831074430
      9   S      24           825.2349460    0.013950172200
      9   S      25           188.0469580    0.068445078098
      9   S      26            52.9645000    0.232714335992
      9   S      27            16.8975704    0.470192897984
      9   S      28             5.7996353    0.358520852987

     10   L      29            15.5396162   -0.110777549525    0.070874268231
     10   L      30             3.5999336   -0.148026262701    0.339752839147
     10   L      31             1.0137618    1.130767015354    0.727158577316

     11   L      32             0.2700058    1.000000000000    1.000000000000

     12   D      33             0.8000000    1.000000000000

 H         

     13   S      34            18.7311370    0.033494604338
     13   S      35             2.8253944    0.234726953484
     13   S      36             0.6401217    0.813757326146

     14   S      37             0.1612778    1.000000000000

 H         

     15   S      38            18.7311370    0.033494604338
     15   S      39             2.8253944    0.234726953484
     15   S      40             0.6401217    0.813757326146

     16   S      41             0.1612778    1.000000000000

 H         

     17   S      42            18.7311370    0.033494604338
     17   S      43             2.8253944    0.234726953484
     17   S      44             0.6401217    0.813757326146

     18   S      45             0.1612778    1.000000000000

 H         

     19   S      46            18.7311370    0.033494604338
     19   S      47             2.8253944    0.234726953484
     19   S      48             0.6401217    0.813757326146

     20   S      49             0.1612778    1.000000000000

 TOTAL NUMBER OF BASIS SET SHELLS             =   20
 NUMBER OF CARTESIAN GAUSSIAN BASIS FUNCTIONS =   53
 NOTE: THIS RUN WILL RESTRICT THE MO VARIATION SPACE TO SPHERICAL HARMONICS.
 THE NUMBER OF ORBITALS KEPT IN THE VARIATIONAL SPACE WILL BE PRINTED LATER.
 NUMBER OF ELECTRONS                          =   24
 CHARGE OF MOLECULE                           =    0
 SPIN MULTIPLICITY                            =    1
 NUMBER OF OCCUPIED ORBITALS (ALPHA)          =   12
 NUMBER OF OCCUPIED ORBITALS (BETA )          =   12
 TOTAL NUMBER OF ATOMS                        =    7
 THE NUCLEAR REPULSION ENERGY IS       72.3763463252

     LEBEDEV GRID-BASED DFT OPTIONS
     ------------------------------
     DFTTYP=B3LYP   
     NRAD  =      96     NLEB  =     302
     NRAD0 =      24     NLEB0 =     110
     SWOFF =    5.00E-03 (PURE SCF -> DFT)
     SWITCH=    3.00E-04 (COARSE -> TIGHT GRID)
     THRESH=    0.00E+00 GTHRE=    1.00E+00

 GRIMME'S EMPIRICAL DISPERSION CORRECTION= F

     $CONTRL OPTIONS
     ---------------
 SCFTYP=RHF          RUNTYP=ENERGY       EXETYP=RUN     
 MPLEVL=       0     CITYP =NONE         CCTYP =NONE         VBTYP =NONE    
 DFTTYP=B3LYP        TDDFT =NONE    
 MULT  =       1     ICHARG=       0     NZVAR =      15     COORD =ZMT     
 PP    =NONE         RELWFN=NONE         LOCAL =NONE         NUMGRD=       F
 ISPHER=       1     NOSYM =       0     MAXIT =      30     UNITS =ANGS    
 PLTORB=       F     MOLPLT=       F     AIMPAC=       F     FRIEND=        
 NPRINT=       7     IREST =       0     GEOM  =INPUT   
 NORMF =       0     NORMP =       0     ITOL  =      20     ICUT  =       9
 INTTYP=BEST         GRDTYP=BEST         QMTTOL= 1.0E-06

     $SYSTEM OPTIONS
     ---------------
  REPLICATED MEMORY=     1000000 WORDS (ON EVERY NODE).
 DISTRIBUTED MEMDDI=           0 MILLION WORDS IN AGGREGATE,
 MEMDDI DISTRIBUTED OVER   1 PROCESSORS IS           0 WORDS/PROCESSOR.
 TOTAL MEMORY REQUESTED ON EACH PROCESSOR=     1000000 WORDS.
 TIMLIM=      525600.00 MINUTES, OR     365.0 DAYS.
 PARALL= F  BALTYP=  DLB     KDIAG=    0  COREFL= F
 MXSEQ2=     300 MXSEQ3=     150  mem10=         0

          ----------------
          PROPERTIES INPUT
          ----------------

     MOMENTS            FIELD           POTENTIAL          DENSITY
 IEMOM =       1   IEFLD =       0   IEPOT =       0   IEDEN =       0
 WHERE =COMASS     WHERE =NUCLEI     WHERE =NUCLEI     WHERE =NUCLEI  
 OUTPUT=BOTH       OUTPUT=BOTH       OUTPUT=BOTH       OUTPUT=BOTH    
 IEMINT=       0   IEFINT=       0                     IEDINT=       0
                                                       MORB  =       0
          EXTRAPOLATION IN EFFECT
          DIIS IN EFFECT
 ORBITAL PRINTING OPTION: NPREO=     1    53     2     1

     -------------------------------
     INTEGRAL TRANSFORMATION OPTIONS
     -------------------------------
     NWORD  =            0
     CUTOFF = 1.0E-09     MPTRAN =       0
     DIRTRF =       F     AOINTS =DUP     

          ----------------------
          INTEGRAL INPUT OPTIONS
          ----------------------
 NOPK  =       1 NORDER=       0 SCHWRZ=       T

   --- ENCODED Z MATRIX ---
 COORD  TYPE   I   J   K   L   M   N
    1      1    2   1
    2      1    3   2
    3      2    3   2   1
    4      1    4   2
    5      2    4   2   1
    6      3    4   2   1   3
    7      1    5   1
    8      2    5   1   2
    9      3    5   1   2   3
   10      1    6   1
   11      2    6   1   2
   12      3    6   1   2   3
   13      1    7   1
   14      2    7   1   2
   15      3    7   1   2   3

 THE DETERMINANT OF THE G MATRIX IS 10**(    -8)


                     --------------------
                     INTERNAL COORDINATES
                     --------------------

                 - - ATOMS - -         COORDINATE      COORDINATE
 NO.   TYPE    I  J  K  L  M  N        (BOHR,RAD)       (ANG,DEG)
 ----------------------------------------------------------------
   1 STRETCH   2  1                     2.8510092       1.5086892
   2 STRETCH   3  2                     2.2879376       1.2107245
   3 BEND      3  2  1                  2.1767066     124.7161000
   4 STRETCH   4  2                     2.1062515       1.1145804
   5 BEND      4  2  1                  2.0031825     114.7739000
   6 TORSION   4  2  1  3               3.1415927     180.0000000
   7 STRETCH   5  1                     2.0648622       1.0926781
   8 BEND      5  1  2                  1.9288960     110.5176000
   9 TORSION   5  1  2  3               2.2689280     130.0000000
  10 STRETCH   6  1                     2.0756314       1.0983769
  11 BEND      6  1  2                  1.9168340     109.8265000
  12 TORSION   6  1  2  3               2.1203813     121.4889000
  13 STRETCH   7  1                     2.0756314       1.0983769
  14 BEND      7  1  2                  1.9168340     109.8265000
  15 TORSION   7  1  2  3              -2.1203813    -121.4889000

     ------------------------------------------
     THE POINT GROUP IS C1 , NAXIS= 0, ORDER= 1
     ------------------------------------------

 -- VARIATIONAL SPACE WILL BE RESTRICTED TO PURE SPHERICAL HARMONICS ONLY --
 AFTER EXCLUDING CONTAMINANT COMBINATIONS FROM THE CARTESIAN GAUSSIAN BASIS
 SET, THE NUMBER OF SPHERICAL HARMONICS KEPT IN THE VARIATION SPACE IS   50

     DIMENSIONS OF THE SYMMETRY SUBSPACES ARE
 A   =   50

 ..... DONE SETTING UP THE RUN .....
 STEP CPU TIME =     0.01 TOTAL CPU TIME =          0.0 (      0.0 MIN)
 TOTAL WALL CLOCK TIME=          0.0 SECONDS, CPU UTILIZATION IS    50.00%

          ********************
          1 ELECTRON INTEGRALS
          ********************
 ...... END OF ONE-ELECTRON INTEGRALS ......
 STEP CPU TIME =     0.01 TOTAL CPU TIME =          0.0 (      0.0 MIN)
 TOTAL WALL CLOCK TIME=          0.0 SECONDS, CPU UTILIZATION IS   100.00%

          -------------
          GUESS OPTIONS
          -------------
          GUESS =HUCKEL            NORB  =       0          NORDER=       0
          MIX   =       F          PRTMO =       F          PUNMO =       F
          TOLZ  = 1.0E-08          TOLE  = 1.0E-05
          SYMDEN=       F          PURIFY=       F

 INITIAL GUESS ORBITALS GENERATED BY HUCKEL   ROUTINE.
 HUCKEL GUESS REQUIRES     27154 WORDS.

 STATISTICS FOR GENERATION OF SYMMETRY ORBITAL -Q- MATRIX
 NUMBER OF CARTESIAN ATOMIC ORBITALS=         53
 NUMBER OF SPHERICAL CONTAMINANTS DROPPED=     3
 NUMBER OF LINEARLY DEPENDENT MOS DROPPED=     0
 TOTAL NUMBER OF MOS IN VARIATION SPACE=      50

 SYMMETRIES FOR INITIAL GUESS ORBITALS FOLLOW.   BOTH SET(S).
    12 ORBITALS ARE OCCUPIED (    3 CORE ORBITALS).
     4=A        5=A        6=A        7=A        8=A        9=A       10=A   
    11=A       12=A       13=A       14=A       15=A       16=A       17=A   
    18=A       19=A       20=A       21=A       22=A   
 ...... END OF INITIAL ORBITAL SELECTION ......
 STEP CPU TIME =     0.00 TOTAL CPU TIME =          0.0 (      0.0 MIN)
 TOTAL WALL CLOCK TIME=          0.0 SECONDS, CPU UTILIZATION IS    66.67%

                    ----------------------
                    AO INTEGRAL TECHNOLOGY
                    ----------------------
     S,P,L SHELL ROTATED AXIS INTEGRALS, REPROGRAMMED BY
        KAZUYA ISHIMURA (IMS) AND JOSE SIERRA (SYNSTAR).
     S,P,D,L SHELL ROTATED AXIS INTEGRALS PROGRAMMED BY
        KAZUYA ISHIMURA (INSTITUTE FOR MOLECULAR SCIENCE).
     S,P,D,F,G SHELL TO TOTAL QUARTET ANGULAR MOMENTUM SUM 5,
        ERIC PROGRAM BY GRAHAM FLETCHER (ELORET AND NASA ADVANCED
        SUPERCOMPUTING DIVISION, AMES RESEARCH CENTER).
     S,P,D,F,G,L SHELL GENERAL RYS QUADRATURE PROGRAMMED BY
        MICHEL DUPUIS (PACIFIC NORTHWEST NATIONAL LABORATORY).

          --------------------
          2 ELECTRON INTEGRALS
          --------------------

 THE -PK- OPTION IS OFF, THE INTEGRALS ARE NOT IN SUPERMATRIX FORM.
 STORING   15000 INTEGRALS/RECORD ON DISK, USING 12 BYTES/INTEGRAL.
 TWO ELECTRON INTEGRAL EVALUATION REQUIRES   90606 WORDS OF MEMORY.
 SCHWARZ INEQUALITY OVERHEAD:      1430 INTEGRALS, T=        0.01
 II,JST,KST,LST =  1  1  1  1 NREC =         1 INTLOC =    1
 II,JST,KST,LST =  2  1  1  1 NREC =         1 INTLOC =    2
 II,JST,KST,LST =  3  1  1  1 NREC =         1 INTLOC =   34
 II,JST,KST,LST =  4  1  1  1 NREC =         1 INTLOC =  214
 II,JST,KST,LST =  5  1  1  1 NREC =         1 INTLOC = 1189
 II,JST,KST,LST =  6  1  1  1 NREC =         1 INTLOC = 3197
 II,JST,KST,LST =  7  1  1  1 NREC =         2 INTLOC =  933
 II,JST,KST,LST =  8  1  1  1 NREC =         3 INTLOC = 8171
 II,JST,KST,LST =  9  1  1  1 NREC =         7 INTLOC = 6067
 II,JST,KST,LST = 10  1  1  1 NREC =         8 INTLOC = 3460
 II,JST,KST,LST = 11  1  1  1 NREC =        13 INTLOC =  975
 II,JST,KST,LST = 12  1  1  1 NREC =        19 INTLOC =14772
 II,JST,KST,LST = 13  1  1  1 NREC =        34 INTLOC =10596
 II,JST,KST,LST = 14  1  1  1 NREC =        37 INTLOC =13548
 II,JST,KST,LST = 15  1  1  1 NREC =        41 INTLOC = 5079
 II,JST,KST,LST = 16  1  1  1 NREC =        44 INTLOC =12166
 II,JST,KST,LST = 17  1  1  1 NREC =        48 INTLOC =10465
 II,JST,KST,LST = 18  1  1  1 NREC =        52 INTLOC = 9582
 II,JST,KST,LST = 19  1  1  1 NREC =        57 INTLOC =  316
 II,JST,KST,LST = 20  1  1  1 NREC =        61 INTLOC = 6807
 SCHWARZ INEQUALITY TEST SKIPPED         964 INTEGRAL BLOCKS.
 TOTAL NUMBER OF NONZERO TWO-ELECTRON INTEGRALS =              980543
         66 INTEGRAL RECORDS WERE STORED ON DISK FILE  8.
  ...... END OF TWO-ELECTRON INTEGRALS .....
 STEP CPU TIME =     0.09 TOTAL CPU TIME =          0.1 (      0.0 MIN)
 TOTAL WALL CLOCK TIME=          0.1 SECONDS, CPU UTILIZATION IS    84.62%

          --------------------------
             R-B3LYP SCF CALCULATION
          --------------------------

     NUCLEAR ENERGY =        72.3763463252
     MAXIT =   30     NPUNCH=    2
     EXTRAP=T  DAMP=F  SHIFT=F  RSTRCT=F  DIIS=T  DEM=F  SOSCF=F
         DENSITY MATRIX CONVERGENCE THRESHOLD=  1.00E-05
     COARSE -> FINE DFT GRID SWITCH THRESHOLD=  3.00E-04 (SWITCH IN $DFT)
                   HF -> DFT SWITCH THRESHOLD=  5.00E-03 (SWOFF IN $DFT)
     MEMORY REQUIRED FOR RHF ITERS=    307426 WORDS.

 DFT CODE IS SWITCHING FROM THE FINE GRID NRAD= 96,  NLEB=  302
                      TO THE COARSE GRID NRAD0= 24, NLEB0=  110

     EXCHANGE FUNCTIONAL   =B88&HFX   
     CORRELATION FUNCTIONAL=LYP88&VWN5
     DFT THRESHOLD         =.197E-07
     GRID CHANGE THRESHOLD =.300E-03
 FOR AN EULER-MACLAURIN QUADRATURE USING  96 RADIAL POINTS:
 SMALLEST GAUSSIAN PRIMITIVE EXPONENT=        0.1612777588 OF TYPE -S-
 ON ATOM NUMBER   4 HAS RADIAL NORMALIZATION=  1.000000
  LARGEST GAUSSIAN PRIMITIVE EXPONENT=     5484.6716600000 OF TYPE -S-
 ON ATOM NUMBER   3 HAS RADIAL NORMALIZATION=  1.000000
 DFT IS SWITCHED OFF, PERFORMING PURE SCF UNTIL SWOFF THRESHOLD IS REACHED.

 ITER EX DEM     TOTAL ENERGY        E CHANGE  DENSITY CHANGE    DIIS ERROR
          * * *   INITIATING DIIS PROCEDURE   * * *
   1  0  0     -149.9071394596  -149.9071394596   1.328595562   0.496957097
   2  1  0     -150.6265096233    -0.7193701637   0.165006469   0.097163318
   3  2  0     -150.6667061319    -0.0401965085   0.063804854   0.058406189
   4  3  0     -150.6845224153    -0.0178162835   0.037066923   0.009757272
   5  4  0     -150.6856515447    -0.0011291294   0.037619883   0.003738603
   6  5  0     -150.6858446867    -0.0001931420   0.022746252   0.002319248
   7  6  0     -150.6859047195    -0.0000600329   0.010588769   0.000916720
   8  7  0     -150.6859158559    -0.0000111364   0.001901078   0.000264372
 CONVERGED TO SWOFF, SO DFT CALCULATION IS NOW SWITCHED ON.
          * * *   INITIATING DIIS PROCEDURE   * * *
   9  8  0     -151.4942744399    -0.8083585840   0.933489940   0.050105246
  10  9  0     -151.5059316638    -0.0116572239   0.293021466   0.029963450
  11 10  0     -151.5033006639     0.0026309998   0.054352640   0.041466307
  12 11  0     -151.5091928650    -0.0058922010   0.056204473   0.009373610
  13 12  0     -151.5094095934    -0.0002167284   0.016928461   0.000871366
  14 13  0     -151.5094127417    -0.0000031483   0.001707127   0.000091462
  15 14  0     -151.5094128266    -0.0000000849   0.000189881   0.000021663
 DFT CODE IS SWITCHING BACK TO THE FINE GRID
          * * *   INITIATING DIIS PROCEDURE   * * *
  16 15  0     -151.5088044922     0.0006083345   0.002608330   0.001649512
  17 16  0     -151.5088132480    -0.0000087558   0.002104528   0.000309707
  18 17  0     -151.5088126072     0.0000006408   0.000564939   0.000471849
  19 18  0     -151.5088136255    -0.0000010182   0.000400098   0.000052888
  20 19  0     -151.5088136329    -0.0000000074   0.000020947   0.000009376
  21 20  0     -151.5088136332    -0.0000000003   0.000010391   0.000003023
  22 21  0     -151.5088136333    -0.0000000001   0.000010030   0.000000495

          ----------------
          ENERGY CONVERGED
          ----------------
     TIME TO FORM FOCK OPERATORS=       4.8 SECONDS (       0.2 SEC/ITER)
     TIME TO SOLVE SCF EQUATIONS=       0.0 SECONDS (       0.0 SEC/ITER)

 FINAL R-B3LYP ENERGY IS     -151.5088136333 AFTER  22 ITERATIONS
 DFT EXCHANGE + CORRELATION ENERGY =       -16.9678041326
 TOTAL ELECTRON NUMBER             =        24.0000794363

          ------------
          EIGENVECTORS
          ------------

                      1          2          3          4          5
                  -19.1571   -10.2827   -10.2164    -1.0522    -1.0034
                     A          A          A          A          A   
    1  C  1  S   -0.000014   0.001102   0.995263  -0.030829  -0.103099
    2  C  1  S   -0.000531  -0.001119   0.036048   0.062157   0.209600
    3  C  1  X   -0.000269  -0.000914  -0.000936   0.011507  -0.085749
    4  C  1  Y    0.000059   0.000357  -0.003294  -0.021470  -0.082072
    5  C  1  Z    0.000007  -0.000030  -0.000780  -0.016243  -0.098271
    6  C  1  S    0.000824   0.005903  -0.029597   0.016442   0.049566
    7  C  1  X   -0.001140   0.002397   0.000868   0.001739  -0.013546
    8  C  1  Y   -0.001408  -0.002162   0.007003   0.007237   0.013157
    9  C  1  Z    0.000093   0.000277  -0.000468  -0.000688  -0.002687
   10  C  1 XX   -0.000385  -0.000914   0.000169   0.004352  -0.002159
   11  C  1 YY    0.000384   0.000243  -0.000163  -0.002917  -0.002178
   12  C  1 ZZ    0.000000   0.000671  -0.000006  -0.001435   0.004337
   13  C  1 XY   -0.000131   0.000804  -0.000007  -0.001488   0.008438
   14  C  1 XZ    0.000025   0.000014   0.000128   0.000645   0.006257
   15  C  1 YZ   -0.000000   0.000006   0.000052   0.001583   0.008014
   16  C  2  S    0.000232   0.995149  -0.001070  -0.117590   0.001488
   17  C  2  S    0.000045   0.035701  -0.001418   0.222602  -0.017261
   18  C  2  X   -0.000059   0.001713   0.000526   0.151115  -0.074765
   19  C  2  Y   -0.000229   0.001302  -0.000377   0.093439  -0.013872
   20  C  2  Z    0.000011  -0.000053   0.000016  -0.007999  -0.003087
   21  C  2  S    0.008818  -0.016017   0.006729   0.092213   0.046170
   22  C  2  X    0.005429   0.005952  -0.005256  -0.024295  -0.049024
   23  C  2  Y    0.004882   0.002443   0.000011  -0.020074  -0.003333
   24  C  2  Z   -0.000349  -0.000342   0.000192  -0.001448  -0.014673
   25  C  2 XX   -0.000587   0.001411  -0.000900   0.018463   0.002385
   26  C  2 YY    0.000308  -0.000227   0.000396  -0.003168  -0.001622
   27  C  2 ZZ    0.000279  -0.001184   0.000504  -0.015295  -0.000763
   28  C  2 XY   -0.000758   0.001215   0.000817   0.021002  -0.008982
   29  C  2 XZ    0.000058  -0.000120  -0.000031  -0.001347   0.003072
   30  C  2 YZ    0.000021  -0.000068  -0.000015  -0.000788  -0.000463
   31  O  3  S    0.995117  -0.000048  -0.000030  -0.190949   0.044044
   32  O  3  S    0.029427   0.000453  -0.000634   0.422386  -0.100099
   33  O  3  X   -0.001998   0.000986   0.000106  -0.139807   0.026273
   34  O  3  Y   -0.001140   0.000495  -0.000015  -0.080235   0.019425
   35  O  3  Z    0.000134  -0.000055   0.000010   0.007497  -0.003610
   36  O  3  S   -0.019402  -0.005924   0.002261   0.371566  -0.070692
   37  O  3  X    0.005165   0.003770  -0.000378  -0.041001   0.009287
   38  O  3  Y    0.002604   0.002601  -0.000685  -0.024660  -0.001311
   39  O  3  Z   -0.000270  -0.000206   0.000017   0.003530   0.004769
   40  O  3 XX   -0.000189  -0.001196  -0.000051   0.006264  -0.001282
   41  O  3 YY    0.000108   0.000087   0.000235  -0.003677   0.000711
   42  O  3 ZZ    0.000081   0.001109  -0.000183  -0.002587   0.000571
   43  O  3 XY   -0.000104  -0.001455   0.000130   0.009813  -0.001895
   44  O  3 XZ    0.000016   0.000144  -0.000013  -0.001314  -0.000003
   45  O  3 YZ    0.000001   0.000093  -0.000028  -0.000046  -0.000135
   46  H  4  S   -0.000232  -0.000957  -0.000620   0.027364  -0.001122
   47  H  4  S    0.001160   0.005042   0.000031  -0.013655  -0.004081
   48  H  5  S   -0.000478  -0.000155  -0.000395   0.065227   0.384450
   49  H  5  S    0.000467  -0.003389   0.011797   0.008760   0.075508
   50  H  6  S    0.000379  -0.000362  -0.000457   0.060986   0.363124
   51  H  6  S   -0.000998   0.003985  -0.004661  -0.006226  -0.040361
   52  H  7  S   -0.000064  -0.000549  -0.000370   0.010668   0.041864
   53  H  7  S   -0.000576   0.000537   0.006590   0.002324   0.017233

                      6          7          8          9         10
                   -0.6703    -0.5359    -0.4719    -0.4354    -0.3859
                     A          A          A          A          A   
    1  C  1  S   -0.100454  -0.100873   0.013078   0.003378   0.025673
    2  C  1  S    0.189458   0.198972  -0.017788  -0.013641  -0.049282
    3  C  1  X    0.157577  -0.014074   0.232352   0.171995   0.088691
    4  C  1  Y   -0.086432  -0.007727   0.033877  -0.057566  -0.014654
    5  C  1  Z    0.107842   0.169236  -0.199756  -0.126152  -0.053230
    6  C  1  S    0.232473   0.273945  -0.059526   0.017244  -0.095606
    7  C  1  X    0.024781  -0.021112   0.081629   0.079114   0.048558
    8  C  1  Y   -0.048132  -0.024114   0.030983  -0.035986   0.003751
    9  C  1  Z    0.012864   0.038784  -0.055863  -0.043909  -0.005926
   10  C  1 XX    0.003528   0.003650   0.005705  -0.004980   0.000162
   11  C  1 YY   -0.000229  -0.009564  -0.002360   0.009489   0.003838
   12  C  1 ZZ   -0.003300   0.005915  -0.003345  -0.004509  -0.004000
   13  C  1 XY   -0.013437   0.007094  -0.014147  -0.014646  -0.006475
   14  C  1 XZ   -0.007393  -0.007681   0.005379   0.001702   0.012536
   15  C  1 YZ   -0.005276  -0.011630   0.014592   0.010777   0.002014
   16  C  2  S   -0.134421   0.078786  -0.037791   0.015054  -0.009869
   17  C  2  S    0.280618  -0.163914   0.088427  -0.047094   0.019882
   18  C  2  X   -0.211983  -0.108972  -0.065819  -0.329463  -0.068185
   19  C  2  Y   -0.054418   0.270043   0.313614  -0.116922   0.022190
   20  C  2  Z    0.024347   0.042181  -0.094921  -0.084914   0.340636
   21  C  2  S    0.218062  -0.173362   0.067594   0.010136   0.032532
   22  C  2  X   -0.054307   0.008746  -0.060659  -0.068953  -0.028318
   23  C  2  Y   -0.039529   0.110184   0.076883  -0.027788   0.007612
   24  C  2  Z    0.012904   0.027091  -0.051132  -0.056475   0.196820
   25  C  2 XX   -0.002791   0.008643  -0.000691  -0.009224  -0.003857
   26  C  2 YY    0.007880  -0.011735  -0.000915   0.006671   0.004885
   27  C  2 ZZ   -0.005089   0.003092   0.001606   0.002553  -0.001028
   28  C  2 XY   -0.012729  -0.001019   0.001856  -0.011232   0.000438
   29  C  2 XZ   -0.001633  -0.003741   0.002636   0.000318   0.024677
   30  C  2 YZ    0.001346   0.002670  -0.003029  -0.003630   0.012794
   31  O  3  S    0.072601  -0.047106   0.043878  -0.070496  -0.005121
   32  O  3  S   -0.171811   0.111668  -0.101452   0.152630   0.008209
   33  O  3  X   -0.056143   0.038079  -0.288395   0.371110   0.036545
   34  O  3  Y   -0.011562   0.186107   0.082468   0.270332   0.103915
   35  O  3  Z    0.008511   0.021217  -0.061713  -0.115730   0.483789
   36  O  3  S   -0.178811   0.138678  -0.153741   0.309624   0.037550
   37  O  3  X   -0.040166   0.023256  -0.156225   0.187444   0.014339
   38  O  3  Y   -0.008355   0.095375   0.046964   0.140978   0.059386
   39  O  3  Z    0.002827   0.006901  -0.030182  -0.062468   0.300209
   40  O  3 XX    0.005573   0.004639   0.019132  -0.009142   0.000269
   41  O  3 YY   -0.001431  -0.009274  -0.012843  -0.000950  -0.003968
   42  O  3 ZZ   -0.004142   0.004635  -0.006289   0.010092   0.003700
   43  O  3 XY    0.003122  -0.011919  -0.000336  -0.015417  -0.004683
   44  O  3 XZ   -0.000820  -0.001848   0.003502   0.007114  -0.026884
   45  O  3 YZ   -0.000491   0.000086   0.002707   0.004464  -0.015761
   46  H  4  S    0.121335  -0.198675  -0.127841   0.051625   0.009525
   47  H  4  S    0.035447  -0.111838  -0.118278   0.051154   0.004853
   48  H  5  S   -0.148311  -0.074446  -0.006255  -0.027283   0.043750
   49  H  5  S   -0.074872  -0.045856  -0.181622  -0.078311   0.030432
   50  H  6  S   -0.157831  -0.102459   0.060755   0.006324   0.059171
   51  H  6  S   -0.016662  -0.042030   0.213212   0.074766   0.032864
   52  H  7  S    0.091661   0.174097  -0.185575  -0.119011  -0.096822
   53  H  7  S    0.027177   0.102070  -0.142708  -0.101955  -0.090281

                     11         12         13         14         15
                   -0.2655    -0.2134    -0.0492     0.0571     0.1293
                     A          A          A          A          A   
    1  C  1  S    0.065123   0.073151   0.024072  -0.116719   0.036035
    2  C  1  S   -0.131882  -0.158080  -0.036516   0.156918  -0.046566
    3  C  1  X   -0.179982   0.057192   0.115289  -0.279414  -0.137980
    4  C  1  Y   -0.043974  -0.500909   0.110130  -0.189455   0.044483
    5  C  1  Z    0.093282   0.113844   0.122404  -0.265568   0.111231
    6  C  1  S   -0.369347  -0.227449  -0.220862   1.737207  -0.396297
    7  C  1  X   -0.076695   0.149164   0.110309  -0.569415  -0.352403
    8  C  1  Y    0.027061  -0.391644   0.127147  -0.466492   0.238186
    9  C  1  Z    0.035998   0.048253   0.205127  -0.452566   0.318016
   10  C  1 XX   -0.000251  -0.010487   0.004660   0.001321   0.005426
   11  C  1 YY    0.006277   0.030897  -0.004720   0.000747  -0.006792
   12  C  1 ZZ   -0.006026  -0.020409   0.000060  -0.002069   0.001366
   13  C  1 XY    0.011591   0.002428  -0.007726   0.018126  -0.009954
   14  C  1 XZ   -0.002159  -0.004813   0.023437   0.023643  -0.000904
   15  C  1 YZ   -0.006661   0.000404  -0.016045   0.015302  -0.006366
   16  C  2  S   -0.005198  -0.008765  -0.008843   0.009441  -0.118746
   17  C  2  S    0.002506   0.036993   0.019967   0.021042   0.170651
   18  C  2  X    0.044689  -0.075519  -0.014288   0.039502  -0.057053
   19  C  2  Y   -0.089940   0.104854   0.031553  -0.083685  -0.311849
   20  C  2  Z    0.006918   0.018853   0.454854   0.160664  -0.018007
   21  C  2  S    0.010098  -0.149165   0.086428  -0.220636   1.864530
   22  C  2  X   -0.090885  -0.056472   0.034418   0.085140  -0.140723
   23  C  2  Y    0.007456  -0.106595   0.049383  -0.103101  -0.664961
   24  C  2  Z    0.010142   0.023853   0.475595   0.263798  -0.065873
   25  C  2 XX   -0.034430   0.020327  -0.006278   0.010208  -0.006733
   26  C  2 YY    0.034547  -0.024637   0.002432  -0.001428  -0.002220
   27  C  2 ZZ   -0.000117   0.004311   0.003846  -0.008780   0.008953
   28  C  2 XY    0.026140   0.010735  -0.008006   0.007812   0.004161
   29  C  2 XZ   -0.005480  -0.007201  -0.029991   0.001620  -0.001498
   30  C  2 YZ   -0.002280   0.001345  -0.012358  -0.012555   0.004748
   31  O  3  S   -0.002344  -0.009502   0.005531  -0.012449   0.013042
   32  O  3  S    0.001344   0.014104  -0.012152   0.031790  -0.024583
   33  O  3  X   -0.298622  -0.018567   0.033505  -0.082355   0.041123
   34  O  3  Y    0.501818  -0.111282  -0.031558   0.035972   0.110402
   35  O  3  Z   -0.062297  -0.048707  -0.425789  -0.097098   0.014137
   36  O  3  S    0.049411   0.136648  -0.058102   0.102757  -0.153624
   37  O  3  X   -0.218109  -0.047705   0.036990  -0.115571   0.054780
   38  O  3  Y    0.342369  -0.096580  -0.023798   0.033935   0.207119
   39  O  3  Z   -0.045677  -0.038072  -0.427368  -0.129241   0.024359
   40  O  3 XX    0.015217   0.003414  -0.000928   0.002384  -0.005868
   41  O  3 YY   -0.015506  -0.002941   0.000954  -0.000638  -0.001479
   42  O  3 ZZ    0.000289  -0.000473  -0.000026  -0.001746   0.007347
   43  O  3 XY   -0.008160   0.004333  -0.001139   0.003145   0.002220
   44  O  3 XZ    0.001344   0.001033   0.000807  -0.000294  -0.000087
   45  O  3 YZ    0.002498   0.001116   0.001792  -0.002889   0.001483
   46  H  4  S    0.149374  -0.123066   0.008000   0.022371  -0.077061
   47  H  4  S    0.229602  -0.235936   0.010258  -0.120441  -1.805995
   48  H  5  S    0.070684   0.124212   0.110677  -0.072167   0.019071
   49  H  5  S    0.522121   0.934490  -0.138620  -0.787741  -1.713477
   50  H  6  S    0.008602  -0.027824   0.126300  -0.102316   0.044675
   51  H  6  S   -0.417458  -0.872204   0.464641  -0.821118   1.928691
   52  H  7  S    0.061831   0.040403  -0.079380  -0.067216   0.010207
   53  H  7  S    0.115151   0.038184  -0.139344  -0.704342  -0.259846

                     16         17         18         19         20
                    0.1427     0.2004     0.2557     0.2853     0.3429
                     A          A          A          A          A   
    1  C  1  S    0.059453   0.027949   0.005511  -0.068423  -0.070384
    2  C  1  S   -0.063638   0.041828   0.043475   0.087622   0.122532
    3  C  1  X    0.024639  -0.062288  -0.122117   0.266766  -0.032478
    4  C  1  Y   -0.005874   0.151438  -0.052142   0.075598  -0.197119
    5  C  1  Z   -0.431873  -0.108481   0.045716  -0.036802  -0.048585
    6  C  1  S   -1.062997  -1.196164  -0.942467   0.647733   0.680993
    7  C  1  X    0.129956  -0.508004  -0.720023   1.484405   0.470879
    8  C  1  Y    0.140459   0.822759   0.209801   0.172842  -0.401392
    9  C  1  Z   -1.104107  -0.445134   0.307028  -0.153368  -0.109909
   10  C  1 XX   -0.011115   0.028799  -0.014138  -0.047407  -0.016245
   11  C  1 YY   -0.002372   0.012082   0.016929   0.028424   0.027406
   12  C  1 ZZ    0.013487  -0.040881  -0.002791   0.018984  -0.011161
   13  C  1 XY   -0.005101  -0.000928  -0.020315   0.000919   0.009430
   14  C  1 XZ    0.001310   0.001433  -0.013986  -0.002428  -0.036345
   15  C  1 YZ    0.008321   0.003978  -0.023834   0.007964  -0.025814
   16  C  2  S   -0.019869  -0.045502   0.022301   0.080919   0.020065
   17  C  2  S   -0.013124   0.087331  -0.058780  -0.108130  -0.155382
   18  C  2  X    0.003028  -0.167548  -0.144796   0.243603   0.255523
   19  C  2  Y   -0.023529   0.048897   0.051169  -0.427279  -0.072175
   20  C  2  Z    0.120834   0.026696   0.137520   0.001943   0.238975
   21  C  2  S    0.436381   0.736750  -0.429896  -1.879159   0.331145
   22  C  2  X   -0.124260  -0.988047  -1.602504  -0.345897   1.411084
   23  C  2  Y   -0.072322   0.053345  -0.062347  -1.635038   0.047953
   24  C  2  Z    0.365602   0.145616   0.020299   0.095189  -0.039287
   25  C  2 XX   -0.001780   0.003344   0.015637   0.000866   0.024400
   26  C  2 YY   -0.007281   0.002580  -0.013256   0.016270  -0.022797
   27  C  2 ZZ    0.009061  -0.005924  -0.002381  -0.017136  -0.001602
   28  C  2 XY    0.002088   0.000424   0.020153  -0.012207  -0.001262
   29  C  2 XZ    0.012159   0.004263   0.003134   0.000609   0.015664
   30  C  2 YZ   -0.020293  -0.001366  -0.005585  -0.001186  -0.011480
   31  O  3  S    0.003512  -0.014532  -0.065490  -0.065120   0.047731
   32  O  3  S   -0.009675   0.000758   0.109562   0.080379  -0.074097
   33  O  3  X    0.014520   0.041900  -0.090965  -0.150760  -0.027246
   34  O  3  Y    0.006847  -0.066451  -0.109322   0.011030   0.110439
   35  O  3  Z   -0.062293  -0.026111  -0.019229  -0.001485  -0.052131
   36  O  3  S   -0.016526   0.429057   1.218233   1.385013  -1.035544
   37  O  3  X    0.028871  -0.037435  -0.375365  -0.694472   0.293683
   38  O  3  Y    0.009899  -0.194085  -0.400560  -0.060718   0.364759
   39  O  3  Z   -0.129049  -0.027585   0.006449   0.020949  -0.062651
   40  O  3 XX   -0.002456   0.005068   0.012870   0.012318  -0.026680
   41  O  3 YY   -0.000891  -0.001546  -0.004936   0.011309   0.010399
   42  O  3 ZZ    0.003347  -0.003522  -0.007934  -0.023626   0.016281
   43  O  3 XY    0.000622   0.007105   0.021955   0.026464  -0.019552
   44  O  3 XZ    0.002994  -0.000352  -0.008129  -0.002074  -0.009872
   45  O  3 YZ   -0.005215  -0.001209  -0.005763  -0.002079  -0.010553
   46  H  4  S   -0.041847  -0.029102  -0.008412   0.063432  -0.113816
   47  H  4  S   -0.282357  -0.180313   0.336825  -1.007004  -0.167658
   48  H  5  S   -0.140625  -0.036897  -0.296115  -0.012910  -0.398044
   49  H  5  S   -1.185830   9.156474  -5.054730   3.468513   1.623346
   50  H  6  S    0.005117  -0.229079  -0.156571   0.016729  -0.457814
   51  H  6  S    0.743571  -8.792078   5.765582  -3.036984  -0.498978
   52  H  7  S    0.077667  -0.132509   0.006812  -0.001577   0.037755
   53  H  7  S    1.858056   0.185938  -0.388536   0.387485  -0.323200

                     21         22         23         24         25
                    0.5353     0.5523     0.6005     0.6577     0.6807
                     A          A          A          A          A   
    1  C  1  S   -0.004106  -0.016142   0.017556  -0.018315  -0.021590
    2  C  1  S    0.166061  -0.103394  -0.221190   0.145052   0.366629
    3  C  1  X    0.485213  -0.567153  -0.490766  -0.092946   0.243999
    4  C  1  Y   -0.587298   0.331725  -0.680410   0.242690   0.038474
    5  C  1  Z   -0.059457  -0.039692  -0.339436  -0.566716  -0.472242
    6  C  1  S   -0.242602   0.096905  -0.706450   0.571183  -0.824575
    7  C  1  X   -0.735167   0.713097   0.493656   0.459134  -0.709085
    8  C  1  Y    0.556840  -0.410992   1.034275  -0.359063   0.025743
    9  C  1  Z    0.053295  -0.117503   0.824978   1.377879   1.158530
   10  C  1 XX   -0.003308  -0.019605  -0.056704   0.000307  -0.006791
   11  C  1 YY    0.026085   0.007311   0.058218   0.017018  -0.020430
   12  C  1 ZZ   -0.022777   0.012295  -0.001515  -0.017325   0.027222
   13  C  1 XY   -0.023405   0.014787   0.037264  -0.080902   0.014403
   14  C  1 XZ   -0.001806  -0.012094   0.036579   0.042019   0.022319
   15  C  1 YZ    0.007734  -0.005283   0.043847   0.039543   0.029449
   16  C  2  S    0.038232  -0.026453  -0.003109   0.026307  -0.045319
   17  C  2  S    0.010424  -0.196064  -0.391928  -0.320652   0.290168
   18  C  2  X   -0.093708   0.111753   0.199134  -0.552551   0.782160
   19  C  2  Y   -0.103338   0.011838  -0.142998   0.145586   0.404274
   20  C  2  Z   -0.645463  -0.736710   0.167310   0.085457  -0.021027
   21  C  2  S    0.387259  -0.051646   0.570386  -0.011204   0.717245
   22  C  2  X    0.249314  -0.127755  -0.761423   1.026543  -0.916140
   23  C  2  Y    0.129116  -0.048042   0.153235  -1.027321  -0.184739
   24  C  2  Z    0.777111   0.980546  -0.443945  -0.439696  -0.260193
   25  C  2 XX    0.086365  -0.055158   0.005825   0.056754  -0.044623
   26  C  2 YY   -0.014512  -0.020162  -0.035501  -0.058867  -0.002906
   27  C  2 ZZ   -0.071853   0.075321   0.029677   0.002113   0.047528
   28  C  2 XY   -0.024853   0.037964   0.036851   0.073885  -0.113258
   29  C  2 XZ   -0.007024   0.005891  -0.002272  -0.011348   0.003602
   30  C  2 YZ   -0.016202  -0.019333   0.025193   0.029046   0.026273
   31  O  3  S   -0.007116   0.012558   0.008224  -0.021761   0.034518
   32  O  3  S    0.068940  -0.082836  -0.088576   0.106938  -0.114694
   33  O  3  X   -0.124773   0.075231   0.083842  -0.298059   0.217393
   34  O  3  Y    0.036706  -0.037328  -0.165862   0.117635   0.238302
   35  O  3  Z   -0.046353  -0.076029   0.007968   0.001851  -0.028538
   36  O  3  S   -0.236785   0.094129   0.206506  -0.149474   0.098317
   37  O  3  X    0.021035   0.034059   0.020688  -0.136367   0.316965
   38  O  3  Y    0.060946  -0.010962  -0.013445   0.040815   0.097397
   39  O  3  Z   -0.081808  -0.098729   0.084318   0.097214   0.059278
   40  O  3 XX   -0.024164   0.011682  -0.011219  -0.041471   0.067590
   41  O  3 YY    0.018668  -0.009779   0.003859  -0.002306  -0.009836
   42  O  3 ZZ    0.005496  -0.001904   0.007360   0.043778  -0.057755
   43  O  3 XY   -0.013947   0.009328  -0.015635  -0.058437   0.113464
   44  O  3 XZ    0.041383   0.044881  -0.017718  -0.011790  -0.019818
   45  O  3 YZ    0.021476   0.021472   0.006479   0.019597   0.008042
   46  H  4  S    0.064648  -0.172803  -0.067648  -0.344687  -0.062567
   47  H  4  S    0.057270  -0.018089   0.108910  -0.427328  -0.095999
   48  H  5  S   -0.036295  -0.107438   0.070679  -0.070084  -0.063124
   49  H  5  S   -0.709293  -0.064494   1.280457  -1.847731  -2.285702
   50  H  6  S   -0.065862  -0.099257  -0.097045  -0.007874  -0.005234
   51  H  6  S    0.914676   0.431759  -0.613639   2.560207   2.698442
   52  H  7  S   -0.150331  -0.031248  -0.235589  -0.266921  -0.121074
   53  H  7  S   -0.038101  -0.090403   0.057667  -0.272638  -0.516305

                     26         27         28         29         30
                    0.7280     0.7646     0.8543     0.8883     0.9216
                     A          A          A          A          A   
    1  C  1  S   -0.012354   0.006337  -0.011899   0.030781   0.017419
    2  C  1  S   -0.405002  -0.249861   0.071175  -1.108034  -0.412040
    3  C  1  X    0.312372  -0.304565   0.071865   0.370030  -0.066050
    4  C  1  Y    0.088610  -0.312378   0.100215   0.055425  -0.052472
    5  C  1  Z    0.517542   0.405215   0.074307  -0.377129  -0.062709
    6  C  1  S    0.335147   1.122945  -0.503009   1.905694   1.048452
    7  C  1  X   -1.144481   1.732966  -0.548533  -0.691579   0.729554
    8  C  1  Y   -0.056868   0.790413  -0.027728  -0.023572   0.164968
    9  C  1  Z   -0.802118  -1.034120  -0.076518   0.517208  -0.047679
   10  C  1 XX   -0.084364   0.022287  -0.029707  -0.067314  -0.052470
   11  C  1 YY    0.083409   0.023625   0.011203  -0.024338   0.034210
   12  C  1 ZZ    0.000954  -0.045912   0.018504   0.091652   0.018260
   13  C  1 XY   -0.009280  -0.023219   0.037397   0.037676  -0.067963
   14  C  1 XZ    0.058216  -0.001394   0.023585  -0.116313  -0.049270
   15  C  1 YZ    0.004679  -0.003897   0.007716  -0.025823  -0.008946
   16  C  2  S   -0.015735  -0.013609   0.051048  -0.014206   0.018543
   17  C  2  S   -0.660891   0.091078  -0.955964  -0.727887   1.045267
   18  C  2  X    0.335529  -0.124074   0.181321   0.019558   0.036380
   19  C  2  Y   -0.157557   0.799826   0.476663   0.132679   0.039546
   20  C  2  Z    0.032021  -0.022374  -0.022178  -0.015798   0.003161
   21  C  2  S    1.676620  -0.994063   2.955627   0.996805  -1.305748
   22  C  2  X   -0.648050   0.505348  -0.125064  -0.281883   0.480986
   23  C  2  Y    0.303097  -2.972649  -0.353147  -0.539200  -0.329459
   24  C  2  Z    0.061252   0.288673   0.018982  -0.014934  -0.001584
   25  C  2 XX    0.055230  -0.068196   0.016433  -0.064588   0.112150
   26  C  2 YY   -0.131420   0.023862   0.089174  -0.000299  -0.054430
   27  C  2 ZZ    0.076191   0.044335  -0.105607   0.064887  -0.057720
   28  C  2 XY    0.037921  -0.045542   0.111045   0.008853   0.132927
   29  C  2 XZ   -0.029317   0.008046  -0.018378   0.048894   0.012316
   30  C  2 YZ    0.015567  -0.009985  -0.006168  -0.023839  -0.020659
   31  O  3  S    0.015251  -0.012941   0.029627  -0.013267   0.047652
   32  O  3  S   -0.076128  -0.017291  -0.098250   0.021019  -0.270655
   33  O  3  X   -0.119926   0.144051  -0.353125   0.095896  -0.540917
   34  O  3  Y    0.080150   0.267146  -0.312769   0.061128  -0.201401
   35  O  3  Z    0.078944   0.006995   0.050278  -0.195603  -0.073508
   36  O  3  S   -0.177129   0.861203  -0.624575   0.177433   0.041949
   37  O  3  X    0.257417  -0.503395   0.791922  -0.280085   0.950701
   38  O  3  Y    0.040989   0.047331   0.494395  -0.113881   0.540166
   39  O  3  Z   -0.075494  -0.045202  -0.067602   0.211298   0.053011
   40  O  3 XX   -0.056322   0.104912  -0.009396   0.002937   0.018715
   41  O  3 YY    0.021920  -0.039197  -0.046895  -0.019092   0.018890
   42  O  3 ZZ    0.034402  -0.065715   0.056291   0.016155  -0.037605
   43  O  3 XY    0.017404   0.014830  -0.071762  -0.013951   0.004711
   44  O  3 XZ    0.011288   0.002256   0.006478  -0.006385  -0.002803
   45  O  3 YZ   -0.005892  -0.014525   0.007489   0.000102  -0.008397
   46  H  4  S   -0.678350  -0.015889   0.714163  -0.056900  -0.317876
   47  H  4  S    0.384623  -1.632324  -1.551472  -0.555370   0.407316
   48  H  5  S    0.135048   0.070405   0.018210  -0.024930  -0.034012
   49  H  5  S   -0.982926   3.625062  -0.330097   0.735561   1.732586
   50  H  6  S    0.085189  -0.015655  -0.024100   0.100742   0.101215
   51  H  6  S   -0.389716  -3.589465   0.102246  -1.189563  -1.625460
   52  H  7  S   -0.420932  -0.060699  -0.172705   0.785787   0.329354
   53  H  7  S    0.250593   0.910921   0.060275  -1.733627  -0.229052

                     31         32         33         34         35
                    0.9851     1.0796     1.1736     1.4149     1.5273
                     A          A          A          A          A   
    1  C  1  S   -0.001835  -0.012170  -0.082392   0.018678  -0.003927
    2  C  1  S    0.291786  -0.280704  -1.776148   0.254742  -0.052890
    3  C  1  X   -0.036947  -0.070327   0.104112  -0.021855  -0.000137
    4  C  1  Y   -0.006077  -0.045189   0.248056  -0.089230   0.024295
    5  C  1  Z    0.159710   0.010247  -0.099087  -0.065775  -0.060169
    6  C  1  S   -0.662271  -0.176548   5.564859  -0.866060   0.162947
    7  C  1  X   -0.022679  -0.416969   0.303931   0.090351  -0.028776
    8  C  1  Y    0.086067  -0.150593  -1.970970   0.476812  -0.105988
    9  C  1  Z   -0.140377   0.049232   0.518969  -0.339057   0.424182
   10  C  1 XX    0.011638  -0.022904   0.054650  -0.000147   0.010831
   11  C  1 YY    0.003927   0.008753   0.133851  -0.095746   0.034861
   12  C  1 ZZ   -0.015565   0.014151  -0.188501   0.095893  -0.045692
   13  C  1 XY   -0.001795   0.059564   0.022861   0.001762   0.004976
   14  C  1 XZ    0.021042   0.017535   0.120384   0.326232  -0.145382
   15  C  1 YZ    0.050518   0.005650  -0.040787  -0.458711   0.067380
   16  C  2  S   -0.000519  -0.000377   0.033237  -0.006539   0.001102
   17  C  2  S   -0.056915   0.044220   0.726995  -0.108613   0.012620
   18  C  2  X    0.007584   0.115269  -0.070979  -0.003368   0.012295
   19  C  2  Y   -0.004900  -0.287078  -0.009327   0.023273   0.001167
   20  C  2  Z    0.115736   0.009148   0.002129   0.051328   0.184132
   21  C  2  S    0.241524  -0.257204  -3.286111   0.522571  -0.075966
   22  C  2  X   -0.121786  -0.738971   1.930683  -0.307964   0.045549
   23  C  2  Y    0.062709   1.684933  -0.259198  -0.143240   0.044208
   24  C  2  Z   -0.577758  -0.069228  -0.214700  -0.023822  -0.222837
   25  C  2 XX    0.006257  -0.139624  -0.034115  -0.036834  -0.000183
   26  C  2 YY   -0.006046   0.150878   0.134483  -0.015312  -0.039441
   27  C  2 ZZ   -0.000212  -0.011253  -0.100368   0.052146   0.039624
   28  C  2 XY   -0.012706   0.069671  -0.027016  -0.007975  -0.032651
   29  C  2 XZ   -0.048238  -0.009401  -0.114341  -0.558772  -0.136185
   30  C  2 YZ    0.012334  -0.001270   0.061603   0.141639  -0.713935
   31  O  3  S   -0.002017   0.002508   0.010246  -0.002559   0.000284
   32  O  3  S    0.023984  -0.048590  -0.139970   0.032191   0.000627
   33  O  3  X   -0.008456  -0.371327   0.184650  -0.033374   0.006861
   34  O  3  Y   -0.038078   0.708244  -0.113269   0.003846   0.006292
   35  O  3  Z   -0.914252  -0.031229  -0.028013   0.066899   0.086639
   36  O  3  S   -0.044504   0.017845   0.037006   0.032686  -0.025643
   37  O  3  X    0.024472   0.687455  -0.409970   0.060188   0.002975
   38  O  3  Y    0.040138  -1.348985   0.296206  -0.009327   0.003919
   39  O  3  Z    1.251886   0.060469   0.108542   0.109118   0.116532
   40  O  3 XX   -0.006450   0.088474   0.035842   0.011351   0.023303
   41  O  3 YY    0.002576  -0.088899   0.056524   0.002571   0.004654
   42  O  3 ZZ    0.003873   0.000425  -0.092367  -0.013921  -0.027957
   43  O  3 XY    0.003841  -0.067028  -0.003299   0.015245   0.017735
   44  O  3 XZ    0.030643   0.000601   0.006014   0.160134   0.499331
   45  O  3 YZ    0.020522   0.010731   0.046094   0.262648  -0.072348
   46  H  4  S    0.009219   0.252887   0.294270  -0.067428   0.012342
   47  H  4  S    0.008775   0.794796   0.086114  -0.115121   0.032148
   48  H  5  S    0.044635   0.014223  -0.032472  -0.258200   0.157294
   49  H  5  S   -0.186839  -0.588829  -5.483667   2.748136  -0.960999
   50  H  6  S    0.014181  -0.074255  -0.314456   0.230353  -0.107752
   51  H  6  S    0.084708   0.411425   4.550201  -2.588917   1.090898
   52  H  7  S   -0.185025  -0.119065  -0.588007   0.275240  -0.102147
   53  H  7  S    0.500199  -0.110950  -0.803440   0.147501  -0.198875

                     36         37         38         39         40
                    1.6022     1.6581     1.7066     1.7956     1.8055
                     A          A          A          A          A   
    1  C  1  S    0.014077  -0.032800   0.013159  -0.007061   0.000413
    2  C  1  S    0.240937  -0.147234   0.521822   0.368141   0.001410
    3  C  1  X   -0.015031   0.123454   0.200951   0.211575  -0.008683
    4  C  1  Y   -0.019733  -0.027747  -0.028462  -0.054902   0.017219
    5  C  1  Z    0.020778   0.037111  -0.061572   0.003364   0.082930
    6  C  1  S   -0.804604   1.275796  -0.898888  -0.262655  -0.036211
    7  C  1  X    0.133234   0.162076   0.063081  -0.317470  -0.063784
    8  C  1  Y    0.482956  -0.495721   0.333911   0.005586  -0.042031
    9  C  1  Z   -0.069350  -0.042226   0.087626   0.029679  -0.314425
   10  C  1 XX   -0.111662  -0.533306   0.014921  -0.317490  -0.068083
   11  C  1 YY    0.012138   0.171080   0.513692   0.125783   0.022393
   12  C  1 ZZ    0.099524   0.362226  -0.528613   0.191707   0.045690
   13  C  1 XY   -0.220545  -0.313008   0.467156  -0.033931  -0.076894
   14  C  1 XZ    0.007718   0.056662  -0.088182   0.052554  -0.330153
   15  C  1 YZ   -0.001556   0.058063  -0.069593   0.014741   0.408651
   16  C  2  S   -0.017258   0.017017  -0.009815  -0.022785  -0.001702
   17  C  2  S   -0.097127   0.518172   0.154918   0.038374  -0.016204
   18  C  2  X   -0.089230  -0.051720  -0.133297   0.029129   0.023217
   19  C  2  Y    0.012294   0.048374   0.011213  -0.094253   0.000685
   20  C  2  Z    0.005962   0.006724   0.003838  -0.001109   0.089078
   21  C  2  S   -1.725754  -1.191212  -0.516768   0.676157   0.151201
   22  C  2  X   -1.613590   1.108860  -0.401724   0.433783   0.056228
   23  C  2  Y   -0.937536   0.471216  -0.714788  -0.182831   0.141375
   24  C  2  Z    0.083220  -0.059342   0.055218  -0.022660   0.195998
   25  C  2 XX   -0.043557  -0.041686  -0.217769  -0.200520   0.018920
   26  C  2 YY    0.053435  -0.273039   0.072141   0.360267  -0.006068
   27  C  2 ZZ   -0.009878   0.314724   0.145628  -0.159747  -0.012852
   28  C  2 XY   -0.238574   0.296299   0.138438   0.245146  -0.000517
   29  C  2 XZ    0.012935   0.005961  -0.026640   0.003567  -0.140452
   30  C  2 YZ   -0.005179  -0.002038   0.021325  -0.032824  -0.062486
   31  O  3  S    0.035313   0.010403   0.007048   0.006205   0.000896
   32  O  3  S   -1.618187   0.076817  -0.465446   0.087197   0.049158
   33  O  3  X    0.109047   0.175092   0.062839   0.194087   0.016204
   34  O  3  Y    0.091031   0.009780  -0.073630  -0.156081   0.009951
   35  O  3  Z   -0.005878  -0.004131   0.006259  -0.003103   0.069903
   36  O  3  S    3.779169  -0.644245   1.215192  -0.530112  -0.189757
   37  O  3  X   -1.126186  -0.023018  -0.416265  -0.060875   0.048437
   38  O  3  Y   -0.672558   0.107302  -0.040650   0.350942   0.009548
   39  O  3  Z    0.060364  -0.000986   0.007450  -0.005390  -0.109908
   40  O  3 XX   -0.142233  -0.008182   0.017502   0.500587   0.019437
   41  O  3 YY    0.107838  -0.398009  -0.314064  -0.046049   0.095640
   42  O  3 ZZ    0.034396   0.406191   0.296563  -0.454538  -0.115077
   43  O  3 XY   -0.170601   0.151292   0.019771  -0.469154  -0.020792
   44  O  3 XZ    0.017780   0.030693  -0.021814   0.008792  -0.195298
   45  O  3 YZ   -0.002330   0.011624   0.110053  -0.067709   0.806063
   46  H  4  S    0.044072   0.401499  -0.200296  -0.444771   0.014443
   47  H  4  S   -0.189262   0.315780  -0.120535  -0.035937   0.035478
   48  H  5  S   -0.312441  -0.477545   0.744487  -0.271806   0.041643
   49  H  5  S    1.111392   1.086873  -2.326956   0.112938   0.054835
   50  H  6  S    0.399334   0.361389  -0.598644   0.237334  -0.038096
   51  H  6  S   -0.947431  -1.214010   2.596223  -0.101402  -0.204214
   52  H  7  S    0.074654  -0.169869   0.196624  -0.043353  -0.014599
   53  H  7  S    0.166394  -0.062669   0.217108   0.009624   0.125590

                     41         42         43         44         45
                    1.9216     2.0320     2.0691     2.2475     2.3311
                     A          A          A          A          A   
    1  C  1  S    0.042619  -0.020982  -0.012133   0.018752   0.031389
    2  C  1  S    0.283190  -0.180173   0.057395   0.082657   0.267239
    3  C  1  X   -0.080736  -0.011696   0.065451  -0.013007  -0.098620
    4  C  1  Y    0.123888  -0.038181  -0.016140   0.017648   0.032534
    5  C  1  Z   -0.029308   0.030414   0.007882  -0.043801   0.020344
    6  C  1  S   -1.632776   0.816793   0.110603  -0.533320  -1.376990
    7  C  1  X   -0.344692   0.338181  -0.299410  -0.093478  -0.760506
    8  C  1  Y    0.130354  -0.128023  -0.105340   0.167066   0.289557
    9  C  1  Z    0.203998   0.585750   0.431979  -0.214745   0.068398
   10  C  1 XX   -0.216910   0.216341  -0.244083   0.007478  -0.337027
   11  C  1 YY    0.663697  -0.251006  -0.017939   0.080213  -0.039176
   12  C  1 ZZ   -0.446787   0.034666   0.262022  -0.087691   0.376203
   13  C  1 XY   -0.401688  -0.172066   0.374802   0.046726   0.439281
   14  C  1 XZ   -0.146697  -0.215936  -0.051671   0.940995  -0.129987
   15  C  1 YZ   -0.332712  -0.620282  -0.379936   0.222850  -0.041592
   16  C  2  S   -0.022368   0.006565   0.012978  -0.017130  -0.079342
   17  C  2  S   -0.330752  -0.036063   0.311566  -0.112765  -0.216503
   18  C  2  X    0.226467   0.112473  -0.261970   0.009501  -0.203637
   19  C  2  Y    0.031174  -0.109357   0.131339   0.018849   0.179855
   20  C  2  Z   -0.016562  -0.027690  -0.025063  -0.078111   0.010264
   21  C  2  S    1.643017  -0.379923  -0.564111   0.500518   1.553959
   22  C  2  X   -0.169784   0.292416  -0.083749  -0.162030  -0.424298
   23  C  2  Y    1.318844  -0.539756   0.230769   0.142744   0.718223
   24  C  2  Z   -0.129536  -0.312936  -0.230694  -0.073703  -0.021327
   25  C  2 XX    0.442201  -0.029869  -0.211768   0.162428   0.413910
   26  C  2 YY   -0.255571   0.263387  -0.340272  -0.019253   0.317827
   27  C  2 ZZ   -0.186630  -0.233517   0.552040  -0.143175  -0.731736
   28  C  2 XY    0.130040  -0.035914   0.003251   0.069373   0.462447
   29  C  2 XZ    0.010952   0.238624   0.200352   0.239711  -0.077718
   30  C  2 YZ   -0.040808  -0.398476  -0.237906  -0.475322  -0.015431
   31  O  3  S    0.016428  -0.000293  -0.008971   0.006660   0.027753
   32  O  3  S    0.180675  -0.013351   0.008601  -0.060526  -0.333495
   33  O  3  X    0.137559   0.039487  -0.135070   0.070874   0.328706
   34  O  3  Y    0.223004  -0.069142  -0.031000   0.062565   0.237460
   35  O  3  Z   -0.031581  -0.057318  -0.035044  -0.027916  -0.017881
   36  O  3  S   -1.232278   0.086632   0.285995  -0.099887  -0.282844
   37  O  3  X    0.457198  -0.126943   0.000754   0.041016   0.092934
   38  O  3  Y   -0.157117   0.185531  -0.139591  -0.052016  -0.324283
   39  O  3  Z    0.035615   0.160954   0.122296   0.084194   0.004152
   40  O  3 XX    0.030383   0.096698  -0.181134  -0.027255  -0.315572
   41  O  3 YY    0.206045  -0.386500   0.527469   0.014192   0.294008
   42  O  3 ZZ   -0.236428   0.289803  -0.346335   0.013064   0.021563
   43  O  3 XY   -0.050572   0.026404  -0.065937   0.041429   0.400568
   44  O  3 XZ   -0.080481  -0.325617  -0.233597  -0.279427   0.023815
   45  O  3 YZ   -0.012127   0.211024   0.075225   0.183779  -0.039507
   46  H  4  S    0.325865  -0.294822   0.342429  -0.017476  -0.149451
   47  H  4  S    0.296103  -0.137849   0.130375   0.001005   0.183215
   48  H  5  S    0.362607  -0.197993   0.055879  -0.030721  -0.236347
   49  H  5  S   -0.156099  -0.048760  -1.021305   0.676966   0.088282
   50  H  6  S    0.091923   0.474208  -0.036329  -0.319529   0.233721
   51  H  6  S    0.300361   0.095468   1.045711  -0.537544  -0.046627
   52  H  7  S    0.236781  -0.452728  -0.397194   0.570384  -0.172525
   53  H  7  S    0.038281  -0.121114  -0.088915  -0.068149   0.062777

                     46         47         48         49         50
                    2.5091     2.5735     2.8479     2.9319     3.0878
                     A          A          A          A          A   
    1  C  1  S    0.051733  -0.000241   0.032217  -0.011241   0.000579
    2  C  1  S    0.100630  -0.005647  -0.104763   0.039582   0.086599
    3  C  1  X   -0.272302  -0.000742  -0.206309   0.065016   0.086398
    4  C  1  Y    0.068822  -0.001425   0.186014  -0.059875   0.053289
    5  C  1  Z    0.007070   0.027646  -0.005072   0.006786  -0.047437
    6  C  1  S   -1.543180   0.008769  -0.269567   0.159744  -0.196927
    7  C  1  X   -0.863726  -0.026435  -0.256319   0.144837   0.080391
    8  C  1  Y    0.252795  -0.016956   0.122714   0.038257   0.025009
    9  C  1  Z    0.019502   0.048624   0.043538   0.027002  -0.065151
   10  C  1 XX   -0.751881   0.000758  -0.236703   0.098824  -0.159654
   11  C  1 YY    0.518535   0.015185  -0.107913   0.063129  -0.180690
   12  C  1 ZZ    0.233346  -0.015943   0.344616  -0.161953   0.340343
   13  C  1 XY    0.144162   0.014247   0.509363  -0.084100  -0.347329
   14  C  1 XZ    0.038850   0.136167  -0.026832  -0.001644   0.016259
   15  C  1 YZ   -0.011716  -0.168013  -0.029252   0.030909  -0.121193
   16  C  2  S   -0.029563   0.000493  -0.042773  -0.030900  -0.005236
   17  C  2  S   -0.063824   0.003668  -0.243600  -1.320121  -0.257656
   18  C  2  X   -0.230437   0.005116  -0.320964  -1.088314  -0.237671
   19  C  2  Y    0.053742   0.009911  -0.118817  -0.637566  -0.130524
   20  C  2  Z   -0.002473   0.243649   0.017624   0.057128   0.012162
   21  C  2  S    1.732174   0.024082   0.234258  -1.643898  -0.592920
   22  C  2  X   -0.727107   0.010734  -0.322219  -0.666998  -0.292047
   23  C  2  Y    0.887788   0.043864  -0.450441  -0.526898  -0.165977
   24  C  2  Z   -0.022246   0.231096   0.026049   0.022821   0.074215
   25  C  2 XX   -0.160937   0.031678   0.907246  -0.606635  -0.253922
   26  C  2 YY    0.443667   0.040198  -0.765000   0.154384   0.209665
   27  C  2 ZZ   -0.282731  -0.071876  -0.142246   0.452251   0.044257
   28  C  2 XY   -0.865356   0.032489  -0.570302  -0.425014  -0.049722
   29  C  2 XZ    0.012581   0.910639  -0.003325   0.049457   0.034688
   30  C  2 YZ   -0.023994   0.399465   0.057056   0.013955   0.037600
   31  O  3  S   -0.020795  -0.000590  -0.006211  -0.060453  -0.014076
   32  O  3  S    0.591348   0.021578  -0.301910  -0.669803  -0.219633
   33  O  3  X   -0.353658  -0.010439   0.012131  -0.248916  -0.038618
   34  O  3  Y   -0.147243  -0.005828   0.054147  -0.154510  -0.043970
   35  O  3  Z    0.016051  -0.010124  -0.003821   0.014401  -0.001603
   36  O  3  S   -0.758435  -0.037680   0.824387   3.018916   0.918531
   37  O  3  X    0.516519   0.005614  -0.570880  -1.519276  -0.394361
   38  O  3  Y   -0.025547  -0.016384   0.135933  -0.893532  -0.275844
   39  O  3  Z   -0.001666  -0.453202   0.007594   0.086568   0.000723
   40  O  3 XX   -0.165225   0.034719   0.778561   0.816924   0.093292
   41  O  3 YY    0.011266   0.042212  -0.649315  -0.107574   0.045779
   42  O  3 ZZ    0.153959  -0.076931  -0.129245  -0.709350  -0.139071
   43  O  3 XY    0.133105   0.052433  -0.204213   1.094109   0.291517
   44  O  3 XZ   -0.019062   0.847910  -0.010974  -0.102966   0.008991
   45  O  3 YZ   -0.009213   0.523660   0.033924  -0.064150   0.001184
   46  H  4  S   -0.252631  -0.003164   0.249409   0.014082  -0.088310
   47  H  4  S    0.340724   0.015843  -0.384273  -0.035115   0.097057
   48  H  5  S   -0.165012  -0.161914   0.469500  -0.897471   4.007602
   49  H  5  S    0.179112  -0.007552  -0.887433   0.638110  -3.904031
   50  H  6  S    0.204533   0.171731  -0.552321   0.913811  -3.961780
   51  H  6  S   -0.211827   0.029130   0.892027  -0.620819   3.913667
   52  H  7  S    0.053549  -0.014005  -0.136881   0.020740   0.007592
   53  H  7  S   -0.047539  -0.047972   0.025193  -0.026492   0.198522
 ...... END OF RHF CALCULATION ......
 STEP CPU TIME =     4.97 TOTAL CPU TIME =          5.1 (      0.1 MIN)
 TOTAL WALL CLOCK TIME=          5.2 SECONDS, CPU UTILIZATION IS    98.26%

     ---------------------------------------------------------------------
     PROPERTIES FOR THE B3LYP    DFT FUNCTIONAL (RHF  TYPE) DENSITY MATRIX
     ---------------------------------------------------------------------

          -----------------
          ENERGY COMPONENTS
          -----------------

         WAVEFUNCTION NORMALIZATION =       1.0000000000

                ONE ELECTRON ENERGY =    -346.2134624550
                TWO ELECTRON ENERGY =     122.3283024965
           NUCLEAR REPULSION ENERGY =      72.3763463252
                                      ------------------
                       TOTAL ENERGY =    -151.5088136333

 ELECTRON-ELECTRON POTENTIAL ENERGY =     122.3283024965
  NUCLEUS-ELECTRON POTENTIAL ENERGY =    -499.9499822668
   NUCLEUS-NUCLEUS POTENTIAL ENERGY =      72.3763463252
                                      ------------------
             TOTAL POTENTIAL ENERGY =    -305.2453334452
               TOTAL KINETIC ENERGY =     153.7365198119
                 VIRIAL RATIO (V/T) =       1.9855095837

          ---------------------------------------
          MULLIKEN AND LOWDIN POPULATION ANALYSES
          ---------------------------------------

     ATOMIC MULLIKEN POPULATION IN EACH MOLECULAR ORBITAL

                      1          2          3          4          5

                  2.000000   2.000000   2.000000   2.000000   2.000000

    1            -0.000027   0.001243   1.995607   0.034200   0.416407
    2             0.002246   2.000590   0.001738   0.516660   0.086269
    3             1.997753  -0.002782   0.000011   1.408136   0.062932
    4             0.000029   0.000913   0.000001  -0.002215  -0.000494
    5             0.000000  -0.000103   0.002322   0.024342   0.812515
    6            -0.000001   0.000122  -0.000955   0.017457   0.597886
    7            -0.000001   0.000016   0.001277   0.001419   0.024485

                      6          7          8          9         10

                  2.000000   2.000000   2.000000   2.000000   2.000000

    1             0.642677   0.488006   0.488275   0.251702   0.079869
    2             0.844749   0.639741   0.524907   0.419537   0.654727
    3             0.183812   0.274968   0.538792   1.187227   1.190084
    4             0.120197   0.314696   0.148703   0.026096   0.000578
    5             0.060976   0.012556   0.015062   0.001838   0.001721
    6             0.076836   0.023290   0.003358   0.001306   0.004155
    7             0.070754   0.246742   0.280902   0.112295   0.068865

                     11         12

                  2.000000   2.000000

    1             0.274011   1.625656
    2             0.066061   0.112160
    3             1.414520   0.047558
    4             0.181780   0.118892
    5             0.020652  -0.108928
    6             0.008665   0.200768
    7             0.034312   0.003893

               ----- POPULATIONS IN EACH AO -----
                             MULLIKEN      LOWDIN
              1  C  1  S      1.99680     1.98059
              2  C  1  S      0.71588     0.40248
              3  C  1  X      0.58868     0.52272
              4  C  1  Y      0.87140     0.83717
              5  C  1  Z      0.49794     0.43893
              6  C  1  S      0.69643     0.37955
              7  C  1  X      0.18308     0.32391
              8  C  1  Y      0.58282     0.74982
              9  C  1  Z      0.13185     0.32440
             10  C  1 XX      0.00359     0.17529
             11  C  1 YY      0.00246     0.12899
             12  C  1 ZZ      0.01066     0.18240
             13  C  1 XY      0.00906     0.01996
             14  C  1 XZ      0.00699     0.03252
             15  C  1 YZ      0.00000     0.01569
             16  C  2  S      1.99650     1.97445
             17  C  2  S      0.70319     0.36378
             18  C  2  X      0.73813     0.64214
             19  C  2  Y      0.74635     0.64644
             20  C  2  Z      0.46824     0.42163
             21  C  2  S      0.47301     0.31566
             22  C  2  X      0.12477     0.28413
             23  C  2  Y      0.23348     0.38255
             24  C  2  Z      0.29868     0.33473
             25  C  2 XX      0.00481     0.22320
             26  C  2 YY      0.04196     0.19225
             27  C  2 ZZ      0.02613     0.10354
             28  C  2 XY      0.01104     0.05324
             29  C  2 XZ      0.00310     0.02040
             30  C  2 YZ      0.00000     0.00527
             31  O  3  S      1.99732     1.97779
             32  O  3  S      0.93400     0.72567
             33  O  3  X      0.99287     0.92803
             34  O  3  Y      1.10623     1.05762
             35  O  3  Z      0.74637     0.69504
             36  O  3  S      0.92864     0.46900
             37  O  3  X      0.48262     0.56292
             38  O  3  Y      0.59586     0.65838
             39  O  3  Z      0.49099     0.52921
             40  O  3 XX      0.00227     0.18449
             41  O  3 YY      0.00738     0.17298
             42  O  3 ZZ      0.00715     0.17416
             43  O  3 XY      0.00844     0.01569
             44  O  3 XZ      0.00287     0.01134
             45  O  3 YZ      0.00000     0.00380
             46  H  4  S      0.53617     0.50744
             47  H  4  S      0.37301     0.39874
             48  H  5  S      0.84023     0.68356
             49  H  5  S      0.00272     0.14292
             50  H  6  S      0.79485     0.66116
             51  H  6  S      0.13804     0.14791
             52  H  7  S      0.51547     0.46459
             53  H  7  S      0.32949     0.34971

          ----- MULLIKEN ATOMIC OVERLAP POPULATIONS -----
          (OFF-DIAGONAL ELEMENTS NEED TO BE MULTIPLIED BY 2)

             1           2           3           4           5

    1    5.8255430
    2    0.3784664   4.6133479
    3   -0.0577476   0.5437381   7.8900771
    4   -0.1576821   0.3517223  -0.0768111   0.7835222
    5   -0.6262832  -0.0292692   0.0267716  -0.0284542   3.3356702
    6    0.6004661   0.0471627  -0.0255297   0.0306313  -1.9824246
    7    0.3348628  -0.0357836   0.0025137   0.0062476   0.1469443

             6           7

    6    2.4135116
    7   -0.1509299   0.5411050

          TOTAL MULLIKEN AND LOWDIN ATOMIC POPULATIONS
       ATOM         MULL.POP.    CHARGE          LOW.POP.     CHARGE
    1 C             6.297625   -0.297625         6.514421   -0.514421
    2 C             5.869385    0.130615         5.963406    0.036594
    3 O             8.303012   -0.303012         8.166137   -0.166137
    4 H             0.909176    0.090824         0.906185    0.093815
    5 H             0.842955    0.157045         0.826486    0.173514
    6 H             0.932888    0.067112         0.809069    0.190931
    7 H             0.844960    0.155040         0.814296    0.185704

          MULLIKEN SPHERICAL HARMONIC POPULATIONS
       ATOM           S       P       D      F      G      H      I    TOTAL
    1 C             3.41    2.86    0.03   0.00   0.00   0.00   0.00    6.30
    2 C             3.17    2.61    0.09   0.00   0.00   0.00   0.00    5.87
    3 O             3.86    4.41    0.03   0.00   0.00   0.00   0.00    8.30
    4 H             0.91    0.00    0.00   0.00   0.00   0.00   0.00    0.91
    5 H             0.84    0.00    0.00   0.00   0.00   0.00   0.00    0.84
    6 H             0.93    0.00    0.00   0.00   0.00   0.00   0.00    0.93
    7 H             0.84    0.00    0.00   0.00   0.00   0.00   0.00    0.84

          -------------------------------
          BOND ORDER AND VALENCE ANALYSIS     BOND ORDER THRESHOLD=0.050
          -------------------------------

                   BOND                       BOND                       BOND
  ATOM PAIR DIST  ORDER      ATOM PAIR DIST  ORDER      ATOM PAIR DIST  ORDER
    1   2  1.509  1.140        1   5  1.093 -0.135        1   6  1.098  0.669
    1   7  1.098  0.928        2   3  1.211  2.023        2   4  1.115  0.878
    5   6  0.153  0.649        5   7  1.669  0.057        6   7  1.762 -0.052

                       TOTAL       BONDED        FREE
      ATOM            VALENCE     VALENCE     VALENCE
    1 C                 2.635       2.635       0.000
    2 C                 4.058       4.058       0.000
    3 O                 2.112       2.112       0.000
    4 H                 0.918       0.918      -0.000
    5 H                 0.568       0.568      -0.000
    6 H                 1.300       1.300      -0.000
    7 H                 0.950       0.950       0.000

          ---------------------
          ELECTROSTATIC MOMENTS
          ---------------------

 POINT   1           X           Y           Z (BOHR)    CHARGE
                -0.000000    0.000000    0.000000        0.00 (A.U.)
         DX          DY          DZ         /D/  (DEBYE)
    -2.895124   -2.776330   -0.541864    4.047637
 ...... END OF PROPERTY EVALUATION ......
 STEP CPU TIME =     0.00 TOTAL CPU TIME =          5.1 (      0.1 MIN)
 TOTAL WALL CLOCK TIME=          5.2 SECONDS, CPU UTILIZATION IS    98.07%
                580000  WORDS OF DYNAMIC MEMORY USED
 EXECUTION OF GAMESS TERMINATED NORMALLY Thu Dec 12 13:19:36 2019
 DDI: 263640 bytes (0.3 MB / 0 MWords) used by master data server.

 ----------------------------------------
 CPU timing information for all processes
 ========================================
 0: 4.965 + 0.125 = 5.91
 ----------------------------------------
 ddikick.x: exited gracefully.
----- accounting info -----
Files used on the master node crcfe02.crc.nd.edu were:
-rw-r--r-- 1 cdrisko campus      490 Dec 12 13:19 /afs/crc.nd.edu/user/c/cdrisko/acetaldehyde.F05
-rw-r--r-- 1 cdrisko campus    45118 Dec 12 13:19 /afs/crc.nd.edu/user/c/cdrisko/acetaldehyde.F07
-rw-r--r-- 1 cdrisko campus 11881056 Dec 12 13:19 /afs/crc.nd.edu/user/c/cdrisko/acetaldehyde.F08
-rw-r--r-- 1 cdrisko campus  1701440 Dec 12 13:19 /afs/crc.nd.edu/user/c/cdrisko/acetaldehyde.F10
Thu Dec 12 13:19:40 EST 2019
0.334u 0.338s 0:08.89 7.4%	0+0k 0+16io 0pf+0w
