----- GAMESS execution script 'rungms' -----
This job is running on host crcfe02.crc.nd.edu
under operating system Linux at Thu Dec 12 13:21:01 EST 2019
Available scratch disk space (Kbyte units) at beginning of the job is
Filesystem      1K-blocks  Used  Available Use% Mounted on
AFS            2147483647     0 2147483647   0% /afs
GAMESS temporary binary files will be written to /afs/crc.nd.edu/user/c/cdrisko
GAMESS supplementary output files will be written to /afs/crc.nd.edu/user/c/cdrisko/scr
Copying input file acetaldehyde.inp to your run's scratch directory...

 Distributed Data Interface kickoff program.
 Initiating 1 compute processes on 1 nodes to run the following command:
 /afs/crc.nd.edu/x86_64_linux/g/gamess/nov-2017/gamess/gamess.00.x acetaldehyde 

          ******************************************************
          *         GAMESS VERSION = 11 NOV 2017 (R3)         *
          *             FROM IOWA STATE UNIVERSITY             *
          * M.W.SCHMIDT, K.K.BALDRIDGE, J.A.BOATZ, S.T.ELBERT, *
          *   M.S.GORDON, J.H.JENSEN, S.KOSEKI, N.MATSUNAGA,   *
          *          K.A.NGUYEN, S.J.SU, T.L.WINDUS,           *
          *       TOGETHER WITH M.DUPUIS, J.A.MONTGOMERY       *
          *         J.COMPUT.CHEM.  14, 1347-1363(1993)        *
          **************** 64 BIT INTEL VERSION ****************

  SINCE 1993, STUDENTS AND POSTDOCS WORKING AT IOWA STATE UNIVERSITY
  AND ALSO IN THEIR VARIOUS JOBS AFTER LEAVING ISU HAVE MADE IMPORTANT
  CONTRIBUTIONS TO THE CODE:
     IVANA ADAMOVIC, CHRISTINE AIKENS, YURI ALEXEEV, POOJA ARORA,
     ANDREY ASADCHEV, ROB BELL, PRADIPTA BANDYOPADHYAY, JONATHAN BENTZ,
     BRETT BODE, KURT BRORSEN, CALEB CARLIN, GALINA CHABAN, WEI CHEN,
     CHEOL HO CHOI, PAUL DAY, ALBERT DEFUSCO, NUWAN DESILVA, TIM DUDLEY,
     DMITRI FEDOROV, ALEX FINDLATER, GRAHAM FLETCHER, MARK FREITAG,
     KURT GLAESEMANN, ANASTASIA GUININA,
     DAN KEMP, GRANT MERRILL, NORIYUKI MINEZAWA, JONATHAN MULLIN,
     TAKESHI NAGATA, SEAN NEDD, HEATHER NETZLOFF, BOSILJKA NJEGIC, RYAN OLSON,
     MIKE PAK, BUU PHAM,
     SPENCER PRUITT, LUKE ROSKOP, JIM SHOEMAKER, LYUDMILA SLIPCHENKO,
     TONY SMITH, SAROM SOK LEANG, JIE SONG, TETSUYA TAKETSUGU, SIMON WEBB,
     PENG XU, SOOHAENG YOO, FEDERICO ZAHARIEV

  ADDITIONAL CODE HAS BEEN PROVIDED BY COLLABORATORS IN OTHER GROUPS:
     IOWA STATE UNIVERSITY:
          JOE IVANIC, AARON WEST, LAIMUTIS BYTAUTAS, KLAUS RUEDENBERG
     UNIVERSITY OF TOKYO: KIMIHIKO HIRAO, TAKAHITO NAKAJIMA,
          TAKAO TSUNEDA, MUNEAKI KAMIYA, SUSUMU YANAGISAWA,
          KIYOSHI YAGI, MAHITO CHIBA, SEIKEN TOKURA, NAOAKI KAWAKAMI
     UNIVERSITY OF AARHUS: FRANK JENSEN
     UNIVERSITY OF IOWA: VISVALDAS KAIRYS, HUI LI
     NATIONAL INST. OF STANDARDS AND TECHNOLOGY: WALT STEVENS, DAVID GARMER
     UNIVERSITY OF PISA: BENEDETTA MENNUCCI, JACOPO TOMASI
     UNIVERSITY OF MEMPHIS: HENRY KURTZ, PRAKASHAN KORAMBATH
     UNIVERSITY OF ALBERTA: TOBY ZENG, MARIUSZ KLOBUKOWSKI
     UNIVERSITY OF NEW ENGLAND: MARK SPACKMAN
     MIE UNIVERSITY: HIROAKI UMEDA
     NAT. INST. OF ADVANCED INDUSTRIAL SCIENCE AND TECHNOLOGY: KAZUO KITAURA
     MICHIGAN STATE UNIVERSITY:
          KAROL KOWALSKI, MARTA WLOCH, JEFFREY GOUR, JESSE LUTZ,
          WEI LI, PIOTR PIECUCH
     UNIVERSITY OF SILESIA: MONIKA MUSIAL, STANISLAW KUCHARSKI
     FACULTES UNIVERSITAIRES NOTRE-DAME DE LA PAIX:
          OLIVIER QUINET, BENOIT CHAMPAGNE
     UNIVERSITY OF CALIFORNIA - SANTA BARBARA: BERNARD KIRTMAN
     INSTITUTE FOR MOLECULAR SCIENCE:
          KAZUYA ISHIMURA, MICHIO KATOUDA, AND SHIGERU NAGASE
     UNIVERSITY OF NOTRE DAME: ANNA POMOGAEVA, DAN CHIPMAN
     KYUSHU UNIVERSITY:
          HARUYUKI NAKANO,
          FENG LONG GU, JACEK KORCHOWIEC, MARCIN MAKOWSKI, AND YURIKO AOKI,
          HIROTOSHI MORI AND EISAKU MIYOSHI
     PENNSYLVANIA STATE UNIVERSITY:
          TZVETELIN IORDANOV, CHET SWALINA, JONATHAN SKONE,
          SHARON HAMMES-SCHIFFER
     WASEDA UNIVERSITY:
          MASATO KOBAYASHI, TOMOKO AKAMA, TSUGUKI TOUMA,
          TAKESHI YOSHIKAWA, YASUHIRO IKABATA, JUNJI SEINO,
          YUYA NAKAJIMA, HIROMI NAKAI
     NANJING UNIVERSITY: SHUHUA LI
     UNIVERSITY OF NEBRASKA:
          PEIFENG SU, DEJUN SI, NANDUN THELLAMUREGE, YALI WANG, HUI LI
     UNIVERSITY OF ZURICH: ROBERTO PEVERATI, KIM BALDRIDGE
     N. COPERNICUS UNIVERSITY AND JACKSON STATE UNIVERSITY:
          MARIA BARYSZ
     UNIVERSITY OF COPENHAGEN: Jimmy Kromann, CASPER STEINMANN
     TOKYO INSTITUTE OF TECHNOLOGY: HIROYA NAKATA
     NAGOYA UNIVERSITY: YOSHIO NISHIMOTO, STEPHAN IRLE
     MOSCOW STATE UNIVERSITY: VLADIMIR MIRONOV

 EXECUTION OF GAMESS BEGUN Thu Dec 12 13:21:01 2019

            ECHO OF THE FIRST FEW INPUT CARDS -
 INPUT CARD> $CONTRL SCFTYP=RHF DFTTYP=B3LYP RUNTYP=ENERGY                                  
 INPUT CARD>       ISPHER=1 MULT=1 COORD=ZMT NZVAR=15 $END                                  
 INPUT CARD> $BASIS GBASIS=N31 NGAUSS=6 NDFUNC=1 $END                                       
 INPUT CARD> $STATPT IFREEZ(1)=9 $END                                                       
 INPUT CARD> $DATA                                                                          
 INPUT CARD>Title Single Point Energy Calculation of Acetaldehyde                           
 INPUT CARD>C1                                                                              
 INPUT CARD>C                                                                               
 INPUT CARD>C      1   1.5086892                                                            
 INPUT CARD>O      2   1.2107245  1  124.7161                                               
 INPUT CARD>H      2   1.1145804  1  114.7739  3  180.0000  0                               
 INPUT CARD>H      1   1.0926781  2  110.5176  3  220.      0                               
 INPUT CARD>H      1   1.0983769  2  109.8265  3  121.4889  0                               
 INPUT CARD>H      1   1.0983769  2  109.8265  3 -121.4889  0                               
 INPUT CARD> $END                                                                           
    1000000 WORDS OF MEMORY AVAILABLE

     BASIS OPTIONS
     -------------
     GBASIS=N31          IGAUSS=       6      POLAR=POPN31  
     NDFUNC=       1     NFFUNC=       0     DIFFSP=       F
     NPFUNC=       0      DIFFS=       F     BASNAM=        


     RUN TITLE
     ---------
 Title Single Point Energy Calculation of Acetaldehyde                           

 THE POINT GROUP OF THE MOLECULE IS C1      
 THE ORDER OF THE PRINCIPAL AXIS IS     0

 YOUR FULLY SUBSTITUTED Z-MATRIX IS
 C   
 C      1   1.5086892
 O      2   1.2107245  1  124.7161
 H      2   1.1145804  1  114.7739  3  180.0000  0
 H      1   1.0926781  2  110.5176  3  220.0000  0
 H      1   1.0983769  2  109.8265  3  121.4889  0
 H      1   1.0983769  2  109.8265  3 -121.4889  0

 THE MOMENTS OF INERTIA ARE (AMU-ANGSTROM**2)
 IXX=     7.676   IYY=    52.933   IZZ=    56.711

 ATOM      ATOMIC                      COORDINATES (BOHR)
           CHARGE         X                   Y                   Z
 C           6.0    -2.3338413615        0.5080405829       -0.0648086075
 C           6.0     0.2339720149       -0.7307229322       -0.0575414717
 O           8.0     2.2232398665        0.3945605733        0.0483296149
 H           1.0     0.1994331214       -2.8342181472       -0.1595734556
 H           1.0    -3.6605209972       -0.5695679316        1.0937840500
 H           1.0    -3.3670067126       -0.0234327376       -1.7847943808
 H           1.0    -3.4535410271       -0.1833015291        1.5403594013

          INTERNUCLEAR DISTANCES (ANGS.)
          ------------------------------

                1 C          2 C          3 O          4 H          5 H     

   1 C       0.0000000    1.5086892 *  2.4129941 *  2.2198436 *  1.0926781 *
   2 C       1.5086892 *  0.0000000    1.2107245 *  1.1145804 *  2.1507392 *
   3 O       2.4129941 *  1.2107245 *  0.0000000    2.0194911 *  3.2032127  
   4 H       2.2198436 *  1.1145804 *  2.0194911 *  0.0000000    2.4593248 *
   5 H       1.0926781 *  2.1507392 *  3.2032127    2.4593248 *  0.0000000  
   6 H       1.0983769 *  2.1463151 *  3.1210656    2.5522231 *  1.5582116 *
   7 H       1.0983769 *  2.1463151 *  3.1210656    2.5522231 *  0.3310942 *

                6 H          7 H     

   1 C       1.0983769 *  1.0983769 *
   2 C       2.1463151 *  2.1463151 *
   3 O       3.1210656    3.1210656  
   4 H       2.5522231 *  2.5522231 *
   5 H       1.5582116 *  0.3310942 *
   6 H       0.0000000    1.7622233 *
   7 H       1.7622233 *  0.0000000  

  * ... LESS THAN  3.000


     ATOMIC BASIS SET
     ----------------
 THE CONTRACTED PRIMITIVE FUNCTIONS HAVE BEEN UNNORMALIZED
 THE CONTRACTED BASIS FUNCTIONS ARE NOW NORMALIZED TO UNITY

  SHELL TYPE  PRIMITIVE        EXPONENT          CONTRACTION COEFFICIENT(S)

 C         

      1   S       1          3047.5248800    0.001834737132
      1   S       2           457.3695180    0.014037322813
      1   S       3           103.9486850    0.068842622264
      1   S       4            29.2101553    0.232184443216
      1   S       5             9.2866630    0.467941348435
      1   S       6             3.1639270    0.362311985337

      2   L       7             7.8682723   -0.119332419775    0.068999066591
      2   L       8             1.8812885   -0.160854151696    0.316423960957
      2   L       9             0.5442493    1.143456437840    0.744308290898

      3   L      10             0.1687145    1.000000000000    1.000000000000

      4   D      11             0.8000000    1.000000000000

 C         

      5   S      12          3047.5248800    0.001834737132
      5   S      13           457.3695180    0.014037322813
      5   S      14           103.9486850    0.068842622264
      5   S      15            29.2101553    0.232184443216
      5   S      16             9.2866630    0.467941348435
      5   S      17             3.1639270    0.362311985337

      6   L      18             7.8682723   -0.119332419775    0.068999066591
      6   L      19             1.8812885   -0.160854151696    0.316423960957
      6   L      20             0.5442493    1.143456437840    0.744308290898

      7   L      21             0.1687145    1.000000000000    1.000000000000

      8   D      22             0.8000000    1.000000000000

 O         

      9   S      23          5484.6716600    0.001831074430
      9   S      24           825.2349460    0.013950172200
      9   S      25           188.0469580    0.068445078098
      9   S      26            52.9645000    0.232714335992
      9   S      27            16.8975704    0.470192897984
      9   S      28             5.7996353    0.358520852987

     10   L      29            15.5396162   -0.110777549525    0.070874268231
     10   L      30             3.5999336   -0.148026262701    0.339752839147
     10   L      31             1.0137618    1.130767015354    0.727158577316

     11   L      32             0.2700058    1.000000000000    1.000000000000

     12   D      33             0.8000000    1.000000000000

 H         

     13   S      34            18.7311370    0.033494604338
     13   S      35             2.8253944    0.234726953484
     13   S      36             0.6401217    0.813757326146

     14   S      37             0.1612778    1.000000000000

 H         

     15   S      38            18.7311370    0.033494604338
     15   S      39             2.8253944    0.234726953484
     15   S      40             0.6401217    0.813757326146

     16   S      41             0.1612778    1.000000000000

 H         

     17   S      42            18.7311370    0.033494604338
     17   S      43             2.8253944    0.234726953484
     17   S      44             0.6401217    0.813757326146

     18   S      45             0.1612778    1.000000000000

 H         

     19   S      46            18.7311370    0.033494604338
     19   S      47             2.8253944    0.234726953484
     19   S      48             0.6401217    0.813757326146

     20   S      49             0.1612778    1.000000000000

 TOTAL NUMBER OF BASIS SET SHELLS             =   20
 NUMBER OF CARTESIAN GAUSSIAN BASIS FUNCTIONS =   53
 NOTE: THIS RUN WILL RESTRICT THE MO VARIATION SPACE TO SPHERICAL HARMONICS.
 THE NUMBER OF ORBITALS KEPT IN THE VARIATIONAL SPACE WILL BE PRINTED LATER.
 NUMBER OF ELECTRONS                          =   24
 CHARGE OF MOLECULE                           =    0
 SPIN MULTIPLICITY                            =    1
 NUMBER OF OCCUPIED ORBITALS (ALPHA)          =   12
 NUMBER OF OCCUPIED ORBITALS (BETA )          =   12
 TOTAL NUMBER OF ATOMS                        =    7
 THE NUCLEAR REPULSION ENERGY IS       70.5329592598

     LEBEDEV GRID-BASED DFT OPTIONS
     ------------------------------
     DFTTYP=B3LYP   
     NRAD  =      96     NLEB  =     302
     NRAD0 =      24     NLEB0 =     110
     SWOFF =    5.00E-03 (PURE SCF -> DFT)
     SWITCH=    3.00E-04 (COARSE -> TIGHT GRID)
     THRESH=    0.00E+00 GTHRE=    1.00E+00

 GRIMME'S EMPIRICAL DISPERSION CORRECTION= F

     $CONTRL OPTIONS
     ---------------
 SCFTYP=RHF          RUNTYP=ENERGY       EXETYP=RUN     
 MPLEVL=       0     CITYP =NONE         CCTYP =NONE         VBTYP =NONE    
 DFTTYP=B3LYP        TDDFT =NONE    
 MULT  =       1     ICHARG=       0     NZVAR =      15     COORD =ZMT     
 PP    =NONE         RELWFN=NONE         LOCAL =NONE         NUMGRD=       F
 ISPHER=       1     NOSYM =       0     MAXIT =      30     UNITS =ANGS    
 PLTORB=       F     MOLPLT=       F     AIMPAC=       F     FRIEND=        
 NPRINT=       7     IREST =       0     GEOM  =INPUT   
 NORMF =       0     NORMP =       0     ITOL  =      20     ICUT  =       9
 INTTYP=BEST         GRDTYP=BEST         QMTTOL= 1.0E-06

     $SYSTEM OPTIONS
     ---------------
  REPLICATED MEMORY=     1000000 WORDS (ON EVERY NODE).
 DISTRIBUTED MEMDDI=           0 MILLION WORDS IN AGGREGATE,
 MEMDDI DISTRIBUTED OVER   1 PROCESSORS IS           0 WORDS/PROCESSOR.
 TOTAL MEMORY REQUESTED ON EACH PROCESSOR=     1000000 WORDS.
 TIMLIM=      525600.00 MINUTES, OR     365.0 DAYS.
 PARALL= F  BALTYP=  DLB     KDIAG=    0  COREFL= F
 MXSEQ2=     300 MXSEQ3=     150  mem10=         0

          ----------------
          PROPERTIES INPUT
          ----------------

     MOMENTS            FIELD           POTENTIAL          DENSITY
 IEMOM =       1   IEFLD =       0   IEPOT =       0   IEDEN =       0
 WHERE =COMASS     WHERE =NUCLEI     WHERE =NUCLEI     WHERE =NUCLEI  
 OUTPUT=BOTH       OUTPUT=BOTH       OUTPUT=BOTH       OUTPUT=BOTH    
 IEMINT=       0   IEFINT=       0                     IEDINT=       0
                                                       MORB  =       0
          EXTRAPOLATION IN EFFECT
          DIIS IN EFFECT
 ORBITAL PRINTING OPTION: NPREO=     1    53     2     1

     -------------------------------
     INTEGRAL TRANSFORMATION OPTIONS
     -------------------------------
     NWORD  =            0
     CUTOFF = 1.0E-09     MPTRAN =       0
     DIRTRF =       F     AOINTS =DUP     

          ----------------------
          INTEGRAL INPUT OPTIONS
          ----------------------
 NOPK  =       1 NORDER=       0 SCHWRZ=       T

   --- ENCODED Z MATRIX ---
 COORD  TYPE   I   J   K   L   M   N
    1      1    2   1
    2      1    3   2
    3      2    3   2   1
    4      1    4   2
    5      2    4   2   1
    6      3    4   2   1   3
    7      1    5   1
    8      2    5   1   2
    9      3    5   1   2   3
   10      1    6   1
   11      2    6   1   2
   12      3    6   1   2   3
   13      1    7   1
   14      2    7   1   2
   15      3    7   1   2   3

 THE DETERMINANT OF THE G MATRIX IS 10**(    -8)


                     --------------------
                     INTERNAL COORDINATES
                     --------------------

                 - - ATOMS - -         COORDINATE      COORDINATE
 NO.   TYPE    I  J  K  L  M  N        (BOHR,RAD)       (ANG,DEG)
 ----------------------------------------------------------------
   1 STRETCH   2  1                     2.8510092       1.5086892
   2 STRETCH   3  2                     2.2879376       1.2107245
   3 BEND      3  2  1                  2.1767066     124.7161000
   4 STRETCH   4  2                     2.1062515       1.1145804
   5 BEND      4  2  1                  2.0031825     114.7739000
   6 TORSION   4  2  1  3               3.1415927     180.0000000
   7 STRETCH   5  1                     2.0648622       1.0926781
   8 BEND      5  1  2                  1.9288960     110.5176000
   9 TORSION   5  1  2  3              -2.4434610    -140.0000000
  10 STRETCH   6  1                     2.0756314       1.0983769
  11 BEND      6  1  2                  1.9168340     109.8265000
  12 TORSION   6  1  2  3               2.1203813     121.4889000
  13 STRETCH   7  1                     2.0756314       1.0983769
  14 BEND      7  1  2                  1.9168340     109.8265000
  15 TORSION   7  1  2  3              -2.1203813    -121.4889000

     ------------------------------------------
     THE POINT GROUP IS C1 , NAXIS= 0, ORDER= 1
     ------------------------------------------

 -- VARIATIONAL SPACE WILL BE RESTRICTED TO PURE SPHERICAL HARMONICS ONLY --
 AFTER EXCLUDING CONTAMINANT COMBINATIONS FROM THE CARTESIAN GAUSSIAN BASIS
 SET, THE NUMBER OF SPHERICAL HARMONICS KEPT IN THE VARIATION SPACE IS   50

     DIMENSIONS OF THE SYMMETRY SUBSPACES ARE
 A   =   50

 ..... DONE SETTING UP THE RUN .....
 STEP CPU TIME =     0.01 TOTAL CPU TIME =          0.0 (      0.0 MIN)
 TOTAL WALL CLOCK TIME=          0.0 SECONDS, CPU UTILIZATION IS   100.00%

          ********************
          1 ELECTRON INTEGRALS
          ********************
 ...... END OF ONE-ELECTRON INTEGRALS ......
 STEP CPU TIME =     0.00 TOTAL CPU TIME =          0.0 (      0.0 MIN)
 TOTAL WALL CLOCK TIME=          0.0 SECONDS, CPU UTILIZATION IS    50.00%

          -------------
          GUESS OPTIONS
          -------------
          GUESS =HUCKEL            NORB  =       0          NORDER=       0
          MIX   =       F          PRTMO =       F          PUNMO =       F
          TOLZ  = 1.0E-08          TOLE  = 1.0E-05
          SYMDEN=       F          PURIFY=       F

 INITIAL GUESS ORBITALS GENERATED BY HUCKEL   ROUTINE.
 HUCKEL GUESS REQUIRES     27154 WORDS.

 STATISTICS FOR GENERATION OF SYMMETRY ORBITAL -Q- MATRIX
 NUMBER OF CARTESIAN ATOMIC ORBITALS=         53
 NUMBER OF SPHERICAL CONTAMINANTS DROPPED=     3
 NUMBER OF LINEARLY DEPENDENT MOS DROPPED=     0
 TOTAL NUMBER OF MOS IN VARIATION SPACE=      50

 SYMMETRIES FOR INITIAL GUESS ORBITALS FOLLOW.   BOTH SET(S).
    12 ORBITALS ARE OCCUPIED (    3 CORE ORBITALS).
     4=A        5=A        6=A        7=A        8=A        9=A       10=A   
    11=A       12=A       13=A       14=A       15=A       16=A       17=A   
    18=A       19=A       20=A       21=A       22=A   
 ...... END OF INITIAL ORBITAL SELECTION ......
 STEP CPU TIME =     0.00 TOTAL CPU TIME =          0.0 (      0.0 MIN)
 TOTAL WALL CLOCK TIME=          0.0 SECONDS, CPU UTILIZATION IS    50.00%

                    ----------------------
                    AO INTEGRAL TECHNOLOGY
                    ----------------------
     S,P,L SHELL ROTATED AXIS INTEGRALS, REPROGRAMMED BY
        KAZUYA ISHIMURA (IMS) AND JOSE SIERRA (SYNSTAR).
     S,P,D,L SHELL ROTATED AXIS INTEGRALS PROGRAMMED BY
        KAZUYA ISHIMURA (INSTITUTE FOR MOLECULAR SCIENCE).
     S,P,D,F,G SHELL TO TOTAL QUARTET ANGULAR MOMENTUM SUM 5,
        ERIC PROGRAM BY GRAHAM FLETCHER (ELORET AND NASA ADVANCED
        SUPERCOMPUTING DIVISION, AMES RESEARCH CENTER).
     S,P,D,F,G,L SHELL GENERAL RYS QUADRATURE PROGRAMMED BY
        MICHEL DUPUIS (PACIFIC NORTHWEST NATIONAL LABORATORY).

          --------------------
          2 ELECTRON INTEGRALS
          --------------------

 THE -PK- OPTION IS OFF, THE INTEGRALS ARE NOT IN SUPERMATRIX FORM.
 STORING   15000 INTEGRALS/RECORD ON DISK, USING 12 BYTES/INTEGRAL.
 TWO ELECTRON INTEGRAL EVALUATION REQUIRES   90606 WORDS OF MEMORY.
 SCHWARZ INEQUALITY OVERHEAD:      1430 INTEGRALS, T=        0.00
 II,JST,KST,LST =  1  1  1  1 NREC =         1 INTLOC =    1
 II,JST,KST,LST =  2  1  1  1 NREC =         1 INTLOC =    2
 II,JST,KST,LST =  3  1  1  1 NREC =         1 INTLOC =   34
 II,JST,KST,LST =  4  1  1  1 NREC =         1 INTLOC =  214
 II,JST,KST,LST =  5  1  1  1 NREC =         1 INTLOC = 1189
 II,JST,KST,LST =  6  1  1  1 NREC =         1 INTLOC = 3195
 II,JST,KST,LST =  7  1  1  1 NREC =         2 INTLOC =  920
 II,JST,KST,LST =  8  1  1  1 NREC =         3 INTLOC = 8147
 II,JST,KST,LST =  9  1  1  1 NREC =         7 INTLOC = 6015
 II,JST,KST,LST = 10  1  1  1 NREC =         8 INTLOC = 3317
 II,JST,KST,LST = 11  1  1  1 NREC =        13 INTLOC =  818
 II,JST,KST,LST = 12  1  1  1 NREC =        19 INTLOC =14581
 II,JST,KST,LST = 13  1  1  1 NREC =        34 INTLOC =10397
 II,JST,KST,LST = 14  1  1  1 NREC =        37 INTLOC =13338
 II,JST,KST,LST = 15  1  1  1 NREC =        41 INTLOC = 4882
 II,JST,KST,LST = 16  1  1  1 NREC =        44 INTLOC =11744
 II,JST,KST,LST = 17  1  1  1 NREC =        48 INTLOC =10017
 II,JST,KST,LST = 18  1  1  1 NREC =        52 INTLOC = 9076
 II,JST,KST,LST = 19  1  1  1 NREC =        56 INTLOC =14791
 II,JST,KST,LST = 20  1  1  1 NREC =        61 INTLOC = 6298
 SCHWARZ INEQUALITY TEST SKIPPED         968 INTEGRAL BLOCKS.
 TOTAL NUMBER OF NONZERO TWO-ELECTRON INTEGRALS =              980024
         66 INTEGRAL RECORDS WERE STORED ON DISK FILE  8.
  ...... END OF TWO-ELECTRON INTEGRALS .....
 STEP CPU TIME =     0.09 TOTAL CPU TIME =          0.1 (      0.0 MIN)
 TOTAL WALL CLOCK TIME=          0.1 SECONDS, CPU UTILIZATION IS    90.91%

          --------------------------
             R-B3LYP SCF CALCULATION
          --------------------------

     NUCLEAR ENERGY =        70.5329592598
     MAXIT =   30     NPUNCH=    2
     EXTRAP=T  DAMP=F  SHIFT=F  RSTRCT=F  DIIS=T  DEM=F  SOSCF=F
         DENSITY MATRIX CONVERGENCE THRESHOLD=  1.00E-05
     COARSE -> FINE DFT GRID SWITCH THRESHOLD=  3.00E-04 (SWITCH IN $DFT)
                   HF -> DFT SWITCH THRESHOLD=  5.00E-03 (SWOFF IN $DFT)
     MEMORY REQUIRED FOR RHF ITERS=    307426 WORDS.

 DFT CODE IS SWITCHING FROM THE FINE GRID NRAD= 96,  NLEB=  302
                      TO THE COARSE GRID NRAD0= 24, NLEB0=  110

     EXCHANGE FUNCTIONAL   =B88&HFX   
     CORRELATION FUNCTIONAL=LYP88&VWN5
     DFT THRESHOLD         =.197E-07
     GRID CHANGE THRESHOLD =.300E-03
 FOR AN EULER-MACLAURIN QUADRATURE USING  96 RADIAL POINTS:
 SMALLEST GAUSSIAN PRIMITIVE EXPONENT=        0.1612777588 OF TYPE -S-
 ON ATOM NUMBER   4 HAS RADIAL NORMALIZATION=  1.000000
  LARGEST GAUSSIAN PRIMITIVE EXPONENT=     5484.6716600000 OF TYPE -S-
 ON ATOM NUMBER   3 HAS RADIAL NORMALIZATION=  1.000000
 DFT IS SWITCHED OFF, PERFORMING PURE SCF UNTIL SWOFF THRESHOLD IS REACHED.

 ITER EX DEM     TOTAL ENERGY        E CHANGE  DENSITY CHANGE    DIIS ERROR
   1  0  0     -151.5945632154  -151.5945632154   0.435737774   0.504738972
          * * *   INITIATING DIIS PROCEDURE   * * *
   2  1  0     -152.2190593170    -0.6244961017   0.137079957   0.099894075
   3  2  0     -152.2536274662    -0.0345681492   0.072348535   0.068092137
   4  3  0     -152.2759640818    -0.0223366156   0.030568372   0.009821966
   5  4  0     -152.2771149062    -0.0011508244   0.012289476   0.002787165
   6  5  0     -152.2772595148    -0.0001446086   0.008401127   0.001882547
   7  6  0     -152.2772995494    -0.0000400346   0.003831083   0.000696416
 CONVERGED TO SWOFF, SO DFT CALCULATION IS NOW SWITCHED ON.
          * * *   INITIATING DIIS PROCEDURE   * * *
   8  7  0     -153.0893812101    -0.8120816608   0.275577363   0.050845369
   9  8  0     -153.1009180364    -0.0115368262   0.085445239   0.029825809
  10  9  0     -153.0982632374     0.0026547990   0.044963497   0.040961857
  11 10  0     -153.1041870042    -0.0059237668   0.018256626   0.009066352
  12 11  0     -153.1043934092    -0.0002064050   0.006471904   0.000905431
  13 12  0     -153.1043972177    -0.0000038085   0.000683584   0.000090030
  14 13  0     -153.1043972975    -0.0000000798   0.000153116   0.000036728
 DFT CODE IS SWITCHING BACK TO THE FINE GRID
          * * *   INITIATING DIIS PROCEDURE   * * *
  15 14  0     -153.1035694167     0.0008278808   0.002454596   0.001229181
  16 15  0     -153.1035777562    -0.0000083396   0.000840540   0.000275103
  17 16  0     -153.1035772331     0.0000005231   0.000507050   0.000424818
  18 17  0     -153.1035780718    -0.0000008387   0.000047045   0.000047412
  19 18  0     -153.1035780776    -0.0000000057   0.000034964   0.000009264
  20 19  0     -153.1035780779    -0.0000000003   0.000020507   0.000004799
  21 20  0     -153.1035780780    -0.0000000001   0.000002812   0.000000594
  22 21  0     -153.1035780780    -0.0000000000   0.000000371   0.000000075

          -----------------
          DENSITY CONVERGED
          -----------------
     TIME TO FORM FOCK OPERATORS=      10.6 SECONDS (       0.5 SEC/ITER)
     TIME TO SOLVE SCF EQUATIONS=       0.0 SECONDS (       0.0 SEC/ITER)

 FINAL R-B3LYP ENERGY IS     -153.1035780780 AFTER  22 ITERATIONS
 DFT EXCHANGE + CORRELATION ENERGY =       -16.9136706089
 TOTAL ELECTRON NUMBER             =        24.0000979521

          ------------
          EIGENVECTORS
          ------------

                      1          2          3          4          5
                  -19.1543   -10.2812   -10.2067    -1.0494    -0.9483
                     A          A          A          A          A   
    1  C  1  S   -0.000017   0.000975   0.995254  -0.022800  -0.122965
    2  C  1  S   -0.000550  -0.001162   0.036336   0.045335   0.244981
    3  C  1  X   -0.000272  -0.000917  -0.000941   0.018001  -0.094594
    4  C  1  Y    0.000057   0.000356  -0.003324  -0.015842  -0.106393
    5  C  1  Z   -0.000003   0.000030   0.000590   0.007166   0.094630
    6  C  1  S    0.000911   0.006055  -0.030187   0.016112   0.107722
    7  C  1  X   -0.001150   0.002399   0.000987   0.003258  -0.011781
    8  C  1  Y   -0.001434  -0.002217   0.007292   0.004663  -0.004135
    9  C  1  Z   -0.000103  -0.000258   0.000667   0.000808   0.007035
   10  C  1 XX   -0.000383  -0.000901   0.000183   0.004610  -0.000244
   11  C  1 YY    0.000387   0.000239  -0.000162  -0.002715  -0.003338
   12  C  1 ZZ   -0.000003   0.000662  -0.000021  -0.001896   0.003582
   13  C  1 XY   -0.000116   0.000824   0.000020  -0.001903   0.012464
   14  C  1 XZ   -0.000028  -0.000005  -0.000147  -0.000554  -0.010535
   15  C  1 YZ    0.000000  -0.000022  -0.000076  -0.001210  -0.012227
   16  C  2  S    0.000233   0.995150  -0.000951  -0.117705  -0.015192
   17  C  2  S    0.000054   0.035710  -0.001439   0.224510   0.020121
   18  C  2  X   -0.000061   0.001724   0.000523   0.156693  -0.078120
   19  C  2  Y   -0.000230   0.001276  -0.000362   0.093307  -0.006416
   20  C  2  Z   -0.000012   0.000064  -0.000015   0.008084   0.004519
   21  C  2  S    0.008785  -0.016080   0.006983   0.086661   0.041967
   22  C  2  X    0.005496   0.006019  -0.005373  -0.018811  -0.037526
   23  C  2  Y    0.004857   0.002425  -0.000076  -0.020011  -0.008910
   24  C  2  Z    0.000372   0.000331  -0.000214  -0.000359   0.009283
   25  C  2 XX   -0.000594   0.001421  -0.000887   0.018390   0.004208
   26  C  2 YY    0.000314  -0.000238   0.000381  -0.003160  -0.001873
   27  C  2 ZZ    0.000281  -0.001183   0.000506  -0.015230  -0.002336
   28  C  2 XY   -0.000753   0.001206   0.000835   0.021510  -0.007851
   29  C  2 XZ   -0.000061   0.000121   0.000045   0.001682  -0.002649
   30  C  2 YZ   -0.000017   0.000074   0.000009   0.000802   0.000285
   31  O  3  S    0.995117  -0.000047  -0.000029  -0.193804   0.030660
   32  O  3  S    0.029432   0.000458  -0.000635   0.428690  -0.070723
   33  O  3  X   -0.002006   0.000988   0.000104  -0.142007   0.013905
   34  O  3  Y   -0.001129   0.000490  -0.000013  -0.080731   0.013273
   35  O  3  Z   -0.000135   0.000054  -0.000011  -0.007927   0.002953
   36  O  3  S   -0.019423  -0.005948   0.002286   0.375839  -0.047502
   37  O  3  X    0.005181   0.003786  -0.000370  -0.042098   0.002761
   38  O  3  Y    0.002583   0.002585  -0.000677  -0.023952  -0.001047
   39  O  3  Z    0.000272   0.000216  -0.000013  -0.002986  -0.003017
   40  O  3 XX   -0.000189  -0.001208  -0.000053   0.006529  -0.000136
   41  O  3 YY    0.000108   0.000099   0.000233  -0.003815  -0.000055
   42  O  3 ZZ    0.000082   0.001109  -0.000181  -0.002714   0.000191
   43  O  3 XY   -0.000103  -0.001447   0.000126   0.009831  -0.001124
   44  O  3 XZ   -0.000016  -0.000146   0.000013   0.001284  -0.000094
   45  O  3 YZ   -0.000001  -0.000097   0.000029   0.000005  -0.000016
   46  H  4  S   -0.000227  -0.000955  -0.000630   0.027784   0.006828
   47  H  4  S    0.001160   0.005054  -0.000101  -0.013201  -0.005520
   48  H  5  S   -0.000327  -0.000244  -0.000270   0.027601   0.338687
   49  H  5  S    0.000286  -0.001428   0.006782   0.002012   0.064975
   50  H  6  S   -0.000071  -0.000556  -0.000328   0.007999   0.059573
   51  H  6  S   -0.000603   0.000546   0.006611   0.000327   0.011635
   52  H  7  S    0.000167  -0.000345  -0.000537   0.026269   0.325847
   53  H  7  S   -0.000803   0.001961   0.000732   0.000397   0.008855

                      6          7          8          9         10
                   -0.6557    -0.5294    -0.4699    -0.4340    -0.3824
                     A          A          A          A          A   
    1  C  1  S   -0.079629  -0.098255   0.013581   0.001325  -0.025217
    2  C  1  S    0.146942   0.192285  -0.018273  -0.010169   0.047606
    3  C  1  X    0.181797   0.020582   0.222277   0.164150  -0.082749
    4  C  1  Y   -0.067559  -0.000039   0.028372  -0.058195   0.019351
    5  C  1  Z   -0.112758  -0.181913   0.223569   0.121045  -0.070225
    6  C  1  S    0.194607   0.272588  -0.063978   0.024117   0.096128
    7  C  1  X    0.030829  -0.014710   0.083425   0.078809  -0.049307
    8  C  1  Y   -0.041380  -0.022099   0.030234  -0.037148  -0.002149
    9  C  1  Z   -0.015314  -0.042173   0.063386   0.042124  -0.011604
   10  C  1 XX    0.002916   0.004394   0.004776  -0.005622   0.000208
   11  C  1 YY    0.001442  -0.009368  -0.001727   0.009865  -0.004002
   12  C  1 ZZ   -0.004357   0.004975  -0.003048  -0.004243   0.003794
   13  C  1 XY   -0.016654   0.004421  -0.014333  -0.014540   0.005987
   14  C  1 XZ    0.009178   0.009746  -0.007555  -0.002192   0.013979
   15  C  1 YZ    0.007438   0.013156  -0.016786  -0.010253   0.003531
   16  C  2  S   -0.139712   0.067196  -0.037061   0.016929   0.009416
   17  C  2  S    0.291197  -0.139433   0.086187  -0.051612  -0.019276
   18  C  2  X   -0.204534  -0.123932  -0.059747  -0.327998   0.064321
   19  C  2  Y   -0.064333   0.282703   0.297114  -0.122289  -0.027105
   20  C  2  Z   -0.025500  -0.044216   0.109704   0.081656   0.335863
   21  C  2  S    0.234924  -0.147541   0.064922   0.003925  -0.027788
   22  C  2  X   -0.060677   0.000814  -0.059245  -0.067863   0.027935
   23  C  2  Y   -0.043943   0.113644   0.068966  -0.031138  -0.008043
   24  C  2  Z   -0.012225  -0.028141   0.058510   0.054490   0.194828
   25  C  2 XX   -0.004418   0.007919  -0.000775  -0.009303   0.003677
   26  C  2 YY    0.009466  -0.010814  -0.000907   0.006662  -0.004846
   27  C  2 ZZ   -0.005048   0.002894   0.001681   0.002641   0.001169
   28  C  2 XY   -0.012298  -0.001824   0.001780  -0.011176  -0.000969
   29  C  2 XZ    0.001458   0.003803  -0.002863  -0.000404   0.025344
   30  C  2 YZ   -0.001042  -0.003008   0.003505   0.003544   0.012352
   31  O  3  S    0.075162  -0.040160   0.042674  -0.072035   0.004546
   32  O  3  S   -0.178262   0.095325  -0.099015   0.155811  -0.006843
   33  O  3  X   -0.063726   0.020101  -0.276995   0.380737  -0.029888
   34  O  3  Y   -0.018999   0.190066   0.076241   0.265506  -0.104090
   35  O  3  Z   -0.009372  -0.023295   0.072986   0.113336   0.483958
   36  O  3  S   -0.186533   0.117246  -0.147029   0.316897  -0.036011
   37  O  3  X   -0.044315   0.013833  -0.151029   0.192303  -0.010166
   38  O  3  Y   -0.012258   0.097762   0.043363   0.138296  -0.059916
   39  O  3  Z   -0.003820  -0.008202   0.036124   0.061096   0.301325
   40  O  3 XX    0.005676   0.005873   0.018373  -0.009810  -0.000539
   41  O  3 YY   -0.001151  -0.009869  -0.012157  -0.000425   0.004153
   42  O  3 ZZ   -0.004525   0.003996  -0.006215   0.010235  -0.003614
   43  O  3 XY    0.003839  -0.011843  -0.000229  -0.015341   0.004656
   44  O  3 XZ    0.000965   0.002054  -0.004314  -0.007021  -0.026884
   45  O  3 YZ    0.000612  -0.000042  -0.003066  -0.004334  -0.015558
   46  H  4  S    0.132220  -0.195723  -0.121365   0.053194  -0.008083
   47  H  4  S    0.042265  -0.114140  -0.114374   0.053133  -0.003165
   48  H  5  S   -0.156109  -0.087260   0.005543  -0.025065  -0.045928
   49  H  5  S   -0.071879  -0.056151  -0.090770  -0.043853  -0.029742
   50  H  6  S    0.071076   0.169145  -0.196546  -0.113599   0.104829
   51  H  6  S    0.024383   0.103992  -0.151983  -0.098116   0.101031
   52  H  7  S   -0.165092  -0.113554   0.070377   0.004483  -0.063342
   53  H  7  S   -0.047408  -0.062795   0.141055   0.040265  -0.052282

                     11         12         13         14         15
                   -0.2649    -0.2178    -0.0423     0.0541     0.1284
                     A          A          A          A          A   
    1  C  1  S    0.070108   0.070515  -0.018296  -0.113086   0.051587
    2  C  1  S   -0.139769  -0.152611   0.023385   0.134789  -0.064450
    3  C  1  X   -0.172488   0.074541  -0.096120  -0.275981  -0.122681
    4  C  1  Y   -0.068013  -0.485166  -0.102056  -0.200254   0.029925
    5  C  1  Z   -0.094399  -0.116289   0.091163   0.233901  -0.032070
    6  C  1  S   -0.391892  -0.201375   0.198768   1.823232  -0.671697
    7  C  1  X   -0.066727   0.158667  -0.093135  -0.578196  -0.291386
    8  C  1  Y    0.014486  -0.382741  -0.129405  -0.539925   0.239945
    9  C  1  Z   -0.037848  -0.055834   0.180751   0.402517  -0.131128
   10  C  1 XX   -0.000364  -0.010225  -0.004526   0.001598   0.001167
   11  C  1 YY    0.007750   0.031575   0.004787   0.001043  -0.008017
   12  C  1 ZZ   -0.007385  -0.021350  -0.000261  -0.002641   0.006851
   13  C  1 XY    0.011831   0.002292   0.006388   0.021129  -0.012435
   14  C  1 XZ    0.002660   0.004650   0.025669  -0.022048   0.001056
   15  C  1 YZ    0.006573   0.000534  -0.014171  -0.015836   0.005437
   16  C  2  S   -0.005740  -0.009254   0.007019   0.006342  -0.117076
   17  C  2  S    0.004820   0.039106  -0.016638   0.025844   0.156152
   18  C  2  X    0.038390  -0.080878   0.010815   0.039248  -0.054809
   19  C  2  Y   -0.080800   0.113551  -0.035296  -0.092191  -0.300930
   20  C  2  Z   -0.006768  -0.014807   0.467707  -0.133821  -0.014137
   21  C  2  S    0.004747  -0.148646  -0.075762  -0.199582   1.870422
   22  C  2  X   -0.095606  -0.048542  -0.029022   0.129152  -0.162204
   23  C  2  Y    0.005503  -0.104422  -0.057330  -0.108568  -0.648327
   24  C  2  Z   -0.009096  -0.022190   0.493199  -0.226185  -0.006954
   25  C  2 XX   -0.032969   0.021784   0.005335   0.008550  -0.006446
   26  C  2 YY    0.033016  -0.025961  -0.002132  -0.001234  -0.004464
   27  C  2 ZZ   -0.000047   0.004177  -0.003203  -0.007316   0.010910
   28  C  2 XY    0.026914   0.008190   0.007503   0.007721   0.005278
   29  C  2 XZ    0.005984   0.007009  -0.029060  -0.001178  -0.000449
   30  C  2 YZ    0.002428  -0.001863  -0.013224   0.011185  -0.001100
   31  O  3  S   -0.002634  -0.008841  -0.004973  -0.011002   0.012942
   32  O  3  S    0.001530   0.012505   0.010924   0.030727  -0.023781
   33  O  3  X   -0.296699   0.000065  -0.029328  -0.080032   0.040169
   34  O  3  Y    0.496146  -0.139378   0.034150   0.044402   0.108321
   35  O  3  Z    0.068467   0.046211  -0.427715   0.081125   0.001718
   36  O  3  S    0.055245   0.129977   0.052831   0.070130  -0.152491
   37  O  3  X   -0.218228  -0.033785  -0.033468  -0.108364   0.059496
   38  O  3  Y    0.337641  -0.115479   0.028122   0.050413   0.200985
   39  O  3  Z    0.049858   0.035972  -0.432954   0.110348   0.003757
   40  O  3 XX    0.015400   0.002752   0.000958   0.002514  -0.006304
   41  O  3 YY   -0.015579  -0.002147  -0.000999  -0.001060  -0.001747
   42  O  3 ZZ    0.000179  -0.000604   0.000041  -0.001454   0.008051
   43  O  3 XY   -0.008256   0.004661   0.001073   0.002906   0.002157
   44  O  3 XZ   -0.001560  -0.001093   0.000485  -0.000076  -0.000064
   45  O  3 YZ   -0.002655  -0.001115   0.001372   0.002343  -0.000562
   46  H  4  S    0.141921  -0.130877  -0.008489   0.023900  -0.084433
   47  H  4  S    0.218183  -0.246970  -0.018893  -0.150444  -1.778893
   48  H  5  S    0.072115   0.112556  -0.094608  -0.049853  -0.022536
   49  H  5  S    0.336674   0.516387  -0.038237  -0.975067  -1.189555
   50  H  6  S    0.058636   0.029454   0.091822  -0.051187   0.034542
   51  H  6  S    0.105788   0.010587   0.173071  -0.680905   0.154953
   52  H  7  S    0.008848  -0.024026  -0.112106  -0.060939   0.051631
   53  H  7  S   -0.209588  -0.447400  -0.317597  -0.791734   1.393826

                     16         17         18         19         20
                    0.1394     0.1911     0.2580     0.2831     0.3901
                     A          A          A          A          A   
    1  C  1  S    0.048482   0.026281  -0.017534   0.072613  -0.068037
    2  C  1  S   -0.056169   0.033810  -0.042428  -0.090896   0.134832
    3  C  1  X    0.053629  -0.036082   0.123619  -0.250061  -0.047276
    4  C  1  Y   -0.047574   0.166733  -0.002471  -0.061594  -0.190162
    5  C  1  Z    0.422495   0.170240   0.040227  -0.031750  -0.011485
    6  C  1  S   -0.860914  -0.948830   1.187672  -0.720633   0.534298
    7  C  1  X    0.231108  -0.393944   0.895139  -1.511346   0.141724
    8  C  1  Y   -0.014772   0.770475  -0.428274  -0.120292  -0.332616
    9  C  1  Z    1.085605   0.656960   0.176276  -0.130658   0.276181
   10  C  1 XX   -0.015299   0.027890   0.005859   0.050748  -0.016839
   11  C  1 YY   -0.001622   0.008212  -0.012664  -0.029969   0.027735
   12  C  1 ZZ    0.016921  -0.036102   0.006805  -0.020779  -0.010895
   13  C  1 XY   -0.004490   0.002089   0.023984  -0.000218  -0.003095
   14  C  1 XZ   -0.001726  -0.002758  -0.009138  -0.004201   0.050449
   15  C  1 YZ   -0.008982  -0.007050  -0.019443   0.005618   0.042452
   16  C  2  S    0.011557  -0.053656  -0.011905  -0.082303   0.016717
   17  C  2  S   -0.057508   0.102517   0.014080   0.118736  -0.149677
   18  C  2  X    0.022401  -0.132936   0.219030  -0.256795   0.190573
   19  C  2  Y    0.047695  -0.004445  -0.082667   0.432244  -0.032863
   20  C  2  Z   -0.118881  -0.009256   0.092426   0.021676  -0.311466
   21  C  2  S   -0.080330   0.877580   0.377812   1.879434   0.402538
   22  C  2  X   -0.052734  -0.717450   1.991258   0.284828   1.052799
   23  C  2  Y    0.073625  -0.027178   0.043225   1.645028   0.095115
   24  C  2  Z   -0.353373  -0.182820   0.036906   0.106757   0.067128
   25  C  2 XX    0.000085   0.000150  -0.014163  -0.000714   0.032713
   26  C  2 YY   -0.007988   0.005310   0.009634  -0.014882  -0.029343
   27  C  2 ZZ    0.007903  -0.005460   0.004529   0.015596  -0.003369
   28  C  2 XY    0.002267  -0.002617  -0.019728   0.011281   0.003642
   29  C  2 XZ   -0.011086  -0.005351   0.001405   0.001251  -0.018391
   30  C  2 YZ    0.020065   0.004308  -0.003209  -0.002316   0.014247
   31  O  3  S   -0.000601  -0.004568   0.075592   0.063151   0.036255
   32  O  3  S    0.000099  -0.014750  -0.119792  -0.076306  -0.055664
   33  O  3  X   -0.003488   0.054022   0.082408   0.153299  -0.045482
   34  O  3  Y   -0.015098  -0.039416   0.137739  -0.017724   0.089089
   35  O  3  Z    0.061489   0.020220  -0.010205  -0.004016   0.046078
   36  O  3  S    0.022084   0.245095  -1.457876  -1.345001  -0.829508
   37  O  3  X    0.005714   0.006595   0.428839   0.686086   0.253258
   38  O  3  Y   -0.033311  -0.109720   0.491869   0.038444   0.276239
   39  O  3  Z    0.126316   0.038865   0.020575   0.014732   0.057103
   40  O  3 XX   -0.000851   0.002460  -0.018288  -0.011835  -0.025928
   41  O  3 YY   -0.000888  -0.000418   0.006898  -0.010908   0.009077
   42  O  3 ZZ    0.001739  -0.002042   0.011390   0.022743   0.016852
   43  O  3 XY    0.000274   0.004306  -0.025904  -0.025730  -0.016378
   44  O  3 XZ   -0.002764  -0.002027  -0.006651  -0.002643   0.013714
   45  O  3 YZ    0.005162   0.001123  -0.004196  -0.002928   0.015095
   46  H  4  S   -0.022177  -0.025305  -0.003093  -0.057504  -0.133165
   47  H  4  S    0.157334  -0.406662  -0.361248   1.024773  -0.068969
   48  H  5  S   -0.133213   0.023678   0.236665   0.022900  -0.477837
   49  H  5  S   -0.896815   4.535521   1.312913  -1.487572   1.004591
   50  H  6  S    0.091310  -0.117207   0.014169  -0.010093   0.086627
   51  H  6  S    1.844478   0.360408   0.301010  -0.323381  -0.406968
   52  H  7  S    0.008639  -0.172353   0.136809  -0.000066  -0.529642
   53  H  7  S    0.373096  -4.509988  -1.771021   0.993791  -0.009674

                     21         22         23         24         25
                    0.5367     0.5562     0.6002     0.6573     0.6808
                     A          A          A          A          A   
    1  C  1  S    0.007525   0.020489   0.016728   0.023120  -0.023155
    2  C  1  S   -0.191980   0.074455  -0.224867  -0.155906   0.351087
    3  C  1  X   -0.548392   0.499568  -0.511678   0.102940   0.238269
    4  C  1  Y    0.596226  -0.306451  -0.708544  -0.210853   0.002162
    5  C  1  Z   -0.045915  -0.006389   0.268976  -0.619361   0.431822
    6  C  1  S    0.209856  -0.142973  -0.757139  -0.486315  -0.889643
    7  C  1  X    0.800659  -0.601219   0.496776  -0.406487  -0.755854
    8  C  1  Y   -0.546551   0.420804   1.082786   0.305180   0.081748
    9  C  1  Z    0.024045  -0.233697  -0.642358   1.466014  -1.023542
   10  C  1 XX    0.002118   0.018993  -0.060385   0.007513  -0.011523
   11  C  1 YY   -0.026532  -0.007415   0.066850  -0.024016  -0.015912
   12  C  1 ZZ    0.024414  -0.011578  -0.006465   0.016503   0.027435
   13  C  1 XY    0.025696  -0.007310   0.040659   0.077084   0.021356
   14  C  1 XZ   -0.003575  -0.021323  -0.026342   0.042804  -0.016470
   15  C  1 YZ    0.004354  -0.012694  -0.034251   0.041713  -0.026436
   16  C  2  S   -0.041854   0.023179  -0.003934  -0.022231  -0.047384
   17  C  2  S   -0.027148   0.185257  -0.424524   0.342404   0.278128
   18  C  2  X    0.096063  -0.102707   0.219712   0.461335   0.846779
   19  C  2  Y    0.114790  -0.002953  -0.156005  -0.146572   0.361173
   20  C  2  Z   -0.575069  -0.781314  -0.110706   0.088684   0.022033
   21  C  2  S   -0.384685  -0.000515   0.651411  -0.119809   0.788142
   22  C  2  X   -0.309337   0.038990  -0.787427  -0.907754  -1.019079
   23  C  2  Y   -0.140936   0.029370   0.174400   0.979773  -0.041798
   24  C  2  Z    0.698443   1.079180   0.318130  -0.456952   0.232343
   25  C  2 XX   -0.093339   0.044577   0.008294  -0.056487  -0.046604
   26  C  2 YY    0.013918   0.023934  -0.040424   0.064923  -0.002297
   27  C  2 ZZ    0.079422  -0.068511   0.032130  -0.008437   0.048901
   28  C  2 XY    0.029159  -0.035256   0.037815  -0.068559  -0.115657
   29  C  2 XZ   -0.005297   0.005993   0.000873  -0.009736  -0.006718
   30  C  2 YZ   -0.016416  -0.022733  -0.020441   0.032573  -0.023651
   31  O  3  S    0.007656  -0.013306   0.010219   0.016852   0.037880
   32  O  3  S   -0.077388   0.077690  -0.099268  -0.084936  -0.131760
   33  O  3  X    0.138204  -0.055666   0.085309   0.277175   0.238975
   34  O  3  Y   -0.047570   0.022646  -0.169529  -0.122192   0.218083
   35  O  3  Z   -0.042959  -0.081968  -0.002124  -0.005447   0.032058
   36  O  3  S    0.274142  -0.029415   0.197056   0.157943   0.087852
   37  O  3  X   -0.025299  -0.049912   0.033349   0.095820   0.344298
   38  O  3  Y   -0.070120  -0.005850  -0.008023  -0.056810   0.099769
   39  O  3  Z   -0.076377  -0.114941  -0.065198   0.103158  -0.052825
   40  O  3 XX    0.027161  -0.008048  -0.012956   0.040636   0.067540
   41  O  3 YY   -0.020909   0.007541   0.005103   0.000238  -0.008586
   42  O  3 ZZ   -0.006252   0.000508   0.007853  -0.040875  -0.058954
   43  O  3 XY    0.014102  -0.008258  -0.015621   0.050927   0.116035
   44  O  3 XZ    0.037382   0.048916   0.012397  -0.013759   0.019569
   45  O  3 YZ    0.018483   0.021131  -0.005858   0.020144  -0.006096
   46  H  4  S   -0.071006   0.180934  -0.090088   0.374543  -0.059712
   47  H  4  S   -0.056960   0.017650   0.114284   0.392111  -0.025853
   48  H  5  S    0.057247   0.153218   0.031129   0.099179  -0.076783
   49  H  5  S    0.202799  -0.121922   0.751619   0.683692  -0.820226
   50  H  6  S    0.143820   0.009591  -0.225780   0.293582  -0.110462
   51  H  6  S    0.046829   0.120275   0.084411   0.311890  -0.486169
   52  H  7  S    0.077902   0.134077  -0.118728   0.034305  -0.028891
   53  H  7  S   -0.393104  -0.241638  -0.046717  -1.443147   1.173262

                     26         27         28         29         30
                    0.7319     0.7634     0.8551     0.8890     0.9233
                     A          A          A          A          A   
    1  C  1  S   -0.009643  -0.008309  -0.012092   0.030853  -0.018123
    2  C  1  S   -0.424859   0.215044   0.068107  -1.152377   0.463400
    3  C  1  X    0.319963   0.297846   0.074376   0.382211   0.050587
    4  C  1  Y    0.110271   0.295038   0.103252   0.053435   0.047099
    5  C  1  Z   -0.567672   0.359088  -0.059044   0.373594  -0.060621
    6  C  1  S    0.410589  -1.084821  -0.502420   2.021693  -1.166113
    7  C  1  X   -1.087732  -1.737256  -0.562430  -0.703104  -0.703348
    8  C  1  Y   -0.081065  -0.753738  -0.032595  -0.051736  -0.131357
    9  C  1  Z    0.898653  -0.892788   0.057611  -0.529342  -0.021241
   10  C  1 XX   -0.079475  -0.027951  -0.030020  -0.065220   0.053884
   11  C  1 YY    0.080734  -0.018664   0.011325  -0.025977  -0.032554
   12  C  1 ZZ   -0.001260   0.046615   0.018694   0.091197  -0.021330
   13  C  1 XY   -0.005667   0.023473   0.038710   0.036575   0.067650
   14  C  1 XZ   -0.061459   0.000480  -0.019067   0.110004  -0.040849
   15  C  1 YZ   -0.005228  -0.003447  -0.006866   0.021598  -0.007193
   16  C  2  S   -0.015305   0.012975   0.051099  -0.014596  -0.018805
   17  C  2  S   -0.639364  -0.133405  -0.971207  -0.707661  -1.051064
   18  C  2  X    0.309532   0.138647   0.184328   0.015499  -0.033715
   19  C  2  Y   -0.123228  -0.825363   0.473091   0.124952  -0.042193
   20  C  2  Z   -0.033571  -0.037876   0.026717   0.016864   0.001330
   21  C  2  S    1.579234   1.037004   2.977103   0.907813   1.330218
   22  C  2  X   -0.611481  -0.527985  -0.133185  -0.259972  -0.501530
   23  C  2  Y    0.193523   2.997678  -0.340548  -0.527276   0.330608
   24  C  2  Z   -0.077195   0.301088  -0.020433   0.015615   0.000484
   25  C  2 XX    0.049543   0.071141   0.016945  -0.068057  -0.110510
   26  C  2 YY   -0.124833  -0.031514   0.088011   0.000969   0.052730
   27  C  2 ZZ    0.075291  -0.039627  -0.104956   0.067088   0.057780
   28  C  2 XY    0.033428   0.048419   0.111156   0.007062  -0.133080
   29  C  2 XZ    0.031061   0.006579   0.017364  -0.045248   0.008160
   30  C  2 YZ   -0.017340  -0.008815   0.008631   0.020971  -0.017481
   31  O  3  S    0.012662   0.013525   0.029278  -0.014177  -0.047728
   32  O  3  S   -0.065144   0.010542  -0.095978   0.025103   0.271222
   33  O  3  X   -0.114372  -0.144066  -0.351924   0.108358   0.541473
   34  O  3  Y    0.091912  -0.273490  -0.311100   0.065918   0.197220
   35  O  3  Z   -0.083601   0.002229  -0.046211   0.183692  -0.059855
   36  O  3  S   -0.135919  -0.855634  -0.628932   0.186139  -0.038412
   37  O  3  X    0.224084   0.502173   0.789249  -0.304956  -0.951943
   38  O  3  Y    0.030870  -0.048877   0.486147  -0.123126  -0.533279
   39  O  3  Z    0.082175  -0.040804   0.063145  -0.199939   0.037792
   40  O  3 XX   -0.050622  -0.108377  -0.010829   0.004208  -0.019840
   41  O  3 YY    0.018891   0.041550  -0.046154  -0.018525  -0.017987
   42  O  3 ZZ    0.031731   0.066827   0.056982   0.014317   0.037827
   43  O  3 XY    0.018267  -0.014705  -0.072309  -0.012903  -0.004242
   44  O  3 XZ   -0.011580   0.002144  -0.006697   0.006374  -0.002615
   45  O  3 YZ    0.006700  -0.012680  -0.008367  -0.001163  -0.007752
   46  H  4  S   -0.653014  -0.019470   0.716317  -0.056688   0.308149
   47  H  4  S    0.318723   1.666645  -1.550722  -0.530474  -0.400920
   48  H  5  S    0.174293  -0.074459   0.014704   0.005485   0.016380
   49  H  5  S   -0.735007  -1.542976  -0.187264   0.236640  -0.776710
   50  H  6  S   -0.421043   0.053327  -0.160444   0.771429  -0.322312
   51  H  6  S    0.345305  -0.838299   0.033792  -1.747358   0.275554
   52  H  7  S    0.106719   0.001831  -0.033687   0.098337  -0.117672
   53  H  7  S   -0.741374   1.386095  -0.029703  -0.741273   0.707474

                     31         32         33         34         35
                    0.9867     1.0818     1.2002     1.3972     1.5148
                     A          A          A          A          A   
    1  C  1  S    0.001338  -0.009602  -0.089203   0.009761   0.014853
    2  C  1  S   -0.260616  -0.193802  -1.762180   0.120454   0.195283
    3  C  1  X    0.031408  -0.076783   0.084393  -0.032760   0.023375
    4  C  1  Y   -0.001234  -0.052270   0.250417  -0.105264   0.030793
    5  C  1  Z    0.155702  -0.006222   0.112534   0.025247   0.123712
    6  C  1  S    0.594487  -0.431787   5.537790  -0.425412  -0.663573
    7  C  1  X    0.015345  -0.440028   0.257945   0.085219  -0.046944
    8  C  1  Y   -0.072911  -0.078151  -2.039223   0.347944   0.152742
    9  C  1  Z   -0.138782  -0.039756  -0.521723   0.335098  -0.305044
   10  C  1 XX   -0.011611  -0.023493   0.056427  -0.053735   0.155724
   11  C  1 YY   -0.007117   0.005540   0.151741  -0.149752   0.098364
   12  C  1 ZZ    0.018727   0.017953  -0.208168   0.203487  -0.254088
   13  C  1 XY   -0.000686   0.059122   0.022930  -0.079092   0.232901
   14  C  1 XZ    0.018583  -0.009031  -0.103266  -0.354767   0.106781
   15  C  1 YZ    0.050225  -0.004567   0.059328   0.403307   0.105967
   16  C  2  S    0.000303  -0.001593   0.034201  -0.005022  -0.001304
   17  C  2  S    0.041397   0.008520   0.707901  -0.072099  -0.070981
   18  C  2  X   -0.005717   0.119209  -0.049055  -0.003875   0.013198
   19  C  2  Y    0.004342  -0.289548  -0.034204   0.019874   0.008860
   20  C  2  Z    0.115484  -0.011646  -0.004096  -0.037753  -0.153614
   21  C  2  S   -0.201785  -0.108893  -3.304718   0.229548   0.786501
   22  C  2  X    0.107276  -0.813382   1.892644  -0.200221  -0.016361
   23  C  2  Y   -0.049371   1.714827  -0.132679  -0.102185   0.021350
   24  C  2  Z   -0.577299   0.078114   0.193285   0.041487   0.152719
   25  C  2 XX   -0.006266  -0.136629  -0.033714  -0.030507  -0.011937
   26  C  2 YY    0.005100   0.144573   0.143702  -0.006402  -0.033329
   27  C  2 ZZ    0.001166  -0.007943  -0.109988   0.036909   0.045265
   28  C  2 XY    0.011278   0.071728  -0.027379  -0.019468   0.006391
   29  C  2 XZ   -0.046787   0.005917   0.109838   0.517128   0.252500
   30  C  2 YZ    0.011341   0.005622  -0.053729  -0.183524   0.524167
   31  O  3  S    0.001695   0.002037   0.010765   0.001736  -0.012675
   32  O  3  S   -0.020988  -0.041638  -0.149025  -0.057581   0.362495
   33  O  3  X    0.012127  -0.374222   0.175532  -0.000428  -0.076245
   34  O  3  Y    0.046405   0.715071  -0.081021   0.014199  -0.028485
   35  O  3  Z   -0.917635   0.034588   0.019692  -0.052384  -0.091642
   36  O  3  S    0.038083   0.009639   0.031192   0.148308  -0.664102
   37  O  3  X   -0.027997   0.697441  -0.384805  -0.016362   0.276197
   38  O  3  Y   -0.053653  -1.365138   0.231105  -0.039927   0.144684
   39  O  3  Z    1.254494  -0.066145  -0.090956  -0.113236  -0.090270
   40  O  3 XX    0.005621   0.085397   0.036989   0.006039   0.039104
   41  O  3 YY   -0.002941  -0.089825   0.058334   0.008933  -0.007550
   42  O  3 ZZ   -0.002680   0.004428  -0.095323  -0.014972  -0.031555
   43  O  3 XY   -0.004083  -0.067770  -0.008549   0.001726   0.062548
   44  O  3 XZ    0.030514  -0.001288  -0.006387  -0.126765  -0.414693
   45  O  3 YZ    0.019996  -0.009908  -0.044226  -0.240860  -0.030194
   46  H  4  S   -0.004114   0.240857   0.306696  -0.004013  -0.135569
   47  H  4  S   -0.015718   0.799207   0.165681  -0.099411  -0.025713
   48  H  5  S   -0.052770   0.017090  -0.006652  -0.523044   0.650048
   49  H  5  S    0.128705  -0.250478  -2.910635   1.804139  -1.081058
   50  H  6  S    0.172580  -0.095802  -0.610879   0.186084   0.104024
   51  H  6  S   -0.479379  -0.077359  -0.742792   0.049634  -0.028662
   52  H  7  S   -0.012214  -0.081363  -0.447599   0.465611  -0.545866
   53  H  7  S   -0.011506   0.125320   1.931792  -1.720336   1.333301

                     36         37         38         39         40
                    1.5493     1.6270     1.6762     1.7917     1.8080
                     A          A          A          A          A   
    1  C  1  S   -0.020209   0.040749   0.007926  -0.006075  -0.000782
    2  C  1  S   -0.248194   0.515928  -0.313314   0.409933  -0.017049
    3  C  1  X   -0.031418  -0.007272  -0.213113   0.229546   0.003973
    4  C  1  Y   -0.013379  -0.002786   0.029964  -0.065597  -0.017453
    5  C  1  Z   -0.056055   0.035755  -0.021798   0.001208   0.082381
    6  C  1  S    0.839106  -1.900211  -0.014780  -0.328502   0.069201
    7  C  1  X    0.054258   0.059313  -0.180964  -0.303190   0.080273
    8  C  1  Y   -0.215161   0.857528   0.012992   0.051255   0.041956
    9  C  1  Z   -0.219094   0.079759  -0.013271  -0.053841  -0.312637
   10  C  1 XX   -0.220612   0.211489   0.387676  -0.252706   0.084967
   11  C  1 YY   -0.080456   0.081667  -0.472991   0.187243  -0.032907
   12  C  1 ZZ    0.301068  -0.293156   0.085316   0.065463  -0.052060
   13  C  1 XY   -0.344915   0.167838  -0.048245   0.095783   0.097280
   14  C  1 XZ    0.057991   0.034487  -0.016156  -0.041671  -0.323358
   15  C  1 YZ   -0.188517   0.094384  -0.036617   0.001109   0.408612
   16  C  2  S    0.000373  -0.025876  -0.002997  -0.023816   0.002744
   17  C  2  S    0.093234  -0.313571  -0.444866   0.038980   0.020106
   18  C  2  X   -0.012632  -0.093699   0.139000   0.010067  -0.027153
   19  C  2  Y    0.001166   0.000696  -0.053555  -0.097628   0.001673
   20  C  2  Z   -0.106465   0.008162   0.002688   0.000438   0.088428
   21  C  2  S   -1.318359  -0.725075   1.409717   0.677257  -0.198275
   22  C  2  X   -0.174666  -2.069429  -0.192489   0.390152  -0.065903
   23  C  2  Y   -0.100385  -1.206640   0.253216  -0.317576  -0.158304
   24  C  2  Z    0.147187  -0.150417   0.029318   0.019748   0.192714
   25  C  2 XX    0.008715  -0.076061   0.159523  -0.235853  -0.019484
   26  C  2 YY   -0.049683   0.178690   0.172642   0.394395  -0.001789
   27  C  2 ZZ    0.040969  -0.102629  -0.332164  -0.158542   0.021273
   28  C  2 XY   -0.086333  -0.295311  -0.255991   0.255319  -0.005462
   29  C  2 XZ   -0.036248   0.027714  -0.036122  -0.007738  -0.139207
   30  C  2 YZ    0.461921  -0.060054   0.052075   0.043807  -0.063797
   31  O  3  S    0.021537   0.021762  -0.017069   0.004973  -0.001264
   32  O  3  S   -0.689689  -1.405624   0.505955   0.072711  -0.055207
   33  O  3  X    0.121372  -0.012003  -0.171118   0.183327  -0.023787
   34  O  3  Y    0.062914   0.043991   0.016504  -0.175681  -0.008107
   35  O  3  Z   -0.029919  -0.000400   0.002177   0.001120   0.069212
   36  O  3  S    1.348245   3.633724  -0.955863  -0.432977   0.224339
   37  O  3  X   -0.501745  -0.957650   0.451922  -0.085080  -0.053293
   38  O  3  Y   -0.274265  -0.588147   0.077422   0.366282  -0.017255
   39  O  3  Z   -0.090746  -0.041792   0.008260   0.006231  -0.109617
   40  O  3 XX   -0.039553  -0.123471   0.040485   0.495589  -0.039352
   41  O  3 YY    0.022353   0.195945   0.460265  -0.087759  -0.115762
   42  O  3 ZZ    0.017200  -0.072474  -0.500749  -0.407829   0.155114
   43  O  3 XY   -0.062185  -0.181392  -0.108456  -0.453824   0.046306
   44  O  3 XZ   -0.295560   0.031194  -0.005915  -0.021324  -0.190362
   45  O  3 YZ    0.130803  -0.051174   0.112178   0.083160   0.798434
   46  H  4  S    0.201230  -0.243421  -0.184758  -0.506834  -0.004625
   47  H  4  S    0.053753  -0.363711  -0.126443  -0.077330  -0.039604
   48  H  5  S   -0.667463   0.381940  -0.233613  -0.181772  -0.031307
   49  H  5  S    0.867391  -0.353028   0.451645  -0.037328  -0.028399
   50  H  6  S   -0.243964   0.285720  -0.062485  -0.020845   0.013577
   51  H  6  S   -0.212333   0.309728  -0.168902   0.020540  -0.125596
   52  H  7  S    0.630162  -0.165153   0.187405   0.155771   0.025514
   53  H  7  S   -0.938417   0.675759  -0.580084   0.074970   0.174221

                     41         42         43         44         45
                    1.9289     2.0328     2.0683     2.2510     2.2885
                     A          A          A          A          A   
    1  C  1  S   -0.048857  -0.008291   0.018245  -0.020652   0.012578
    2  C  1  S   -0.346482  -0.110040  -0.008586  -0.103254   0.108941
    3  C  1  X    0.072539  -0.030342  -0.071108   0.040983  -0.080217
    4  C  1  Y   -0.128378  -0.021996   0.020090  -0.001730  -0.024500
    5  C  1  Z   -0.027221  -0.036173   0.010956  -0.029863  -0.063582
    6  C  1  S    1.868121   0.397811  -0.345571   0.682690  -0.662993
    7  C  1  X    0.385315   0.284116   0.219194   0.297439  -0.578432
    8  C  1  Y   -0.222682  -0.031640   0.141019  -0.160001   0.082987
    9  C  1  Z    0.087826  -0.553555   0.462152  -0.157556  -0.174443
   10  C  1 XX    0.311863   0.241888   0.230026   0.013148  -0.106878
   11  C  1 YY   -0.609921  -0.087621   0.128834  -0.222194   0.271863
   12  C  1 ZZ    0.298058  -0.154267  -0.358860   0.209046  -0.164985
   13  C  1 XY    0.449853  -0.179198  -0.306543  -0.294190   0.551324
   14  C  1 XZ   -0.074689   0.213648  -0.073621   0.843596   0.460969
   15  C  1 YZ   -0.284521   0.603076  -0.437489   0.250045   0.033918
   16  C  2  S    0.024086  -0.001020  -0.016197   0.027842  -0.041093
   17  C  2  S    0.319259  -0.141956  -0.331956   0.137986  -0.124658
   18  C  2  X   -0.204522   0.156809   0.244414   0.063726  -0.183477
   19  C  2  Y   -0.050143  -0.108424  -0.112174  -0.058985   0.118540
   20  C  2  Z   -0.018865   0.024105  -0.030907  -0.062191  -0.054456
   21  C  2  S   -1.676831   0.042353   0.753608  -0.812314   1.030141
   22  C  2  X    0.280177   0.195590   0.016252   0.183962  -0.174747
   23  C  2  Y   -1.355217  -0.357986  -0.090978  -0.383380   0.642723
   24  C  2  Z   -0.104513   0.302658  -0.254028  -0.082550   0.020608
   25  C  2 XX   -0.444158   0.062272   0.234347  -0.174752   0.125315
   26  C  2 YY    0.310017   0.242148   0.304787  -0.004372   0.163301
   27  C  2 ZZ    0.134141  -0.304419  -0.539134   0.179124  -0.288616
   28  C  2 XY   -0.120482  -0.003327   0.006238  -0.129726   0.219239
   29  C  2 XZ   -0.013221  -0.228320   0.212527   0.225073   0.078042
   30  C  2 YZ    0.006939   0.402230  -0.260243  -0.436008  -0.159871
   31  O  3  S   -0.016788   0.002957   0.009352  -0.008193   0.009781
   32  O  3  S   -0.143443   0.007458   0.010112   0.034430  -0.030541
   33  O  3  X   -0.134974   0.066863   0.129846  -0.080438   0.098099
   34  O  3  Y   -0.228376  -0.025471   0.050515  -0.091729   0.115387
   35  O  3  Z   -0.028784   0.057049  -0.040402  -0.024298  -0.004595
   36  O  3  S    1.129245  -0.109766  -0.368363   0.283337  -0.423566
   37  O  3  X   -0.439598  -0.043443   0.051319  -0.123420   0.186533
   38  O  3  Y    0.195949   0.154506   0.100687   0.119699  -0.216486
   39  O  3  Z    0.028416  -0.151462   0.139062   0.066099   0.047433
   40  O  3 XX   -0.031170   0.098439   0.152621   0.112918  -0.242208
   41  O  3 YY   -0.287251  -0.387172  -0.463482  -0.135988   0.287920
   42  O  3 ZZ    0.318421   0.288733   0.310862   0.023070  -0.045712
   43  O  3 XY    0.095503   0.045281   0.081699  -0.142825   0.309564
   44  O  3 XZ   -0.045315   0.316580  -0.261562  -0.231448  -0.149483
   45  O  3 YZ   -0.064534  -0.223348   0.083361   0.167162   0.067857
   46  H  4  S   -0.370900  -0.280816  -0.295949  -0.003771  -0.012074
   47  H  4  S   -0.307394  -0.118529  -0.106967  -0.052711   0.146335
   48  H  5  S   -0.385120  -0.209724  -0.148143   0.627837  -1.254355
   49  H  5  S    0.007479   0.144422   0.573809  -0.699305   0.796084
   50  H  6  S   -0.294185  -0.324635   0.467694  -0.516521  -0.269212
   51  H  6  S   -0.095444  -0.096219   0.081262   0.141200  -0.074513
   52  H  7  S   -0.078994   0.586437   0.121676  -0.233511   1.355701
   53  H  7  S   -0.147438  -0.082049  -0.567594   0.547936  -0.840516

                     46         47         48         49         50
                    2.3620     2.5121     2.5779     2.8564     2.9443
                     A          A          A          A          A   
    1  C  1  S   -0.025497   0.053969  -0.003999   0.028034  -0.011844
    2  C  1  S   -0.238414   0.116981  -0.011278  -0.129734   0.076048
    3  C  1  X    0.044107  -0.271373   0.013016  -0.205667   0.099287
    4  C  1  Y   -0.066109   0.083839  -0.013761   0.167695  -0.054594
    5  C  1  Z   -0.019992   0.002188   0.022954  -0.000302   0.004902
    6  C  1  S    1.089690  -1.615177   0.118315  -0.139422   0.083743
    7  C  1  X    0.448765  -0.865274   0.062980  -0.240604   0.175229
    8  C  1  Y   -0.271538   0.280188  -0.015104   0.095712   0.045467
    9  C  1  Z   -0.026210  -0.002361   0.034295  -0.049954  -0.000975
   10  C  1 XX    0.325049  -0.784050   0.062247  -0.182679   0.056605
   11  C  1 YY    0.313543   0.462630   0.004710  -0.071847   0.013628
   12  C  1 ZZ   -0.638592   0.321420  -0.066957   0.254526  -0.070233
   13  C  1 XY   -0.091953   0.116027   0.005028   0.554106  -0.221378
   14  C  1 XZ   -0.010920  -0.027956   0.141792   0.036443  -0.009547
   15  C  1 YZ   -0.070039   0.027208  -0.183571  -0.006772   0.008572
   16  C  2  S    0.062880  -0.032205   0.002608  -0.043662  -0.028799
   17  C  2  S    0.137697  -0.060620  -0.007021  -0.344988  -1.322579
   18  C  2  X    0.100655  -0.226463   0.000468  -0.406053  -1.089661
   19  C  2  Y   -0.135617   0.060936  -0.020668  -0.169699  -0.632273
   20  C  2  Z   -0.022433   0.017727   0.240845  -0.020337  -0.059359
   21  C  2  S   -0.976545   1.750804  -0.114121   0.088145  -1.737363
   22  C  2  X    0.354058  -0.754836   0.047761  -0.320808  -0.715948
   23  C  2  Y   -0.335465   0.872231  -0.066832  -0.478868  -0.512527
   24  C  2  Z   -0.005233   0.039484   0.235479  -0.018981  -0.044107
   25  C  2 XX   -0.415649  -0.137135  -0.047253   0.848895  -0.715429
   26  C  2 YY   -0.233746   0.453911  -0.063343  -0.763902   0.267851
   27  C  2 ZZ    0.649396  -0.316775   0.110596  -0.084992   0.447578
   28  C  2 XY   -0.422406  -0.851067  -0.006092  -0.608107  -0.376681
   29  C  2 XZ   -0.102242   0.024934   0.908027  -0.001106  -0.059493
   30  C  2 YZ   -0.062826   0.054216   0.392251  -0.054025  -0.022024
   31  O  3  S   -0.026918  -0.019286   0.000358  -0.011081  -0.061250
   32  O  3  S    0.411350   0.559563  -0.025276  -0.336605  -0.684839
   33  O  3  X   -0.338014  -0.334572   0.012090  -0.011891  -0.249641
   34  O  3  Y   -0.202617  -0.136225   0.005619   0.040781  -0.161942
   35  O  3  Z   -0.022523  -0.014386  -0.010744   0.001814  -0.013783
   36  O  3  S   -0.040412  -0.720732   0.043264   1.010455   3.095203
   37  O  3  X    0.059043   0.500603  -0.018906  -0.676832  -1.530298
   38  O  3  Y    0.226276  -0.029213   0.019545   0.079737  -0.936431
   39  O  3  Z    0.038273  -0.023493  -0.451407  -0.016273  -0.083000
   40  O  3 XX    0.193055  -0.165405  -0.024919   0.844278   0.764077
   41  O  3 YY   -0.138038  -0.001536  -0.039407  -0.654550  -0.056505
   42  O  3 ZZ   -0.055017   0.166941   0.064326  -0.189728  -0.707572
   43  O  3 XY   -0.237469   0.124244  -0.051958  -0.127579   1.138964
   44  O  3 XZ   -0.054000   0.063541   0.846377   0.023625   0.095142
   45  O  3 YZ   -0.043578   0.031205   0.517666  -0.026813   0.062819
   46  H  4  S    0.154526  -0.264336   0.020676   0.266002  -0.032958
   47  H  4  S   -0.103543   0.340047  -0.027653  -0.395896   0.022898
   48  H  5  S   -1.025849   0.191721  -0.146103  -0.166577   0.140411
   49  H  5  S    0.801732  -0.133589   0.174499  -0.088712  -0.211468
   50  H  6  S    0.120954   0.044928   0.014002  -0.137048   0.032333
   51  H  6  S   -0.180094  -0.011572   0.018056  -0.017234   0.038493
   52  H  7  S    1.022017  -0.137564   0.125688   0.052053  -0.092823
   53  H  7  S   -0.853563   0.102237  -0.195289   0.083812   0.224486
 ...... END OF RHF CALCULATION ......
 STEP CPU TIME =    10.73 TOTAL CPU TIME =         10.8 (      0.2 MIN)
 TOTAL WALL CLOCK TIME=         12.4 SECONDS, CPU UTILIZATION IS    87.55%

     ---------------------------------------------------------------------
     PROPERTIES FOR THE B3LYP    DFT FUNCTIONAL (RHF  TYPE) DENSITY MATRIX
     ---------------------------------------------------------------------

          -----------------
          ENERGY COMPONENTS
          -----------------

         WAVEFUNCTION NORMALIZATION =       1.0000000000

                ONE ELECTRON ENERGY =    -345.9489352612
                TWO ELECTRON ENERGY =     122.3123979234
           NUCLEAR REPULSION ENERGY =      70.5329592598
                                      ------------------
                       TOTAL ENERGY =    -153.1035780780

 ELECTRON-ELECTRON POTENTIAL ENERGY =     122.3123979234
  NUCLEUS-ELECTRON POTENTIAL ENERGY =    -499.3516821412
   NUCLEUS-NUCLEUS POTENTIAL ENERGY =      70.5329592598
                                      ------------------
             TOTAL POTENTIAL ENERGY =    -306.5063249580
               TOTAL KINETIC ENERGY =     153.4027468800
                 VIRIAL RATIO (V/T) =       1.9980497820

          ---------------------------------------
          MULLIKEN AND LOWDIN POPULATION ANALYSES
          ---------------------------------------

     ATOMIC MULLIKEN POPULATION IN EACH MOLECULAR ORBITAL

                      1          2          3          4          5

                  2.000000   2.000000   2.000000   2.000000   2.000000

    1            -0.000027   0.001265   1.995490   0.023570   0.602343
    2             0.002251   2.000573   0.001778   0.522345   0.088486
    3             1.997748  -0.002786   0.000011   1.446499   0.027683
    4             0.000029   0.000915  -0.000003  -0.001775  -0.000721
    5             0.000000  -0.000043   0.001333   0.004693   0.683008
    6            -0.000001   0.000017   0.001284   0.000546   0.034948
    7            -0.000001   0.000060   0.000107   0.004121   0.564254

                      6          7          8          9         10

                  2.000000   2.000000   2.000000   2.000000   2.000000

    1             0.541243   0.493274   0.519815   0.234790   0.083414
    2             0.877906   0.643194   0.493298   0.415597   0.634229
    3             0.204060   0.257596   0.505871   1.215627   1.188871
    4             0.143070   0.306508   0.134632   0.027783   0.000393
    5             0.088211   0.022568   0.010072   0.002724   0.003556
    6             0.044755   0.235890   0.315050   0.102137   0.081890
    7             0.100755   0.040969   0.021263   0.001342   0.007647

                     11         12

                  2.000000   2.000000

    1             0.307729   1.557218
    2             0.060689   0.114801
    3             1.392899   0.075287
    4             0.164770   0.134747
    5             0.036200  -0.005152
    6             0.029209   0.002327
    7             0.008503   0.120773

               ----- POPULATIONS IN EACH AO -----
                             MULLIKEN      LOWDIN
              1  C  1  S      1.99683     1.98069
              2  C  1  S      0.71263     0.40136
              3  C  1  X      0.59959     0.53113
              4  C  1  Y      0.84668     0.81131
              5  C  1  Z      0.55000     0.48355
              6  C  1  S      0.70877     0.38426
              7  C  1  X      0.18615     0.32892
              8  C  1  Y      0.56303     0.72883
              9  C  1  Z      0.15618     0.35895
             10  C  1 XX      0.00407     0.17573
             11  C  1 YY      0.00266     0.12803
             12  C  1 ZZ      0.01280     0.18312
             13  C  1 XY      0.01174     0.02364
             14  C  1 XZ      0.00898     0.03154
             15  C  1 YZ      0.00000     0.01674
             16  C  2  S      1.99651     1.97447
             17  C  2  S      0.70311     0.36384
             18  C  2  X      0.73989     0.64399
             19  C  2  Y      0.74571     0.64589
             20  C  2  Z      0.46649     0.41990
             21  C  2  S      0.46787     0.31559
             22  C  2  X      0.12057     0.28359
             23  C  2  Y      0.23172     0.38303
             24  C  2  Z      0.29640     0.33433
             25  C  2 XX      0.00483     0.22314
             26  C  2 YY      0.04143     0.19162
             27  C  2 ZZ      0.02597     0.10362
             28  C  2 XY      0.01161     0.05297
             29  C  2 XZ      0.00304     0.02148
             30  C  2 YZ      0.00000     0.00521
             31  O  3  S      1.99732     1.97778
             32  O  3  S      0.93323     0.72498
             33  O  3  X      0.99067     0.92588
             34  O  3  Y      1.10486     1.05636
             35  O  3  Z      0.75145     0.70008
             36  O  3  S      0.92985     0.46911
             37  O  3  X      0.48228     0.56263
             38  O  3  Y      0.59714     0.65973
             39  O  3  Z      0.49445     0.53286
             40  O  3 XX      0.00228     0.18467
             41  O  3 YY      0.00742     0.17295
             42  O  3 ZZ      0.00714     0.17407
             43  O  3 XY      0.00848     0.01570
             44  O  3 XZ      0.00281     0.01136
             45  O  3 YZ      0.00000     0.00372
             46  H  4  S      0.53628     0.50758
             47  H  4  S      0.37407     0.39924
             48  H  5  S      0.74176     0.61596
             49  H  5  S      0.10541     0.18072
             50  H  6  S      0.51561     0.46708
             51  H  6  S      0.33245     0.35131
             52  H  7  S      0.71664     0.59032
             53  H  7  S      0.15316     0.18546

          ----- MULLIKEN ATOMIC OVERLAP POPULATIONS -----
          (OFF-DIAGONAL ELEMENTS NEED TO BE MULTIPLIED BY 2)

             1           2           3           4           5

    1    5.8136664
    2    0.3762455   4.6019199
    3   -0.0570284   0.5509681   7.8881535
    4   -0.1598299   0.3516838  -0.0761920   0.7852943
    5   -0.2937682  -0.0147065   0.0138782  -0.0167450   1.4661568
    6    0.3474037  -0.0332850   0.0016996   0.0074296   0.0662098
    7    0.3334359   0.0223190  -0.0121129   0.0187099  -0.3738573

             6           7

    6    0.5456138
    7   -0.0870186   0.9683169

          TOTAL MULLIKEN AND LOWDIN ATOMIC POPULATIONS
       ATOM         MULL.POP.    CHARGE          LOW.POP.     CHARGE
    1 C             6.360125   -0.360125         6.567806   -0.567806
    2 C             5.855145    0.144855         5.962666    0.037334
    3 O             8.309366   -0.309366         8.171869   -0.171869
    4 H             0.910351    0.089649         0.906817    0.093183
    5 H             0.847168    0.152832         0.796675    0.203325
    6 H             0.848053    0.151947         0.818388    0.181612
    7 H             0.869793    0.130207         0.775779    0.224221

          MULLIKEN SPHERICAL HARMONIC POPULATIONS
       ATOM           S       P       D      F      G      H      I    TOTAL
    1 C             3.42    2.90    0.04   0.00   0.00   0.00   0.00    6.36
    2 C             3.17    2.60    0.09   0.00   0.00   0.00   0.00    5.86
    3 O             3.86    4.42    0.03   0.00   0.00   0.00   0.00    8.31
    4 H             0.91    0.00    0.00   0.00   0.00   0.00   0.00    0.91
    5 H             0.85    0.00    0.00   0.00   0.00   0.00   0.00    0.85
    6 H             0.85    0.00    0.00   0.00   0.00   0.00   0.00    0.85
    7 H             0.87    0.00    0.00   0.00   0.00   0.00   0.00    0.87

          -------------------------------
          BOND ORDER AND VALENCE ANALYSIS     BOND ORDER THRESHOLD=0.050
          -------------------------------

                   BOND                       BOND                       BOND
  ATOM PAIR DIST  ORDER      ATOM PAIR DIST  ORDER      ATOM PAIR DIST  ORDER
    1   2  1.509  1.124        1   5  1.093  0.190        1   6  1.098  0.922
    1   7  1.098  0.553        2   3  1.211  2.026        2   4  1.115  0.878
    5   7  0.331  0.531

                       TOTAL       BONDED        FREE
      ATOM            VALENCE     VALENCE     VALENCE
    1 C                 2.816       2.816       0.000
    2 C                 4.045       4.045       0.000
    3 O                 2.117       2.117       0.000
    4 H                 0.918       0.918       0.000
    5 H                 0.767       0.767      -0.000
    6 H                 0.950       0.950      -0.000
    7 H                 1.086       1.086      -0.000

          ---------------------
          ELECTROSTATIC MOMENTS
          ---------------------

 POINT   1           X           Y           Z (BOHR)    CHARGE
                -0.000000    0.000000   -0.000000        0.00 (A.U.)
         DX          DY          DZ         /D/  (DEBYE)
    -3.032803   -2.845314    0.532785    4.192561
 ...... END OF PROPERTY EVALUATION ......
 STEP CPU TIME =     0.01 TOTAL CPU TIME =         10.8 (      0.2 MIN)
 TOTAL WALL CLOCK TIME=         12.4 SECONDS, CPU UTILIZATION IS    87.56%
                580000  WORDS OF DYNAMIC MEMORY USED
 EXECUTION OF GAMESS TERMINATED NORMALLY Thu Dec 12 13:21:14 2019
 DDI: 263640 bytes (0.3 MB / 0 MWords) used by master data server.

 ----------------------------------------
 CPU timing information for all processes
 ========================================
 0: 5.571 + 5.277 = 10.849
 ----------------------------------------
 ddikick.x: exited gracefully.
----- accounting info -----
Files used on the master node crcfe02.crc.nd.edu were:
-rw-r--r-- 1 cdrisko campus      490 Dec 12 13:21 /afs/crc.nd.edu/user/c/cdrisko/acetaldehyde.F05
-rw-r--r-- 1 cdrisko campus    45118 Dec 12 13:21 /afs/crc.nd.edu/user/c/cdrisko/acetaldehyde.F07
-rw-r--r-- 1 cdrisko campus 11881056 Dec 12 13:21 /afs/crc.nd.edu/user/c/cdrisko/acetaldehyde.F08
-rw-r--r-- 1 cdrisko campus  1799600 Dec 12 13:21 /afs/crc.nd.edu/user/c/cdrisko/acetaldehyde.F10
Thu Dec 12 13:21:17 EST 2019
0.382u 0.479s 0:16.14 5.2%	0+0k 0+16io 0pf+0w
