----- GAMESS execution script 'rungms' -----
This job is running on host crcfe02.crc.nd.edu
under operating system Linux at Sun Sep 29 10:47:36 EDT 2019
Available scratch disk space (Kbyte units) at beginning of the job is
Filesystem      1K-blocks  Used  Available Use% Mounted on
AFS            2147483647     0 2147483647   0% /afs
GAMESS temporary binary files will be written to /afs/crc.nd.edu/user/c/cdrisko
GAMESS supplementary output files will be written to /afs/crc.nd.edu/user/c/cdrisko/scr
Copying input file SO2.inp to your run's scratch directory...

 Distributed Data Interface kickoff program.
 Initiating 1 compute processes on 1 nodes to run the following command:
 /afs/crc.nd.edu/x86_64_linux/g/gamess/nov-2017/gamess/gamess.00.x SO2 

          ******************************************************
          *         GAMESS VERSION = 11 NOV 2017 (R3)         *
          *             FROM IOWA STATE UNIVERSITY             *
          * M.W.SCHMIDT, K.K.BALDRIDGE, J.A.BOATZ, S.T.ELBERT, *
          *   M.S.GORDON, J.H.JENSEN, S.KOSEKI, N.MATSUNAGA,   *
          *          K.A.NGUYEN, S.J.SU, T.L.WINDUS,           *
          *       TOGETHER WITH M.DUPUIS, J.A.MONTGOMERY       *
          *         J.COMPUT.CHEM.  14, 1347-1363(1993)        *
          **************** 64 BIT INTEL VERSION ****************

  SINCE 1993, STUDENTS AND POSTDOCS WORKING AT IOWA STATE UNIVERSITY
  AND ALSO IN THEIR VARIOUS JOBS AFTER LEAVING ISU HAVE MADE IMPORTANT
  CONTRIBUTIONS TO THE CODE:
     IVANA ADAMOVIC, CHRISTINE AIKENS, YURI ALEXEEV, POOJA ARORA,
     ANDREY ASADCHEV, ROB BELL, PRADIPTA BANDYOPADHYAY, JONATHAN BENTZ,
     BRETT BODE, KURT BRORSEN, CALEB CARLIN, GALINA CHABAN, WEI CHEN,
     CHEOL HO CHOI, PAUL DAY, ALBERT DEFUSCO, NUWAN DESILVA, TIM DUDLEY,
     DMITRI FEDOROV, ALEX FINDLATER, GRAHAM FLETCHER, MARK FREITAG,
     KURT GLAESEMANN, ANASTASIA GUININA,
     DAN KEMP, GRANT MERRILL, NORIYUKI MINEZAWA, JONATHAN MULLIN,
     TAKESHI NAGATA, SEAN NEDD, HEATHER NETZLOFF, BOSILJKA NJEGIC, RYAN OLSON,
     MIKE PAK, BUU PHAM,
     SPENCER PRUITT, LUKE ROSKOP, JIM SHOEMAKER, LYUDMILA SLIPCHENKO,
     TONY SMITH, SAROM SOK LEANG, JIE SONG, TETSUYA TAKETSUGU, SIMON WEBB,
     PENG XU, SOOHAENG YOO, FEDERICO ZAHARIEV

  ADDITIONAL CODE HAS BEEN PROVIDED BY COLLABORATORS IN OTHER GROUPS:
     IOWA STATE UNIVERSITY:
          JOE IVANIC, AARON WEST, LAIMUTIS BYTAUTAS, KLAUS RUEDENBERG
     UNIVERSITY OF TOKYO: KIMIHIKO HIRAO, TAKAHITO NAKAJIMA,
          TAKAO TSUNEDA, MUNEAKI KAMIYA, SUSUMU YANAGISAWA,
          KIYOSHI YAGI, MAHITO CHIBA, SEIKEN TOKURA, NAOAKI KAWAKAMI
     UNIVERSITY OF AARHUS: FRANK JENSEN
     UNIVERSITY OF IOWA: VISVALDAS KAIRYS, HUI LI
     NATIONAL INST. OF STANDARDS AND TECHNOLOGY: WALT STEVENS, DAVID GARMER
     UNIVERSITY OF PISA: BENEDETTA MENNUCCI, JACOPO TOMASI
     UNIVERSITY OF MEMPHIS: HENRY KURTZ, PRAKASHAN KORAMBATH
     UNIVERSITY OF ALBERTA: TOBY ZENG, MARIUSZ KLOBUKOWSKI
     UNIVERSITY OF NEW ENGLAND: MARK SPACKMAN
     MIE UNIVERSITY: HIROAKI UMEDA
     NAT. INST. OF ADVANCED INDUSTRIAL SCIENCE AND TECHNOLOGY: KAZUO KITAURA
     MICHIGAN STATE UNIVERSITY:
          KAROL KOWALSKI, MARTA WLOCH, JEFFREY GOUR, JESSE LUTZ,
          WEI LI, PIOTR PIECUCH
     UNIVERSITY OF SILESIA: MONIKA MUSIAL, STANISLAW KUCHARSKI
     FACULTES UNIVERSITAIRES NOTRE-DAME DE LA PAIX:
          OLIVIER QUINET, BENOIT CHAMPAGNE
     UNIVERSITY OF CALIFORNIA - SANTA BARBARA: BERNARD KIRTMAN
     INSTITUTE FOR MOLECULAR SCIENCE:
          KAZUYA ISHIMURA, MICHIO KATOUDA, AND SHIGERU NAGASE
     UNIVERSITY OF NOTRE DAME: ANNA POMOGAEVA, DAN CHIPMAN
     KYUSHU UNIVERSITY:
          HARUYUKI NAKANO,
          FENG LONG GU, JACEK KORCHOWIEC, MARCIN MAKOWSKI, AND YURIKO AOKI,
          HIROTOSHI MORI AND EISAKU MIYOSHI
     PENNSYLVANIA STATE UNIVERSITY:
          TZVETELIN IORDANOV, CHET SWALINA, JONATHAN SKONE,
          SHARON HAMMES-SCHIFFER
     WASEDA UNIVERSITY:
          MASATO KOBAYASHI, TOMOKO AKAMA, TSUGUKI TOUMA,
          TAKESHI YOSHIKAWA, YASUHIRO IKABATA, JUNJI SEINO,
          YUYA NAKAJIMA, HIROMI NAKAI
     NANJING UNIVERSITY: SHUHUA LI
     UNIVERSITY OF NEBRASKA:
          PEIFENG SU, DEJUN SI, NANDUN THELLAMUREGE, YALI WANG, HUI LI
     UNIVERSITY OF ZURICH: ROBERTO PEVERATI, KIM BALDRIDGE
     N. COPERNICUS UNIVERSITY AND JACKSON STATE UNIVERSITY:
          MARIA BARYSZ
     UNIVERSITY OF COPENHAGEN: Jimmy Kromann, CASPER STEINMANN
     TOKYO INSTITUTE OF TECHNOLOGY: HIROYA NAKATA
     NAGOYA UNIVERSITY: YOSHIO NISHIMOTO, STEPHAN IRLE
     MOSCOW STATE UNIVERSITY: VLADIMIR MIRONOV

 EXECUTION OF GAMESS BEGUN Sun Sep 29 10:47:36 2019

            ECHO OF THE FIRST FEW INPUT CARDS -
 INPUT CARD> $BASIS GBASIS=PCSEG-1 $END                                                     
 INPUT CARD> $CONTRL COORD=ZMT ISPHER=1 RUNTYP=ENERGY DFTTYP=PBE MULT=1 $END                
 INPUT CARD>                                                                                
 INPUT CARD> $DATA                                                                          
 INPUT CARD>Title SO2 single-point calculation template with Z-Matrix                       
 INPUT CARD>C1                                                                              
 INPUT CARD>S                                                                               
 INPUT CARD>O 1 1.45                                                                        
 INPUT CARD>O 1 1.45 2 135                                                                  
 INPUT CARD> $END                                                                           
    1000000 WORDS OF MEMORY AVAILABLE

     BASIS OPTIONS
     -------------
     GBASIS=PCSEG-1      IGAUSS=       0      POLAR=NONE    
     NDFUNC=       0     NFFUNC=       0     DIFFSP=       F
     NPFUNC=       0      DIFFS=       F     BASNAM=        


     RUN TITLE
     ---------
 Title SO2 single-point calculation template with Z-Matrix                       

 THE POINT GROUP OF THE MOLECULE IS C1      
 THE ORDER OF THE PRINCIPAL AXIS IS     0

 YOUR FULLY SUBSTITUTED Z-MATRIX IS
 S   
 O      1   1.4500000
 O      1   1.4500000  2  135.0000

 THE MOMENTS OF INERTIA ARE (AMU-ANGSTROM**2)
 IXX=     4.924   IYY=    57.409   IZZ=    62.332

 ATOM      ATOMIC                      COORDINATES (BOHR)
           CHARGE         X                   Y                   Z
 S          16.0     0.0000000000       -0.5244414466        0.0000000000
 O           8.0     2.5315247851        0.5241504529        0.0000000000
 O           8.0    -2.5315247851        0.5241504529        0.0000000000

          INTERNUCLEAR DISTANCES (ANGS.)
          ------------------------------

                1 S          2 O          3 O     

   1 S       0.0000000    1.4500000 *  1.4500000 *
   2 O       1.4500000 *  0.0000000    2.6792506 *
   3 O       1.4500000 *  2.6792506 *  0.0000000  

  * ... LESS THAN  3.000


     ATOMIC BASIS SET
     ----------------
 THE CONTRACTED PRIMITIVE FUNCTIONS HAVE BEEN UNNORMALIZED
 THE CONTRACTED BASIS FUNCTIONS ARE NOW NORMALIZED TO UNITY

  SHELL TYPE  PRIMITIVE        EXPONENT          CONTRACTION COEFFICIENT(S)

 S         

      1   S       1         49299.4000000    0.000677492991
      1   S       2          7395.8400000    0.005232317766
      1   S       3          1683.3000000    0.026769459077
      1   S       4           476.1440000    0.102869580705
      1   S       5           154.3290000    0.286438127414
      1   S       6            55.0288000    0.454278639081
      1   S       7            20.5029000    0.271743121997

      2   S       8            45.9596000   -0.088421914560
      2   S       9             4.9274000    0.564350486135
      2   S      10             1.9179900    0.505415953466

      3   S      11             0.3684980    1.000000000000

      4   S      12             0.1291650    1.000000000000

      5   P      13           451.6620000    0.003707705453
      5   P      14           106.0980000    0.029219352245
      5   P      15            33.6996000    0.124444551509
      5   P      16            12.3054000    0.321808587656
      5   P      17             4.7141200    0.462822172957
      5   P      18             1.7810500    0.266513371364

      6   P      19             0.8722350    0.349265132972
      6   P      20             0.3102780    0.717115018770

      7   P      21             0.1001940    1.000000000000

      8   D      22             0.5500000    1.000000000000

 O         

      9   S      23          2288.6400000    0.005451138222
      9   S      24           344.4160000    0.040718922842
      9   S      25            78.2538000    0.181369420873
      9   S      26            21.7195000    0.465536820246
      9   S      27             6.5590700    0.451211321214

     10   S      28            10.4656000   -0.150211201174
     10   S      29             0.9643510    1.052867983385

     11   S      30             0.2851270    1.000000000000

     12   P      31            17.0590000    0.068749256972
     12   P      32             3.6899900    0.351671941499
     12   P      33             0.9929960    0.724532099722

     13   P      34             0.2449240    1.000000000000

     14   D      35             1.0000000    1.000000000000

 O         

     15   S      36          2288.6400000    0.005451138222
     15   S      37           344.4160000    0.040718922842
     15   S      38            78.2538000    0.181369420873
     15   S      39            21.7195000    0.465536820246
     15   S      40             6.5590700    0.451211321214

     16   S      41            10.4656000   -0.150211201174
     16   S      42             0.9643510    1.052867983385

     17   S      43             0.2851270    1.000000000000

     18   P      44            17.0590000    0.068749256972
     18   P      45             3.6899900    0.351671941499
     18   P      46             0.9929960    0.724532099722

     19   P      47             0.2449240    1.000000000000

     20   D      48             1.0000000    1.000000000000

 TOTAL NUMBER OF BASIS SET SHELLS             =   20
 NUMBER OF CARTESIAN GAUSSIAN BASIS FUNCTIONS =   49
 NOTE: THIS RUN WILL RESTRICT THE MO VARIATION SPACE TO SPHERICAL HARMONICS.
 THE NUMBER OF ORBITALS KEPT IN THE VARIATIONAL SPACE WILL BE PRINTED LATER.
 NUMBER OF ELECTRONS                          =   32
 CHARGE OF MOLECULE                           =    0
 SPIN MULTIPLICITY                            =    1
 NUMBER OF OCCUPIED ORBITALS (ALPHA)          =   16
 NUMBER OF OCCUPIED ORBITALS (BETA )          =   16
 TOTAL NUMBER OF ATOMS                        =    3
 THE NUCLEAR REPULSION ENERGY IS      106.0677588098

     LEBEDEV GRID-BASED DFT OPTIONS
     ------------------------------
     DFTTYP=PBE     
     NRAD  =      96     NLEB  =     302
     NRAD0 =      24     NLEB0 =     110
     SWOFF =    5.00E-03 (PURE SCF -> DFT)
     SWITCH=    3.00E-04 (COARSE -> TIGHT GRID)
     THRESH=    0.00E+00 GTHRE=    1.00E+00

 GRIMME'S EMPIRICAL DISPERSION CORRECTION= F

     $CONTRL OPTIONS
     ---------------
 SCFTYP=RHF          RUNTYP=ENERGY       EXETYP=RUN     
 MPLEVL=       0     CITYP =NONE         CCTYP =NONE         VBTYP =NONE    
 DFTTYP=PBE          TDDFT =NONE    
 MULT  =       1     ICHARG=       0     NZVAR =       0     COORD =ZMT     
 PP    =NONE         RELWFN=NONE         LOCAL =NONE         NUMGRD=       F
 ISPHER=       1     NOSYM =       0     MAXIT =      30     UNITS =ANGS    
 PLTORB=       F     MOLPLT=       F     AIMPAC=       F     FRIEND=        
 NPRINT=       7     IREST =       0     GEOM  =INPUT   
 NORMF =       0     NORMP =       0     ITOL  =      20     ICUT  =       9
 INTTYP=BEST         GRDTYP=BEST         QMTTOL= 1.0E-06

     $SYSTEM OPTIONS
     ---------------
  REPLICATED MEMORY=     1000000 WORDS (ON EVERY NODE).
 DISTRIBUTED MEMDDI=           0 MILLION WORDS IN AGGREGATE,
 MEMDDI DISTRIBUTED OVER   1 PROCESSORS IS           0 WORDS/PROCESSOR.
 TOTAL MEMORY REQUESTED ON EACH PROCESSOR=     1000000 WORDS.
 TIMLIM=      525600.00 MINUTES, OR     365.0 DAYS.
 PARALL= F  BALTYP=  DLB     KDIAG=    0  COREFL= F
 MXSEQ2=     300 MXSEQ3=     150  mem10=         0

          ----------------
          PROPERTIES INPUT
          ----------------

     MOMENTS            FIELD           POTENTIAL          DENSITY
 IEMOM =       1   IEFLD =       0   IEPOT =       0   IEDEN =       0
 WHERE =COMASS     WHERE =NUCLEI     WHERE =NUCLEI     WHERE =NUCLEI  
 OUTPUT=BOTH       OUTPUT=BOTH       OUTPUT=BOTH       OUTPUT=BOTH    
 IEMINT=       0   IEFINT=       0                     IEDINT=       0
                                                       MORB  =       0
          EXTRAPOLATION IN EFFECT
          DIIS IN EFFECT
 ORBITAL PRINTING OPTION: NPREO=     1    49     2     1

     -------------------------------
     INTEGRAL TRANSFORMATION OPTIONS
     -------------------------------
     NWORD  =            0
     CUTOFF = 1.0E-09     MPTRAN =       0
     DIRTRF =       F     AOINTS =DUP     

          ----------------------
          INTEGRAL INPUT OPTIONS
          ----------------------
 NOPK  =       1 NORDER=       0 SCHWRZ=       F

   --- ENCODED Z MATRIX ---
 COORD  TYPE   I   J   K   L   M   N
    1      1    2   1
    2      1    3   1
    3      2    3   1   2

 THE DETERMINANT OF THE G MATRIX IS 10**(    -4)

 THE DETERMINANT OF THE G MATRIX IS 10**(    -4)
 * * * WARNING * * *
 YOUR B MATRIX HAS A SMALL DETERMINANT.
 THIS SUGGESTS YOU MAY HAVE BADLY CHOSEN COORDINATES.

     ------------------------------------------
     THE POINT GROUP IS C1 , NAXIS= 0, ORDER= 1
     ------------------------------------------

 -- VARIATIONAL SPACE WILL BE RESTRICTED TO PURE SPHERICAL HARMONICS ONLY --
 AFTER EXCLUDING CONTAMINANT COMBINATIONS FROM THE CARTESIAN GAUSSIAN BASIS
 SET, THE NUMBER OF SPHERICAL HARMONICS KEPT IN THE VARIATION SPACE IS   46

     DIMENSIONS OF THE SYMMETRY SUBSPACES ARE
 A   =   46

 ..... DONE SETTING UP THE RUN .....
 STEP CPU TIME =     0.04 TOTAL CPU TIME =          0.0 (      0.0 MIN)
 TOTAL WALL CLOCK TIME=          0.0 SECONDS, CPU UTILIZATION IS    80.00%

          ********************
          1 ELECTRON INTEGRALS
          ********************
 ...... END OF ONE-ELECTRON INTEGRALS ......
 STEP CPU TIME =     0.01 TOTAL CPU TIME =          0.0 (      0.0 MIN)
 TOTAL WALL CLOCK TIME=          0.0 SECONDS, CPU UTILIZATION IS   100.00%

          -------------
          GUESS OPTIONS
          -------------
          GUESS =HUCKEL            NORB  =       0          NORDER=       0
          MIX   =       F          PRTMO =       F          PUNMO =       F
          TOLZ  = 1.0E-08          TOLE  = 1.0E-05
          SYMDEN=       F          PURIFY=       F

 INITIAL GUESS ORBITALS GENERATED BY HUCKEL   ROUTINE.
 HUCKEL GUESS REQUIRES     21634 WORDS.

 STATISTICS FOR GENERATION OF SYMMETRY ORBITAL -Q- MATRIX
 NUMBER OF CARTESIAN ATOMIC ORBITALS=         49
 NUMBER OF SPHERICAL CONTAMINANTS DROPPED=     3
 NUMBER OF LINEARLY DEPENDENT MOS DROPPED=     0
 TOTAL NUMBER OF MOS IN VARIATION SPACE=      46

 SYMMETRIES FOR INITIAL GUESS ORBITALS FOLLOW.   BOTH SET(S).
    16 ORBITALS ARE OCCUPIED (    7 CORE ORBITALS).
     8=A        9=A       10=A       11=A       12=A       13=A       14=A   
    15=A       16=A       17=A       18=A       19=A       20=A       21=A   
    22=A       23=A       24=A       25=A       26=A   
 ...... END OF INITIAL ORBITAL SELECTION ......
 STEP CPU TIME =     0.00 TOTAL CPU TIME =          0.0 (      0.0 MIN)
 TOTAL WALL CLOCK TIME=          0.1 SECONDS, CPU UTILIZATION IS    83.33%

                    ----------------------
                    AO INTEGRAL TECHNOLOGY
                    ----------------------
     S,P,L SHELL ROTATED AXIS INTEGRALS, REPROGRAMMED BY
        KAZUYA ISHIMURA (IMS) AND JOSE SIERRA (SYNSTAR).
     S,P,D,L SHELL ROTATED AXIS INTEGRALS PROGRAMMED BY
        KAZUYA ISHIMURA (INSTITUTE FOR MOLECULAR SCIENCE).
     S,P,D,F,G SHELL TO TOTAL QUARTET ANGULAR MOMENTUM SUM 5,
        ERIC PROGRAM BY GRAHAM FLETCHER (ELORET AND NASA ADVANCED
        SUPERCOMPUTING DIVISION, AMES RESEARCH CENTER).
     S,P,D,F,G,L SHELL GENERAL RYS QUADRATURE PROGRAMMED BY
        MICHEL DUPUIS (PACIFIC NORTHWEST NATIONAL LABORATORY).

          --------------------
          2 ELECTRON INTEGRALS
          --------------------

 THE -PK- OPTION IS OFF, THE INTEGRALS ARE NOT IN SUPERMATRIX FORM.
 STORING   15000 INTEGRALS/RECORD ON DISK, USING 12 BYTES/INTEGRAL.
 TWO ELECTRON INTEGRAL EVALUATION REQUIRES   90606 WORDS OF MEMORY.
 II,JST,KST,LST =  1  1  1  1 NREC =         1 INTLOC =    1
 II,JST,KST,LST =  2  1  1  1 NREC =         1 INTLOC =    2
 II,JST,KST,LST =  3  1  1  1 NREC =         1 INTLOC =    7
 II,JST,KST,LST =  4  1  1  1 NREC =         1 INTLOC =   22
 II,JST,KST,LST =  5  1  1  1 NREC =         1 INTLOC =   56
 II,JST,KST,LST =  6  1  1  1 NREC =         1 INTLOC =  125
 II,JST,KST,LST =  7  1  1  1 NREC =         1 INTLOC =  329
 II,JST,KST,LST =  8  1  1  1 NREC =         1 INTLOC =  776
 II,JST,KST,LST =  9  1  1  1 NREC =         1 INTLOC = 2864
 II,JST,KST,LST = 10  1  1  1 NREC =         1 INTLOC = 4983
 II,JST,KST,LST = 11  1  1  1 NREC =         1 INTLOC = 7649
 II,JST,KST,LST = 12  1  1  1 NREC =         1 INTLOC =10767
 II,JST,KST,LST = 13  1  1  1 NREC =         2 INTLOC = 6695
 II,JST,KST,LST = 14  1  1  1 NREC =         3 INTLOC = 6967
 II,JST,KST,LST = 15  1  1  1 NREC =         6 INTLOC = 8992
 II,JST,KST,LST = 16  1  1  1 NREC =         7 INTLOC = 1389
 II,JST,KST,LST = 17  1  1  1 NREC =         7 INTLOC =13009
 II,JST,KST,LST = 18  1  1  1 NREC =         8 INTLOC =11432
 II,JST,KST,LST = 19  1  1  1 NREC =        11 INTLOC = 6495
 II,JST,KST,LST = 20  1  1  1 NREC =        14 INTLOC =13633
 TOTAL NUMBER OF NONZERO TWO-ELECTRON INTEGRALS =              340528
         23 INTEGRAL RECORDS WERE STORED ON DISK FILE  8.
  ...... END OF TWO-ELECTRON INTEGRALS .....
 STEP CPU TIME =     0.10 TOTAL CPU TIME =          0.2 (      0.0 MIN)
 TOTAL WALL CLOCK TIME=          0.2 SECONDS, CPU UTILIZATION IS    93.75%

          --------------------------
               R-PBE SCF CALCULATION
          --------------------------

     NUCLEAR ENERGY =       106.0677588098
     MAXIT =   30     NPUNCH=    2
     EXTRAP=T  DAMP=F  SHIFT=F  RSTRCT=F  DIIS=T  DEM=F  SOSCF=F
         DENSITY MATRIX CONVERGENCE THRESHOLD=  1.00E-05
     COARSE -> FINE DFT GRID SWITCH THRESHOLD=  3.00E-04 (SWITCH IN $DFT)
                   HF -> DFT SWITCH THRESHOLD=  5.00E-03 (SWOFF IN $DFT)
     MEMORY REQUIRED FOR RHF ITERS=    183108 WORDS.

 DFT CODE IS SWITCHING FROM THE FINE GRID NRAD= 96,  NLEB=  302
                      TO THE COARSE GRID NRAD0= 24, NLEB0=  110

     EXCHANGE FUNCTIONAL   =PBE       
     CORRELATION FUNCTIONAL=PBE       
     DFT THRESHOLD         =.460E-07
     GRID CHANGE THRESHOLD =.300E-03
 FOR AN EULER-MACLAURIN QUADRATURE USING  96 RADIAL POINTS:
 SMALLEST GAUSSIAN PRIMITIVE EXPONENT=        0.1001940000 OF TYPE -P-
 ON ATOM NUMBER   1 HAS RADIAL NORMALIZATION=  1.000000
  LARGEST GAUSSIAN PRIMITIVE EXPONENT=    49299.4000000000 OF TYPE -S-
 ON ATOM NUMBER   1 HAS RADIAL NORMALIZATION=  1.000000
 DFT IS SWITCHED OFF, PERFORMING PURE SCF UNTIL SWOFF THRESHOLD IS REACHED.

 ITER EX DEM     TOTAL ENERGY        E CHANGE  DENSITY CHANGE    DIIS ERROR
   1  0  0     -546.0476868510  -546.0476868510   0.649672542   0.983833765
          * * *   INITIATING DIIS PROCEDURE   * * *
   2  1  0     -546.8540520932    -0.8063652421   0.499243031   0.249669614
   3  2  0     -546.9573508138    -0.1032987206   0.174423224   0.207124363
   4  3  0     -547.0837876129    -0.1264367991   0.033548288   0.013438722
   5  4  0     -547.0858839684    -0.0020963555   0.023921235   0.005926503
   6  5  0     -547.0863610169    -0.0004770485   0.010043800   0.002434103
   7  6  0     -547.0864577904    -0.0000967735   0.002266261   0.000558990
 CONVERGED TO SWOFF, SO DFT CALCULATION IS NOW SWITCHED ON.
          * * *   INITIATING DIIS PROCEDURE   * * *
   8  7  0     -548.2246945057    -1.1382367153   0.304688302   0.099754731
   9  8  0     -548.2378728678    -0.0131783621   0.255030108   0.079932397
  10  9  0     -548.2342882062     0.0035846616   0.102626176   0.086867205
  11 10  0     -548.2587875327    -0.0244993265   0.022471236   0.011932277
  12 11  0     -548.2592955500    -0.0005080173   0.001242214   0.000764951
  13 12  0     -548.2592971351    -0.0000015851   0.000357317   0.000130606
  14 13  0     -548.2592972058    -0.0000000707   0.000048289   0.000021087
 DFT CODE IS SWITCHING BACK TO THE FINE GRID
          * * *   INITIATING DIIS PROCEDURE   * * *
  15 14  0     -548.2327614788     0.0265357270   0.015304488   0.008824414
  16 15  0     -548.2330077496    -0.0002462709   0.004503497   0.002513852
  17 16  0     -548.2330090427    -0.0000012931   0.003888315   0.002690875
  18 17  0     -548.2330252967    -0.0000162539   0.001573666   0.001115536
  19 18  0     -548.2330285726    -0.0000032759   0.000490852   0.000464149
  20 19  0     -548.2330289457    -0.0000003731   0.000185881   0.000251844
  21 20  0     -548.2330291222    -0.0000001765   0.000019776   0.000005746
  22 21  0     -548.2330291223    -0.0000000002   0.000002965   0.000000937
  23 22  0     -548.2330291223    -0.0000000000   0.000000551   0.000000135

          -----------------
          DENSITY CONVERGED
          -----------------
     TIME TO FORM FOCK OPERATORS=       2.5 SECONDS (       0.1 SEC/ITER)
     TIME TO SOLVE SCF EQUATIONS=       0.0 SECONDS (       0.0 SEC/ITER)

 FINAL R-PBE ENERGY IS     -548.2330291223 AFTER  23 ITERATIONS
 DFT EXCHANGE + CORRELATION ENERGY =       -42.5270508019
 TOTAL ELECTRON NUMBER             =        32.0000098065

          ------------
          EIGENVECTORS
          ------------

                      1          2          3          4          5
                  -88.2228   -18.8098   -18.8098    -7.8375    -5.8641
                     A          A          A          A          A   
    1  S  1  S    0.997748  -0.000030  -0.000001  -0.308350  -0.000000
    2  S  1  S    0.008346   0.000127   0.000003   1.031556   0.000000
    3  S  1  S   -0.003403   0.000694   0.000014   0.028219  -0.000000
    4  S  1  S    0.000469   0.007685   0.000151  -0.005257  -0.000000
    5  S  1  X   -0.000000   0.000001  -0.000065  -0.000000   0.994357
    6  S  1  Y    0.000162  -0.000081  -0.000002   0.013419  -0.000000
    7  S  1  Z    0.000000   0.000000   0.000000   0.000000   0.000000
    8  S  1  X    0.000000   0.000029  -0.001487   0.000000   0.017862
    9  S  1  Y   -0.000480   0.001239   0.000024   0.001457  -0.000000
   10  S  1  Z    0.000000   0.000000   0.000000   0.000000   0.000000
   11  S  1  X    0.000000   0.000094  -0.004795   0.000000  -0.002326
   12  S  1  Y   -0.000041   0.002525   0.000050  -0.000255  -0.000000
   13  S  1  Z    0.000000   0.000000   0.000000   0.000000   0.000000
   14  S  1 XX   -0.000493  -0.000110  -0.000002   0.001116  -0.000000
   15  S  1 YY    0.000183   0.000271   0.000005  -0.000545   0.000000
   16  S  1 ZZ    0.000310  -0.000161  -0.000003  -0.000572   0.000000
   17  S  1 XY    0.000000  -0.000008   0.000381   0.000000   0.001620
   18  S  1 XZ    0.000000   0.000000   0.000000   0.000000   0.000000
   19  S  1 YZ    0.000000   0.000000   0.000000   0.000000   0.000000
   20  O  2  S   -0.000025   0.715978  -0.688330  -0.000152  -0.000570
   21  O  2  S   -0.000200   0.024608  -0.023509  -0.000133   0.000276
   22  O  2  S    0.000787  -0.012426   0.011489  -0.000682  -0.001166
   23  O  2  X   -0.000118  -0.001137   0.000930   0.000092  -0.000884
   24  O  2  Y   -0.000056  -0.000215   0.000444   0.000044  -0.000408
   25  O  2  Z    0.000000   0.000000   0.000000   0.000000   0.000000
   26  O  2  X   -0.000634   0.003280  -0.001550   0.001060   0.001110
   27  O  2  Y   -0.000265   0.000310  -0.001481   0.000505   0.000484
   28  O  2  Z    0.000000   0.000000   0.000000   0.000000   0.000000
   29  O  2 XX    0.000256  -0.000331  -0.000014   0.000261   0.000936
   30  O  2 YY   -0.000078   0.000187   0.000102  -0.000120  -0.000260
   31  O  2 ZZ   -0.000178   0.000144  -0.000088  -0.000141  -0.000676
   32  O  2 XY    0.000231  -0.000040   0.000192   0.000141   0.000921
   33  O  2 XZ    0.000000   0.000000   0.000000   0.000000   0.000000
   34  O  2 YZ    0.000000   0.000000   0.000000   0.000000   0.000000
   35  O  3  S   -0.000025   0.688342   0.715966  -0.000152   0.000570
   36  O  3  S   -0.000200   0.023664   0.024459  -0.000133  -0.000276
   37  O  3  S    0.000787  -0.011964  -0.011969  -0.000682   0.001166
   38  O  3  X    0.000118   0.001099   0.000974  -0.000092  -0.000884
   39  O  3  Y   -0.000056  -0.000197  -0.000452   0.000044   0.000408
   40  O  3  Z    0.000000   0.000000   0.000000   0.000000   0.000000
   41  O  3  X    0.000634  -0.003216  -0.001677  -0.001060   0.001110
   42  O  3  Y   -0.000265   0.000251   0.001492   0.000505  -0.000484
   43  O  3  Z    0.000000   0.000000   0.000000   0.000000   0.000000
   44  O  3 XX    0.000256  -0.000332   0.000001   0.000261  -0.000936
   45  O  3 YY   -0.000078   0.000191  -0.000094  -0.000120   0.000260
   46  O  3 ZZ   -0.000178   0.000141   0.000094  -0.000141   0.000676
   47  O  3 XY   -0.000231   0.000032   0.000193  -0.000141   0.000921
   48  O  3 XZ    0.000000   0.000000   0.000000   0.000000   0.000000
   49  O  3 YZ    0.000000   0.000000   0.000000   0.000000   0.000000

                      6          7          8          9         10
                   -5.8623    -5.8569    -1.0591    -0.9856    -0.5781
                     A          A          A          A          A   
    1  S  1  S    0.000000   0.004252   0.052370   0.000000   0.062846
    2  S  1  S    0.000000  -0.014676  -0.320303  -0.000000  -0.403016
    3  S  1  S    0.000000   0.000400   0.442659   0.000000   0.627664
    4  S  1  S    0.000000   0.000408   0.057597   0.000005   0.208644
    5  S  1  X    0.000000   0.000000  -0.000000   0.144455   0.000000
    6  S  1  Y    0.000000   0.994871  -0.053712  -0.000000   0.022821
    7  S  1  Z    0.994962   0.000000   0.000000   0.000000   0.000000
    8  S  1  X    0.000000   0.000000   0.000002  -0.320119  -0.000000
    9  S  1  Y    0.000000   0.015865   0.116046   0.000001  -0.048403
   10  S  1  Z    0.015929   0.000000   0.000000   0.000000   0.000000
   11  S  1  X    0.000000   0.000000   0.000003   0.016853  -0.000002
   12  S  1  Y    0.000000  -0.002742  -0.016133   0.000001  -0.035441
   13  S  1  Z   -0.003000   0.000000   0.000000   0.000000   0.000000
   14  S  1 XX    0.000000  -0.000531   0.063382   0.000001  -0.017350
   15  S  1 YY    0.000000   0.001116  -0.023101  -0.000000  -0.000474
   16  S  1 ZZ    0.000000  -0.000585  -0.040281  -0.000001   0.017823
   17  S  1 XY    0.000000   0.000000   0.000001  -0.071979  -0.000000
   18  S  1 XZ    0.000000   0.000000   0.000000   0.000000   0.000000
   19  S  1 YZ    0.000923   0.000000   0.000000   0.000000   0.000000
   20  O  2  S    0.000000  -0.000243  -0.135951   0.159324   0.116265
   21  O  2  S    0.000000   0.000160   0.275984  -0.329629  -0.248293
   22  O  2  S    0.000000  -0.000185   0.233352  -0.271809  -0.333093
   23  O  2  X    0.000000  -0.000505  -0.113533   0.107331  -0.176123
   24  O  2  Y    0.000000  -0.000199  -0.039870   0.044394  -0.085935
   25  O  2  Z    0.000000   0.000000   0.000000   0.000000   0.000000
   26  O  2  X    0.000000   0.000462  -0.033537   0.013475  -0.084702
   27  O  2  Y    0.000000  -0.000192  -0.007390   0.006634  -0.035412
   28  O  2  Z   -0.000238   0.000000   0.000000   0.000000   0.000000
   29  O  2 XX    0.000000   0.000491   0.012120  -0.007116   0.007683
   30  O  2 YY    0.000000  -0.000191  -0.006893   0.002959  -0.001346
   31  O  2 ZZ    0.000000  -0.000300  -0.005227   0.004157  -0.006337
   32  O  2 XY    0.000000   0.000424   0.005445  -0.007908   0.007695
   33  O  2 XZ   -0.000021   0.000000   0.000000   0.000000   0.000000
   34  O  2 YZ   -0.000041   0.000000   0.000000   0.000000   0.000000
   35  O  3  S    0.000000  -0.000243  -0.135951  -0.159324   0.116265
   36  O  3  S    0.000000   0.000160   0.275982   0.329631  -0.248294
   37  O  3  S    0.000000  -0.000185   0.233358   0.271801  -0.333095
   38  O  3  X    0.000000   0.000505   0.113533   0.107331   0.176123
   39  O  3  Y    0.000000  -0.000199  -0.039870  -0.044394  -0.085935
   40  O  3  Z    0.000000   0.000000   0.000000   0.000000   0.000000
   41  O  3  X    0.000000  -0.000462   0.033539   0.013471   0.084703
   42  O  3  Y    0.000000  -0.000192  -0.007391  -0.006633  -0.035412
   43  O  3  Z   -0.000238   0.000000   0.000000   0.000000   0.000000
   44  O  3 XX    0.000000   0.000491   0.012120   0.007115   0.007683
   45  O  3 YY    0.000000  -0.000191  -0.006893  -0.002959  -0.001346
   46  O  3 ZZ    0.000000  -0.000300  -0.005227  -0.004156  -0.006337
   47  O  3 XY    0.000000  -0.000424  -0.005445  -0.007908  -0.007695
   48  O  3 XZ    0.000021   0.000000   0.000000   0.000000   0.000000
   49  O  3 YZ   -0.000041   0.000000   0.000000   0.000000   0.000000

                     11         12         13         14         15
                   -0.4514    -0.4498    -0.4423    -0.3479    -0.3322
                     A          A          A          A          A   
    1  S  1  S    0.000000  -0.000000  -0.009246   0.000000  -0.000000
    2  S  1  S    0.000000   0.000000   0.058998   0.000000   0.000000
    3  S  1  S    0.000000  -0.000001  -0.076905   0.000000  -0.000000
    4  S  1  S    0.000000  -0.000001  -0.121410   0.000000   0.000002
    5  S  1  X    0.000000  -0.171691   0.000000   0.000000  -0.014552
    6  S  1  Y    0.000000  -0.000000  -0.202901   0.000000   0.000000
    7  S  1  Z   -0.211401   0.000000   0.000000  -0.000000   0.000000
    8  S  1  X    0.000000   0.465766  -0.000001   0.000000   0.032926
    9  S  1  Y    0.000000   0.000001   0.536272   0.000000  -0.000000
   10  S  1  Z    0.562570   0.000000   0.000000   0.000000   0.000000
   11  S  1  X    0.000000  -0.036814   0.000001   0.000000   0.078668
   12  S  1  Y    0.000000   0.000000   0.100010   0.000000   0.000001
   13  S  1  Z    0.120590   0.000000   0.000000  -0.000000   0.000000
   14  S  1 XX    0.000000  -0.000000  -0.050695   0.000000   0.000000
   15  S  1 YY    0.000000   0.000000   0.065946   0.000000  -0.000000
   16  S  1 ZZ    0.000000   0.000000  -0.015251   0.000000  -0.000000
   17  S  1 XY    0.000000   0.043300   0.000000   0.000000  -0.130632
   18  S  1 XZ    0.000000   0.000000   0.000000   0.136908   0.000000
   19  S  1 YZ    0.048517   0.000000   0.000000  -0.000000   0.000000
   20  O  2  S    0.000000   0.074742   0.020209   0.000000  -0.000790
   21  O  2  S    0.000000  -0.156230  -0.042892   0.000000   0.002334
   22  O  2  S    0.000000  -0.264773  -0.068205   0.000000  -0.013904
   23  O  2  X    0.000000  -0.331203  -0.218456   0.000000   0.255106
   24  O  2  Y    0.000000  -0.193268   0.235888   0.000000  -0.389025
   25  O  2  Z    0.313798   0.000000   0.000000   0.461757   0.000000
   26  O  2  X    0.000000  -0.146620  -0.127485   0.000000   0.160845
   27  O  2  Y    0.000000  -0.100981   0.143274   0.000000  -0.271872
   28  O  2  Z    0.183983   0.000000   0.000000   0.320984   0.000000
   29  O  2 XX    0.000000   0.009268   0.019484   0.000000  -0.011282
   30  O  2 YY    0.000000  -0.000474  -0.014315   0.000000   0.012404
   31  O  2 ZZ    0.000000  -0.008794  -0.005169   0.000000  -0.001122
   32  O  2 XY    0.000000   0.013954  -0.010358   0.000000   0.016788
   33  O  2 XZ   -0.022141   0.000000   0.000000  -0.019316   0.000000
   34  O  2 YZ   -0.008045   0.000000   0.000000  -0.007735   0.000000
   35  O  3  S    0.000000  -0.074742   0.020210   0.000000   0.000790
   36  O  3  S    0.000000   0.156228  -0.042894   0.000000  -0.002334
   37  O  3  S    0.000000   0.264774  -0.068206   0.000000   0.013903
   38  O  3  X    0.000000  -0.331201   0.218458   0.000000   0.255106
   39  O  3  Y    0.000000   0.193270   0.235887   0.000000   0.389025
   40  O  3  Z    0.313798   0.000000   0.000000  -0.461757   0.000000
   41  O  3  X    0.000000  -0.146617   0.127486   0.000000   0.160844
   42  O  3  Y    0.000000   0.100981   0.143273   0.000000   0.271871
   43  O  3  Z    0.183983   0.000000   0.000000  -0.320984   0.000000
   44  O  3 XX    0.000000  -0.009267   0.019484   0.000000   0.011282
   45  O  3 YY    0.000000   0.000474  -0.014315   0.000000  -0.012404
   46  O  3 ZZ    0.000000   0.008794  -0.005169   0.000000   0.001122
   47  O  3 XY    0.000000   0.013954   0.010357   0.000000   0.016788
   48  O  3 XZ    0.022141   0.000000   0.000000  -0.019316   0.000000
   49  O  3 YZ   -0.008045   0.000000   0.000000   0.007735   0.000000

                     16         17         18         19         20
                   -0.2674    -0.1556    -0.0377     0.0913     0.2079
                     A          A          A          A          A   
    1  S  1  S    0.026281   0.000000   0.021768  -0.000000   0.000000
    2  S  1  S   -0.170719   0.000000  -0.145837   0.000000   0.000000
    3  S  1  S    0.204131   0.000000   0.167593  -0.000004   0.000000
    4  S  1  S    0.560241   0.000000   0.744116  -0.000005   0.000000
    5  S  1  X   -0.000000   0.000000  -0.000000  -0.124558   0.000000
    6  S  1  Y    0.119102   0.000000  -0.186379  -0.000000   0.000000
    7  S  1  Z    0.000000  -0.230804   0.000000   0.000000   0.244972
    8  S  1  X    0.000000   0.000000   0.000001   0.394302   0.000000
    9  S  1  Y   -0.328743   0.000000   0.594120  -0.000001   0.000000
   10  S  1  Z    0.000000   0.692860   0.000000   0.000000  -0.966267
   11  S  1  X   -0.000001   0.000000  -0.000007   1.352582   0.000000
   12  S  1  Y   -0.042678   0.000000   0.559873   0.000000   0.000000
   13  S  1  Z    0.000000   0.343542   0.000000   0.000000   1.309502
   14  S  1 XX   -0.174711   0.000000  -0.165740  -0.000004   0.000000
   15  S  1 YY    0.090832   0.000000   0.006266   0.000001   0.000000
   16  S  1 ZZ    0.083879   0.000000   0.159474   0.000003   0.000000
   17  S  1 XY    0.000000   0.000000   0.000001  -0.182090   0.000000
   18  S  1 XZ    0.000000  -0.000000   0.000000   0.000000   0.000000
   19  S  1 YZ    0.000000  -0.047384   0.000000   0.000000  -0.088708
   20  O  2  S    0.010734   0.000000   0.048651   0.066630   0.000000
   21  O  2  S   -0.025975   0.000000  -0.109636  -0.123516   0.000000
   22  O  2  S   -0.081525   0.000000  -0.368211  -0.714149   0.000000
   23  O  2  X    0.174937   0.000000   0.340620   0.054324   0.000000
   24  O  2  Y    0.374513   0.000000  -0.157736   0.212473   0.000000
   25  O  2  Z    0.000000  -0.391104   0.000000   0.000000  -0.035739
   26  O  2  X    0.113273   0.000000   0.334216   0.107280   0.000000
   27  O  2  Y    0.269786   0.000000  -0.150580   0.225756   0.000000
   28  O  2  Z    0.000000  -0.333299   0.000000   0.000000  -0.115469
   29  O  2 XX   -0.001754   0.000000   0.000518  -0.005826   0.000000
   30  O  2 YY   -0.001174   0.000000  -0.003865   0.005835   0.000000
   31  O  2 ZZ    0.002928   0.000000   0.003348  -0.000009   0.000000
   32  O  2 XY   -0.008140   0.000000  -0.003366   0.000846   0.000000
   33  O  2 XZ    0.000000   0.001785   0.000000   0.000000   0.021722
   34  O  2 YZ    0.000000  -0.000835   0.000000   0.000000   0.006432
   35  O  3  S    0.010734   0.000000   0.048652  -0.066629   0.000000
   36  O  3  S   -0.025976   0.000000  -0.109639   0.123505   0.000000
   37  O  3  S   -0.081526   0.000000  -0.368215   0.714165   0.000000
   38  O  3  X   -0.174937   0.000000  -0.340621   0.054318   0.000000
   39  O  3  Y    0.374513   0.000000  -0.157735  -0.212474   0.000000
   40  O  3  Z    0.000000  -0.391104   0.000000   0.000000  -0.035739
   41  O  3  X   -0.113273   0.000000  -0.334213   0.107290   0.000000
   42  O  3  Y    0.269786   0.000000  -0.150578  -0.225760   0.000000
   43  O  3  Z    0.000000  -0.333299   0.000000   0.000000  -0.115469
   44  O  3 XX   -0.001754   0.000000   0.000518   0.005827   0.000000
   45  O  3 YY   -0.001174   0.000000  -0.003866  -0.005835   0.000000
   46  O  3 ZZ    0.002928   0.000000   0.003348   0.000009   0.000000
   47  O  3 XY    0.008140   0.000000   0.003366   0.000845   0.000000
   48  O  3 XZ    0.000000  -0.001785   0.000000   0.000000  -0.021722
   49  O  3 YZ    0.000000  -0.000835   0.000000   0.000000   0.006432

                     21         22         23         24         25
                    0.2215     0.2613     0.3429     0.5165     0.5225
                     A          A          A          A          A   
    1  S  1  S    0.016654  -0.068558  -0.000000   0.000000   0.002540
    2  S  1  S   -0.121796   0.499839   0.000002   0.000000  -0.018466
    3  S  1  S    0.417867  -1.846552  -0.000010   0.000000   0.038362
    4  S  1  S   -0.382534   2.179002  -0.000000   0.000000   0.121569
    5  S  1  X   -0.000000  -0.000002   0.299018   0.000000  -0.000000
    6  S  1  Y    0.247608   0.047057   0.000001   0.000000   0.013625
    7  S  1  Z    0.000000   0.000000   0.000000   0.023368   0.000000
    8  S  1  X    0.000002   0.000010  -1.132852   0.000000   0.000001
    9  S  1  Y   -0.970009  -0.154255  -0.000004   0.000000  -0.057881
   10  S  1  Z    0.000000   0.000000   0.000000  -0.102343   0.000000
   11  S  1  X   -0.000000  -0.000002   1.157345   0.000000   0.000001
   12  S  1  Y    1.255493   0.423619   0.000001   0.000000   0.137624
   13  S  1  Z    0.000000   0.000000   0.000000   0.121339   0.000000
   14  S  1 XX    0.127702   0.151259  -0.000003   0.000000  -0.059091
   15  S  1 YY   -0.117569  -0.085592   0.000000   0.000000   0.856293
   16  S  1 ZZ   -0.010133  -0.065667   0.000002   0.000000  -0.797202
   17  S  1 XY    0.000000   0.000001   0.379526   0.000000   0.000001
   18  S  1 XZ    0.000000   0.000000   0.000000  -0.000000   0.000000
   19  S  1 YZ    0.000000   0.000000   0.000000   0.964181   0.000000
   20  O  2  S    0.001630   0.015758  -0.007025   0.000000   0.010026
   21  O  2  S    0.020215   0.008909   0.080604   0.000000  -0.038307
   22  O  2  S   -0.110489  -0.498917  -0.303188   0.000000  -0.060368
   23  O  2  X   -0.053476  -0.198046  -0.256827   0.000000   0.083793
   24  O  2  Y   -0.020228  -0.101141  -0.184437   0.000000  -0.198781
   25  O  2  Z    0.000000   0.000000   0.000000  -0.192483   0.000000
   26  O  2  X   -0.005482   0.109195  -0.113642   0.000000   0.046467
   27  O  2  Y   -0.095253   0.019075  -0.071050   0.000000   0.069680
   28  O  2  Z    0.000000   0.000000   0.000000   0.037481   0.000000
   29  O  2 XX   -0.019333  -0.040545  -0.022564   0.000000   0.015262
   30  O  2 YY    0.014673   0.015529  -0.003976   0.000000   0.012633
   31  O  2 ZZ    0.004659   0.025016   0.026540   0.000000  -0.027895
   32  O  2 XY    0.012467  -0.026088  -0.042675   0.000000  -0.033620
   33  O  2 XZ    0.000000   0.000000   0.000000  -0.033452   0.000000
   34  O  2 YZ    0.000000   0.000000   0.000000   0.024947   0.000000
   35  O  3  S    0.001630   0.015758   0.007025   0.000000   0.010026
   36  O  3  S    0.020214   0.008902  -0.080610   0.000000  -0.038308
   37  O  3  S   -0.110487  -0.498903   0.303199   0.000000  -0.060365
   38  O  3  X    0.053476   0.198045  -0.256829   0.000000  -0.083793
   39  O  3  Y   -0.020229  -0.101142   0.184435   0.000000  -0.198781
   40  O  3  Z    0.000000   0.000000   0.000000  -0.192484   0.000000
   41  O  3  X    0.005484  -0.109183  -0.113631   0.000000  -0.046464
   42  O  3  Y   -0.095253   0.019071   0.071047   0.000000   0.069679
   43  O  3  Z    0.000000   0.000000   0.000000   0.037482   0.000000
   44  O  3 XX   -0.019332  -0.040545   0.022564   0.000000   0.015262
   45  O  3 YY    0.014673   0.015529   0.003976   0.000000   0.012633
   46  O  3 ZZ    0.004659   0.025016  -0.026540   0.000000  -0.027895
   47  O  3 XY   -0.012467   0.026088  -0.042675   0.000000   0.033620
   48  O  3 XZ    0.000000   0.000000   0.000000   0.033452   0.000000
   49  O  3 YZ    0.000000   0.000000   0.000000   0.024947   0.000000

                     26         27         28         29         30
                    0.5627     0.6420     0.6512     0.7611     0.8037
                     A          A          A          A          A   
    1  S  1  S    0.000000   0.023180  -0.000000   0.000000  -0.000000
    2  S  1  S    0.000000  -0.187761   0.000001   0.000000  -0.000000
    3  S  1  S    0.000000   0.841330  -0.000006   0.000000   0.000002
    4  S  1  S    0.000000   0.834703  -0.000017   0.000000   0.000003
    5  S  1  X    0.000000  -0.000002  -0.199178   0.000000   0.035473
    6  S  1  Y    0.000000  -0.083988   0.000001   0.000000  -0.000000
    7  S  1  Z    0.000000   0.000000   0.000000   0.000000   0.000000
    8  S  1  X    0.000000   0.000012   1.120908   0.000000  -0.238145
    9  S  1  Y    0.000000   0.490352  -0.000005   0.000000   0.000001
   10  S  1  Z   -0.000000   0.000000   0.000000  -0.000000   0.000000
   11  S  1  X    0.000000   0.000007   0.033985   0.000000   0.277179
   12  S  1  Y    0.000000   0.061637  -0.000003   0.000000  -0.000002
   13  S  1  Z    0.000000   0.000000   0.000000   0.000000   0.000000
   14  S  1 XX    0.000000   0.583310  -0.000005   0.000000   0.000000
   15  S  1 YY    0.000000  -0.225967   0.000002   0.000000  -0.000001
   16  S  1 ZZ    0.000000  -0.357343   0.000004   0.000000   0.000001
   17  S  1 XY    0.000000   0.000006   0.570009   0.000000  -0.272112
   18  S  1 XZ    0.887319   0.000000   0.000000  -0.498186   0.000000
   19  S  1 YZ    0.000000   0.000000   0.000000   0.000000   0.000000
   20  O  2  S    0.000000   0.067788   0.063364   0.000000   0.007302
   21  O  2  S    0.000000  -0.183598  -0.176515   0.000000  -0.122989
   22  O  2  S    0.000000  -0.514676  -0.447850   0.000000   0.156954
   23  O  2  X    0.000000  -0.336976  -0.136129   0.000000   0.263677
   24  O  2  Y    0.000000   0.004212  -0.244179   0.000000  -0.542552
   25  O  2  Z   -0.376748   0.000000   0.000000  -0.539859   0.000000
   26  O  2  X    0.000000   1.064099   0.929845   0.000000  -0.560689
   27  O  2  Y    0.000000   0.335551   0.499776   0.000000   0.651866
   28  O  2  Z    0.076092   0.000000   0.000000   0.804189   0.000000
   29  O  2 XX    0.000000   0.001440   0.037568   0.000000  -0.034743
   30  O  2 YY    0.000000   0.005425  -0.024052   0.000000   0.024704
   31  O  2 ZZ    0.000000  -0.006866  -0.013516   0.000000   0.010039
   32  O  2 XY    0.000000   0.010517   0.012109   0.000000   0.014118
   33  O  2 XZ   -0.052787   0.000000   0.000000   0.051152   0.000000
   34  O  2 YZ   -0.037607   0.000000   0.000000   0.028456   0.000000
   35  O  3  S    0.000000   0.067787  -0.063365   0.000000  -0.007301
   36  O  3  S    0.000000  -0.183599   0.176515   0.000000   0.122981
   37  O  3  S    0.000000  -0.514655   0.447868   0.000000  -0.156949
   38  O  3  X    0.000000   0.336963  -0.136141   0.000000   0.263683
   39  O  3  Y    0.000000   0.004213   0.244183   0.000000   0.542545
   40  O  3  Z    0.376748   0.000000   0.000000   0.539859   0.000000
   41  O  3  X    0.000000  -1.064066   0.929874   0.000000  -0.560698
   42  O  3  Y    0.000000   0.335543  -0.499786   0.000000  -0.651855
   43  O  3  Z   -0.076092   0.000000   0.000000  -0.804189   0.000000
   44  O  3 XX    0.000000   0.001440  -0.037568   0.000000   0.034743
   45  O  3 YY    0.000000   0.005426   0.024052   0.000000  -0.024704
   46  O  3 ZZ    0.000000  -0.006865   0.013516   0.000000  -0.010039
   47  O  3 XY    0.000000  -0.010517   0.012109   0.000000   0.014118
   48  O  3 XZ   -0.052787   0.000000   0.000000   0.051151   0.000000
   49  O  3 YZ    0.037607   0.000000   0.000000  -0.028456   0.000000

                     31         32         33         34         35
                    0.8244     0.8613     0.9724     1.0445     1.4547
                     A          A          A          A          A   
    1  S  1  S    0.005443   0.000000  -0.000000   0.008833  -0.000000
    2  S  1  S   -0.046898   0.000000   0.000000  -0.051499   0.000002
    3  S  1  S    0.264868   0.000000   0.000001  -0.245013  -0.000000
    4  S  1  S    0.030897   0.000000  -0.000010   0.630816  -0.000111
    5  S  1  X   -0.000000   0.000000  -0.112056  -0.000000  -0.065294
    6  S  1  Y   -0.007667   0.000000   0.000000  -0.070556   0.000003
    7  S  1  Z    0.000000   0.004308   0.000000   0.000000   0.000000
    8  S  1  X    0.000001   0.000000   0.252539   0.000003   0.578672
    9  S  1  Y    0.032303   0.000000  -0.000002   0.234211  -0.000020
   10  S  1  Z    0.000000  -0.062592   0.000000   0.000000   0.000000
   11  S  1  X   -0.000001   0.000000   0.284686   0.000009   1.153549
   12  S  1  Y   -0.596743   0.000000  -0.000004   0.047742  -0.000036
   13  S  1  Z    0.000000  -0.651496   0.000000   0.000000   0.000000
   14  S  1 XX    0.240872   0.000000  -0.000004   0.996949  -0.000020
   15  S  1 YY   -0.347562   0.000000   0.000001  -0.375935   0.000004
   16  S  1 ZZ    0.106690   0.000000   0.000003  -0.621013   0.000017
   17  S  1 XY    0.000001   0.000000   0.817630   0.000002   0.157960
   18  S  1 XZ    0.000000  -0.000000   0.000000   0.000000   0.000000
   19  S  1 YZ    0.000000  -0.262570   0.000000   0.000000   0.000000
   20  O  2  S   -0.010727   0.000000   0.030913   0.035796  -0.075430
   21  O  2  S    0.138387   0.000000  -0.117608  -0.110607   1.262864
   22  O  2  S   -0.142456   0.000000  -0.279170  -0.390280  -2.103805
   23  O  2  X    0.181445   0.000000   0.597040   0.500191   0.054949
   24  O  2  Y   -0.551764   0.000000   0.153560   0.286792  -0.090033
   25  O  2  Z    0.000000  -0.612301   0.000000   0.000000   0.000000
   26  O  2  X   -0.139055   0.000000  -0.346024  -0.191542   0.311159
   27  O  2  Y    0.925455   0.000000  -0.188695  -0.027480   0.404646
   28  O  2  Z    0.000000   0.962152   0.000000   0.000000   0.000000
   29  O  2 XX   -0.015530   0.000000   0.053620  -0.051788   0.079755
   30  O  2 YY    0.015155   0.000000  -0.072099   0.070907  -0.007181
   31  O  2 ZZ    0.000376   0.000000   0.018479  -0.019120  -0.072574
   32  O  2 XY    0.042424   0.000000  -0.050988   0.049742   0.120326
   33  O  2 XZ    0.000000   0.045741   0.000000   0.000000   0.000000
   34  O  2 YZ    0.000000   0.006146   0.000000   0.000000   0.000000
   35  O  3  S   -0.010727   0.000000  -0.030912   0.035797   0.075437
   36  O  3  S    0.138388   0.000000   0.117590  -0.110625  -1.262998
   37  O  3  S   -0.142456   0.000000   0.279197  -0.390250   2.104044
   38  O  3  X   -0.181449   0.000000   0.597045  -0.500183   0.054948
   39  O  3  Y   -0.551768   0.000000  -0.153565   0.286794   0.090020
   40  O  3  Z    0.000000  -0.612301   0.000000   0.000000   0.000000
   41  O  3  X    0.139062   0.000000  -0.346023   0.191536   0.311238
   42  O  3  Y    0.925459   0.000000   0.188700  -0.027485  -0.404644
   43  O  3  Z    0.000000   0.962152   0.000000   0.000000   0.000000
   44  O  3 XX   -0.015531   0.000000  -0.053620  -0.051787  -0.079771
   45  O  3 YY    0.015155   0.000000   0.072098   0.070907   0.007187
   46  O  3 ZZ    0.000376   0.000000  -0.018479  -0.019120   0.072584
   47  O  3 XY   -0.042424   0.000000  -0.050989  -0.049742   0.120332
   48  O  3 XZ    0.000000  -0.045741   0.000000   0.000000   0.000000
   49  O  3 YZ    0.000000   0.006146   0.000000   0.000000   0.000000

                     36         37         38         39         40
                    1.4738     2.0483     2.0487     2.0633     2.0775
                     A          A          A          A          A   
    1  S  1  S   -0.003326   0.000000  -0.000000   0.000000  -0.000843
    2  S  1  S    0.039482   0.000000   0.000000   0.000000   0.008892
    3  S  1  S   -0.097525   0.000000  -0.000000   0.000000  -0.056797
    4  S  1  S   -1.841088   0.000000   0.000000   0.000000   0.020089
    5  S  1  X    0.000004   0.000000  -0.001888   0.000000  -0.000000
    6  S  1  Y    0.040545   0.000000   0.000000   0.000000   0.005839
    7  S  1  Z    0.000000  -0.000000   0.000000  -0.027170   0.000000
    8  S  1  X   -0.000031   0.000000  -0.002891   0.000000   0.000000
    9  S  1  Y   -0.330522   0.000000  -0.000000   0.000000  -0.033068
   10  S  1  Z    0.000000   0.000000   0.000000   0.105315   0.000000
   11  S  1  X   -0.000072   0.000000   0.023248   0.000000  -0.000001
   12  S  1  Y   -0.614357   0.000000   0.000000   0.000000   0.011531
   13  S  1  Z    0.000000  -0.000000   0.000000   0.000072   0.000000
   14  S  1 XX   -0.241227   0.000000   0.000000   0.000000   0.059717
   15  S  1 YY    0.026382   0.000000   0.000000   0.000000   0.071924
   16  S  1 ZZ    0.214844   0.000000  -0.000000   0.000000  -0.131641
   17  S  1 XY   -0.000013   0.000000  -0.032829   0.000000  -0.000000
   18  S  1 XZ    0.000000   0.028233   0.000000  -0.000000   0.000000
   19  S  1 YZ    0.000000  -0.000000   0.000000  -0.048967   0.000000
   20  O  2  S    0.070399   0.000000  -0.000794   0.000000   0.003914
   21  O  2  S   -1.249840   0.000000   0.006966   0.000000  -0.036846
   22  O  2  S    2.117346   0.000000  -0.008174   0.000000   0.019911
   23  O  2  X    0.057183   0.000000   0.009341   0.000000   0.030957
   24  O  2  Y   -0.083879   0.000000  -0.013785   0.000000   0.008680
   25  O  2  Z    0.000000   0.008605   0.000000   0.022086   0.000000
   26  O  2  X   -0.727891   0.000000  -0.024053   0.000000  -0.030356
   27  O  2  Y    0.005357   0.000000   0.019216   0.000000  -0.007178
   28  O  2  Z    0.000000  -0.014289   0.000000  -0.035884   0.000000
   29  O  2 XX   -0.162612   0.000000   0.191407   0.000000  -0.028924
   30  O  2 YY    0.081614   0.000000   0.417996   0.000000  -0.564910
   31  O  2 ZZ    0.080998   0.000000  -0.609403   0.000000   0.593834
   32  O  2 XY   -0.042682   0.000000  -0.334820   0.000000   0.228418
   33  O  2 XZ    0.000000   0.377086   0.000000  -0.015455   0.000000
   34  O  2 YZ    0.000000  -0.598502   0.000000   0.708655   0.000000
   35  O  3  S    0.070391   0.000000   0.000794   0.000000   0.003914
   36  O  3  S   -1.249707   0.000000  -0.006966   0.000000  -0.036845
   37  O  3  S    2.117111   0.000000   0.008174   0.000000   0.019910
   38  O  3  X   -0.057196   0.000000   0.009341   0.000000  -0.030958
   39  O  3  Y   -0.083890   0.000000   0.013785   0.000000   0.008679
   40  O  3  Z    0.000000  -0.008605   0.000000   0.022086   0.000000
   41  O  3  X    0.727864   0.000000  -0.024053   0.000000   0.030356
   42  O  3  Y    0.005404   0.000000  -0.019216   0.000000  -0.007177
   43  O  3  Z    0.000000   0.014289   0.000000  -0.035884   0.000000
   44  O  3 XX   -0.162601   0.000000  -0.191407   0.000000  -0.028924
   45  O  3 YY    0.081611   0.000000  -0.417997   0.000000  -0.564909
   46  O  3 ZZ    0.080990   0.000000   0.609404   0.000000   0.593833
   47  O  3 XY    0.042670   0.000000  -0.334820   0.000000  -0.228418
   48  O  3 XZ    0.000000   0.377086   0.000000   0.015454   0.000000
   49  O  3 YZ    0.000000   0.598504   0.000000   0.708654   0.000000

                     41         42         43         44         45
                    2.1809     2.2331     2.3546     2.3551     2.7927
                     A          A          A          A          A   
    1  S  1  S    0.000000   0.000000  -0.005157   0.000000  -0.040951
    2  S  1  S    0.000000  -0.000000   0.050036   0.000000   0.354672
    3  S  1  S    0.000000   0.000001  -0.223830   0.000000  -1.208812
    4  S  1  S    0.000000  -0.000001  -0.264391   0.000000  -0.942071
    5  S  1  X    0.000000  -0.042257  -0.000000   0.000000  -0.000000
    6  S  1  Y    0.000000  -0.000000   0.083889   0.000000   0.090431
    7  S  1  Z    0.072131   0.000000   0.000000  -0.000000   0.000000
    8  S  1  X    0.000000   0.271359   0.000002   0.000000   0.000001
    9  S  1  Y    0.000000   0.000000  -0.389522   0.000000  -0.605101
   10  S  1  Z   -0.280272   0.000000   0.000000   0.000000   0.000000
   11  S  1  X    0.000000   0.043247  -0.000002   0.000000  -0.000003
   12  S  1  Y    0.000000  -0.000000  -0.159921   0.000000  -0.087050
   13  S  1  Z   -0.062475   0.000000   0.000000  -0.000000   0.000000
   14  S  1 XX    0.000000  -0.000000   0.311388   0.000000  -0.805215
   15  S  1 YY    0.000000   0.000000  -0.361307   0.000000   0.334849
   16  S  1 ZZ    0.000000   0.000000   0.049918   0.000000   0.470366
   17  S  1 XY    0.000000  -0.403591  -0.000000   0.000000  -0.000001
   18  S  1 XZ    0.000000   0.000000   0.000000   0.551755   0.000000
   19  S  1 YZ   -0.252099   0.000000   0.000000   0.000000   0.000000
   20  O  2  S    0.000000  -0.012787   0.014543   0.000000  -0.005721
   21  O  2  S    0.000000   0.192112  -0.272284   0.000000  -0.508563
   22  O  2  S    0.000000  -0.235989   0.414785   0.000000   1.358701
   23  O  2  X    0.000000  -0.070480   0.105288   0.000000  -0.068230
   24  O  2  Y    0.000000  -0.076165  -0.018124   0.000000  -0.042082
   25  O  2  Z   -0.063582   0.000000   0.000000   0.029070   0.000000
   26  O  2  X    0.000000   0.079074  -0.286862   0.000000  -0.739221
   27  O  2  Y    0.000000   0.192140   0.138253   0.000000  -0.328385
   28  O  2  Z    0.163899   0.000000   0.000000  -0.175744   0.000000
   29  O  2 XX    0.000000   0.343748   0.553847   0.000000   0.554880
   30  O  2 YY    0.000000  -0.509765  -0.430344   0.000000  -0.111978
   31  O  2 ZZ    0.000000   0.166018  -0.123503   0.000000  -0.442902
   32  O  2 XY    0.000000  -0.508644  -0.457161   0.000000   0.632200
   33  O  2 XZ   -0.730140   0.000000   0.000000   0.643673   0.000000
   34  O  2 YZ   -0.025731   0.000000   0.000000   0.395869   0.000000
   35  O  3  S    0.000000   0.012787   0.014543   0.000000  -0.005721
   36  O  3  S    0.000000  -0.192112  -0.272283   0.000000  -0.508564
   37  O  3  S    0.000000   0.235990   0.414784   0.000000   1.358700
   38  O  3  X    0.000000  -0.070480  -0.105289   0.000000   0.068229
   39  O  3  Y    0.000000   0.076165  -0.018124   0.000000  -0.042082
   40  O  3  Z   -0.063582   0.000000   0.000000  -0.029070   0.000000
   41  O  3  X    0.000000   0.079073   0.286863   0.000000   0.739224
   42  O  3  Y    0.000000  -0.192140   0.138253   0.000000  -0.328385
   43  O  3  Z    0.163899   0.000000   0.000000   0.175744   0.000000
   44  O  3 XX    0.000000  -0.343749   0.553849   0.000000   0.554880
   45  O  3 YY    0.000000   0.509766  -0.430345   0.000000  -0.111977
   46  O  3 ZZ    0.000000  -0.166017  -0.123505   0.000000  -0.442903
   47  O  3 XY    0.000000  -0.508643   0.457159   0.000000  -0.632201
   48  O  3 XZ    0.730140   0.000000   0.000000   0.643672   0.000000
   49  O  3 YZ   -0.025731   0.000000   0.000000  -0.395869   0.000000

                     46
                    2.8513
                     A   
    1  S  1  S    0.000000
    2  S  1  S   -0.000000
    3  S  1  S    0.000002
    4  S  1  S   -0.000001
    5  S  1  X   -0.249105
    6  S  1  Y   -0.000000
    7  S  1  Z    0.000000
    8  S  1  X    1.564408
    9  S  1  Y    0.000001
   10  S  1  Z    0.000000
   11  S  1  X    0.164260
   12  S  1  Y   -0.000000
   13  S  1  Z    0.000000
   14  S  1 XX   -0.000001
   15  S  1 YY    0.000001
   16  S  1 ZZ    0.000001
   17  S  1 XY    0.622063
   18  S  1 XZ    0.000000
   19  S  1 YZ    0.000000
   20  O  2  S    0.007048
   21  O  2  S    0.447215
   22  O  2  S   -1.254133
   23  O  2  X    0.076539
   24  O  2  Y    0.017039
   25  O  2  Z    0.000000
   26  O  2  X    0.737490
   27  O  2  Y    0.293659
   28  O  2  Z    0.000000
   29  O  2 XX   -0.734457
   30  O  2 YY    0.344881
   31  O  2 ZZ    0.389576
   32  O  2 XY   -0.443415
   33  O  2 XZ    0.000000
   34  O  2 YZ    0.000000
   35  O  3  S   -0.007048
   36  O  3  S   -0.447212
   37  O  3  S    1.254130
   38  O  3  X    0.076540
   39  O  3  Y   -0.017039
   40  O  3  Z    0.000000
   41  O  3  X    0.737489
   42  O  3  Y   -0.293659
   43  O  3  Z    0.000000
   44  O  3 XX    0.734456
   45  O  3 YY   -0.344880
   46  O  3 ZZ   -0.389576
   47  O  3 XY   -0.443416
   48  O  3 XZ    0.000000
   49  O  3 YZ    0.000000
 ...... END OF RHF CALCULATION ......
 STEP CPU TIME =     2.52 TOTAL CPU TIME =          2.7 (      0.0 MIN)
 TOTAL WALL CLOCK TIME=          2.7 SECONDS, CPU UTILIZATION IS    98.52%

     ---------------------------------------------------------------------
     PROPERTIES FOR THE PBE      DFT FUNCTIONAL (RHF  TYPE) DENSITY MATRIX
     ---------------------------------------------------------------------

          -----------------
          ENERGY COMPONENTS
          -----------------

         WAVEFUNCTION NORMALIZATION =       1.0000000000

                ONE ELECTRON ENERGY =    -966.0514971496
                TWO ELECTRON ENERGY =     311.7507092174
           NUCLEAR REPULSION ENERGY =     106.0677588098
                                      ------------------
                       TOTAL ENERGY =    -548.2330291223

 ELECTRON-ELECTRON POTENTIAL ENERGY =     311.7507092174
  NUCLEUS-ELECTRON POTENTIAL ENERGY =   -1513.6164480210
   NUCLEUS-NUCLEUS POTENTIAL ENERGY =     106.0677588098
                                      ------------------
             TOTAL POTENTIAL ENERGY =   -1095.7979799938
               TOTAL KINETIC ENERGY =     547.5649508715
                 VIRIAL RATIO (V/T) =       2.0012200895

          ---------------------------------------
          MULLIKEN AND LOWDIN POPULATION ANALYSES
          ---------------------------------------

     ATOMIC MULLIKEN POPULATION IN EACH MOLECULAR ORBITAL

                      1          2          3          4          5

                  2.000000   2.000000   2.000000   2.000000   2.000000

    1             1.999902   0.001177   0.001049   2.001085   2.000205
    2             0.000049   1.038734   0.960153  -0.000542  -0.000103
    3             0.000049   0.960090   1.038797  -0.000542  -0.000103

                      6          7          8          9         10

                  2.000000   2.000000   2.000000   2.000000   2.000000

    1             2.000030   2.000027   0.712102   0.458082   0.809905
    2            -0.000015  -0.000013   0.643945   0.770963   0.595045
    3            -0.000015  -0.000013   0.643953   0.770955   0.595049

                     11         12         13         14         15

                  2.000000   2.000000   2.000000   2.000000   2.000000

    1             1.000478   0.391486   0.937647   0.117812   0.142771
    2             0.499761   0.804259   0.531175   0.941094   0.928615
    3             0.499761   0.804255   0.531178   0.941093   0.928614

                     16

                  2.000000

    1             0.849959
    2             0.575021
    3             0.575020

               ----- POPULATIONS IN EACH AO -----
                             MULLIKEN      LOWDIN
              1  S  1  S      1.99980     1.99923
              2  S  1  S      1.99198     1.88320
              3  S  1  S      1.28575     0.63871
              4  S  1  S      0.64219     0.50517
              5  S  1  X      1.99424     1.95797
              6  S  1  Y      1.99502     1.96632
              7  S  1  Z      1.99376     1.95944
              8  S  1  X      0.83173     0.66505
              9  S  1  Y      1.01741     0.93154
             10  S  1  Z      0.83165     0.73454
             11  S  1  X      0.02064     0.19000
             12  S  1  Y      0.13284     0.27180
             13  S  1  Z      0.16291     0.27369
             14  S  1 XX      0.05645     0.36481
             15  S  1 YY      0.19036     0.31835
             16  S  1 ZZ      0.14698     0.30490
             17  S  1 XY      0.11781     0.16917
             18  S  1 XZ      0.01218     0.14296
             19  S  1 YZ      0.00000     0.01175
             20  O  2  S      1.99550     1.97262
             21  O  2  S      0.95120     0.69170
             22  O  2  S      0.89731     0.51406
             23  O  2  X      0.90090     0.86069
             24  O  2  Y      1.08165     1.04965
             25  O  2  Z      0.86668     0.82671
             26  O  2  X      0.38506     0.53810
             27  O  2  Y      0.62016     0.67091
             28  O  2  Z      0.56687     0.60234
             29  O  2 XX      0.00222     0.21160
             30  O  2 YY      0.00708     0.19640
             31  O  2 ZZ      0.00622     0.19960
             32  O  2 XY      0.00632     0.01155
             33  O  2 XZ      0.00097     0.00848
             34  O  2 YZ      0.00000     0.00128
             35  O  3  S      1.99550     1.97262
             36  O  3  S      0.95120     0.69170
             37  O  3  S      0.89731     0.51406
             38  O  3  X      0.90090     0.86069
             39  O  3  Y      1.08165     1.04965
             40  O  3  Z      0.86668     0.82671
             41  O  3  X      0.38506     0.53810
             42  O  3  Y      0.62016     0.67091
             43  O  3  Z      0.56687     0.60234
             44  O  3 XX      0.00222     0.21160
             45  O  3 YY      0.00708     0.19640
             46  O  3 ZZ      0.00622     0.19960
             47  O  3 XY      0.00632     0.01155
             48  O  3 XZ      0.00097     0.00848
             49  O  3 YZ      0.00000     0.00128

          ----- MULLIKEN ATOMIC OVERLAP POPULATIONS -----
          (OFF-DIAGONAL ELEMENTS NEED TO BE MULTIPLIED BY 2)

             1           2           3

    1   14.8023927
    2    0.3106630   7.9832774
    3    0.3106630  -0.0057994   7.9832768

          TOTAL MULLIKEN AND LOWDIN ATOMIC POPULATIONS
       ATOM         MULL.POP.    CHARGE          LOW.POP.     CHARGE
    1 S            15.423719    0.576281        15.288626    0.711374
    2 O             8.288141   -0.288141         8.355687   -0.355687
    3 O             8.288140   -0.288140         8.355687   -0.355687

          MULLIKEN SPHERICAL HARMONIC POPULATIONS
       ATOM           S       P       D      F      G      H      I    TOTAL
    1 S             5.92    8.98    0.52   0.00   0.00   0.00   0.00   15.42
    2 O             3.84    4.42    0.02   0.00   0.00   0.00   0.00    8.29
    3 O             3.84    4.42    0.02   0.00   0.00   0.00   0.00    8.29

          -------------------------------
          BOND ORDER AND VALENCE ANALYSIS     BOND ORDER THRESHOLD=0.050
          -------------------------------

                   BOND                       BOND                       BOND
  ATOM PAIR DIST  ORDER      ATOM PAIR DIST  ORDER      ATOM PAIR DIST  ORDER
    1   2  1.450  1.906        1   3  1.450  1.906        2   3  2.679  0.259

                       TOTAL       BONDED        FREE
      ATOM            VALENCE     VALENCE     VALENCE
    1 S                 3.812       3.812       0.000
    2 O                 2.165       2.165      -0.000
    3 O                 2.165       2.165       0.000

          ---------------------
          ELECTROSTATIC MOMENTS
          ---------------------

 POINT   1           X           Y           Z (BOHR)    CHARGE
                 0.000000   -0.000000    0.000000        0.00 (A.U.)
         DX          DY          DZ         /D/  (DEBYE)
    -0.000001   -0.854202    0.000000    0.854202
 ...... END OF PROPERTY EVALUATION ......
 STEP CPU TIME =     0.00 TOTAL CPU TIME =          2.7 (      0.0 MIN)
 TOTAL WALL CLOCK TIME=          2.7 SECONDS, CPU UTILIZATION IS    98.52%
                580000  WORDS OF DYNAMIC MEMORY USED
 EXECUTION OF GAMESS TERMINATED NORMALLY Sun Sep 29 10:47:39 2019
 DDI: 263640 bytes (0.3 MB / 0 MWords) used by master data server.

 ----------------------------------------
 CPU timing information for all processes
 ========================================
 0: 2.602 + 0.72 = 2.675
 ----------------------------------------
 ddikick.x: exited gracefully.
----- accounting info -----
Files used on the master node crcfe02.crc.nd.edu were:
-rw-r--r-- 1 cdrisko campus     208 Sep 29 10:47 /afs/crc.nd.edu/user/c/cdrisko/SO2.F05
-rw-r--r-- 1 cdrisko campus   37566 Sep 29 10:47 /afs/crc.nd.edu/user/c/cdrisko/SO2.F07
-rw-r--r-- 1 cdrisko campus 4140368 Sep 29 10:47 /afs/crc.nd.edu/user/c/cdrisko/SO2.F08
-rw-r--r-- 1 cdrisko campus 1766880 Sep 29 10:47 /afs/crc.nd.edu/user/c/cdrisko/SO2.F10
Sun Sep 29 10:47:42 EDT 2019
0.439u 0.236s 0:06.35 10.3%	0+0k 0+24io 0pf+0w
