----- GAMESS execution script 'rungms' -----
This job is running on host crcfe02.crc.nd.edu
under operating system Linux at Fri Oct 18 09:36:12 EDT 2019
Available scratch disk space (Kbyte units) at beginning of the job is
Filesystem      1K-blocks  Used  Available Use% Mounted on
AFS            2147483647     0 2147483647   0% /afs
GAMESS temporary binary files will be written to /afs/crc.nd.edu/user/c/cdrisko
GAMESS supplementary output files will be written to /afs/crc.nd.edu/user/c/cdrisko/scr
Copying input file acetaldehyde-F_vib.inp to your run's scratch directory...

 Distributed Data Interface kickoff program.
 Initiating 1 compute processes on 1 nodes to run the following command:
 /afs/crc.nd.edu/x86_64_linux/g/gamess/nov-2017/gamess/gamess.00.x acetaldehyde-F_vib 

          ******************************************************
          *         GAMESS VERSION = 11 NOV 2017 (R3)         *
          *             FROM IOWA STATE UNIVERSITY             *
          * M.W.SCHMIDT, K.K.BALDRIDGE, J.A.BOATZ, S.T.ELBERT, *
          *   M.S.GORDON, J.H.JENSEN, S.KOSEKI, N.MATSUNAGA,   *
          *          K.A.NGUYEN, S.J.SU, T.L.WINDUS,           *
          *       TOGETHER WITH M.DUPUIS, J.A.MONTGOMERY       *
          *         J.COMPUT.CHEM.  14, 1347-1363(1993)        *
          **************** 64 BIT INTEL VERSION ****************

  SINCE 1993, STUDENTS AND POSTDOCS WORKING AT IOWA STATE UNIVERSITY
  AND ALSO IN THEIR VARIOUS JOBS AFTER LEAVING ISU HAVE MADE IMPORTANT
  CONTRIBUTIONS TO THE CODE:
     IVANA ADAMOVIC, CHRISTINE AIKENS, YURI ALEXEEV, POOJA ARORA,
     ANDREY ASADCHEV, ROB BELL, PRADIPTA BANDYOPADHYAY, JONATHAN BENTZ,
     BRETT BODE, KURT BRORSEN, CALEB CARLIN, GALINA CHABAN, WEI CHEN,
     CHEOL HO CHOI, PAUL DAY, ALBERT DEFUSCO, NUWAN DESILVA, TIM DUDLEY,
     DMITRI FEDOROV, ALEX FINDLATER, GRAHAM FLETCHER, MARK FREITAG,
     KURT GLAESEMANN, ANASTASIA GUININA,
     DAN KEMP, GRANT MERRILL, NORIYUKI MINEZAWA, JONATHAN MULLIN,
     TAKESHI NAGATA, SEAN NEDD, HEATHER NETZLOFF, BOSILJKA NJEGIC, RYAN OLSON,
     MIKE PAK, BUU PHAM,
     SPENCER PRUITT, LUKE ROSKOP, JIM SHOEMAKER, LYUDMILA SLIPCHENKO,
     TONY SMITH, SAROM SOK LEANG, JIE SONG, TETSUYA TAKETSUGU, SIMON WEBB,
     PENG XU, SOOHAENG YOO, FEDERICO ZAHARIEV

  ADDITIONAL CODE HAS BEEN PROVIDED BY COLLABORATORS IN OTHER GROUPS:
     IOWA STATE UNIVERSITY:
          JOE IVANIC, AARON WEST, LAIMUTIS BYTAUTAS, KLAUS RUEDENBERG
     UNIVERSITY OF TOKYO: KIMIHIKO HIRAO, TAKAHITO NAKAJIMA,
          TAKAO TSUNEDA, MUNEAKI KAMIYA, SUSUMU YANAGISAWA,
          KIYOSHI YAGI, MAHITO CHIBA, SEIKEN TOKURA, NAOAKI KAWAKAMI
     UNIVERSITY OF AARHUS: FRANK JENSEN
     UNIVERSITY OF IOWA: VISVALDAS KAIRYS, HUI LI
     NATIONAL INST. OF STANDARDS AND TECHNOLOGY: WALT STEVENS, DAVID GARMER
     UNIVERSITY OF PISA: BENEDETTA MENNUCCI, JACOPO TOMASI
     UNIVERSITY OF MEMPHIS: HENRY KURTZ, PRAKASHAN KORAMBATH
     UNIVERSITY OF ALBERTA: TOBY ZENG, MARIUSZ KLOBUKOWSKI
     UNIVERSITY OF NEW ENGLAND: MARK SPACKMAN
     MIE UNIVERSITY: HIROAKI UMEDA
     NAT. INST. OF ADVANCED INDUSTRIAL SCIENCE AND TECHNOLOGY: KAZUO KITAURA
     MICHIGAN STATE UNIVERSITY:
          KAROL KOWALSKI, MARTA WLOCH, JEFFREY GOUR, JESSE LUTZ,
          WEI LI, PIOTR PIECUCH
     UNIVERSITY OF SILESIA: MONIKA MUSIAL, STANISLAW KUCHARSKI
     FACULTES UNIVERSITAIRES NOTRE-DAME DE LA PAIX:
          OLIVIER QUINET, BENOIT CHAMPAGNE
     UNIVERSITY OF CALIFORNIA - SANTA BARBARA: BERNARD KIRTMAN
     INSTITUTE FOR MOLECULAR SCIENCE:
          KAZUYA ISHIMURA, MICHIO KATOUDA, AND SHIGERU NAGASE
     UNIVERSITY OF NOTRE DAME: ANNA POMOGAEVA, DAN CHIPMAN
     KYUSHU UNIVERSITY:
          HARUYUKI NAKANO,
          FENG LONG GU, JACEK KORCHOWIEC, MARCIN MAKOWSKI, AND YURIKO AOKI,
          HIROTOSHI MORI AND EISAKU MIYOSHI
     PENNSYLVANIA STATE UNIVERSITY:
          TZVETELIN IORDANOV, CHET SWALINA, JONATHAN SKONE,
          SHARON HAMMES-SCHIFFER
     WASEDA UNIVERSITY:
          MASATO KOBAYASHI, TOMOKO AKAMA, TSUGUKI TOUMA,
          TAKESHI YOSHIKAWA, YASUHIRO IKABATA, JUNJI SEINO,
          YUYA NAKAJIMA, HIROMI NAKAI
     NANJING UNIVERSITY: SHUHUA LI
     UNIVERSITY OF NEBRASKA:
          PEIFENG SU, DEJUN SI, NANDUN THELLAMUREGE, YALI WANG, HUI LI
     UNIVERSITY OF ZURICH: ROBERTO PEVERATI, KIM BALDRIDGE
     N. COPERNICUS UNIVERSITY AND JACKSON STATE UNIVERSITY:
          MARIA BARYSZ
     UNIVERSITY OF COPENHAGEN: Jimmy Kromann, CASPER STEINMANN
     TOKYO INSTITUTE OF TECHNOLOGY: HIROYA NAKATA
     NAGOYA UNIVERSITY: YOSHIO NISHIMOTO, STEPHAN IRLE
     MOSCOW STATE UNIVERSITY: VLADIMIR MIRONOV

 EXECUTION OF GAMESS BEGUN Fri Oct 18 09:36:12 2019

            ECHO OF THE FIRST FEW INPUT CARDS -
 INPUT CARD> $CONTRL SCFTYP=RHF RUNTYP=HESSIAN DFTTYP=B3LYP                                 
 INPUT CARD>       ISPHER=1 COORD=CART $END                                                 
 INPUT CARD> $BASIS GBASIS=N31 NGAUSS=6 NDFUNC=1 $END                                       
 INPUT CARD> $FORCE METHOD=SEMINUM $END                                                     
 INPUT CARD> $DATA                                                                          
 INPUT CARD>Title Vibrational Spectrum Calculation for Acetaldehyde                         
 INPUT CARD>C1                                                                              
 INPUT CARD>C           6.0   0.4938086103  -0.5461969326  -0.0002398616                    
 INPUT CARD>C           6.0  -0.7264497450   0.3610970753  -0.0001827092                    
 INPUT CARD>O           8.0  -1.8578407918  -0.0639822026  -0.0081942504                    
 INPUT CARD>H           1.0  -0.4910017525   1.4482444748   0.0091235963                    
 INPUT CARD>F           9.0   1.6466367452   0.2182674771  -0.0056248484                    
 INPUT CARD>H           1.0   0.4768113196  -1.1840948988   0.8934642995                    
 INPUT CARD>H           1.0   0.4720410694  -1.1913804511  -0.8883462252                    
 INPUT CARD> $END                                                                           
 INPUT CARD>                                                                                
 INPUT CARD>                                                                                
    1000000 WORDS OF MEMORY AVAILABLE


                    * * * WARNING * * *
 OLD KEYWORD COORD=CART SELECTED, AUTOMATICALLY CHANGED TO COORD=PRINAXIS.
 YOUR MOLECULE'S COORDINATES WILL BE CHANGED TO PRINCIPAL AXES BY
   A) TRANSLATION TO THE CENTER OF MASS, THEN
   B) ROTATION TO HAVE A DIAGONAL MOMENT OF INERTIA TENSOR.

 HOWEVER, NOTHING ELSE IN YOUR INPUT WILL BE ROTATED IN THE SAME WAY,
 SO IF YOU HAVE A $VEC, $VIB, $GRAD, $HESS, EFP PARTICLE COORDINATES,
 OR ANYTHING ELSE THAT DEPENDS ON THE INITIAL ORIENTATION, THAT DATA
 WILL NOT BE USED CORRECTLY IN THIS RUN.

 THE PURPOSE OF COORD=PRINAXIS IS TO BE USED ONCE, ONLY AT THE VERY
 BEGINNING OF A SERIES OF COMPUTATIONS, PERHAPS TO FIND THE SYMMETRY
 UNIQUE ATOMS FROM AN ARBITRARY INITIAL ORIENTATION.

 AFTER THE FIRST RUN, YOU SHOULD USE ONLY COORD=UNIQUE, TO ENSURE THAT
 THE COORDINATES WHICH YOU READ IN ARE THE COORDINATES THAT ARE USED.


     BASIS OPTIONS
     -------------
     GBASIS=N31          IGAUSS=       6      POLAR=POPN31  
     NDFUNC=       1     NFFUNC=       0     DIFFSP=       F
     NPFUNC=       0      DIFFS=       F     BASNAM=        


     RUN TITLE
     ---------
 Title Vibrational Spectrum Calculation for Acetaldehyde                         

 THE POINT GROUP OF THE MOLECULE IS C1      
 THE ORDER OF THE PRINCIPAL AXIS IS     0

 THE MOMENTS OF INERTIA ARE (AMU-ANGSTROM**2)
 IXX=    12.671   IYY=   118.269   IZZ=   127.739

 ATOM      ATOMIC                      COORDINATES (BOHR)
           CHARGE         X                   Y                   Z
 C           6.0    -0.9515931182       -1.0356241962       -0.0058649958
 C           6.0     1.3463438520        0.6896421523       -0.0074696093
 O           8.0     3.4880922582       -0.1036659153        0.0064929028
 H           1.0     0.8918307124        2.7419551224       -0.0249770389
 F           9.0    -3.1368258425        0.3988352858        0.0054554761
 H           1.0    -0.9148395715       -2.2410669168       -1.6946333789
 H           1.0    -0.9037973420       -2.2544870765        1.6724956387

          INTERNUCLEAR DISTANCES (ANGS.)
          ------------------------------

                1 C          2 C          3 O          4 H          5 F     

   1 C       0.0000000    1.5205962 *  2.4005935 *  2.2243506 *  1.3832742 *
   2 C       1.5205962 *  0.0000000    1.2086365 *  1.1123901 *  2.3773871 *
   3 O       2.4005935 *  1.2086365 *  0.0000000    2.0384745 *  3.5158263  
   4 H       2.2243506 *  1.1123901 *  2.0384745 *  0.0000000    2.4662845 *
   5 F       1.3832742 *  2.3773871 *  3.5158263    2.4662845 *  0.0000000  
   6 H       1.0981393 *  2.1526868 *  2.7419411 *  2.9407365 *  2.0355523 *
   7 H       1.0979383 *  2.1529982 *  2.7338697 *  2.9496649 *  2.0361678 *

                6 H          7 H     

   1 C       1.0981393 *  1.0979383 *
   2 C       2.1526868 *  2.1529982 *
   3 O       2.7419411 *  2.7338697 *
   4 H       2.9407365 *  2.9496649 *
   5 F       2.0355523 *  2.0361678 *
   6 H       0.0000000    1.7818318 *
   7 H       1.7818318 *  0.0000000  

  * ... LESS THAN  3.000


     ATOMIC BASIS SET
     ----------------
 THE CONTRACTED PRIMITIVE FUNCTIONS HAVE BEEN UNNORMALIZED
 THE CONTRACTED BASIS FUNCTIONS ARE NOW NORMALIZED TO UNITY

  SHELL TYPE  PRIMITIVE        EXPONENT          CONTRACTION COEFFICIENT(S)

 C         

      1   S       1          3047.5248800    0.001834737132
      1   S       2           457.3695180    0.014037322813
      1   S       3           103.9486850    0.068842622264
      1   S       4            29.2101553    0.232184443216
      1   S       5             9.2866630    0.467941348435
      1   S       6             3.1639270    0.362311985337

      2   L       7             7.8682723   -0.119332419775    0.068999066591
      2   L       8             1.8812885   -0.160854151696    0.316423960957
      2   L       9             0.5442493    1.143456437840    0.744308290898

      3   L      10             0.1687145    1.000000000000    1.000000000000

      4   D      11             0.8000000    1.000000000000

 C         

      5   S      12          3047.5248800    0.001834737132
      5   S      13           457.3695180    0.014037322813
      5   S      14           103.9486850    0.068842622264
      5   S      15            29.2101553    0.232184443216
      5   S      16             9.2866630    0.467941348435
      5   S      17             3.1639270    0.362311985337

      6   L      18             7.8682723   -0.119332419775    0.068999066591
      6   L      19             1.8812885   -0.160854151696    0.316423960957
      6   L      20             0.5442493    1.143456437840    0.744308290898

      7   L      21             0.1687145    1.000000000000    1.000000000000

      8   D      22             0.8000000    1.000000000000

 O         

      9   S      23          5484.6716600    0.001831074430
      9   S      24           825.2349460    0.013950172200
      9   S      25           188.0469580    0.068445078098
      9   S      26            52.9645000    0.232714335992
      9   S      27            16.8975704    0.470192897984
      9   S      28             5.7996353    0.358520852987

     10   L      29            15.5396162   -0.110777549525    0.070874268231
     10   L      30             3.5999336   -0.148026262701    0.339752839147
     10   L      31             1.0137618    1.130767015354    0.727158577316

     11   L      32             0.2700058    1.000000000000    1.000000000000

     12   D      33             0.8000000    1.000000000000

 H         

     13   S      34            18.7311370    0.033494604338
     13   S      35             2.8253944    0.234726953484
     13   S      36             0.6401217    0.813757326146

     14   S      37             0.1612778    1.000000000000

 F         

     15   S      38          7001.7130900    0.001819616901
     15   S      39          1051.3660900    0.013916079607
     15   S      40           239.2856900    0.068405324535
     15   S      41            67.3974453    0.233185760119
     15   S      42            21.5199573    0.471267439240
     15   S      43             7.4031013    0.356618546182

     16   L      44            20.8479528   -0.108506975109    0.071628724237
     16   L      45             4.8083083   -0.146451658147    0.345912102697
     16   L      46             1.3440699    1.128688581135    0.722469956367

     17   L      47             0.3581514    1.000000000000    1.000000000000

     18   D      48             0.8000000    1.000000000000

 H         

     19   S      49            18.7311370    0.033494604338
     19   S      50             2.8253944    0.234726953484
     19   S      51             0.6401217    0.813757326146

     20   S      52             0.1612778    1.000000000000

 H         

     21   S      53            18.7311370    0.033494604338
     21   S      54             2.8253944    0.234726953484
     21   S      55             0.6401217    0.813757326146

     22   S      56             0.1612778    1.000000000000

 TOTAL NUMBER OF BASIS SET SHELLS             =   22
 NUMBER OF CARTESIAN GAUSSIAN BASIS FUNCTIONS =   66
 NOTE: THIS RUN WILL RESTRICT THE MO VARIATION SPACE TO SPHERICAL HARMONICS.
 THE NUMBER OF ORBITALS KEPT IN THE VARIATIONAL SPACE WILL BE PRINTED LATER.
 NUMBER OF ELECTRONS                          =   32
 CHARGE OF MOLECULE                           =    0
 SPIN MULTIPLICITY                            =    1
 NUMBER OF OCCUPIED ORBITALS (ALPHA)          =   16
 NUMBER OF OCCUPIED ORBITALS (BETA )          =   16
 TOTAL NUMBER OF ATOMS                        =    7
 THE NUCLEAR REPULSION ENERGY IS      113.0894077453

     LEBEDEV GRID-BASED DFT OPTIONS
     ------------------------------
     DFTTYP=B3LYP   
     NRAD  =      96     NLEB  =     302
     NRAD0 =      96     NLEB0 =     302
     SWOFF =    5.00E-03 (PURE SCF -> DFT)
     SWITCH=    3.00E-04 (COARSE -> TIGHT GRID)
     THRESH=    0.00E+00 GTHRE=    1.00E+00

 GRIMME'S EMPIRICAL DISPERSION CORRECTION= F

     $CONTRL OPTIONS
     ---------------
 SCFTYP=RHF          RUNTYP=HESSIAN      EXETYP=RUN     
 MPLEVL=       0     CITYP =NONE         CCTYP =NONE         VBTYP =NONE    
 DFTTYP=B3LYP        TDDFT =NONE    
 MULT  =       1     ICHARG=       0     NZVAR =       0     COORD =PRINAXIS
 PP    =NONE         RELWFN=NONE         LOCAL =NONE         NUMGRD=       F
 ISPHER=       1     NOSYM =       0     MAXIT =      30     UNITS =ANGS    
 PLTORB=       F     MOLPLT=       F     AIMPAC=       F     FRIEND=        
 NPRINT=       7     IREST =       0     GEOM  =INPUT   
 NORMF =       0     NORMP =       0     ITOL  =      20     ICUT  =       9
 INTTYP=BEST         GRDTYP=BEST         QMTTOL= 1.0E-06

     $SYSTEM OPTIONS
     ---------------
  REPLICATED MEMORY=     1000000 WORDS (ON EVERY NODE).
 DISTRIBUTED MEMDDI=           0 MILLION WORDS IN AGGREGATE,
 MEMDDI DISTRIBUTED OVER   1 PROCESSORS IS           0 WORDS/PROCESSOR.
 TOTAL MEMORY REQUESTED ON EACH PROCESSOR=     1000000 WORDS.
 TIMLIM=      525600.00 MINUTES, OR     365.0 DAYS.
 PARALL= F  BALTYP=  DLB     KDIAG=    0  COREFL= F
 MXSEQ2=     300 MXSEQ3=     150  mem10=         0

          ----------------
          PROPERTIES INPUT
          ----------------

     MOMENTS            FIELD           POTENTIAL          DENSITY
 IEMOM =       1   IEFLD =       0   IEPOT =       0   IEDEN =       0
 WHERE =COMASS     WHERE =NUCLEI     WHERE =NUCLEI     WHERE =NUCLEI  
 OUTPUT=BOTH       OUTPUT=BOTH       OUTPUT=BOTH       OUTPUT=BOTH    
 IEMINT=       0   IEFINT=       0                     IEDINT=       0
                                                       MORB  =       0
          EXTRAPOLATION IN EFFECT
          DIIS IN EFFECT
 ORBITAL PRINTING OPTION: NPREO=     1    66     2     1

     -------------------------------
     INTEGRAL TRANSFORMATION OPTIONS
     -------------------------------
     NWORD  =            0
     CUTOFF = 1.0E-09     MPTRAN =       0
     DIRTRF =       F     AOINTS =DUP     

          ----------------------
          INTEGRAL INPUT OPTIONS
          ----------------------
 NOPK  =       1 NORDER=       0 SCHWRZ=       T

     ------------------------------------------
     THE POINT GROUP IS C1 , NAXIS= 0, ORDER= 1
     ------------------------------------------

 -- VARIATIONAL SPACE WILL BE RESTRICTED TO PURE SPHERICAL HARMONICS ONLY --
 AFTER EXCLUDING CONTAMINANT COMBINATIONS FROM THE CARTESIAN GAUSSIAN BASIS
 SET, THE NUMBER OF SPHERICAL HARMONICS KEPT IN THE VARIATION SPACE IS   62

     DIMENSIONS OF THE SYMMETRY SUBSPACES ARE
 A   =   62

 ..... DONE SETTING UP THE RUN .....
 STEP CPU TIME =     0.02 TOTAL CPU TIME =          0.0 (      0.0 MIN)
 TOTAL WALL CLOCK TIME=          0.0 SECONDS, CPU UTILIZATION IS    66.67%

     ---------------------------------
     HESSIAN MATRIX CONTROL PARAMETERS
     ---------------------------------
     METHOD=SEMINUM    NVIB  =       2   VIBSIZ= 0.01000
     RDHESS=       F   PURIFY=       F   PRTIFC=       F
     VIBANL=       T   DECOMP=       F   PROJCT=       F
     SCLFAC= 1.00000   PRTSCN=       F   NPRT  =       0
     PULCOR=       F   NPUN  =       0   REDOVB=       T
     HSSTYP=GENERAL 
     THERMOCHEMISTRY WILL BE PRINTED FOR    1 TEMPERATURES:
      298.15000

               * * * EFFICIENCY NOTE * * *
 THIS CALCULATION CAN BE RUN WITH DIFFERENTIATION METHOD=ANALYTIC
 THIS MIGHT BE MORE ACCURATE AND/OR FASTER THAN YOUR CHOICE,
 BUT THE REQUESTED CALCULATION METHOD=SEMINUM  IS PROCEEDING.

1   ATOM  0
                                        -------------------
   COORD  0                             NUCLEAR COORDINATES
                                        -------------------
     VIB  0

                       ATOM             X              Y              Z

                 1  C               -0.951593      -1.035624      -0.005865
                 2  C                1.346344       0.689642      -0.007470
                 3  O                3.488092      -0.103666       0.006493
                 4  H                0.891831       2.741955      -0.024977
                 5  F               -3.136826       0.398835       0.005455
                 6  H               -0.914840      -2.241067      -1.694633
                 7  H               -0.903797      -2.254487       1.672496

          ********************
          1 ELECTRON INTEGRALS
          ********************
 ...... END OF ONE-ELECTRON INTEGRALS ......
 STEP CPU TIME =     0.01 TOTAL CPU TIME =          0.0 (      0.0 MIN)
 TOTAL WALL CLOCK TIME=          0.0 SECONDS, CPU UTILIZATION IS    75.00%

          -------------
          GUESS OPTIONS
          -------------
          GUESS =HUCKEL            NORB  =       0          NORDER=       0
          MIX   =       F          PRTMO =       F          PUNMO =       F
          TOLZ  = 1.0E-08          TOLE  = 1.0E-05
          SYMDEN=       F          PURIFY=       F

 INITIAL GUESS ORBITALS GENERATED BY HUCKEL   ROUTINE.
 HUCKEL GUESS REQUIRES     39228 WORDS.

 STATISTICS FOR GENERATION OF SYMMETRY ORBITAL -Q- MATRIX
 NUMBER OF CARTESIAN ATOMIC ORBITALS=         66
 NUMBER OF SPHERICAL CONTAMINANTS DROPPED=     4
 NUMBER OF LINEARLY DEPENDENT MOS DROPPED=     0
 TOTAL NUMBER OF MOS IN VARIATION SPACE=      62

 SYMMETRIES FOR INITIAL GUESS ORBITALS FOLLOW.   BOTH SET(S).
    16 ORBITALS ARE OCCUPIED (    4 CORE ORBITALS).
     5=A        6=A        7=A        8=A        9=A       10=A       11=A   
    12=A       13=A       14=A       15=A       16=A       17=A       18=A   
    19=A       20=A       21=A       22=A       23=A       24=A       25=A   
    26=A   
 ...... END OF INITIAL ORBITAL SELECTION ......
 STEP CPU TIME =     0.00 TOTAL CPU TIME =          0.0 (      0.0 MIN)
 TOTAL WALL CLOCK TIME=          0.0 SECONDS, CPU UTILIZATION IS    60.00%

                    ----------------------
                    AO INTEGRAL TECHNOLOGY
                    ----------------------
     S,P,L SHELL ROTATED AXIS INTEGRALS, REPROGRAMMED BY
        KAZUYA ISHIMURA (IMS) AND JOSE SIERRA (SYNSTAR).
     S,P,D,L SHELL ROTATED AXIS INTEGRALS PROGRAMMED BY
        KAZUYA ISHIMURA (INSTITUTE FOR MOLECULAR SCIENCE).
     S,P,D,F,G SHELL TO TOTAL QUARTET ANGULAR MOMENTUM SUM 5,
        ERIC PROGRAM BY GRAHAM FLETCHER (ELORET AND NASA ADVANCED
        SUPERCOMPUTING DIVISION, AMES RESEARCH CENTER).
     S,P,D,F,G,L SHELL GENERAL RYS QUADRATURE PROGRAMMED BY
        MICHEL DUPUIS (PACIFIC NORTHWEST NATIONAL LABORATORY).

          --------------------
          2 ELECTRON INTEGRALS
          --------------------

 THE -PK- OPTION IS OFF, THE INTEGRALS ARE NOT IN SUPERMATRIX FORM.
 STORING   15000 INTEGRALS/RECORD ON DISK, USING 12 BYTES/INTEGRAL.
 TWO ELECTRON INTEGRAL EVALUATION REQUIRES   90649 WORDS OF MEMORY.
 SCHWARZ INEQUALITY OVERHEAD:      2200 INTEGRALS, T=        0.00
 II,JST,KST,LST =  1  1  1  1 NREC =         1 INTLOC =    1
 II,JST,KST,LST =  2  1  1  1 NREC =         1 INTLOC =    2
 II,JST,KST,LST =  3  1  1  1 NREC =         1 INTLOC =   34
 II,JST,KST,LST =  4  1  1  1 NREC =         1 INTLOC =  214
 II,JST,KST,LST =  5  1  1  1 NREC =         1 INTLOC = 1189
 II,JST,KST,LST =  6  1  1  1 NREC =         1 INTLOC = 3195
 II,JST,KST,LST =  7  1  1  1 NREC =         2 INTLOC =  917
 II,JST,KST,LST =  8  1  1  1 NREC =         3 INTLOC = 8135
 II,JST,KST,LST =  9  1  1  1 NREC =         7 INTLOC = 5999
 II,JST,KST,LST = 10  1  1  1 NREC =         8 INTLOC = 3187
 II,JST,KST,LST = 11  1  1  1 NREC =        13 INTLOC =  684
 II,JST,KST,LST = 12  1  1  1 NREC =        19 INTLOC =14540
 II,JST,KST,LST = 13  1  1  1 NREC =        34 INTLOC =10157
 II,JST,KST,LST = 14  1  1  1 NREC =        37 INTLOC =12931
 II,JST,KST,LST = 15  1  1  1 NREC =        41 INTLOC = 4493
 II,JST,KST,LST = 16  1  1  1 NREC =        43 INTLOC = 4256
 II,JST,KST,LST = 17  1  1  1 NREC =        55 INTLOC =  397
 II,JST,KST,LST = 18  1  1  1 NREC =        73 INTLOC =10730
 II,JST,KST,LST = 19  1  1  1 NREC =       105 INTLOC = 4572
 II,JST,KST,LST = 20  1  1  1 NREC =       112 INTLOC =12552
 II,JST,KST,LST = 21  1  1  1 NREC =       121 INTLOC =  620
 II,JST,KST,LST = 22  1  1  1 NREC =       129 INTLOC = 5483
 SCHWARZ INEQUALITY TEST SKIPPED        2705 INTEGRAL BLOCKS.
 TOTAL NUMBER OF NONZERO TWO-ELECTRON INTEGRALS =             2060946
        138 INTEGRAL RECORDS WERE STORED ON DISK FILE  8.
  ...... END OF TWO-ELECTRON INTEGRALS .....
 STEP CPU TIME =     0.22 TOTAL CPU TIME =          0.2 (      0.0 MIN)
 TOTAL WALL CLOCK TIME=          0.3 SECONDS, CPU UTILIZATION IS    92.59%

          --------------------------
             R-B3LYP SCF CALCULATION
          --------------------------

     NUCLEAR ENERGY =       113.0894077453
     MAXIT =   30     NPUNCH=    2
     EXTRAP=T  DAMP=F  SHIFT=F  RSTRCT=F  DIIS=T  DEM=F  SOSCF=F
         DENSITY MATRIX CONVERGENCE THRESHOLD=  1.00E-05
     COARSE -> FINE DFT GRID SWITCH THRESHOLD=  3.00E-04 (SWITCH IN $DFT)
                   HF -> DFT SWITCH THRESHOLD=  5.00E-03 (SWOFF IN $DFT)
     MEMORY REQUIRED FOR RHF ITERS=    319420 WORDS.

     EXCHANGE FUNCTIONAL   =B88&HFX   
     CORRELATION FUNCTIONAL=LYP88&VWN5
     DFT THRESHOLD         =.493E-08
 FOR AN EULER-MACLAURIN QUADRATURE USING  96 RADIAL POINTS:
 SMALLEST GAUSSIAN PRIMITIVE EXPONENT=        0.1612777588 OF TYPE -S-
 ON ATOM NUMBER   4 HAS RADIAL NORMALIZATION=  1.000000
  LARGEST GAUSSIAN PRIMITIVE EXPONENT=     7001.7130900000 OF TYPE -S-
 ON ATOM NUMBER   5 HAS RADIAL NORMALIZATION=  1.000000
 DFT IS SWITCHED OFF, PERFORMING PURE SCF UNTIL SWOFF THRESHOLD IS REACHED.

 ITER EX DEM     TOTAL ENERGY        E CHANGE  DENSITY CHANGE    DIIS ERROR
   1  0  0     -251.0398726816  -251.0398726816   0.255095482   0.679828583
          * * *   INITIATING DIIS PROCEDURE   * * *
   2  1  0     -251.6776319267    -0.6377592451   0.154978325   0.119338694
   3  2  0     -251.7215815505    -0.0439496238   0.080321725   0.080245169
   4  3  0     -251.7530205740    -0.0314390235   0.012135117   0.010319340
   5  4  0     -251.7538920776    -0.0008715036   0.004241064   0.002453630
 CONVERGED TO SWOFF, SO DFT CALCULATION IS NOW SWITCHED ON.
          * * *   INITIATING DIIS PROCEDURE   * * *
   6  5  0     -252.9059635078    -1.1520714302   0.082330967   0.062811134
   7  6  0     -252.9208942504    -0.0149307426   0.059005781   0.032041647
   8  7  0     -252.9180662690     0.0028279814   0.047167256   0.044788885
   9  8  0     -252.9253256237    -0.0072593547   0.010548737   0.010490627
  10  9  0     -252.9256433313    -0.0003177076   0.001426976   0.001778228
  11 10  0     -252.9256540129    -0.0000106816   0.000262270   0.000375491
  12 11  0     -252.9256543563    -0.0000003434   0.000043553   0.000045963
  13 12  0     -252.9256543637    -0.0000000075   0.000015159   0.000015983
  14 13  0     -252.9256543648    -0.0000000011   0.000002008   0.000002437
  15 14  0     -252.9256543649    -0.0000000000   0.000000519   0.000000713

          -----------------
          DENSITY CONVERGED
          -----------------
     TIME TO FORM FOCK OPERATORS=       7.1 SECONDS (       0.5 SEC/ITER)
     TIME TO SOLVE SCF EQUATIONS=       0.0 SECONDS (       0.0 SEC/ITER)

 FINAL R-B3LYP ENERGY IS     -252.9256543649 AFTER  15 ITERATIONS
 DFT EXCHANGE + CORRELATION ENERGY =       -24.9596273320
 TOTAL ELECTRON NUMBER             =        32.0000823607

          ------------
          EIGENVECTORS
          ------------

                      1          2          3          4          5
                  -24.6847   -19.1613   -10.2854   -10.2714    -1.1983
                     A          A          A          A          A   
    1  C  1  S   -0.000204   0.000029   0.005099   0.995187  -0.061415
    2  C  1  S   -0.000821  -0.000229  -0.000749   0.036876   0.116451
    3  C  1  X   -0.001119  -0.000219  -0.000655  -0.001447  -0.077884
    4  C  1  Y    0.000719  -0.000121  -0.000651   0.001207   0.053469
    5  C  1  Z    0.000007   0.000004   0.000000   0.000005   0.000388
    6  C  1  S    0.009326  -0.001074   0.004895  -0.026535   0.015535
    7  C  1  X   -0.002185  -0.001831   0.001119  -0.003701  -0.002446
    8  C  1  Y    0.003104   0.000486   0.002976   0.000474  -0.011006
    9  C  1  Z    0.000009  -0.000047  -0.000012   0.000016  -0.000009
   10  C  1 XX    0.000498  -0.000321  -0.000534   0.000628   0.008992
   11  C  1 YY    0.000099   0.000338  -0.000053  -0.000046  -0.000914
   12  C  1 ZZ   -0.000597  -0.000017   0.000588  -0.000582  -0.008078
   13  C  1 XY   -0.000658  -0.000063  -0.000985  -0.000914  -0.014920
   14  C  1 XZ   -0.000006  -0.000001  -0.000000  -0.000008  -0.000105
   15  C  1 YZ    0.000005  -0.000002   0.000001   0.000004   0.000071
   16  C  2  S    0.000049   0.000224   0.995125  -0.005071  -0.011206
   17  C  2  S    0.000103   0.000039   0.035915  -0.001438   0.019435
   18  C  2  X    0.000067  -0.000136   0.002051   0.000334  -0.012767
   19  C  2  Y    0.000224   0.000249  -0.001009   0.000447  -0.006225
   20  C  2  Z   -0.000003  -0.000002   0.000014  -0.000003   0.000046
   21  C  2  S   -0.003615   0.010024  -0.015325   0.006799   0.025292
   22  C  2  X    0.001702   0.006125   0.006600  -0.003123  -0.016643
   23  C  2  Y    0.000182  -0.004892  -0.002038  -0.002946  -0.004096
   24  C  2  Z   -0.000000   0.000064   0.000044   0.000007   0.000031
   25  C  2 XX   -0.000220  -0.000692   0.001733  -0.000512   0.003890
   26  C  2 YY    0.000105   0.000454  -0.000506   0.000128  -0.000898
   27  C  2 ZZ    0.000115   0.000237  -0.001227   0.000384  -0.002992
   28  C  2 XY   -0.000011   0.000543  -0.000944  -0.000839   0.002066
   29  C  2 XZ   -0.000001  -0.000009   0.000020   0.000002  -0.000001
   30  C  2 YZ    0.000003  -0.000000  -0.000009  -0.000001  -0.000016
   31  O  3  S   -0.000015   0.995123  -0.000043  -0.000018  -0.003823
   32  O  3  S   -0.000201   0.029552   0.000564  -0.000476   0.008658
   33  O  3  X    0.000030  -0.002189   0.001084   0.000147  -0.004267
   34  O  3  Y    0.000083   0.000749  -0.000351   0.000075   0.000400
   35  O  3  Z    0.000000  -0.000014   0.000007   0.000001  -0.000013
   36  O  3  S    0.000538  -0.020089  -0.006691   0.000694   0.008526
   37  O  3  X   -0.000613   0.005834   0.004477  -0.000330   0.000897
   38  O  3  Y   -0.000203  -0.001613  -0.001930   0.000341   0.002826
   39  O  3  Z   -0.000001   0.000032   0.000029  -0.000008  -0.000031
   40  O  3 XX    0.000147  -0.000249  -0.001643   0.000088  -0.000192
   41  O  3 YY   -0.000071   0.000169   0.000511   0.000196  -0.000048
   42  O  3 ZZ   -0.000076   0.000080   0.001132  -0.000283   0.000241
   43  O  3 XY   -0.000034   0.000043   0.001148  -0.000078  -0.000029
   44  O  3 XZ    0.000001  -0.000002  -0.000020   0.000003  -0.000001
   45  O  3 YZ    0.000000  -0.000001   0.000010  -0.000003   0.000002
   46  H  4  S    0.000091  -0.000120  -0.000924  -0.000404   0.003357
   47  H  4  S    0.000608   0.001515   0.005349   0.000873   0.001199
   48  F  5  S    0.994968   0.000001   0.000009   0.000068  -0.224594
   49  F  5  S    0.027578  -0.000109  -0.000073   0.000704   0.479290
   50  F  5  X    0.001210  -0.000149  -0.000164   0.000060   0.076985
   51  F  5  Y   -0.000795  -0.000110  -0.000064  -0.000069  -0.048826
   52  F  5  Z   -0.000007  -0.000001  -0.000001  -0.000001  -0.000405
   53  F  5  S   -0.014179  -0.000129  -0.000576  -0.000757   0.516899
   54  F  5  X   -0.003663   0.000494   0.000190  -0.002127   0.046675
   55  F  5  Y    0.002316   0.000439   0.000421   0.001605  -0.028027
   56  F  5  Z    0.000021   0.000008   0.000006   0.000012  -0.000250
   57  F  5 XX   -0.000553   0.000129   0.000172  -0.001250   0.008090
   58  F  5 YY    0.000102  -0.000037   0.000003   0.000049  -0.001020
   59  F  5 ZZ    0.000451  -0.000092  -0.000175   0.001200  -0.007070
   60  F  5 XY    0.000807   0.000044   0.000253   0.001811  -0.010799
   61  F  5 XZ    0.000007   0.000001   0.000000   0.000015  -0.000092
   62  F  5 YZ   -0.000004  -0.000002  -0.000001  -0.000010   0.000056
   63  H  6  S   -0.000427   0.000119  -0.000372  -0.000628   0.017149
   64  H  6  S   -0.000612  -0.000203   0.000915   0.005435   0.001141
   65  H  7  S   -0.000423   0.000121  -0.000366  -0.000628   0.017121
   66  H  7  S   -0.000607  -0.000149   0.000918   0.005433   0.001111

                      6          7          8          9         10
                   -1.0611    -0.7473    -0.6051    -0.5134    -0.5068
                     A          A          A          A          A   
    1  C  1  S   -0.014824  -0.167964   0.068524  -0.001828   0.000056
    2  C  1  S    0.028765   0.343146  -0.142858   0.015359   0.000122
    3  C  1  X    0.030737   0.088949   0.110097  -0.286298  -0.002080
    4  C  1  Y    0.007168   0.003097   0.184957   0.137361   0.003802
    5  C  1  Z    0.000006  -0.000562  -0.000565  -0.004224   0.384215
    6  C  1  S    0.017347   0.277223  -0.151686  -0.029458  -0.000735
    7  C  1  X    0.012547   0.038964   0.019759  -0.077479   0.000065
    8  C  1  Y   -0.005157  -0.018982   0.066252   0.028654   0.000828
    9  C  1  Z    0.000116  -0.000283  -0.000089  -0.002316   0.186558
   10  C  1 XX    0.002867  -0.007072   0.004001   0.008916   0.000206
   11  C  1 YY   -0.001231   0.001750   0.006511   0.001936   0.000185
   12  C  1 ZZ   -0.001636   0.005322  -0.010512  -0.010852  -0.000391
   13  C  1 XY    0.004907   0.008680   0.009528  -0.018983  -0.000311
   14  C  1 XZ    0.000019   0.000050  -0.000061  -0.000070  -0.004672
   15  C  1 YZ   -0.000003  -0.000048   0.000037   0.000258  -0.011163
   16  C  2  S   -0.117100  -0.083031  -0.128623   0.019115   0.000016
   17  C  2  S    0.223499   0.170892   0.269927  -0.043263  -0.000048
   18  C  2  X    0.173365  -0.183533  -0.103427   0.028126  -0.000857
   19  C  2  Y   -0.069710  -0.042229   0.176469   0.217071   0.000999
   20  C  2  Z    0.001142  -0.000647  -0.001664  -0.002278   0.135302
   21  C  2  S    0.078638   0.135990   0.249561  -0.007451   0.000254
   22  C  2  X   -0.016913  -0.039494  -0.061582   0.009337  -0.000660
   23  C  2  Y    0.016747   0.005696   0.061216   0.082281   0.001038
   24  C  2  Z   -0.000211  -0.000287  -0.000699  -0.000872   0.058745
   25  C  2 XX    0.023070  -0.003400  -0.007048   0.006717   0.000080
   26  C  2 YY   -0.007619   0.008275   0.012026  -0.004586  -0.000112
   27  C  2 ZZ   -0.015451  -0.004876  -0.004978  -0.002131   0.000033
   28  C  2 XY   -0.017186   0.013042  -0.002171  -0.001761   0.000011
   29  C  2 XZ    0.000297  -0.000056  -0.000002   0.000057  -0.002847
   30  C  2 YZ   -0.000127  -0.000050  -0.000159   0.000040  -0.007584
   31  O  3  S   -0.194407   0.057019   0.062052  -0.028346  -0.000094
   32  O  3  S    0.428452  -0.130738  -0.147089   0.066795   0.000190
   33  O  3  X   -0.155556  -0.021149  -0.072246   0.133639  -0.000047
   34  O  3  Y    0.055010  -0.022632   0.086592   0.100212   0.000563
   35  O  3  Z   -0.001012   0.000007  -0.000885  -0.000816   0.096226
   36  O  3  S    0.376822  -0.140815  -0.167796   0.099889   0.000594
   37  O  3  X   -0.047957  -0.013392  -0.045085   0.072237  -0.000076
   38  O  3  Y    0.013953  -0.006337   0.045194   0.052943   0.000276
   39  O  3  Z   -0.000290   0.000006  -0.000490  -0.000427   0.051396
   40  O  3 XX    0.009581   0.003450   0.003247  -0.011097   0.000033
   41  O  3 YY   -0.006192  -0.001650   0.001174   0.007107   0.000029
   42  O  3 ZZ   -0.003389  -0.001800  -0.004421   0.003989  -0.000062
   43  O  3 XY   -0.006942   0.001247  -0.008704  -0.005631  -0.000042
   44  O  3 XZ    0.000113   0.000020   0.000094   0.000022  -0.007805
   45  O  3 YZ    0.000001  -0.000000  -0.000081  -0.000062   0.002075
   46  H  4  S    0.026236   0.054656   0.191383   0.081166  -0.000034
   47  H  4  S   -0.013002   0.001428   0.090230   0.036824  -0.000565
   48  F  5  S    0.011469   0.066228  -0.019145   0.045763   0.000744
   49  F  5  S   -0.025065  -0.149433   0.042220  -0.095653  -0.001563
   50  F  5  X    0.001267   0.127531  -0.029428   0.387289   0.009218
   51  F  5  Y    0.001882  -0.063585   0.160176  -0.259046  -0.003526
   52  F  5  Z    0.000013  -0.000676   0.000199  -0.006530   0.330006
   53  F  5  S   -0.025804  -0.198180   0.065145  -0.174370  -0.002742
   54  F  5  X   -0.001237   0.074377  -0.018541   0.242796   0.005853
   55  F  5  Y   -0.001871  -0.037530   0.097243  -0.159344  -0.002178
   56  F  5  Z   -0.000025  -0.000388   0.000120  -0.004112   0.209303
   57  F  5 XX   -0.000339   0.007079   0.002897   0.009316   0.000353
   58  F  5 YY    0.000143  -0.001585  -0.005274  -0.000926  -0.000066
   59  F  5 ZZ    0.000197  -0.005495   0.002377  -0.008390  -0.000287
   60  F  5 XY   -0.000435  -0.007504   0.009196  -0.012602  -0.000235
   61  F  5 XZ   -0.000002  -0.000076   0.000001  -0.000312   0.014584
   62  F  5 YZ    0.000004   0.000041  -0.000047   0.000200  -0.009582
   63  H  6  S    0.005709   0.113970  -0.104575  -0.042802  -0.168369
   64  H  6  S   -0.000773   0.022072  -0.046731  -0.033058  -0.102116
   65  H  7  S    0.005745   0.113781  -0.105266  -0.047663   0.164646
   66  H  7  S   -0.000865   0.021964  -0.047095  -0.035836   0.099344

                     11         12         13         14         15
                   -0.4815    -0.4472    -0.3989    -0.3773    -0.3474
                     A          A          A          A          A   
    1  C  1  S    0.001561  -0.015957  -0.000139  -0.018298  -0.000019
    2  C  1  S   -0.000367   0.026119   0.000276   0.030685   0.000050
    3  C  1  X    0.102570   0.076246   0.000089  -0.047179  -0.000530
    4  C  1  Y    0.283292  -0.101735  -0.001205  -0.142722   0.001353
    5  C  1  Z   -0.002651   0.001107   0.009729  -0.000628  -0.278043
    6  C  1  S   -0.012216   0.059446   0.000442   0.085643   0.000082
    7  C  1  X    0.080743   0.017671  -0.000463   0.058418   0.000031
    8  C  1  Y    0.120236  -0.010741   0.000230  -0.019337   0.000306
    9  C  1  Z   -0.001621   0.000506  -0.058826   0.000153  -0.059360
   10  C  1 XX    0.006039  -0.017790  -0.000117  -0.025378  -0.000080
   11  C  1 YY    0.005734   0.008439   0.000120   0.015117  -0.000229
   12  C  1 ZZ   -0.011773   0.009350  -0.000003   0.010261   0.000309
   13  C  1 XY   -0.003527   0.008337   0.000017  -0.011811   0.000201
   14  C  1 XZ    0.000032  -0.000028   0.018304   0.000052  -0.014081
   15  C  1 YZ    0.000200  -0.000131  -0.002393   0.000101   0.030106
   16  C  2  S    0.027610   0.033507   0.000061   0.035030  -0.000051
   17  C  2  S   -0.062977  -0.086805  -0.000005  -0.075913   0.000009
   18  C  2  X   -0.193082  -0.237932  -0.000969   0.205258  -0.000417
   19  C  2  Y   -0.235075   0.231155   0.002753   0.060585  -0.000083
   20  C  2  Z    0.000558  -0.002390   0.315327  -0.000037   0.109769
   21  C  2  S   -0.088457  -0.022870  -0.000762  -0.220836   0.000832
   22  C  2  X   -0.064332  -0.010489  -0.000279   0.024664  -0.000491
   23  C  2  Y   -0.071452   0.053074   0.000968   0.098215   0.000889
   24  C  2  Z    0.000377  -0.000289   0.191457  -0.000327   0.063451
   25  C  2 XX    0.003813  -0.011954  -0.000166   0.009078   0.000005
   26  C  2 YY   -0.006029   0.010595  -0.000094  -0.009874  -0.000165
   27  C  2 ZZ    0.002216   0.001358   0.000260   0.000797   0.000160
   28  C  2 XY    0.001279   0.008416   0.000206   0.002890   0.000138
   29  C  2 XZ   -0.000027  -0.000108   0.022322  -0.000061   0.018828
   30  C  2 YZ    0.000121  -0.000068  -0.010834   0.000148   0.002686
   31  O  3  S   -0.040359  -0.072911   0.000003   0.008631  -0.000024
   32  O  3  S    0.085924   0.162067  -0.000006  -0.025457   0.000143
   33  O  3  X    0.099788   0.464830  -0.001542  -0.065679  -0.001467
   34  O  3  Y   -0.232962  -0.067639   0.003527   0.229845   0.002149
   35  O  3  Z    0.001723   0.002487   0.439922  -0.002594   0.255323
   36  O  3  S    0.184253   0.291078  -0.000153   0.014525  -0.000050
   37  O  3  X    0.037804   0.248663  -0.000964  -0.053117  -0.000805
   38  O  3  Y   -0.120858  -0.033522   0.002212   0.144040   0.001385
   39  O  3  Z    0.000733   0.001304   0.271431  -0.001867   0.168704
   40  O  3 XX    0.001492  -0.021774   0.000169  -0.000697   0.000112
   41  O  3 YY   -0.005997   0.010577   0.000141   0.003744   0.000043
   42  O  3 ZZ    0.004505   0.011197  -0.000310  -0.003047  -0.000154
   43  O  3 XY    0.015282   0.005174  -0.000263  -0.011924  -0.000122
   44  O  3 XZ   -0.000090  -0.000202  -0.027369   0.000149  -0.013954
   45  O  3 YZ    0.000143   0.000030   0.009203  -0.000121   0.005838
   46  H  4  S   -0.127414   0.120412   0.000209  -0.036812  -0.000826
   47  H  4  S   -0.077238   0.122240   0.000889  -0.013317  -0.001884
   48  F  5  S    0.006752  -0.006990   0.000014  -0.000147   0.000001
   49  F  5  S   -0.015730   0.011331  -0.000019  -0.003334  -0.000004
   50  F  5  X    0.262042  -0.141043  -0.002155   0.283311   0.000612
   51  F  5  Y    0.186021   0.157184   0.002358   0.486781  -0.001969
   52  F  5  Z   -0.003728   0.003823  -0.334040   0.001728   0.472076
   53  F  5  S   -0.015718   0.025492  -0.000281   0.015261  -0.000012
   54  F  5  X    0.173327  -0.088583  -0.001559   0.203993   0.000425
   55  F  5  Y    0.119010   0.108277   0.001685   0.341618  -0.001480
   56  F  5  Z   -0.002437   0.002609  -0.232578   0.001170   0.345704
   57  F  5 XX    0.014623  -0.001477  -0.000076   0.011442   0.000025
   58  F  5 YY   -0.011991  -0.000823  -0.000028  -0.012218   0.000039
   59  F  5 ZZ   -0.002631   0.002300   0.000104   0.000776  -0.000064
   60  F  5 XY    0.003109   0.006583   0.000094   0.005898  -0.000045
   61  F  5 XZ   -0.000194   0.000142  -0.008621  -0.000003   0.009023
   62  F  5 YZ    0.000053  -0.000115   0.005866  -0.000078  -0.003802
   63  H  6  S   -0.093386   0.057292  -0.011145   0.086636   0.182855
   64  H  6  S   -0.060536   0.051144  -0.039037   0.077326   0.195374
   65  H  7  S   -0.096401   0.058982   0.012553   0.086254  -0.182865
   66  H  7  S   -0.062127   0.052744   0.040541   0.076210  -0.195203

                     16         17         18         19         20
                   -0.2669    -0.0399     0.0895     0.1181     0.1486
                     A          A          A          A          A   
    1  C  1  S   -0.036424  -0.000178  -0.037919  -0.131508  -0.040605
    2  C  1  S    0.079557   0.000372   0.008646   0.223970   0.087075
    3  C  1  X    0.183866  -0.001695   0.299746  -0.221828  -0.051441
    4  C  1  Y    0.170767   0.000622  -0.247160  -0.124914   0.209807
    5  C  1  Z    0.000704  -0.001881  -0.000884  -0.003678   0.001420
    6  C  1  S    0.241371   0.000073   1.092984   1.697879   0.148702
    7  C  1  X    0.078444  -0.002956   0.790379  -0.409063  -0.403927
    8  C  1  Y    0.133510  -0.000742  -0.508198  -0.621382   0.636090
    9  C  1  Z    0.000604   0.160360  -0.001702  -0.010070   0.000894
   10  C  1 XX    0.007155  -0.000250   0.021123  -0.012363  -0.001629
   11  C  1 YY   -0.005124   0.000093  -0.004509   0.007754  -0.009303
   12  C  1 ZZ   -0.002030   0.000157  -0.016614   0.004609   0.010932
   13  C  1 XY    0.009513   0.000264  -0.021819   0.024636  -0.000472
   14  C  1 XZ   -0.000023   0.019668  -0.000016   0.000061   0.000114
   15  C  1 YZ   -0.000048   0.028637   0.000391  -0.000270  -0.000147
   16  C  2  S   -0.004100  -0.000167   0.047364  -0.008285   0.109873
   17  C  2  S    0.025472   0.000169  -0.039756   0.068669  -0.175539
   18  C  2  X   -0.069968  -0.002274   0.087247  -0.048068   0.062060
   19  C  2  Y   -0.144334   0.003668  -0.103620   0.046612  -0.298731
   20  C  2  Z    0.000805   0.504311   0.003467  -0.001445   0.001605
   21  C  2  S    0.015567   0.002930  -0.875222  -0.038477  -1.532555
   22  C  2  X    0.071020  -0.003270   0.416166  -0.482304   0.158884
   23  C  2  Y    0.000711   0.003576  -0.063519   0.300519  -0.876059
   24  C  2  Z   -0.000023   0.530086   0.006846  -0.002199   0.004593
   25  C  2 XX    0.028412   0.000254  -0.020703   0.007313   0.023230
   26  C  2 YY   -0.029916   0.000067   0.028114  -0.001354  -0.013195
   27  C  2 ZZ    0.001505  -0.000322  -0.007411  -0.005960  -0.010035
   28  C  2 XY    0.036944  -0.000282   0.013371  -0.001454  -0.005584
   29  C  2 XZ   -0.000158  -0.028796  -0.000172   0.000150   0.000167
   30  C  2 YZ    0.000403   0.013141   0.000086  -0.000036  -0.000225
   31  O  3  S   -0.000536  -0.000039   0.013882  -0.027212  -0.022758
   32  O  3  S    0.009585   0.000140  -0.038709   0.047170   0.076097
   33  O  3  X    0.203573   0.001406   0.059674  -0.065072  -0.105919
   34  O  3  Y    0.521477  -0.003500   0.038479  -0.051796   0.089868
   35  O  3  Z   -0.003313  -0.419164  -0.000792   0.000076  -0.000905
   36  O  3  S   -0.046967   0.000143  -0.125932   0.465967   0.098231
   37  O  3  X    0.159062   0.001624   0.055765  -0.193046  -0.077240
   38  O  3  Y    0.370873  -0.003395   0.018881   0.018125   0.219654
   39  O  3  Z   -0.002187  -0.436822  -0.001719  -0.001036  -0.001054
   40  O  3 XX   -0.010688   0.000001   0.001903   0.011157   0.001889
   41  O  3 YY    0.009631  -0.000014   0.004095  -0.005526   0.000582
   42  O  3 ZZ    0.001057   0.000013  -0.005998  -0.005631  -0.002471
   43  O  3 XY   -0.013816  -0.000015   0.007144  -0.008381   0.000444
   44  O  3 XZ    0.000048  -0.000090  -0.000004   0.000195  -0.000006
   45  O  3 YZ   -0.000134   0.001613   0.000072  -0.000035  -0.000103
   46  H  4  S   -0.174259  -0.000334   0.104437  -0.003030   0.055560
   47  H  4  S   -0.268913  -0.001170   0.764832  -0.354363   1.809295
   48  F  5  S    0.000947   0.000380  -0.048941   0.038340   0.045134
   49  F  5  S    0.004045  -0.000928   0.096902  -0.077600  -0.085113
   50  F  5  X   -0.112316  -0.002364   0.174125  -0.166336  -0.152224
   51  F  5  Y   -0.078384   0.000658  -0.127357   0.165165   0.017672
   52  F  5  Z   -0.000869  -0.018363  -0.001016   0.001836   0.001317
   53  F  5  S   -0.038124  -0.002503   0.451627  -0.336685  -0.463414
   54  F  5  X   -0.098395  -0.002059   0.236087  -0.192989  -0.250639
   55  F  5  Y   -0.059630   0.001144  -0.158340   0.227162   0.095307
   56  F  5  Z   -0.000589  -0.024670  -0.001484   0.002513   0.001664
   57  F  5 XX    0.000388   0.000027   0.002195   0.002224  -0.005892
   58  F  5 YY   -0.000726  -0.000042   0.003174   0.002800   0.001170
   59  F  5 ZZ    0.000338   0.000015  -0.005369  -0.005024   0.004722
   60  F  5 XY    0.000439   0.000111  -0.005757  -0.001932   0.009384
   61  F  5 XZ    0.000001   0.001578  -0.000019  -0.000121   0.000033
   62  F  5 YZ    0.000009   0.005500   0.000070   0.000018  -0.000160
   63  H  6  S   -0.036410   0.095591  -0.047513  -0.035839   0.011034
   64  H  6  S   -0.075095   0.320455  -0.753901  -1.205853   0.207817
   65  H  7  S   -0.035763  -0.094628  -0.049175  -0.034354   0.011217
   66  H  7  S   -0.075324  -0.319026  -0.764390  -1.182513   0.209394

                     21         22         23         24         25
                    0.1635     0.2591     0.2895     0.5191     0.5199
                     A          A          A          A          A   
    1  C  1  S    0.000943  -0.112668  -0.002411   0.012802  -0.002221
    2  C  1  S   -0.002016   0.162918   0.024767  -0.339382   0.058107
    3  C  1  X    0.002342   0.046096   0.272838   0.453480  -0.062142
    4  C  1  Y    0.002624   0.281579   0.131861  -0.754035   0.136974
    5  C  1  Z   -0.511140   0.000159   0.003582  -0.030178  -0.155370
    6  C  1  S   -0.010455   1.913651  -0.179315   0.315345  -0.052752
    7  C  1  X    0.004599   0.990486   0.873161  -0.695566   0.098981
    8  C  1  Y    0.007952   1.313956  -0.340896   1.410645  -0.258571
    9  C  1  Z   -1.288803   0.001138   0.006027   0.049459   0.262969
   10  C  1 XX    0.000028  -0.028153  -0.029499   0.017870  -0.002407
   11  C  1 YY    0.000100  -0.016873   0.021056  -0.040253   0.006668
   12  C  1 ZZ   -0.000128   0.045026   0.008444   0.022383  -0.004262
   13  C  1 XY   -0.000298  -0.016473  -0.012210  -0.081930   0.013689
   14  C  1 XZ    0.001546   0.000215  -0.000015  -0.001962  -0.009327
   15  C  1 YZ   -0.006005  -0.000125  -0.000375   0.005782   0.035138
   16  C  2  S    0.000500   0.070615   0.071450  -0.008973   0.002141
   17  C  2  S   -0.000459  -0.113746  -0.012857  -0.128523   0.023083
   18  C  2  X   -0.000387   0.315873  -0.043300   0.185801  -0.026526
   19  C  2  Y    0.001029   0.362726   0.283230   0.142269  -0.030177
   20  C  2  Z    0.114025  -0.001468  -0.000468  -0.166397  -0.975005
   21  C  2  S   -0.009387  -1.036051  -1.900976   0.076313  -0.002810
   22  C  2  X    0.000867   1.713770  -1.674756   0.168858  -0.035088
   23  C  2  Y    0.001659   0.897407   1.136416  -0.483575   0.089530
   24  C  2  Z    0.379295  -0.001207  -0.014722   0.181305   1.065562
   25  C  2 XX    0.000252   0.013791   0.013007  -0.040155   0.007510
   26  C  2 YY    0.000049  -0.006233   0.014628  -0.001620   0.001365
   27  C  2 ZZ   -0.000300  -0.007558  -0.027636   0.041775  -0.008875
   28  C  2 XY   -0.000062   0.007843   0.001062  -0.021290   0.004876
   29  C  2 XZ    0.011529   0.000026   0.000116  -0.002781  -0.017140
   30  C  2 YZ    0.011057  -0.000200  -0.000275   0.002816   0.015203
   31  O  3  S   -0.000033   0.023719  -0.098255   0.001919  -0.000508
   32  O  3  S   -0.000121  -0.003690   0.143339   0.034784  -0.004711
   33  O  3  X   -0.000138  -0.087603  -0.162781  -0.013913   0.001760
   34  O  3  Y    0.000696  -0.173040   0.061492  -0.066368   0.009303
   35  O  3  Z   -0.120339   0.000722  -0.000933  -0.008462  -0.046989
   36  O  3  S    0.000952  -0.694410   2.028044  -0.258938   0.043115
   37  O  3  X   -0.000412   0.074811  -0.877985   0.113813  -0.019235
   38  O  3  Y   -0.000328  -0.426760   0.217804   0.035457  -0.007608
   39  O  3  Z   -0.141090   0.003837  -0.005144  -0.015415  -0.099665
   40  O  3 XX   -0.000066  -0.022368   0.032789  -0.002177  -0.000148
   41  O  3 YY    0.000141   0.016880  -0.004283  -0.004916   0.000791
   42  O  3 ZZ   -0.000075   0.005488  -0.028507   0.007093  -0.000644
   43  O  3 XY    0.000087   0.004155  -0.026356  -0.029493   0.005372
   44  O  3 XZ   -0.002325  -0.000191   0.000422   0.010829   0.063600
   45  O  3 YZ   -0.000531  -0.000133  -0.000184  -0.004506  -0.025010
   46  H  4  S    0.000194  -0.000666   0.130013  -0.115407   0.022631
   47  H  4  S    0.003745  -0.459330  -0.593690   0.142140  -0.026027
   48  F  5  S   -0.000508   0.020242  -0.023282   0.011232  -0.001788
   49  F  5  S    0.000937  -0.029598   0.010292   0.059016  -0.010132
   50  F  5  X    0.001751  -0.158106  -0.041306   0.201426  -0.032492
   51  F  5  Y   -0.002748   0.023321  -0.146996  -0.182135   0.030518
   52  F  5  Z    0.102744   0.000257  -0.000476  -0.015368  -0.084599
   53  F  5  S    0.005120  -0.252158   0.449673  -0.663494   0.109562
   54  F  5  X    0.002769  -0.257337   0.100375  -0.202326   0.035085
   55  F  5  Y   -0.003635  -0.036655  -0.200700   0.021411  -0.001045
   56  F  5  Z    0.172506   0.000581  -0.002079  -0.002129  -0.017735
   57  F  5 XX   -0.000010   0.004811   0.016956  -0.075875   0.013098
   58  F  5 YY   -0.000053  -0.010676  -0.013516   0.010861  -0.002314
   59  F  5 ZZ    0.000063   0.005866  -0.003440   0.065013  -0.010784
   60  F  5 XY    0.000089  -0.018547   0.003336   0.073535  -0.011319
   61  F  5 XZ   -0.009269  -0.000022  -0.000107   0.003279   0.014991
   62  F  5 YZ    0.000511   0.000052  -0.000165   0.001681   0.012566
   63  H  6  S   -0.050652   0.057059   0.056809   0.149646   0.140564
   64  H  6  S   -1.470093   0.081510   0.091330   0.158660   0.081753
   65  H  7  S    0.051462   0.056053   0.058566   0.095529  -0.185225
   66  H  7  S    1.486545   0.083438   0.073797   0.123791  -0.135596

                     26         27         28         29         30
                    0.5392     0.6450     0.6575     0.6973     0.7674
                     A          A          A          A          A   
    1  C  1  S    0.009838   0.028494   0.000725   0.021237   0.001455
    2  C  1  S   -0.071071  -0.165155  -0.003270   0.021699  -0.269150
    3  C  1  X   -0.876258  -0.002908  -0.001610  -0.067976  -0.000131
    4  C  1  Y   -0.431270  -0.182977  -0.004992   0.077160   0.172973
    5  C  1  Z   -0.001183   0.017390  -0.734682  -0.005179  -0.024556
    6  C  1  S   -0.165710   1.369516   0.032417   0.322661   0.081233
    7  C  1  X    1.376240   0.794728   0.021972   0.719576   0.114888
    8  C  1  Y    0.785657   0.789993   0.023718   0.102529  -1.373805
    9  C  1  Z    0.002544  -0.051072   2.188007   0.016310   0.053375
   10  C  1 XX   -0.032844  -0.001722   0.000343   0.004876  -0.092636
   11  C  1 YY   -0.015766   0.035784  -0.000419  -0.029836   0.122039
   12  C  1 ZZ    0.048610  -0.034062   0.000076   0.024960  -0.029403
   13  C  1 XY    0.013094   0.074484   0.002165   0.027331  -0.010844
   14  C  1 XZ    0.000161  -0.000302  -0.000538   0.000259  -0.001464
   15  C  1 YZ    0.000224  -0.003396   0.109569   0.000166  -0.002293
   16  C  2  S   -0.021292   0.033800   0.001605  -0.050027  -0.033268
   17  C  2  S   -0.099885   0.058987   0.003069   0.653758  -0.815137
   18  C  2  X   -0.062741  -0.870577  -0.028921   0.525591   0.186712
   19  C  2  Y    0.011085  -0.414662  -0.006421  -0.720579   0.022689
   20  C  2  Z   -0.017009  -0.008925   0.271344   0.007551   0.000811
   21  C  2  S   -0.832240  -1.206542  -0.044088  -0.840183   1.650575
   22  C  2  X   -0.207549   1.375569   0.038390  -0.427675  -1.117000
   23  C  2  Y    0.027678   1.721123   0.031467   1.699997   0.784456
   24  C  2  Z    0.018376   0.019418  -0.982271  -0.017902  -0.015844
   25  C  2 XX   -0.037501   0.059430   0.001387  -0.115960   0.063770
   26  C  2 YY   -0.036728  -0.032160   0.000160   0.051178  -0.178768
   27  C  2 ZZ    0.074229  -0.027270  -0.001547   0.064782   0.114998
   28  C  2 XY   -0.086827  -0.062020  -0.002143   0.069238   0.022189
   29  C  2 XZ   -0.000307   0.001709  -0.033452  -0.001524   0.000104
   30  C  2 YZ    0.000689   0.001105  -0.049795   0.000145   0.003955
   31  O  3  S   -0.002430  -0.036996  -0.001575   0.019580  -0.000036
   32  O  3  S   -0.039121   0.160524   0.007162  -0.088346  -0.083531
   33  O  3  X    0.056030  -0.276980  -0.008062   0.293928  -0.023368
   34  O  3  Y    0.162475  -0.153860   0.000478  -0.284531  -0.157803
   35  O  3  Z   -0.002172  -0.004080   0.150434   0.003611   0.007219
   36  O  3  S    0.323315   0.026720   0.004049   0.569946   0.437204
   37  O  3  X   -0.100604  -0.357172  -0.013919  -0.004930  -0.089895
   38  O  3  Y    0.101386  -0.058446   0.001731  -0.093131   0.010074
   39  O  3  Z   -0.002634  -0.003097   0.084241   0.001294  -0.005329
   40  O  3 XX    0.007736  -0.037093  -0.000922   0.150284  -0.035016
   41  O  3 YY   -0.013072   0.005355  -0.000058  -0.063132   0.015969
   42  O  3 ZZ    0.005337   0.031738   0.000980  -0.087152   0.019046
   43  O  3 XY    0.015819   0.077370   0.002646  -0.061858  -0.021056
   44  O  3 XZ    0.001007  -0.000121  -0.025322   0.001443   0.000046
   45  O  3 YZ   -0.000221   0.001051  -0.024097  -0.000600   0.000141
   46  H  4  S   -0.037593  -0.115495   0.008838   0.003071  -0.935011
   47  H  4  S    0.084593  -0.618601  -0.017602  -0.809740  -0.121022
   48  F  5  S   -0.005837  -0.021046  -0.000523  -0.012497  -0.005646
   49  F  5  S   -0.025222   0.113062   0.003679   0.050976  -0.054518
   50  F  5  X   -0.167003   0.058437   0.002430  -0.046874  -0.153929
   51  F  5  Y   -0.031821  -0.031975   0.001390  -0.062678  -0.145716
   52  F  5  Z   -0.000939   0.005422  -0.244702  -0.001709  -0.003724
   53  F  5  S    0.321002  -0.055573  -0.005686   0.147020   0.380526
   54  F  5  X   -0.010012  -0.003454  -0.002186   0.018394   0.230975
   55  F  5  Y   -0.166198  -0.067096  -0.001478  -0.065686   0.064107
   56  F  5  Z   -0.000737   0.003538  -0.148049  -0.001352  -0.003230
   57  F  5 XX    0.000241  -0.014566  -0.000909   0.011664   0.057315
   58  F  5 YY    0.019228   0.004722   0.000174  -0.009674  -0.013108
   59  F  5 ZZ   -0.019470   0.009844   0.000735  -0.001991  -0.044206
   60  F  5 XY   -0.057892  -0.005327  -0.000369  -0.012077   0.048182
   61  F  5 XZ   -0.000010   0.000124  -0.002123  -0.000292  -0.001228
   62  F  5 YZ    0.000518  -0.000138   0.006339   0.000053   0.000672
   63  H  6  S    0.112677   0.180045   0.360137   0.239924  -0.092087
   64  H  6  S    0.188299   0.105968   0.636703   0.046814  -0.465684
   65  H  7  S    0.107649   0.200818  -0.349454   0.238514  -0.070467
   66  H  7  S    0.184874   0.130202  -0.624165   0.035363  -0.546164

                     31         32         33         34         35
                    0.8101     0.8425     0.8652     0.9072     0.9823
                     A          A          A          A          A   
    1  C  1  S   -0.000584  -0.027506   0.044271   0.012561   0.000498
    2  C  1  S    0.011381   0.064025  -0.409351  -1.126807   0.002074
    3  C  1  X   -0.002416   0.021994   0.041056  -0.048721   0.000386
    4  C  1  Y   -0.003441  -0.144148   0.299080   0.440186   0.004108
    5  C  1  Z   -0.801905   0.009882  -0.001611   0.002493  -0.148780
    6  C  1  S   -0.016440  -0.316226   0.233660   2.413124  -0.017522
    7  C  1  X    0.001781   0.081022  -0.459453  -0.173976  -0.008064
    8  C  1  Y    0.022344  -0.312617  -0.673583  -0.568892  -0.016165
    9  C  1  Z    1.371139  -0.019230   0.002304  -0.008170   0.639499
   10  C  1 XX    0.002792   0.008052  -0.121355  -0.030950  -0.001448
   11  C  1 YY   -0.001812  -0.001187   0.042618  -0.068647   0.000251
   12  C  1 ZZ   -0.000980  -0.006865   0.078738   0.099597   0.001197
   13  C  1 XY   -0.000966  -0.037842  -0.010794  -0.066570  -0.000114
   14  C  1 XZ    0.001340  -0.000631   0.000319   0.001382  -0.007424
   15  C  1 YZ   -0.205424   0.002385  -0.000944  -0.001086  -0.020505
   16  C  2  S    0.001245   0.038975   0.019183  -0.017890  -0.000306
   17  C  2  S    0.003121  -1.273677   0.125224  -0.675613  -0.008547
   18  C  2  X   -0.000400   0.249863   0.161460  -0.067465   0.000808
   19  C  2  Y   -0.005547  -0.606966  -0.003429   0.000844   0.001859
   20  C  2  Z   -0.066990   0.006218   0.000736  -0.000207   0.112530
   21  C  2  S   -0.006942   2.756927   1.450907   0.269774   0.028177
   22  C  2  X    0.015696  -0.539048   0.034473  -0.040060  -0.010842
   23  C  2  Y   -0.006032   1.445730  -0.777984   0.073158  -0.014154
   24  C  2  Z    0.029712  -0.011213   0.005821   0.002082  -0.714123
   25  C  2 XX   -0.001718  -0.013551   0.147645  -0.132616   0.000616
   26  C  2 YY    0.005064   0.064646  -0.078268   0.063813  -0.001566
   27  C  2 ZZ   -0.003347  -0.051095  -0.069378   0.068803   0.000950
   28  C  2 XY   -0.001004  -0.077230  -0.130734   0.008242  -0.000496
   29  C  2 XZ    0.059970   0.000377   0.001797  -0.000673  -0.050904
   30  C  2 YZ    0.064579  -0.001428  -0.000518  -0.000019  -0.025480
   31  O  3  S   -0.000077   0.003781   0.057326  -0.026340  -0.000071
   32  O  3  S    0.002565  -0.022923  -0.247352   0.097430   0.001025
   33  O  3  X   -0.000462  -0.167947  -0.552397   0.425476   0.003283
   34  O  3  Y    0.004301   0.104086   0.252874   0.002664  -0.007641
   35  O  3  Z    0.063814  -0.002565  -0.001012   0.004314  -0.930377
   36  O  3  S   -0.010706  -0.086821  -0.662878   0.129117  -0.002062
   37  O  3  X    0.003940   0.265876   1.267188  -0.785172  -0.003083
   38  O  3  Y   -0.002175  -0.258893  -0.342933   0.187847   0.012445
   39  O  3  Z   -0.094608   0.003872   0.004308  -0.007953   1.302204
   40  O  3 XX    0.000700  -0.002992  -0.042521   0.007502  -0.000663
   41  O  3 YY   -0.000699  -0.029885   0.000322  -0.014710  -0.000673
   42  O  3 ZZ   -0.000001   0.032878   0.042199   0.007207   0.001337
   43  O  3 XY    0.001026   0.069222   0.034158   0.037009   0.000391
   44  O  3 XZ    0.004135  -0.000701  -0.000541  -0.000155   0.030756
   45  O  3 YZ    0.012497   0.000865   0.000618   0.000734  -0.029240
   46  H  4  S    0.026427   0.569297   0.083729   0.278159  -0.002107
   47  H  4  S   -0.015645  -2.149434   0.160673  -0.398500   0.001689
   48  F  5  S    0.000300   0.003452  -0.014413   0.015920  -0.000382
   49  F  5  S   -0.000266  -0.045133   0.077620  -0.044105   0.002399
   50  F  5  X    0.002709  -0.072589   0.001609   0.094198   0.000501
   51  F  5  Y    0.003794   0.023576  -0.048197   0.000290   0.001856
   52  F  5  Z    0.064625  -0.001572  -0.000359   0.001835  -0.058935
   53  F  5  S   -0.005569   0.137641  -0.022615  -0.273958   0.000975
   54  F  5  X   -0.005073   0.064677   0.092954  -0.202326   0.001467
   55  F  5  Y   -0.001717  -0.035984   0.048853   0.110328  -0.001500
   56  F  5  Z   -0.120649   0.002220  -0.000178   0.000211  -0.010064
   57  F  5 XX   -0.001518   0.017225   0.037707  -0.006843   0.000667
   58  F  5 YY   -0.000036  -0.013597  -0.027286  -0.026403  -0.000070
   59  F  5 ZZ    0.001554  -0.003629  -0.010422   0.033246  -0.000597
   60  F  5 XY   -0.000787   0.014969   0.026268   0.047067  -0.000148
   61  F  5 XZ   -0.064162   0.000893  -0.000149  -0.000063  -0.010864
   62  F  5 YZ    0.051944  -0.000575   0.000073   0.000049  -0.011878
   63  H  6  S   -0.697621  -0.277750   0.477182   0.407824  -0.011594
   64  H  6  S    1.497374   0.127101  -0.748212  -1.118984   0.343395
   65  H  7  S    0.688676  -0.291783   0.481889   0.412448   0.019670
   66  H  7  S   -1.462531   0.165205  -0.758185  -1.116873  -0.357503

                     36         37         38         39         40
                    1.0661     1.1034     1.2297     1.2448     1.3122
                     A          A          A          A          A   
    1  C  1  S   -0.026173  -0.089463   0.000631  -0.039432   0.012915
    2  C  1  S   -0.476528  -1.576883   0.012471  -0.868935   0.166005
    3  C  1  X    0.020734  -0.282566  -0.001896   0.133454   0.128008
    4  C  1  Y   -0.085999   0.058375   0.002509  -0.133004  -0.017774
    5  C  1  Z   -0.001082   0.000134   0.123462   0.000305   0.001589
    6  C  1  S    2.552474   4.974545  -0.027030   1.659421  -0.670512
    7  C  1  X    0.830601   1.310683  -0.006999   0.521440  -0.692743
    8  C  1  Y    0.598795   0.346947   0.005397   0.223196  -0.189301
    9  C  1  Z    0.007558   0.001683  -0.659943  -0.007536  -0.011739
   10  C  1 XX    0.039673   0.097424   0.001170  -0.065235   0.010706
   11  C  1 YY    0.031436   0.037568  -0.004202  -0.056011   0.026474
   12  C  1 ZZ   -0.071109  -0.134992   0.003032   0.121246  -0.037180
   13  C  1 XY    0.041752  -0.070120  -0.001574   0.157703   0.076987
   14  C  1 XZ   -0.000333  -0.002316  -0.367492  -0.002612  -0.002525
   15  C  1 YZ   -0.000548   0.000514  -0.096813  -0.002564  -0.002003
   16  C  2  S    0.019135   0.034716  -0.000091   0.015129  -0.006878
   17  C  2  S    0.357700   0.679864  -0.002093   0.248915   0.020760
   18  C  2  X   -0.093580  -0.019689   0.000703   0.039167  -0.117279
   19  C  2  Y   -0.298897   0.036082   0.000568   0.048263   0.070806
   20  C  2  Z    0.002311   0.000771   0.020956  -0.000247   0.001066
   21  C  2  S   -1.442743  -3.142002   0.014475  -1.221405   0.028569
   22  C  2  X    1.052607   0.785776  -0.001911   0.387743  -0.068761
   23  C  2  Y    2.252056   1.176391  -0.011509   0.268493  -0.590246
   24  C  2  Z   -0.015085  -0.006979   0.231418   0.002968   0.002319
   25  C  2 XX    0.091238  -0.039008  -0.001705   0.015722  -0.044129
   26  C  2 YY   -0.055986   0.129536   0.001408   0.022416   0.117055
   27  C  2 ZZ   -0.035252  -0.090528   0.000298  -0.038138  -0.072926
   28  C  2 XY    0.105462  -0.062878   0.000099  -0.009958   0.061815
   29  C  2 XZ   -0.000349   0.001144   0.222408   0.002763   0.000522
   30  C  2 YZ    0.000730  -0.000557   0.300739   0.002618   0.002659
   31  O  3  S    0.000837   0.008534  -0.000273  -0.000224   0.021212
   32  O  3  S   -0.027251  -0.206071   0.006444   0.012927  -0.476549
   33  O  3  X    0.235398  -0.175329  -0.000194   0.007399   0.094628
   34  O  3  Y    0.757670  -0.196121   0.000986  -0.042159  -0.029102
   35  O  3  Z   -0.007015  -0.003278  -0.008314   0.000208  -0.000825
   36  O  3  S    0.214058   0.710282  -0.013102   0.062704   0.596589
   37  O  3  X   -0.534951   0.011465   0.004164  -0.030404  -0.294673
   38  O  3  Y   -1.490649   0.181961  -0.001556   0.014492   0.206895
   39  O  3  Z    0.012572   0.004350  -0.104964  -0.001417  -0.000206
   40  O  3 XX   -0.027466   0.090835  -0.000163   0.029306  -0.046330
   41  O  3 YY    0.087673   0.050747   0.000568   0.040582   0.001303
   42  O  3 ZZ   -0.060207  -0.141582  -0.000404  -0.069888   0.045028
   43  O  3 XY   -0.078659   0.060333  -0.001605   0.013624   0.048192
   44  O  3 XZ    0.000936   0.001113  -0.024046   0.000223  -0.000057
   45  O  3 YZ   -0.001554  -0.000642   0.137136   0.000853   0.002063
   46  H  4  S   -0.149820   0.025211  -0.000253  -0.012006   0.219270
   47  H  4  S   -0.825790  -0.151240   0.007353   0.143176   0.096852
   48  F  5  S    0.015579   0.060835   0.000524  -0.046103  -0.006852
   49  F  5  S   -0.097775  -0.407902  -0.003650   0.365982   0.067226
   50  F  5  X    0.012955   0.102770   0.010978  -0.534542  -0.565534
   51  F  5  Y   -0.069179  -0.168902   0.006042   0.534242  -0.611246
   52  F  5  Z   -0.001754  -0.003623  -0.715809  -0.003852  -0.011673
   53  F  5  S   -0.113796  -0.109398   0.002738  -0.304208  -0.124059
   54  F  5  X   -0.122419  -0.442388  -0.014800   0.760233   0.769005
   55  F  5  Y    0.073239   0.310369  -0.005604  -0.748263   0.794562
   56  F  5  Z    0.001407   0.004637   0.867872   0.004128   0.015702
   57  F  5 XX   -0.041516  -0.074313   0.000781  -0.108634  -0.104339
   58  F  5 YY   -0.005247  -0.006923   0.000624   0.003027   0.088156
   59  F  5 ZZ    0.046763   0.081236  -0.001405   0.105607   0.016183
   60  F  5 XY    0.027927   0.046515  -0.002416   0.095168  -0.013244
   61  F  5 XZ    0.000238   0.000800   0.027179   0.001164  -0.000868
   62  F  5 YZ   -0.000386  -0.000949  -0.076940  -0.001514   0.000199
   63  H  6  S   -0.116235  -0.436879  -0.037494  -0.150833   0.057952
   64  H  6  S   -0.042569  -0.538810  -0.249461  -0.192394   0.022231
   65  H  7  S   -0.115518  -0.436987   0.045608  -0.149575   0.061466
   66  H  7  S   -0.053109  -0.544105   0.257010  -0.188379   0.030114

                     41         42         43         44         45
                    1.4230     1.5015     1.5350     1.6358     1.7418
                     A          A          A          A          A   
    1  C  1  S   -0.000059   0.000147  -0.000695   0.034327   0.000601
    2  C  1  S    0.000722   0.005721  -0.218478   0.133285   0.008750
    3  C  1  X    0.000170   0.001302  -0.046401  -0.130314   0.000701
    4  C  1  Y   -0.001906  -0.003406   0.159344  -0.065374  -0.001414
    5  C  1  Z    0.159621  -0.002663   0.001496  -0.001394  -0.017539
    6  C  1  S   -0.000797  -0.013189   0.356471  -1.060715  -0.028724
    7  C  1  X    0.000940  -0.002235  -0.004982   0.284567  -0.011148
    8  C  1  Y    0.005421   0.012366  -0.404747  -0.101822  -0.001213
    9  C  1  Z   -0.752246  -0.191993  -0.004781   0.010233   0.591227
   10  C  1 XX   -0.000348  -0.005189   0.356719   0.249554   0.000403
   11  C  1 YY    0.005133   0.009169  -0.567419  -0.184504   0.002775
   12  C  1 ZZ   -0.004785  -0.003980   0.210700  -0.065049  -0.003178
   13  C  1 XY   -0.002373  -0.002188   0.092427   0.169856  -0.002424
   14  C  1 XZ    0.487439   0.027727   0.007211   0.000103   0.343246
   15  C  1 YZ   -0.079243   0.108480  -0.000686  -0.001510   0.079821
   16  C  2  S   -0.000126  -0.000202   0.014102  -0.013440  -0.000546
   17  C  2  S    0.000673   0.004820  -0.258568  -0.407567  -0.003425
   18  C  2  X    0.000244  -0.001943   0.072612   0.037118   0.000022
   19  C  2  Y    0.000248   0.000958   0.040771  -0.006900   0.001170
   20  C  2  Z   -0.026414   0.193028   0.003558   0.000303  -0.038435
   21  C  2  S   -0.006793  -0.016886   1.321276  -0.635666   0.031380
   22  C  2  X   -0.000457   0.004460   0.092390  -1.695671   0.000832
   23  C  2  Y   -0.000282  -0.007368   0.073464   0.579141  -0.006451
   24  C  2  Z    0.177378  -0.099671  -0.001362  -0.011559  -0.325382
   25  C  2 XX    0.001034   0.003238  -0.004627  -0.034768  -0.002463
   26  C  2 YY   -0.002348   0.005925   0.010057   0.224592   0.008609
   27  C  2 ZZ    0.001313  -0.009162  -0.005431  -0.189824  -0.006146
   28  C  2 XY   -0.000540  -0.006540   0.040974   0.334896  -0.000821
   29  C  2 XZ   -0.168390  -0.490849  -0.008410  -0.002354   0.269803
   30  C  2 YZ   -0.277988   0.484728   0.006659  -0.001266   0.192191
   31  O  3  S    0.000101   0.000383  -0.028800   0.013602  -0.000081
   32  O  3  S   -0.002549  -0.008015   0.753763  -1.011120   0.006102
   33  O  3  X    0.000467   0.002980  -0.223172  -0.038723   0.000625
   34  O  3  Y   -0.000325   0.000554   0.038197  -0.087963   0.001429
   35  O  3  Z    0.043273   0.123773   0.001072   0.000945  -0.085061
   36  O  3  S    0.004218   0.010113  -1.293281   2.683050  -0.016671
   37  O  3  X   -0.001336  -0.006593   0.573630  -0.735350   0.004795
   38  O  3  Y    0.001121   0.003183  -0.197384   0.376658  -0.002805
   39  O  3  Z   -0.063393   0.112519   0.004988  -0.005733   0.140279
   40  O  3 XX    0.000306  -0.003632   0.029170  -0.183667   0.003273
   41  O  3 YY   -0.001312  -0.001607   0.056547   0.406491   0.013803
   42  O  3 ZZ    0.001007   0.005239  -0.085717  -0.222824  -0.017077
   43  O  3 XY    0.000952   0.004879  -0.089472   0.046565   0.003188
   44  O  3 XZ    0.000153   0.524895   0.010526   0.000718   0.095594
   45  O  3 YZ   -0.114346   0.001084  -0.001753  -0.005802   0.779145
   46  H  4  S   -0.001392   0.003289  -0.168153  -0.109299  -0.008253
   47  H  4  S    0.002952   0.005840  -0.219504  -0.344019  -0.000022
   48  F  5  S    0.000024   0.000331  -0.009573  -0.002753   0.000010
   49  F  5  S   -0.000593  -0.004102   0.127577  -0.030214   0.000519
   50  F  5  X    0.001315   0.000280   0.002200   0.175119  -0.001200
   51  F  5  Y    0.005236   0.004394  -0.134091   0.179639  -0.001071
   52  F  5  Z   -0.505980  -0.029725  -0.000813   0.001132   0.104106
   53  F  5  S    0.001209   0.003236  -0.104498   0.244185  -0.001251
   54  F  5  X   -0.001543  -0.001288   0.048900  -0.199382   0.001477
   55  F  5  Y   -0.008629  -0.007792   0.297302  -0.328605   0.001826
   56  F  5  Z    0.829120   0.064923   0.002647  -0.003062  -0.186518
   57  F  5 XX    0.001293   0.006232  -0.370074   0.015767   0.005401
   58  F  5 YY   -0.003863  -0.006578   0.371372   0.241706  -0.004362
   59  F  5 ZZ    0.002570   0.000346  -0.001298  -0.257473  -0.001038
   60  F  5 XY    0.003609   0.004570  -0.254864   0.094012   0.004393
   61  F  5 XZ   -0.324508  -0.005382  -0.002325  -0.001169  -0.018690
   62  F  5 YZ    0.266062   0.035339   0.007049  -0.000327   0.310184
   63  H  6  S   -0.058801  -0.076013   0.026040   0.183658   0.130384
   64  H  6  S   -0.289801  -0.102833  -0.255989   0.142582   0.159384
   65  H  7  S    0.057043   0.077543   0.027306   0.182101  -0.125556
   66  H  7  S    0.292911   0.116085  -0.249331   0.133025  -0.150855

                     46         47         48         49         50
                    1.7667     1.7861     1.8157     1.8664     1.9958
                     A          A          A          A          A   
    1  C  1  S    0.019713  -0.021728  -0.000032  -0.001682  -0.060083
    2  C  1  S    0.425421   0.171988   0.005421   0.145130  -0.961219
    3  C  1  X    0.122558   0.200254   0.003026   0.094178   0.061899
    4  C  1  Y    0.003189   0.127153   0.001564   0.065563  -0.093587
    5  C  1  Z    0.000537  -0.001684  -0.018889  -0.000345   0.001426
    6  C  1  S   -1.136123   0.371941  -0.006383   0.047651   3.016445
    7  C  1  X   -0.710180   0.445082  -0.001187   0.625505  -0.264875
    8  C  1  Y   -0.012220  -0.377205  -0.002653   0.259630   0.817874
    9  C  1  Z   -0.003571   0.022556  -0.559160   0.003948   0.021069
   10  C  1 XX   -0.025750   0.127936   0.001103   0.207145   0.178271
   11  C  1 YY    0.040951  -0.421794  -0.006667  -0.056905  -0.015933
   12  C  1 ZZ   -0.015201   0.293858   0.005564  -0.150239  -0.162338
   13  C  1 XY   -0.127219  -0.323896  -0.003659  -0.057132  -0.248049
   14  C  1 XZ   -0.005642   0.004702  -0.063308  -0.000230  -0.000859
   15  C  1 YZ   -0.004549  -0.005031   0.302531   0.000142  -0.005589
   16  C  2  S   -0.028210  -0.002791  -0.000179   0.009925   0.013471
   17  C  2  S   -0.154908   0.234232   0.002884   0.185594   0.242633
   18  C  2  X    0.022545  -0.228274  -0.002839  -0.054361  -0.028566
   19  C  2  Y    0.137562  -0.071382   0.000193   0.053940   0.011723
   20  C  2  Z   -0.000166  -0.000663   0.013490  -0.000401   0.001107
   21  C  2  S    1.770128  -1.794736  -0.015794  -0.594447  -1.373100
   22  C  2  X    0.365096  -1.154159  -0.014056   0.457515   0.719573
   23  C  2  Y   -0.338074   1.766074   0.016360   0.739970   0.286374
   24  C  2  Z    0.005492  -0.020126   0.097667  -0.005372  -0.008626
   25  C  2 XX   -0.082869  -0.415692  -0.005999  -0.121448  -0.023363
   26  C  2 YY    0.387969   0.152720   0.003789   0.149295   0.146194
   27  C  2 ZZ   -0.305100   0.262972   0.002210  -0.027847  -0.122831
   28  C  2 XY   -0.206780  -0.129204  -0.001600  -0.177117  -0.062480
   29  C  2 XZ    0.000415  -0.000957  -0.033517   0.001729   0.007379
   30  C  2 YZ   -0.006303   0.001774  -0.048828  -0.001070   0.010088
   31  O  3  S   -0.003582   0.000523  -0.000001  -0.002666   0.002005
   32  O  3  S    0.443858  -0.893319  -0.010170   0.057950  -0.065693
   33  O  3  X    0.059885  -0.036921  -0.000096   0.019297   0.042026
   34  O  3  Y    0.166955   0.171148   0.002979   0.111372   0.030135
   35  O  3  Z    0.000066  -0.001405  -0.009395  -0.001373  -0.000757
   36  O  3  S   -1.326808   2.861963   0.031700  -0.040597   0.075923
   37  O  3  X    0.348373  -0.927194  -0.010967  -0.081372  -0.136670
   38  O  3  Y   -0.320358  -0.061294  -0.001586  -0.257879  -0.101917
   39  O  3  Z    0.002218  -0.002641  -0.001212   0.002779   0.002623
   40  O  3 XX    0.331887  -0.015599   0.001627   0.115837  -0.059286
   41  O  3 YY    0.242225  -0.139637  -0.000010  -0.441162  -0.152690
   42  O  3 ZZ   -0.574112   0.155236  -0.001617   0.325325   0.211976
   43  O  3 XY    0.466368   0.165313   0.005826   0.019380  -0.144959
   44  O  3 XZ   -0.001138  -0.000276  -0.083230  -0.003308  -0.003076
   45  O  3 YZ   -0.016056   0.005540  -0.173413   0.004083  -0.007092
   46  H  4  S   -0.487086  -0.424251  -0.007612  -0.214819  -0.031589
   47  H  4  S    0.070957  -0.459208  -0.001978  -0.207817   0.109597
   48  F  5  S   -0.003695   0.009703   0.000160   0.039896  -0.033420
   49  F  5  S    0.117849  -0.078733  -0.001364  -0.639743   1.023504
   50  F  5  X   -0.067874  -0.021015  -0.001244  -0.138900  -0.009120
   51  F  5  Y   -0.044047   0.137256   0.002124   0.145627  -0.033735
   52  F  5  Z   -0.000783   0.003657  -0.106944   0.001511   0.003207
   53  F  5  S   -0.215578   0.159814   0.002187   0.859293  -2.001765
   54  F  5  X    0.076935  -0.048661   0.001020   0.214705  -0.433396
   55  F  5  Y    0.120434  -0.165673  -0.002678  -0.260439   0.309455
   56  F  5  Z    0.001733  -0.006904   0.196157  -0.002853  -0.004434
   57  F  5 XX    0.162180  -0.110260   0.002777  -0.046910   0.471060
   58  F  5 YY   -0.047600  -0.158956  -0.006350   0.516447   0.084241
   59  F  5 ZZ   -0.114580   0.269216   0.003574  -0.469537  -0.555301
   60  F  5 XY    0.037922  -0.230860  -0.002537   0.420577  -0.246669
   61  F  5 XZ   -0.004074  -0.007818   0.646119   0.000541  -0.007531
   62  F  5 YZ   -0.008541  -0.007614   0.642659   0.003434   0.011622
   63  H  6  S    0.095619  -0.131637  -0.267301   0.115223  -0.125531
   64  H  6  S    0.137243   0.052585  -0.175339   0.148463  -0.231321
   65  H  7  S    0.093845  -0.141765   0.266392   0.113076  -0.141926
   66  H  7  S    0.140421   0.034416   0.178681   0.145501  -0.238909

                     51         52         53         54         55
                    2.0131     2.0480     2.0892     2.1662     2.2315
                     A          A          A          A          A   
    1  C  1  S    0.002385   0.042393  -0.037873   0.016209  -0.001431
    2  C  1  S    0.020862   0.042722  -0.157125   0.077937  -0.008252
    3  C  1  X   -0.003982  -0.058508  -0.035103  -0.286866   0.006838
    4  C  1  Y   -0.000173  -0.036409   0.069846  -0.054365   0.003241
    5  C  1  Z    0.099926  -0.002520   0.001814  -0.002377  -0.091990
    6  C  1  S   -0.096560  -1.191274   1.426563  -0.517561   0.052190
    7  C  1  X   -0.006722  -0.289735   0.759582  -0.194835   0.016124
    8  C  1  Y   -0.026370   0.007453   0.214622  -0.626944   0.028225
    9  C  1  Z    1.007087  -0.016472   0.017522  -0.013602  -0.248046
   10  C  1 XX    0.006371   0.471709  -0.226688   0.015555  -0.003352
   11  C  1 YY    0.003665   0.151544   0.064032  -0.397220   0.009678
   12  C  1 ZZ   -0.010036  -0.623253   0.162656   0.381664  -0.006327
   13  C  1 XY   -0.003026  -0.055579   0.633461   0.133309   0.006970
   14  C  1 XZ    0.073809  -0.002395   0.001562   0.011347   0.436486
   15  C  1 YZ   -0.333085   0.010985  -0.013916   0.016576   0.775515
   16  C  2  S   -0.000937  -0.023296   0.011543   0.001415   0.000880
   17  C  2  S   -0.012849  -0.439988  -0.051768  -0.071252   0.005945
   18  C  2  X   -0.000268   0.155916   0.299904  -0.195187   0.008113
   19  C  2  Y   -0.001174   0.120319   0.168455   0.050801   0.000301
   20  C  2  Z    0.049765  -0.002146   0.001707  -0.003445  -0.149113
   21  C  2  S    0.066479   1.399606  -1.115688   0.799782  -0.054167
   22  C  2  X   -0.027264  -0.371863   0.022267  -0.389947   0.018280
   23  C  2  Y   -0.024752  -0.373212   1.096943  -0.189898   0.021361
   24  C  2  Z   -0.410320   0.006306  -0.010825   0.000550  -0.103489
   25  C  2 XX    0.001484   0.109077   0.145481  -0.370904   0.004953
   26  C  2 YY    0.007186   0.370041   0.111505   0.462272  -0.006746
   27  C  2 ZZ   -0.008670  -0.479118  -0.256986  -0.091368   0.001794
   28  C  2 XY    0.004553   0.097399  -0.111848   0.440085  -0.012342
   29  C  2 XZ    0.319130  -0.003228   0.006465  -0.002982   0.019012
   30  C  2 YZ    0.615251  -0.014717   0.000301   0.005387   0.464226
   31  O  3  S   -0.000095   0.001314   0.011936  -0.025955   0.000499
   32  O  3  S    0.005111   0.108583  -0.372864   0.452941  -0.012583
   33  O  3  X   -0.002354   0.008303   0.199192  -0.351450   0.007766
   34  O  3  Y   -0.003191  -0.013444   0.036768   0.101951  -0.000635
   35  O  3  Z   -0.045014   0.000407   0.000806  -0.003062  -0.044164
   36  O  3  S   -0.011496  -0.413922   0.787582  -0.278272   0.017751
   37  O  3  X    0.009526   0.197947  -0.400462   0.267218  -0.012438
   38  O  3  Y    0.008228   0.010972  -0.240866   0.006273  -0.004059
   39  O  3  Z    0.129019   0.000024  -0.000702   0.003677   0.184341
   40  O  3 XX   -0.001234   0.015559   0.214114  -0.024307   0.005540
   41  O  3 YY   -0.001213  -0.259243  -0.496820  -0.149981  -0.001017
   42  O  3 ZZ    0.002447   0.243684   0.282706   0.174288  -0.004523
   43  O  3 XY   -0.003740  -0.072034   0.329986  -0.147182   0.006372
   44  O  3 XZ   -0.177403  -0.001564   0.001162  -0.007922  -0.457362
   45  O  3 YZ   -0.470235   0.010588   0.004239  -0.002621  -0.126221
   46  H  4  S   -0.000440  -0.320103  -0.265537  -0.243895   0.006243
   47  H  4  S   -0.000824   0.019683  -0.284571   0.061597  -0.004882
   48  F  5  S    0.001372   0.022278  -0.040462  -0.007558  -0.000411
   49  F  5  S   -0.027383  -0.225654   0.428387   0.017087   0.008399
   50  F  5  X   -0.005071  -0.130689   0.348578  -0.000324   0.004177
   51  F  5  Y    0.002532   0.163158  -0.097853  -0.165273   0.002464
   52  F  5  Z    0.194224  -0.002864   0.001602  -0.003296  -0.073099
   53  F  5  S    0.046027   0.216395  -0.343251   0.148467  -0.016162
   54  F  5  X    0.013338   0.094089  -0.389248   0.137668  -0.009917
   55  F  5  Y   -0.005427  -0.178982  -0.018767   0.280818  -0.006773
   56  F  5  Z   -0.398590   0.006913  -0.005457   0.006502   0.157737
   57  F  5 XX   -0.007097  -0.090150  -0.168250   0.462740  -0.012968
   58  F  5 YY   -0.014998  -0.321463   0.095372  -0.517596   0.017501
   59  F  5 ZZ    0.022095   0.411614   0.072878   0.054857  -0.004533
   60  F  5 XY    0.005831  -0.245247  -0.090220   0.411698  -0.011575
   61  F  5 XZ   -0.246977   0.006751   0.000561  -0.000173  -0.047236
   62  F  5 YZ    0.400092  -0.011426   0.008571  -0.013976  -0.338011
   63  H  6  S    0.451511   0.395243  -0.195046  -0.127000  -0.451669
   64  H  6  S    0.224920  -0.014017  -0.021395  -0.091215   0.087052
   65  H  7  S   -0.429535   0.412285  -0.214697  -0.100390   0.450323
   66  H  7  S   -0.218527  -0.006383  -0.029242  -0.091694  -0.083731

                     56         57         58         59         60
                    2.3358     2.3995     2.5927     2.6691     2.7898
                     A          A          A          A          A   
[...]
  7   H            X 0.057667-0.005828 0.000302
                   Y-0.005828 0.145790-0.134348
                   Z 0.000302-0.134348 0.238297

          ------------------------          ----------------
          DIPOLE DERIVATIVE TENSOR          (DEBYE/ANGSTROM)
          ------------------------          ----------------

        ATOM                 MU-X           MU-Y           MU-Z
     C          D/DX     3.112779507   -1.637102120   -0.015006989
                D/DY    -2.430029190    1.163912124    0.005728275
                D/DZ    -0.017330250    0.008063333    1.982656025
     C          D/DX     5.038782009    0.026817584    0.023410989
                D/DY     0.112358347    4.144970066   -0.021058725
                D/DZ     0.020437688   -0.026968979    0.762071150
     O          D/DX    -4.435486342    0.299866245   -0.015630684
                D/DY     0.645829700   -2.393627913    0.009341018
                D/DZ    -0.017082312    0.011300246   -1.523802883
     H          D/DX    -0.088685491    0.248370698   -0.003421301
                D/DY     0.074849518   -1.155509050    0.011360710
                D/DZ    -0.004026681    0.010964980    0.356370915
     F          D/DX    -3.405728321    1.024310417    0.012847430
                D/DY     1.319324632   -1.818745142   -0.007589083
                D/DZ     0.012150069   -0.003916025   -1.132269305
     H          D/DX    -0.113412828    0.017436074   -0.008831992
                D/DY     0.138818011    0.032836885   -0.276867173
                D/DZ     0.046373623   -0.402520771   -0.226314099
     H          D/DX    -0.109815240    0.022044006    0.006642357
                D/DY     0.139830772    0.025301291    0.279057147
                D/DZ    -0.042614685    0.403317049   -0.218354732

          --------------------------------------------------------
          NORMAL COORDINATE ANALYSIS IN THE HARMONIC APPROXIMATION
          --------------------------------------------------------

     *******************************************************
     * THIS IS NOT A STATIONARY POINT ON THE MOLECULAR PES *
     *     THE VIBRATIONAL ANALYSIS IS NOT VALID !!!       *
     *******************************************************

          ATOMIC WEIGHTS (AMU)

    1     C                12.00000
    2     C                12.00000
    3     O                15.99491
    4     H                 1.00782
    5     F                18.99840
    6     H                 1.00782
    7     H                 1.00782

 MODES    1 TO    6 ARE TAKEN AS ROTATIONS AND TRANSLATIONS.

 ANALYZING SYMMETRY OF NORMAL MODES...

     FREQUENCIES IN CM**-1, IR INTENSITIES IN DEBYE**2/AMU-ANGSTROM**2,
     REDUCED MASSES IN AMU.

     *******************************************************
     * THIS IS NOT A STATIONARY POINT ON THE MOLECULAR PES *
     *     THE VIBRATIONAL ANALYSIS IS NOT VALID !!!       *
     *******************************************************

                            1           2           3           4           5
       FREQUENCY:         6.17        0.11        0.10        0.02        3.24  
        SYMMETRY:         A           A           A           A           A   
    REDUCED MASS:      6.27738     8.83999     8.82923     8.86054     9.83419
    IR INTENSITY:      0.02305     0.00001     0.00001     0.00000     0.00977

  1   C            X  0.00179686  0.06448916  0.10086930 -0.04597164  0.04459679
                   Y -0.00112845  0.02473576  0.03721279  0.11826943 -0.04669349
                   Z -0.09602962  0.10745725 -0.06891963 -0.00096538 -0.00045963
  2   C            X -0.00067541  0.06293214  0.09901534 -0.04609221 -0.03596411
                   Y  0.00233528  0.02681033  0.03970041  0.11842833  0.06120750
                   Z  0.09292946  0.10608022 -0.06809827 -0.00096611 -0.00115640
  3   O            X -0.00015839  0.06366320  0.09986667 -0.04603686  0.00134606
                   Y  0.00490168  0.02874316  0.04203079  0.11857720  0.16190559
                   Z  0.16082595  0.10421094 -0.06713786 -0.00096041 -0.00766290
  4   H            X -0.00287576  0.06106721  0.09677484 -0.04623474 -0.13279163
                   Y  0.00242948  0.02640084  0.03920094  0.11839858  0.03972463
                   Z  0.16213648  0.10691966 -0.06844316 -0.00097206  0.00489845
  5   F            X -0.00077228  0.06322384  0.09933717 -0.04607037 -0.02159546
                   Y -0.00488087  0.02277994  0.03486953  0.11812328 -0.14790012
                   Z -0.11896223  0.10915712 -0.06978226 -0.00096314  0.00568363
  6   H            X  0.07783308  0.06441447  0.10281508 -0.04589827  0.09831399
                   Y  0.08579028  0.02499014  0.03719142  0.11827661 -0.04201710
                   Z -0.15652164  0.10727132 -0.06886486 -0.00096680 -0.00262266
  7   H            X -0.07023564  0.06675119  0.10156445 -0.04589421  0.10438139
                   Y -0.08742861  0.02455222  0.03730620  0.11827485 -0.04745619
                   Z -0.15675603  0.10725832 -0.06886540 -0.00096576 -0.00270196

 TRANS. SAYVETZ    X  0.00101045  3.94223178  6.18673236 -2.85549232 -0.21470631
                   Y  0.00095252  1.58761715  2.37229072  7.33888574 -0.09617019
                   Z  0.12277872  6.62706953 -4.25161670 -0.05976502 -0.03440942
               TOTAL  0.12278657  7.87272317  7.87271651  7.87506521  0.23776356

   ROT. SAYVETZ    X  2.24620634  0.00701179 -0.00180207 -0.00000793  0.08745880
                   Y-19.34446051  0.30874737 -0.16655949 -0.00012215  0.77975525
                   Z  0.67534873  0.41061339  0.49294055  0.03125887 21.33069426
               TOTAL 19.48614101  0.51378736  0.52032269  0.03125911 21.34512087

                            6           7           8           9          10
       FREQUENCY:        16.33       76.84      319.06      529.85      721.00  
        SYMMETRY:         A           A           A           A           A   
    REDUCED MASS:      2.19325     2.75516     4.95052     8.89621     1.26343
    IR INTENSITY:      0.02791     0.46753     0.60354     0.08329     0.00004

  1   C            X -0.00135273  0.00006358  0.04451264 -0.08138958 -0.00132051
                   Y  0.00169378  0.00099891  0.12989178 -0.00236102 -0.00101613
                   Z -0.13999056  0.06580474  0.00033147  0.00033149 -0.09448942
  2   C            X  0.00059937  0.00021118  0.06434247  0.09209508  0.00167925
                   Y -0.00074821  0.00098695  0.10362481 -0.07190600  0.00037769
                   Z  0.05486626  0.15359285 -0.00171661  0.00061509 -0.07856329
  3   O            X -0.00011885  0.00084071 -0.00553857  0.15238289  0.00112848
                   Y -0.00465002 -0.00221693 -0.10051821  0.05367771  0.00021125
                   Z -0.05663970 -0.12366314  0.00070045 -0.00016582  0.04052128
  4   H            X  0.00264438 -0.00028354  0.24000101  0.05827775  0.00124656
                   Y  0.00183226  0.00399917  0.14080662 -0.07836597  0.00560702
                   Z  0.30418372  0.52063385 -0.00638096 -0.00421403  0.55790447
  5   F            X  0.00076894 -0.00095068 -0.09084222 -0.12291887 -0.00099828
                   Y  0.00295727  0.00034556 -0.08343565  0.00647767  0.00015651
                   Z  0.11630304 -0.07379661  0.00057146  0.00003438  0.02540473
  6   H            X -0.04185842  0.08931584  0.13111448 -0.14149636 -0.21094523
                   Y  0.24694161 -0.04873043  0.12269125 -0.00154601 -0.39146929
                   Z -0.31627045  0.10618050  0.00693892 -0.00035847  0.18971588
  7   H            X  0.03556160 -0.08763602  0.13301510 -0.14552070  0.20634451
                   Y -0.24209211  0.04995462  0.12420079 -0.00980595  0.38716236
                   Z -0.31842505  0.10681681 -0.00603879 -0.00456142  0.19131611

 TRANS. SAYVETZ    X -0.00001383  0.00009000 -0.00010911  0.00002555  0.00000878
                   Y -0.00011236  0.00020013  0.00000793  0.00001126  0.00000137
                   Z -0.05096491 -0.00785519 -0.00008487  0.00015436  0.00043460
               TOTAL  0.05096503  0.00785825  0.00013846  0.00015687  0.00043469

   ROT. SAYVETZ    X  6.27746704  0.88840555  0.00651302  0.00009304  0.00682241
                   Y  6.88249921  0.19841795  0.00847419 -0.00008438 -0.00073325
                   Z -0.52146179 -0.12568708  0.09046089  0.01306055  0.00156569
               TOTAL  9.32991480  0.91892945  0.09109009  0.01306116  0.00703806

                           11          12          13          14          15
       FREQUENCY:      1040.98     1105.55     1114.55     1247.71     1363.69  
        SYMMETRY:         A           A           A           A           A   
    REDUCED MASS:      3.98890     5.68068     1.82933     1.08831     1.21699
    IR INTENSITY:      0.49583     1.98865     0.02721     0.00799     0.20782

  1   C            X -0.08896597  0.16336367  0.00176166  0.00006135 -0.08549787
                   Y -0.15051656 -0.12170372  0.00014448 -0.00041042 -0.03149105
                   Z -0.00010227  0.00060808 -0.12561063 -0.03074219  0.00048481
  2   C            X  0.07352068  0.00122008 -0.00141671  0.00062949 -0.03453397
                   Y  0.17512204  0.01592461 -0.00093181  0.00044285 -0.05873930
                   Z  0.00163653 -0.00122550  0.15046574 -0.05814314 -0.00029994
  3   O            X -0.00271820 -0.01134009  0.00037326 -0.00028605 -0.01044660
                   Y -0.02411908 -0.01199514  0.00010106 -0.00011111  0.03864536
                   Z -0.00043433  0.00024803 -0.03152729  0.00945033 -0.00022839
  4   H            X  0.22911074 -0.09969172  0.00115011 -0.00196941  0.63268121
                   Y  0.21085093 -0.01508111 -0.00614258  0.00161410  0.07202284
                   Z -0.00983072  0.00365533 -0.50871967  0.12609555  0.00359482
  5   F            X  0.01604449 -0.11133933 -0.00105738 -0.00020098  0.00380762
                   Y  0.00848883  0.08710145  0.00075824  0.00016565  0.01715763
                   Z -0.00006136  0.00022715  0.02558986  0.03731617  0.00004069
  6   H            X -0.15197742  0.20733541  0.03004097  0.66216223  0.44558435
                   Y -0.13989554 -0.08444838 -0.33166595 -0.10128348  0.03364498
                   Z -0.01135529 -0.01585662  0.11373484  0.03750099 -0.03830286
  7   H            X -0.15247153  0.21161629 -0.02129382 -0.66009219  0.44491358
                   Y -0.14113402 -0.09253254  0.33128769  0.09792752  0.03195835
                   Z  0.01099889  0.01136937  0.11702298  0.04134821  0.03530849

 TRANS. SAYVETZ    X  0.00007104  0.00011019 -0.00000396 -0.00000211 -0.00003774
                   Y  0.00002969  0.00001257  0.00000190  0.00000350  0.00003536
                   Z  0.00003139  0.00003520  0.00001470  0.00002927 -0.00005647
               TOTAL  0.00008315  0.00011635  0.00001534  0.00002955  0.00007658

   ROT. SAYVETZ    X -0.00043764  0.00013615 -0.00134308 -0.00023884  0.00053271
                   Y -0.00080488 -0.00033208  0.00007706  0.00021199  0.00058835
                   Z -0.01937949  0.00514970  0.00079962 -0.00080351 -0.00517031
               TOTAL  0.01940113  0.00516219  0.00156499  0.00086465  0.00523088

                           16          17          18          19          20
       FREQUENCY:      1418.44     1498.67     1845.22     2934.14     3047.38  
        SYMMETRY:         A           A           A           A           A   
    REDUCED MASS:      1.33179     1.08607    10.56443     1.08615     1.05572
    IR INTENSITY:      0.44518     0.21307     2.93542     2.19192     0.35285

  1   C            X  0.11503939  0.02956368 -0.01574035  0.00358562 -0.00087300
                   Y  0.01887738 -0.07300886  0.00431695 -0.00075285 -0.06415535
                   Z  0.00001409 -0.00034678 -0.00011951 -0.00007965 -0.00264693
  2   C            X -0.02735802 -0.00193401  0.21447979  0.01304239  0.00035701
                   Y -0.05147759 -0.01012099 -0.06207537 -0.07982781  0.00042815
                   Z  0.00029640 -0.00006633  0.00132336  0.00066427 -0.00003428
  3   O            X -0.04358474 -0.00849950 -0.14457423  0.00040558 -0.00006642
                   Y  0.04109705  0.00566653  0.05173600  0.00074486 -0.00002751
                   Z -0.00048229 -0.00008378 -0.00093130 -0.00000199  0.00000295
  4   H            X  0.62479529  0.08428195 -0.07654770 -0.17972859  0.00090599
                   Y  0.06459461  0.00702907 -0.11181525  0.93901094  0.00120461
                   Z  0.00208267  0.00088748  0.00028950 -0.00786298 -0.00015748
  5   F            X -0.01150230  0.00015284 -0.00355374 -0.00115221  0.00133430
                   Y -0.00438927 -0.00787351 -0.00128469  0.00071320 -0.00058342
                   Z  0.00002008 -0.00000236  0.00000885  0.00000363  0.00000886
  6   H            X -0.37845291 -0.14044975  0.03509029 -0.00157165 -0.00744891
                   Y -0.12275200  0.52222021  0.00099903 -0.00211897  0.39277020
                   Z  0.09124988 -0.40070854  0.00211751  0.00104751  0.58450811
  7   H            X -0.38173879 -0.14069255  0.03653531 -0.00139843 -0.01137655
                   Y -0.12320455  0.51904582  0.00166112 -0.00271252  0.37624459
                   Z -0.08981188  0.40608764 -0.00200322 -0.00016726 -0.55265423

 TRANS. SAYVETZ    X  0.00006136  0.00011025 -0.00005462  0.00000473  0.00003551
                   Y -0.00002913 -0.00000856 -0.00000463 -0.00001499 -0.00000407
                   Z -0.00005842 -0.00002650  0.00012536  0.00001524 -0.00001460
               TOTAL  0.00008959  0.00011372  0.00013682  0.00002189  0.00003861

   ROT. SAYVETZ    X -0.00049686  0.00005337  0.00020879  0.00003424  0.00000269
                   Y -0.00025532 -0.00088379 -0.00031162 -0.00008046  0.00003638
                   Z  0.01291280  0.00595318 -0.00170607  0.00232390 -0.00021285
               TOTAL  0.01292488  0.00601866  0.00174681  0.00232554  0.00021595

                           21
       FREQUENCY:      3093.84  
        SYMMETRY:         A   
    REDUCED MASS:      1.10811
    IR INTENSITY:      0.41272

  1   C            X -0.00028138
                   Y  0.00211064
                   Z -0.09070039
  2   C            X -0.00005263
                   Y  0.00005269
                   Z -0.00104196
  3   O            X  0.00001458
                   Y -0.00001122
                   Z  0.00020207
  4   H            X  0.00006498
                   Y -0.00080555
                   Z -0.00415933
  5   F            X -0.00002563
                   Y  0.00000185
                   Z  0.00068506
  6   H            X  0.00345514
                   Y  0.38118748
                   Z  0.52668692
  7   H            X  0.00070696
                   Y -0.40599740
                   Z  0.55375061

 TRANS. SAYVETZ    X -0.00000168
                   Y -0.00000024
                   Z  0.00003900
               TOTAL  0.00003903

   ROT. SAYVETZ    X -0.00034824
                   Y -0.00028214
                   Z  0.00003301
               TOTAL  0.00044940

 REFERENCE ON SAYVETZ CONDITIONS - A. SAYVETZ, J.CHEM.PHYS., 7, 383-389(1939).

 NOTE - THE MODES J,K ARE ORTHONORMALIZED ACCORDING TO
 SUM ON I   M(I) * (X(I,J)*X(I,K) + Y(I,J)*Y(I,K) + Z(I,J)*Z(I,K)) = DELTA(J,K)

  MODE FREQ(CM**-1)  SYMMETRY  RED. MASS  IR INTENS.
     1       6.166    A        6.277381    0.023050
     2       0.108    A        8.839986    0.000006
     3       0.100    A        8.829227    0.000006
     4       0.019    A        8.860537    0.000000
     5       3.243    A        9.834193    0.009770
     6      16.328    A        2.193253    0.027909
     7      76.835    A        2.755158    0.467534
     8     319.057    A        4.950522    0.603538
     9     529.854    A        8.896208    0.083292
    10     721.001    A        1.263425    0.000042
    11    1040.979    A        3.988905    0.495828
    12    1105.549    A        5.680679    1.988655
    13    1114.553    A        1.829327    0.027209
    14    1247.709    A        1.088305    0.007989
    15    1363.689    A        1.216985    0.207816
    16    1418.436    A        1.331795    0.445183
    17    1498.674    A        1.086073    0.213066
    18    1845.217    A       10.564430    2.935420
    19    2934.142    A        1.086151    2.191918
    20    3047.382    A        1.055723    0.352849
    21    3093.842    A        1.108107    0.412720

     -------------------------------
     THERMOCHEMISTRY AT T=  298.15 K
     -------------------------------

 USING IDEAL GAS, RIGID ROTOR, HARMONIC NORMAL MODE APPROXIMATIONS.
 P=  1.01325E+05 PASCAL.
 ALL FREQUENCIES ARE SCALED BY   1.00000
 THE MOMENTS OF INERTIA ARE (IN AMU*BOHR**2)
     45.24909   422.34748   456.16390
 THE ROTATIONAL SYMMETRY NUMBER IS  1.0
 THE ROTATIONAL CONSTANTS ARE (IN GHZ)
     39.84805     4.26921     3.95272
      7 -     21 VIBRATIONAL MODES ARE USED IN THERMOCHEMISTRY.
 THE HARMONIC ZERO POINT ENERGY IS (SCALED BY   1.000)
        0.048655 HARTREE/MOLECULE    10678.459143 CM**-1/MOLECULE 
       30.531277 KCAL/MOL              127.742865 KJ/MOL

               Q               LN Q
 ELEC.     1.00000E+00       0.000000
 TRANS.    1.91963E+07      16.770228
 ROT.      3.34227E+04      10.416991
 VIB.      4.69739E+00       1.547007
 TOT.      3.01381E+12      28.734227

              E         H         G         CV        CP        S
           KJ/MOL    KJ/MOL    KJ/MOL   J/MOL-K   J/MOL-K   J/MOL-K
 ELEC.      0.000     0.000     0.000     0.000     0.000     0.000
 TRANS.     3.718     6.197   -41.572    12.472    20.786   160.221
 ROT.       3.718     3.718   -25.823    12.472    12.472    99.083
 VIB.     131.941   131.941   123.908    29.056    29.056    26.944
 TOTAL    139.378   141.857    56.512    53.999    62.314   286.247
 VIB. THERMAL CORRECTION E(T)-E(0) = H(T)-H(0) =  4198.266 J/MOL

              E         H         G         CV        CP        S
         KCAL/MOL  KCAL/MOL  KCAL/MOL CAL/MOL-K CAL/MOL-K CAL/MOL-K
 ELEC.      0.000     0.000     0.000     0.000     0.000     0.000
 TRANS.     0.889     1.481    -9.936     2.981     4.968    38.294
 ROT.       0.889     0.889    -6.172     2.981     2.981    23.681
 VIB.      31.535    31.535    29.615     6.945     6.945     6.440
 TOTAL     33.312    33.905    13.507    12.906    14.893    68.415
 VIB. THERMAL CORRECTION E(T)-E(0) = H(T)-H(0) =  1003.410 CAL/MOL

     *******************************************************
     * THIS IS NOT A STATIONARY POINT ON THE MOLECULAR PES *
     *     THE VIBRATIONAL ANALYSIS IS NOT VALID !!!       *
     *******************************************************
 ......END OF NORMAL COORDINATE ANALYSIS......
 STEP CPU TIME =     0.01 TOTAL CPU TIME =        283.3 (      4.7 MIN)
 TOTAL WALL CLOCK TIME=        285.5 SECONDS, CPU UTILIZATION IS    99.24%
                990930  WORDS OF DYNAMIC MEMORY USED
 EXECUTION OF GAMESS TERMINATED NORMALLY Fri Oct 18 09:40:58 2019
 DDI: 263640 bytes (0.3 MB / 0 MWords) used by master data server.

 ----------------------------------------
 CPU timing information for all processes
 ========================================
 0: 278.139 + 5.201 = 283.341
 ----------------------------------------
 ddikick.x: exited gracefully.
----- accounting info -----
Files used on the master node crcfe02.crc.nd.edu were:
-rw-r--r-- 1 cdrisko campus      652 Oct 18 09:36 /afs/crc.nd.edu/user/c/cdrisko/acetaldehyde-F_vib.F05
-rw-r--r-- 1 cdrisko campus    90343 Oct 18 09:40 /afs/crc.nd.edu/user/c/cdrisko/acetaldehyde-F_vib.F07
-rw-r--r-- 1 cdrisko campus 24842208 Oct 18 09:40 /afs/crc.nd.edu/user/c/cdrisko/acetaldehyde-F_vib.F08
-rw-r--r-- 1 cdrisko campus  2028640 Oct 18 09:40 /afs/crc.nd.edu/user/c/cdrisko/acetaldehyde-F_vib.F10
-rw-r--r-- 1 cdrisko campus  2041032 Oct 18 09:40 /afs/crc.nd.edu/user/c/cdrisko/acetaldehyde-F_vib.F22
Fri Oct 18 09:41:01 EDT 2019
0.473u 0.258s 4:49.23 0.2%	0+0k 0+16io 0pf+0w
