----- GAMESS execution script 'rungms' -----
This job is running on host crcfe02.crc.nd.edu
under operating system Linux at Fri Oct 18 09:45:47 EDT 2019
Available scratch disk space (Kbyte units) at beginning of the job is
Filesystem      1K-blocks  Used  Available Use% Mounted on
AFS            2147483647     0 2147483647   0% /afs
GAMESS temporary binary files will be written to /afs/crc.nd.edu/user/c/cdrisko
GAMESS supplementary output files will be written to /afs/crc.nd.edu/user/c/cdrisko/scr
Copying input file acetaldehyde-F_MP2.inp to your run's scratch directory...

 Distributed Data Interface kickoff program.
 Initiating 1 compute processes on 1 nodes to run the following command:
 /afs/crc.nd.edu/x86_64_linux/g/gamess/nov-2017/gamess/gamess.00.x acetaldehyde-F_MP2 

          ******************************************************
          *         GAMESS VERSION = 11 NOV 2017 (R3)         *
          *             FROM IOWA STATE UNIVERSITY             *
          * M.W.SCHMIDT, K.K.BALDRIDGE, J.A.BOATZ, S.T.ELBERT, *
          *   M.S.GORDON, J.H.JENSEN, S.KOSEKI, N.MATSUNAGA,   *
          *          K.A.NGUYEN, S.J.SU, T.L.WINDUS,           *
          *       TOGETHER WITH M.DUPUIS, J.A.MONTGOMERY       *
          *         J.COMPUT.CHEM.  14, 1347-1363(1993)        *
          **************** 64 BIT INTEL VERSION ****************

  SINCE 1993, STUDENTS AND POSTDOCS WORKING AT IOWA STATE UNIVERSITY
  AND ALSO IN THEIR VARIOUS JOBS AFTER LEAVING ISU HAVE MADE IMPORTANT
  CONTRIBUTIONS TO THE CODE:
     IVANA ADAMOVIC, CHRISTINE AIKENS, YURI ALEXEEV, POOJA ARORA,
     ANDREY ASADCHEV, ROB BELL, PRADIPTA BANDYOPADHYAY, JONATHAN BENTZ,
     BRETT BODE, KURT BRORSEN, CALEB CARLIN, GALINA CHABAN, WEI CHEN,
     CHEOL HO CHOI, PAUL DAY, ALBERT DEFUSCO, NUWAN DESILVA, TIM DUDLEY,
     DMITRI FEDOROV, ALEX FINDLATER, GRAHAM FLETCHER, MARK FREITAG,
     KURT GLAESEMANN, ANASTASIA GUININA,
     DAN KEMP, GRANT MERRILL, NORIYUKI MINEZAWA, JONATHAN MULLIN,
     TAKESHI NAGATA, SEAN NEDD, HEATHER NETZLOFF, BOSILJKA NJEGIC, RYAN OLSON,
     MIKE PAK, BUU PHAM,
     SPENCER PRUITT, LUKE ROSKOP, JIM SHOEMAKER, LYUDMILA SLIPCHENKO,
     TONY SMITH, SAROM SOK LEANG, JIE SONG, TETSUYA TAKETSUGU, SIMON WEBB,
     PENG XU, SOOHAENG YOO, FEDERICO ZAHARIEV

  ADDITIONAL CODE HAS BEEN PROVIDED BY COLLABORATORS IN OTHER GROUPS:
     IOWA STATE UNIVERSITY:
          JOE IVANIC, AARON WEST, LAIMUTIS BYTAUTAS, KLAUS RUEDENBERG
     UNIVERSITY OF TOKYO: KIMIHIKO HIRAO, TAKAHITO NAKAJIMA,
          TAKAO TSUNEDA, MUNEAKI KAMIYA, SUSUMU YANAGISAWA,
          KIYOSHI YAGI, MAHITO CHIBA, SEIKEN TOKURA, NAOAKI KAWAKAMI
     UNIVERSITY OF AARHUS: FRANK JENSEN
     UNIVERSITY OF IOWA: VISVALDAS KAIRYS, HUI LI
     NATIONAL INST. OF STANDARDS AND TECHNOLOGY: WALT STEVENS, DAVID GARMER
     UNIVERSITY OF PISA: BENEDETTA MENNUCCI, JACOPO TOMASI
     UNIVERSITY OF MEMPHIS: HENRY KURTZ, PRAKASHAN KORAMBATH
     UNIVERSITY OF ALBERTA: TOBY ZENG, MARIUSZ KLOBUKOWSKI
     UNIVERSITY OF NEW ENGLAND: MARK SPACKMAN
     MIE UNIVERSITY: HIROAKI UMEDA
     NAT. INST. OF ADVANCED INDUSTRIAL SCIENCE AND TECHNOLOGY: KAZUO KITAURA
     MICHIGAN STATE UNIVERSITY:
          KAROL KOWALSKI, MARTA WLOCH, JEFFREY GOUR, JESSE LUTZ,
          WEI LI, PIOTR PIECUCH
     UNIVERSITY OF SILESIA: MONIKA MUSIAL, STANISLAW KUCHARSKI
     FACULTES UNIVERSITAIRES NOTRE-DAME DE LA PAIX:
          OLIVIER QUINET, BENOIT CHAMPAGNE
     UNIVERSITY OF CALIFORNIA - SANTA BARBARA: BERNARD KIRTMAN
     INSTITUTE FOR MOLECULAR SCIENCE:
          KAZUYA ISHIMURA, MICHIO KATOUDA, AND SHIGERU NAGASE
     UNIVERSITY OF NOTRE DAME: ANNA POMOGAEVA, DAN CHIPMAN
     KYUSHU UNIVERSITY:
          HARUYUKI NAKANO,
          FENG LONG GU, JACEK KORCHOWIEC, MARCIN MAKOWSKI, AND YURIKO AOKI,
          HIROTOSHI MORI AND EISAKU MIYOSHI
     PENNSYLVANIA STATE UNIVERSITY:
          TZVETELIN IORDANOV, CHET SWALINA, JONATHAN SKONE,
          SHARON HAMMES-SCHIFFER
     WASEDA UNIVERSITY:
          MASATO KOBAYASHI, TOMOKO AKAMA, TSUGUKI TOUMA,
          TAKESHI YOSHIKAWA, YASUHIRO IKABATA, JUNJI SEINO,
          YUYA NAKAJIMA, HIROMI NAKAI
     NANJING UNIVERSITY: SHUHUA LI
     UNIVERSITY OF NEBRASKA:
          PEIFENG SU, DEJUN SI, NANDUN THELLAMUREGE, YALI WANG, HUI LI
     UNIVERSITY OF ZURICH: ROBERTO PEVERATI, KIM BALDRIDGE
     N. COPERNICUS UNIVERSITY AND JACKSON STATE UNIVERSITY:
          MARIA BARYSZ
     UNIVERSITY OF COPENHAGEN: Jimmy Kromann, CASPER STEINMANN
     TOKYO INSTITUTE OF TECHNOLOGY: HIROYA NAKATA
     NAGOYA UNIVERSITY: YOSHIO NISHIMOTO, STEPHAN IRLE
     MOSCOW STATE UNIVERSITY: VLADIMIR MIRONOV

 EXECUTION OF GAMESS BEGUN Fri Oct 18 09:45:48 2019

            ECHO OF THE FIRST FEW INPUT CARDS -
 INPUT CARD> $CONTRL SCFTYP=RHF MPLEVL=2 RUNTYP=ENERGY                                      
 INPUT CARD>       ICHARG=0 MULT=1 COORD=CART $END                                          
 INPUT CARD> $BASIS GBASIS=N31 NGAUSS=6 NDFUNC=1 $END                                       
 INPUT CARD> $DATA                                                                          
 INPUT CARD>C2H3OF                                                                          
 INPUT CARD>C1 1                                                                            
 INPUT CARD>C 6 0.00000000 0.00000000 0.00000000                                            
 INPUT CARD>C 6 1.21601500 0.91297200 -0.00084900                                           
 INPUT CARD>O 8 2.34938000 0.49317100 0.00654000                                            
 INPUT CARD>H 1 0.97549700 1.99900900 -0.01011300                                           
 INPUT CARD>F 9 -1.15637600 0.75908400 0.00599100                                           
 INPUT CARD>H 1 0.01944900 -0.63789300 -0.89365700                                          
 INPUT CARD>H 1 0.02529200 -0.64499400 0.88815100                                           
 INPUT CARD> $END                                                                           
    1000000 WORDS OF MEMORY AVAILABLE


                    * * * WARNING * * *
 OLD KEYWORD COORD=CART SELECTED, AUTOMATICALLY CHANGED TO COORD=PRINAXIS.
 YOUR MOLECULE'S COORDINATES WILL BE CHANGED TO PRINCIPAL AXES BY
   A) TRANSLATION TO THE CENTER OF MASS, THEN
   B) ROTATION TO HAVE A DIAGONAL MOMENT OF INERTIA TENSOR.

 HOWEVER, NOTHING ELSE IN YOUR INPUT WILL BE ROTATED IN THE SAME WAY,
 SO IF YOU HAVE A $VEC, $VIB, $GRAD, $HESS, EFP PARTICLE COORDINATES,
 OR ANYTHING ELSE THAT DEPENDS ON THE INITIAL ORIENTATION, THAT DATA
 WILL NOT BE USED CORRECTLY IN THIS RUN.

 THE PURPOSE OF COORD=PRINAXIS IS TO BE USED ONCE, ONLY AT THE VERY
 BEGINNING OF A SERIES OF COMPUTATIONS, PERHAPS TO FIND THE SYMMETRY
 UNIQUE ATOMS FROM AN ARBITRARY INITIAL ORIENTATION.

 AFTER THE FIRST RUN, YOU SHOULD USE ONLY COORD=UNIQUE, TO ENSURE THAT
 THE COORDINATES WHICH YOU READ IN ARE THE COORDINATES THAT ARE USED.


     BASIS OPTIONS
     -------------
     GBASIS=N31          IGAUSS=       6      POLAR=POPN31  
     NDFUNC=       1     NFFUNC=       0     DIFFSP=       F
     NPFUNC=       0      DIFFS=       F     BASNAM=        


     RUN TITLE
     ---------
 C2H3OF                                                                          

 THE POINT GROUP OF THE MOLECULE IS C1      
 THE ORDER OF THE PRINCIPAL AXIS IS     1

 THE MOMENTS OF INERTIA ARE (AMU-ANGSTROM**2)
 IXX=    12.671   IYY=   118.269   IZZ=   127.739

 ATOM      ATOMIC                      COORDINATES (BOHR)
           CHARGE         X                   Y                   Z
 C           6.0     0.9515918674        1.0356249144       -0.0058654278
 C           6.0    -1.3463428018       -0.6896426361       -0.0074701120
 O           8.0    -3.4880923156        0.1036656277        0.0064932158
 H           1.0    -0.8918291184       -2.7419548497       -0.0249768998
 F           9.0     3.1368260434       -0.3988352442        0.0054556637
 H           1.0     0.9148382521        2.2410681849       -1.6946320698
 H           1.0     0.9037965809        2.2544865254        1.6724968154

          INTERNUCLEAR DISTANCES (ANGS.)
          ------------------------------

                1 C          2 C          3 O          4 H          5 F     

   1 C       0.0000000    1.5205956 *  2.4005930 *  2.2243502 *  1.3832751 *
   2 C       1.5205956 *  0.0000000    1.2086371 *  1.1123898 *  2.3773867 *
   3 O       2.4005930 *  1.2086371 *  0.0000000    2.0384749 *  3.5158264  
   4 H       2.2243502 *  1.1123898 *  2.0384749 *  0.0000000    2.4662838 *
   5 F       1.3832751 *  2.3773867 *  3.5158264    2.4662838 *  0.0000000  
   6 H       1.0981387 *  2.1526864 *  2.7419407 *  2.9407363 *  2.0355529 *
   7 H       1.0979386 *  2.1529980 *  2.7338695 *  2.9496643 *  2.0361681 *

                6 H          7 H     

   1 C       1.0981387 *  1.0979386 *
   2 C       2.1526864 *  2.1529980 *
   3 O       2.7419407 *  2.7338695 *
   4 H       2.9407363 *  2.9496643 *
   5 F       2.0355529 *  2.0361681 *
   6 H       0.0000000    1.7818317 *
   7 H       1.7818317 *  0.0000000  

  * ... LESS THAN  3.000


     ATOMIC BASIS SET
     ----------------
 THE CONTRACTED PRIMITIVE FUNCTIONS HAVE BEEN UNNORMALIZED
 THE CONTRACTED BASIS FUNCTIONS ARE NOW NORMALIZED TO UNITY

  SHELL TYPE  PRIMITIVE        EXPONENT          CONTRACTION COEFFICIENT(S)

 C         

      1   S       1          3047.5248800    0.001834737132
      1   S       2           457.3695180    0.014037322813
      1   S       3           103.9486850    0.068842622264
      1   S       4            29.2101553    0.232184443216
      1   S       5             9.2866630    0.467941348435
      1   S       6             3.1639270    0.362311985337

      2   L       7             7.8682723   -0.119332419775    0.068999066591
      2   L       8             1.8812885   -0.160854151696    0.316423960957
      2   L       9             0.5442493    1.143456437840    0.744308290898

      3   L      10             0.1687145    1.000000000000    1.000000000000

      4   D      11             0.8000000    1.000000000000

 C         

      5   S      12          3047.5248800    0.001834737132
      5   S      13           457.3695180    0.014037322813
      5   S      14           103.9486850    0.068842622264
      5   S      15            29.2101553    0.232184443216
      5   S      16             9.2866630    0.467941348435
      5   S      17             3.1639270    0.362311985337

      6   L      18             7.8682723   -0.119332419775    0.068999066591
      6   L      19             1.8812885   -0.160854151696    0.316423960957
      6   L      20             0.5442493    1.143456437840    0.744308290898

      7   L      21             0.1687145    1.000000000000    1.000000000000

      8   D      22             0.8000000    1.000000000000

 O         

      9   S      23          5484.6716600    0.001831074430
      9   S      24           825.2349460    0.013950172200
      9   S      25           188.0469580    0.068445078098
      9   S      26            52.9645000    0.232714335992
      9   S      27            16.8975704    0.470192897984
      9   S      28             5.7996353    0.358520852987

     10   L      29            15.5396162   -0.110777549525    0.070874268231
     10   L      30             3.5999336   -0.148026262701    0.339752839147
     10   L      31             1.0137618    1.130767015354    0.727158577316

     11   L      32             0.2700058    1.000000000000    1.000000000000

     12   D      33             0.8000000    1.000000000000

 H         

     13   S      34            18.7311370    0.033494604338
     13   S      35             2.8253944    0.234726953484
     13   S      36             0.6401217    0.813757326146

     14   S      37             0.1612778    1.000000000000

 F         

     15   S      38          7001.7130900    0.001819616901
     15   S      39          1051.3660900    0.013916079607
     15   S      40           239.2856900    0.068405324535
     15   S      41            67.3974453    0.233185760119
     15   S      42            21.5199573    0.471267439240
     15   S      43             7.4031013    0.356618546182

     16   L      44            20.8479528   -0.108506975109    0.071628724237
     16   L      45             4.8083083   -0.146451658147    0.345912102697
     16   L      46             1.3440699    1.128688581135    0.722469956367

     17   L      47             0.3581514    1.000000000000    1.000000000000

     18   D      48             0.8000000    1.000000000000

 H         

     19   S      49            18.7311370    0.033494604338
     19   S      50             2.8253944    0.234726953484
     19   S      51             0.6401217    0.813757326146

     20   S      52             0.1612778    1.000000000000

 H         

     21   S      53            18.7311370    0.033494604338
     21   S      54             2.8253944    0.234726953484
     21   S      55             0.6401217    0.813757326146

     22   S      56             0.1612778    1.000000000000

 TOTAL NUMBER OF BASIS SET SHELLS             =   22
 NUMBER OF CARTESIAN GAUSSIAN BASIS FUNCTIONS =   66
 NUMBER OF ELECTRONS                          =   32
 CHARGE OF MOLECULE                           =    0
 SPIN MULTIPLICITY                            =    1
 NUMBER OF OCCUPIED ORBITALS (ALPHA)          =   16
 NUMBER OF OCCUPIED ORBITALS (BETA )          =   16
 TOTAL NUMBER OF ATOMS                        =    7
 THE NUCLEAR REPULSION ENERGY IS      113.0893956963

     $CONTRL OPTIONS
     ---------------
 SCFTYP=RHF          RUNTYP=ENERGY       EXETYP=RUN     
 MPLEVL=       2     CITYP =NONE         CCTYP =NONE         VBTYP =NONE    
 DFTTYP=NONE         TDDFT =NONE    
 MULT  =       1     ICHARG=       0     NZVAR =       0     COORD =PRINAXIS
 PP    =NONE         RELWFN=NONE         LOCAL =NONE         NUMGRD=       F
 ISPHER=      -1     NOSYM =       0     MAXIT =      30     UNITS =ANGS    
 PLTORB=       F     MOLPLT=       F     AIMPAC=       F     FRIEND=        
 NPRINT=       7     IREST =       0     GEOM  =INPUT   
 NORMF =       0     NORMP =       0     ITOL  =      20     ICUT  =       9
 INTTYP=BEST         GRDTYP=BEST         QMTTOL= 1.0E-06

     $SYSTEM OPTIONS
     ---------------
  REPLICATED MEMORY=     1000000 WORDS (ON EVERY NODE).
 DISTRIBUTED MEMDDI=           0 MILLION WORDS IN AGGREGATE,
 MEMDDI DISTRIBUTED OVER   1 PROCESSORS IS           0 WORDS/PROCESSOR.
 TOTAL MEMORY REQUESTED ON EACH PROCESSOR=     1000000 WORDS.
 TIMLIM=      525600.00 MINUTES, OR     365.0 DAYS.
 PARALL= F  BALTYP=  DLB     KDIAG=    0  COREFL= F
 MXSEQ2=     300 MXSEQ3=     150  mem10=         0

          ----------------
          PROPERTIES INPUT
          ----------------

     MOMENTS            FIELD           POTENTIAL          DENSITY
 IEMOM =       1   IEFLD =       0   IEPOT =       0   IEDEN =       0
 WHERE =COMASS     WHERE =NUCLEI     WHERE =NUCLEI     WHERE =NUCLEI  
 OUTPUT=BOTH       OUTPUT=BOTH       OUTPUT=BOTH       OUTPUT=BOTH    
 IEMINT=       0   IEFINT=       0                     IEDINT=       0
                                                       MORB  =       0
          EXTRAPOLATION IN EFFECT
          SOSCF IN EFFECT
 ORBITAL PRINTING OPTION: NPREO=     1    66     2     1

     -------------------------------
     INTEGRAL TRANSFORMATION OPTIONS
     -------------------------------
     NWORD  =            0
     CUTOFF = 1.0E-09     MPTRAN =       0
     DIRTRF =       F     AOINTS =DUP     

          ----------------------
          INTEGRAL INPUT OPTIONS
          ----------------------
 NOPK  =       1 NORDER=       0 SCHWRZ=       T

          -----------------------
          MP2 CONTROL INFORMATION
          -----------------------
          NACORE =        4  NBCORE =        4
          LMOMP2 =        F  AOINTS = DUP     
          METHOD =        2  NWORD  =               0
          MP2PRP =        F  OSPT   = NONE    
          CUTOFF = 1.00E-09  CPHFBS = BASISAO 
          CODE   = IMS     

          NUMBER OF CORE -A-  ORBITALS =     4
          NUMBER OF CORE -B-  ORBITALS =     4
          NUMBER OF OCC. -A-  ORBITALS =    16
          NUMBER OF OCC. -B-  ORBITALS =    16
          NUMBER OF MOLECULAR ORBITALS =    66
          NUMBER OF   BASIS  FUNCTIONS =    66


     ------------------------------------------
     THE POINT GROUP IS C1 , NAXIS= 1, ORDER= 1
     ------------------------------------------

     DIMENSIONS OF THE SYMMETRY SUBSPACES ARE
 A   =   66

 ..... DONE SETTING UP THE RUN .....
 STEP CPU TIME =     0.02 TOTAL CPU TIME =          0.0 (      0.0 MIN)
 TOTAL WALL CLOCK TIME=          0.0 SECONDS, CPU UTILIZATION IS    66.67%

          ********************
          1 ELECTRON INTEGRALS
          ********************
 ...... END OF ONE-ELECTRON INTEGRALS ......
 STEP CPU TIME =     0.00 TOTAL CPU TIME =          0.0 (      0.0 MIN)
 TOTAL WALL CLOCK TIME=          0.0 SECONDS, CPU UTILIZATION IS    66.67%

          -------------
          GUESS OPTIONS
          -------------
          GUESS =HUCKEL            NORB  =       0          NORDER=       0
          MIX   =       F          PRTMO =       F          PUNMO =       F
          TOLZ  = 1.0E-08          TOLE  = 1.0E-05
          SYMDEN=       F          PURIFY=       F

 INITIAL GUESS ORBITALS GENERATED BY HUCKEL   ROUTINE.
 HUCKEL GUESS REQUIRES     39228 WORDS.

 SYMMETRIES FOR INITIAL GUESS ORBITALS FOLLOW.   BOTH SET(S).
    16 ORBITALS ARE OCCUPIED (    4 CORE ORBITALS).
     5=A        6=A        7=A        8=A        9=A       10=A       11=A   
    12=A       13=A       14=A       15=A       16=A       17=A       18=A   
    19=A       20=A       21=A       22=A       23=A       24=A       25=A   
    26=A   
 ...... END OF INITIAL ORBITAL SELECTION ......
 STEP CPU TIME =     0.01 TOTAL CPU TIME =          0.0 (      0.0 MIN)
 TOTAL WALL CLOCK TIME=          0.0 SECONDS, CPU UTILIZATION IS    75.00%

                    ----------------------
                    AO INTEGRAL TECHNOLOGY
                    ----------------------
     S,P,L SHELL ROTATED AXIS INTEGRALS, REPROGRAMMED BY
        KAZUYA ISHIMURA (IMS) AND JOSE SIERRA (SYNSTAR).
     S,P,D,L SHELL ROTATED AXIS INTEGRALS PROGRAMMED BY
        KAZUYA ISHIMURA (INSTITUTE FOR MOLECULAR SCIENCE).
     S,P,D,F,G SHELL TO TOTAL QUARTET ANGULAR MOMENTUM SUM 5,
        ERIC PROGRAM BY GRAHAM FLETCHER (ELORET AND NASA ADVANCED
        SUPERCOMPUTING DIVISION, AMES RESEARCH CENTER).
     S,P,D,F,G,L SHELL GENERAL RYS QUADRATURE PROGRAMMED BY
        MICHEL DUPUIS (PACIFIC NORTHWEST NATIONAL LABORATORY).

          --------------------
          2 ELECTRON INTEGRALS
          --------------------

 THE -PK- OPTION IS OFF, THE INTEGRALS ARE NOT IN SUPERMATRIX FORM.
 STORING   15000 INTEGRALS/RECORD ON DISK, USING 12 BYTES/INTEGRAL.
 TWO ELECTRON INTEGRAL EVALUATION REQUIRES   90649 WORDS OF MEMORY.
 SCHWARZ INEQUALITY OVERHEAD:      2200 INTEGRALS, T=        0.00
 II,JST,KST,LST =  1  1  1  1 NREC =         1 INTLOC =    1
 II,JST,KST,LST =  2  1  1  1 NREC =         1 INTLOC =    2
 II,JST,KST,LST =  3  1  1  1 NREC =         1 INTLOC =   34
 II,JST,KST,LST =  4  1  1  1 NREC =         1 INTLOC =  214
 II,JST,KST,LST =  5  1  1  1 NREC =         1 INTLOC = 1189
 II,JST,KST,LST =  6  1  1  1 NREC =         1 INTLOC = 3195
 II,JST,KST,LST =  7  1  1  1 NREC =         2 INTLOC =  917
 II,JST,KST,LST =  8  1  1  1 NREC =         3 INTLOC = 8135
 II,JST,KST,LST =  9  1  1  1 NREC =         7 INTLOC = 5999
 II,JST,KST,LST = 10  1  1  1 NREC =         8 INTLOC = 3187
 II,JST,KST,LST = 11  1  1  1 NREC =        13 INTLOC =  684
 II,JST,KST,LST = 12  1  1  1 NREC =        19 INTLOC =14540
 II,JST,KST,LST = 13  1  1  1 NREC =        34 INTLOC =10157
 II,JST,KST,LST = 14  1  1  1 NREC =        37 INTLOC =12932
 II,JST,KST,LST = 15  1  1  1 NREC =        41 INTLOC = 4494
 II,JST,KST,LST = 16  1  1  1 NREC =        43 INTLOC = 4257
 II,JST,KST,LST = 17  1  1  1 NREC =        55 INTLOC =  399
 II,JST,KST,LST = 18  1  1  1 NREC =        73 INTLOC =10732
 II,JST,KST,LST = 19  1  1  1 NREC =       105 INTLOC = 4574
 II,JST,KST,LST = 20  1  1  1 NREC =       112 INTLOC =12554
 II,JST,KST,LST = 21  1  1  1 NREC =       121 INTLOC =  622
 II,JST,KST,LST = 22  1  1  1 NREC =       129 INTLOC = 5485
 SCHWARZ INEQUALITY TEST SKIPPED        2705 INTEGRAL BLOCKS.
 TOTAL NUMBER OF NONZERO TWO-ELECTRON INTEGRALS =             2060948
        138 INTEGRAL RECORDS WERE STORED ON DISK FILE  8.
  ...... END OF TWO-ELECTRON INTEGRALS .....
 STEP CPU TIME =     0.21 TOTAL CPU TIME =          0.2 (      0.0 MIN)
 TOTAL WALL CLOCK TIME=          0.2 SECONDS, CPU UTILIZATION IS    96.00%

          --------------------------
                 RHF SCF CALCULATION
          --------------------------

     NUCLEAR ENERGY =       113.0893956963
     MAXIT =   30     NPUNCH=    2
     EXTRAP=T  DAMP=F  SHIFT=F  RSTRCT=F  DIIS=F  DEM=F  SOSCF=T
     DENSITY MATRIX CONV=  1.00E-06
     SOSCF WILL OPTIMIZE     800 ORBITAL ROTATIONS, SOGTOL=   0.250
     MEMORY REQUIRED FOR RHF ITERS=     64616 WORDS.

 ITER EX DEM     TOTAL ENERGY        E CHANGE  DENSITY CHANGE     ORB. GRAD
   1  0  0     -251.0244901410  -251.0244901410   0.311384200   0.000000000
          ---------------START SECOND ORDER SCF---------------
   2  1  0     -251.6816687141    -0.6571785731   0.174480946   0.066644828
   3  2  0     -251.7165565828    -0.0348878687   0.075941642   0.065662625
   4  3  0     -251.7553130129    -0.0387564302   0.010682517   0.005175652
   5  4  0     -251.7559623198    -0.0006493069   0.005281528   0.002185769
   6  5  0     -251.7560381152    -0.0000757953   0.001774590   0.000792749
   7  6  0     -251.7560456744    -0.0000075593   0.000595213   0.000248057
   8  7  0     -251.7560468222    -0.0000011477   0.000188193   0.000087425
   9  8  0     -251.7560469716    -0.0000001494   0.000079471   0.000025364
  10  9  0     -251.7560469884    -0.0000000168   0.000015571   0.000005705
  11 10  0     -251.7560469894    -0.0000000010   0.000003405   0.000001622
  12 11  0     -251.7560469894    -0.0000000001   0.000000925   0.000000359
  13 12  0     -251.7560469895    -0.0000000000   0.000000163   0.000000089

          -----------------
          DENSITY CONVERGED
          -----------------
     TIME TO FORM FOCK OPERATORS=       0.4 SECONDS (       0.0 SEC/ITER)
     TIME TO SOLVE SCF EQUATIONS=       0.0 SECONDS (       0.0 SEC/ITER)

 FINAL RHF ENERGY IS     -251.7560469895 AFTER  13 ITERATIONS

          ------------
          EIGENVECTORS
          ------------

                      1          2          3          4          5
                  -26.3034   -20.5883   -11.3560   -11.3379    -1.6081
                     A          A          A          A          A   
    1  C  1  S   -0.000027   0.000002   0.017117   0.995729  -0.053919
    2  C  1  S    0.000139   0.000016   0.000669   0.027325   0.096758
    3  C  1  X    0.000461   0.000026   0.000047   0.000995   0.066976
    4  C  1  Y   -0.000313  -0.000006   0.000130  -0.000862  -0.046288
    5  C  1  Z    0.000002  -0.000000  -0.000000   0.000003   0.000340
    6  C  1  S    0.000348  -0.000169   0.002283  -0.013299   0.019779
    7  C  1  X   -0.000214   0.000043  -0.000677   0.001398   0.007485
    8  C  1  Y   -0.000069   0.000079  -0.001318   0.000330   0.003320
    9  C  1  Z   -0.000001   0.000001  -0.000004   0.000008   0.000007
   10  C  1 XX    0.000246  -0.000055  -0.000476  -0.001270   0.011898
   11  C  1 YY    0.000085   0.000045  -0.000342  -0.001451   0.001856
   12  C  1 ZZ   -0.000074  -0.000018  -0.000141  -0.001556  -0.006189
   13  C  1 XY   -0.000200   0.000008  -0.000212  -0.000274  -0.015502
   14  C  1 XZ    0.000002   0.000000   0.000000   0.000002   0.000112
   15  C  1 YZ   -0.000001   0.000000  -0.000000  -0.000001  -0.000077
   16  C  2  S    0.000004  -0.000004   0.995598  -0.017434  -0.008750
   17  C  2  S    0.000087   0.000435   0.026695  -0.000472   0.014959
   18  C  2  X   -0.000002   0.000110  -0.000610   0.000107   0.011290
   19  C  2  Y    0.000002  -0.000040   0.000396  -0.000028   0.005613
   20  C  2  Z    0.000000  -0.000001   0.000005  -0.000001   0.000031
   21  C  2  S   -0.000240  -0.000276  -0.007683   0.003657   0.017186
   22  C  2  X   -0.000221   0.000611  -0.002707   0.001950   0.010126
   23  C  2  Y   -0.000184  -0.000178   0.000679   0.001245   0.006237
   24  C  2  Z   -0.000001  -0.000004   0.000017   0.000001   0.000043
   25  C  2 XX   -0.000090  -0.000731  -0.000972  -0.000429   0.004720
   26  C  2 YY   -0.000020  -0.000141  -0.001821  -0.000203   0.000842
   27  C  2 ZZ    0.000007  -0.000023  -0.002514  -0.000156  -0.001367
   28  C  2 XY   -0.000004   0.000289  -0.000378  -0.000137   0.002096
   29  C  2 XZ   -0.000000   0.000005  -0.000010  -0.000000  -0.000001
   30  C  2 YZ   -0.000000  -0.000002   0.000007   0.000000   0.000014
   31  O  3  S    0.000004   0.994697  -0.000355  -0.000039  -0.002786
   32  O  3  S    0.000019   0.020955   0.000453  -0.000247   0.006644
   33  O  3  X    0.000013   0.001502   0.000252  -0.000039   0.002736
   34  O  3  Y   -0.000012  -0.000526  -0.000116  -0.000035  -0.000164
   35  O  3  Z   -0.000000  -0.000010  -0.000002   0.000000  -0.000005
   36  O  3  S   -0.000066   0.004609  -0.002082   0.000937   0.004204
   37  O  3  X    0.000026   0.000019  -0.001393   0.000272  -0.001284
   38  O  3  Y    0.000044  -0.000034   0.000637  -0.000261  -0.001964
   39  O  3  Z    0.000001  -0.000000   0.000009  -0.000005  -0.000019
   40  O  3 XX    0.000031  -0.003586  -0.000097  -0.000031  -0.000179
   41  O  3 YY    0.000008  -0.003846   0.000018  -0.000078   0.000127
   42  O  3 ZZ    0.000010  -0.004200   0.000288  -0.000266   0.000372
   43  O  3 XY   -0.000008  -0.000137   0.000079  -0.000045   0.000120
   44  O  3 XZ   -0.000000  -0.000004   0.000002  -0.000002   0.000003
   45  O  3 YZ    0.000000   0.000004  -0.000003   0.000001  -0.000003
   46  H  4  S    0.000036  -0.000023  -0.000052  -0.000169   0.002808
   47  H  4  S   -0.000128  -0.000143   0.002282   0.000192   0.003563
   48  F  5  S    0.994430   0.000005  -0.000017  -0.000147  -0.221374
   49  F  5  S    0.017777   0.000035  -0.000135   0.000040   0.514597
   50  F  5  X   -0.000759  -0.000011   0.000070  -0.000266  -0.052339
   51  F  5  Y    0.000485  -0.000007   0.000032   0.000177   0.032329
   52  F  5  Z   -0.000004   0.000000  -0.000000  -0.000001  -0.000272
   53  F  5  S    0.008085  -0.000087   0.000111   0.001187   0.441370
   54  F  5  X    0.000533   0.000034  -0.000145   0.000773  -0.036387
   55  F  5  Y   -0.000340   0.000035  -0.000096  -0.000571   0.020732
   56  F  5  Z    0.000003  -0.000000   0.000002   0.000004  -0.000189
   57  F  5 XX   -0.004886   0.000001   0.000035  -0.000810   0.033538
   58  F  5 YY   -0.004677   0.000036  -0.000082  -0.000332   0.025714
   59  F  5 ZZ   -0.004528   0.000029  -0.000175   0.000099   0.020801
   60  F  5 XY    0.000276  -0.000021   0.000051   0.000634  -0.008758
   61  F  5 XZ   -0.000002  -0.000000   0.000000  -0.000005   0.000075
   62  F  5 YZ    0.000001  -0.000000  -0.000000   0.000004  -0.000046
   63  H  6  S   -0.000016   0.000016  -0.000106   0.000136   0.014822
   64  H  6  S   -0.000071  -0.000021   0.000389   0.002421   0.001466
   65  H  7  S   -0.000016   0.000016  -0.000103   0.000136   0.014804
   66  H  7  S   -0.000071  -0.000022   0.000389   0.002417   0.001458

                      6          7          8          9         10
                   -1.4122    -1.0188    -0.8337    -0.7222    -0.7183
                     A          A          A          A          A   
    1  C  1  S   -0.014227  -0.165188   0.067341  -0.000104  -0.004741
    2  C  1  S    0.027886   0.330206  -0.131254   0.000110   0.004388
    3  C  1  X   -0.028301  -0.082963  -0.116523  -0.010069  -0.236793
    4  C  1  Y   -0.009302  -0.010222  -0.163074   0.004355   0.148363
    5  C  1  Z    0.000012  -0.000431  -0.000498   0.298784  -0.011624
    6  C  1  S    0.012047   0.279070  -0.162817   0.002150   0.071141
    7  C  1  X   -0.008550  -0.035702  -0.023492  -0.003072  -0.059597
    8  C  1  Y    0.003660   0.014406  -0.053486   0.001205   0.036334
    9  C  1  Z    0.000105  -0.000248  -0.000025   0.166341  -0.006252
   10  C  1 XX    0.005091  -0.000033   0.003947  -0.000406  -0.011700
   11  C  1 YY    0.001123   0.007593   0.003954   0.000030  -0.003809
   12  C  1 ZZ    0.000328   0.010266  -0.014174   0.000301   0.014303
   13  C  1 XY    0.005378   0.010012   0.012909   0.000894   0.025237
   14  C  1 XZ   -0.000015  -0.000049   0.000047   0.008601  -0.000498
   15  C  1 YZ    0.000003   0.000047  -0.000056   0.011480  -0.000251
   16  C  2  S   -0.113126  -0.082118  -0.127637  -0.000833  -0.020242
   17  C  2  S    0.215683   0.173592   0.268928   0.002060   0.051005
   18  C  2  X   -0.163242   0.172140   0.074416   0.000372  -0.009662
   19  C  2  Y    0.066018   0.044864  -0.150575   0.009180   0.211637
   20  C  2  Z    0.001081  -0.000516  -0.001403   0.070119  -0.001637
   21  C  2  S    0.070806   0.135519   0.257037   0.000182   0.000712
   22  C  2  X    0.017399   0.032788   0.062128   0.000330  -0.006956
   23  C  2  Y   -0.013709  -0.004111  -0.059455   0.003043   0.080564
   24  C  2  Z   -0.000191  -0.000221  -0.000716   0.023117  -0.000565
   25  C  2 XX    0.025592   0.003960  -0.002061  -0.000175  -0.004616
   26  C  2 YY   -0.008976   0.012553   0.017258  -0.000112  -0.001276
   27  C  2 ZZ   -0.016773  -0.005659  -0.010343  -0.000021  -0.001264
   28  C  2 XY   -0.019036   0.015162  -0.003994   0.000078   0.000755
   29  C  2 XZ   -0.000328   0.000038  -0.000063   0.001989  -0.000084
   30  C  2 YZ    0.000133   0.000090   0.000253   0.005189  -0.000255
   31  O  3  S   -0.195572   0.056445   0.064265   0.001314   0.031989
   32  O  3  S    0.434320  -0.123982  -0.151322  -0.003020  -0.071955
   33  O  3  X    0.130242   0.037956   0.110939   0.007935   0.185700
   34  O  3  Y   -0.045947   0.018268  -0.103478   0.004826   0.108030
   35  O  3  Z   -0.000838  -0.000086  -0.001166   0.052776  -0.002333
   36  O  3  S    0.385259  -0.160323  -0.191561  -0.005093  -0.132617
   37  O  3  X    0.049154   0.011297   0.059752   0.004440   0.102118
   38  O  3  Y   -0.014787   0.007318  -0.052155   0.002755   0.062743
   39  O  3  Z   -0.000299   0.000016  -0.000595   0.032802  -0.001417
   40  O  3 XX    0.016883   0.003037   0.003295   0.000714   0.016394
   41  O  3 YY    0.000212  -0.001149  -0.000829  -0.000316  -0.006996
   42  O  3 ZZ   -0.001597   0.002228  -0.002426  -0.000163  -0.002106
   43  O  3 XY   -0.007436   0.001698  -0.009139   0.000183   0.004305
   44  O  3 XZ   -0.000138   0.000002  -0.000090   0.005355  -0.000298
   45  O  3 YZ    0.000043  -0.000032   0.000048  -0.001881   0.000023
   46  H  4  S    0.026382   0.054190   0.181656  -0.003914  -0.083942
   47  H  4  S   -0.010707   0.001334   0.077754  -0.002286  -0.042000
   48  F  5  S    0.009518   0.059614  -0.019896  -0.001233  -0.034963
   49  F  5  S   -0.020340  -0.129106   0.038256   0.002572   0.074570
   50  F  5  X   -0.003386  -0.148372   0.032142   0.010557   0.403456
   51  F  5  Y   -0.000430   0.073579  -0.201162  -0.007213  -0.185608
   52  F  5  Z    0.000000  -0.000774   0.000283   0.482191  -0.015872
   53  F  5  S   -0.023496  -0.198028   0.085466   0.004954   0.136100
   54  F  5  X    0.000965  -0.086628   0.021508   0.007464   0.284648
   55  F  5  Y    0.001638   0.043876  -0.126380  -0.005004  -0.129670
   56  F  5  Z   -0.000020  -0.000446   0.000165   0.325062  -0.010672
   57  F  5 XX   -0.000326   0.011791  -0.002973  -0.000569  -0.022148
   58  F  5 YY    0.000088   0.001520  -0.009961  -0.000157  -0.002706
   59  F  5 ZZ    0.000246  -0.003545  -0.000327  -0.000008   0.005383
   60  F  5 XY   -0.000330  -0.009748   0.010895   0.000534   0.016714
   61  F  5 XZ    0.000002   0.000090  -0.000020  -0.017722   0.000488
   62  F  5 YZ   -0.000003  -0.000052   0.000058   0.010873  -0.000314
   63  H  6  S    0.005741   0.111214  -0.097481  -0.125279   0.060153
   64  H  6  S    0.000110   0.019795  -0.042260  -0.062487   0.033864
   65  H  7  S    0.005781   0.111066  -0.098108   0.127732   0.051429
   66  H  7  S    0.000026   0.019716  -0.042573   0.063676   0.029419

                     11         12         13         14         15
                   -0.7002    -0.6472    -0.5931    -0.5798    -0.5117
                     A          A          A          A          A   
    1  C  1  S    0.003767   0.018397   0.022479   0.000200  -0.000059
    2  C  1  S   -0.009081  -0.032516  -0.036692  -0.000392   0.000092
    3  C  1  X    0.115395   0.083837  -0.069025   0.000715   0.000595
    4  C  1  Y    0.174030  -0.138917  -0.214108  -0.002532  -0.000774
    5  C  1  Z    0.001474   0.000666   0.001213  -0.249754  -0.255360
    6  C  1  S   -0.002292  -0.082108  -0.103616  -0.000892   0.000328
    7  C  1  X    0.072263   0.023097   0.015070   0.000045   0.000382
    8  C  1  Y    0.087422  -0.047861  -0.074506  -0.000741  -0.000746
    9  C  1  Z    0.001055  -0.000013   0.000234  -0.078443  -0.137840
   10  C  1 XX    0.002926   0.020122   0.027558   0.000145  -0.000104
   11  C  1 YY   -0.008942  -0.004643  -0.011651  -0.000303  -0.000173
   12  C  1 ZZ    0.009903  -0.014804  -0.019298   0.000114   0.000307
   13  C  1 XY   -0.001265  -0.013019   0.012803   0.000086   0.000184
   14  C  1 XZ    0.000072  -0.000034   0.000072   0.019159   0.003427
   15  C  1 YZ    0.000140  -0.000075   0.000084  -0.025229  -0.030245
   16  C  2  S   -0.037494  -0.020120  -0.030707  -0.000083   0.000002
   17  C  2  S    0.085166   0.058248   0.062842   0.000099   0.000016
   18  C  2  X   -0.179637  -0.218405   0.239974  -0.000964   0.000692
   19  C  2  Y   -0.172583   0.245231   0.076373   0.003334  -0.001040
   20  C  2  Z   -0.000524   0.003372   0.000355  -0.217386   0.227429
   21  C  2  S    0.100949  -0.024723   0.179551   0.000793   0.000150
   22  C  2  X   -0.053090  -0.026089   0.043079  -0.000327   0.000268
   23  C  2  Y   -0.062087   0.084795   0.082687   0.001403  -0.000928
   24  C  2  Z   -0.000534   0.001135   0.000493  -0.126958   0.160017
   25  C  2 XX    0.000269   0.014429  -0.007135   0.000207  -0.000130
   26  C  2 YY    0.003926  -0.020127   0.014630  -0.000044  -0.000253
   27  C  2 ZZ   -0.003803  -0.005761   0.000138  -0.000259   0.000322
   28  C  2 XY   -0.007417  -0.012428  -0.000051  -0.000208   0.000258
   29  C  2 XZ   -0.000088  -0.000180  -0.000036   0.014236  -0.033231
   30  C  2 YZ    0.000124  -0.000042   0.000186  -0.013958   0.005921
   31  O  3  S    0.043323   0.053982  -0.013278   0.000066  -0.000004
   32  O  3  S   -0.090141  -0.123157   0.037971  -0.000046   0.000169
   33  O  3  X    0.137654   0.430143  -0.076012   0.000510   0.002158
   34  O  3  Y   -0.235541  -0.003299   0.295197   0.003001  -0.003089
   35  O  3  Z   -0.002253  -0.000885   0.003375  -0.276716   0.416766
   36  O  3  S   -0.207164  -0.241149   0.024548  -0.000677  -0.000527
   37  O  3  X    0.061705   0.247710  -0.054605   0.000083   0.001342
   38  O  3  Y   -0.128405   0.000888   0.194400   0.002095  -0.002228
   39  O  3  Z   -0.001081  -0.000444   0.002377  -0.192043   0.303804
   40  O  3 XX    0.007192   0.029012   0.000066  -0.000004   0.000295
   41  O  3 YY    0.008063  -0.009455  -0.003920  -0.000134   0.000181
   42  O  3 ZZ    0.000757  -0.005849   0.004959   0.000289  -0.000302
   43  O  3 XY   -0.016236  -0.004549   0.017572   0.000258  -0.000279
   44  O  3 XZ   -0.000138  -0.000125   0.000235  -0.023293   0.031822
   45  O  3 YZ    0.000123  -0.000037  -0.000174   0.007701  -0.011494
   46  H  4  S    0.102704  -0.136548   0.026809  -0.001010  -0.000571
   47  H  4  S    0.045060  -0.102432   0.011134  -0.001433  -0.000855
   48  F  5  S    0.000662   0.008728   0.001073  -0.000021   0.000037
   49  F  5  S    0.005812  -0.014401   0.000923  -0.000039   0.000060
   50  F  5  X    0.245745  -0.220332   0.198787  -0.002144   0.000228
   51  F  5  Y    0.358538   0.112576   0.410210   0.002789   0.000545
   52  F  5  Z    0.003255  -0.005276  -0.002006   0.400419   0.212030
   53  F  5  S   -0.018938  -0.041366  -0.014506   0.000318  -0.000490
   54  F  5  X    0.175355  -0.158023   0.151414  -0.001704   0.000268
   55  F  5  Y    0.246436   0.084573   0.309993   0.002204   0.000466
   56  F  5  Z    0.002253  -0.003850  -0.001497   0.310308   0.177579
   57  F  5 XX   -0.012861   0.012567  -0.006578   0.000067   0.000036
   58  F  5 YY    0.017206   0.002801   0.011341   0.000004   0.000080
   59  F  5 ZZ    0.003955  -0.000685  -0.000317  -0.000139   0.000050
   60  F  5 XY   -0.007339  -0.009126  -0.006924  -0.000116   0.000005
   61  F  5 XZ   -0.000165   0.000207   0.000023  -0.009258  -0.003871
   62  F  5 YZ    0.000004  -0.000124  -0.000080   0.004636   0.001003
   63  H  6  S    0.049263  -0.070083  -0.107861   0.139302   0.154582
   64  H  6  S    0.025963  -0.048303  -0.077838   0.127207   0.128095
   65  H  7  S    0.050726  -0.070067  -0.107126  -0.140941  -0.154073
   66  H  7  S    0.026502  -0.048258  -0.076614  -0.128469  -0.127264

                     16         17         18         19         20
                   -0.4392     0.1281     0.2354     0.2678     0.3063
                     A          A          A          A          A   
    1  C  1  S    0.030840  -0.000108  -0.092787   0.075587  -0.056852
    2  C  1  S   -0.067326   0.000244   0.069647  -0.097128   0.097683
    3  C  1  X    0.190152   0.001454  -0.139755  -0.195439   0.138186
    4  C  1  Y    0.190533  -0.000516   0.198863  -0.094006  -0.127780
    5  C  1  Z   -0.000540   0.024765  -0.000976   0.003813  -0.009698
    6  C  1  S   -0.177045  -0.000903   1.866522  -1.066200   0.305372
    7  C  1  X    0.066203   0.003529  -0.599178  -0.490978   0.942562
    8  C  1  Y    0.147611   0.001237   0.701932  -0.718004  -0.449940
    9  C  1  Z   -0.000427   0.265813  -0.003619   0.012284  -0.036610
   10  C  1 XX   -0.013000  -0.000229   0.002631   0.015799   0.003093
   11  C  1 YY    0.003814   0.000100  -0.011426  -0.008711   0.006118
   12  C  1 ZZ    0.007508   0.000169  -0.017879  -0.003323   0.017462
   13  C  1 XY   -0.014127   0.000243  -0.006431  -0.022887   0.006797
   14  C  1 XZ   -0.000046  -0.020719  -0.000053   0.000014  -0.000108
   15  C  1 YZ   -0.000014  -0.030867  -0.000238  -0.000270   0.000240
   16  C  2  S    0.004042  -0.000212   0.050189   0.065370   0.073721
   17  C  2  S   -0.024856   0.000102  -0.007579  -0.117126  -0.074233
   18  C  2  X   -0.089838   0.001906  -0.059928  -0.086530  -0.002911
   19  C  2  Y   -0.196353  -0.003064   0.088515   0.168770   0.214421
   20  C  2  Z   -0.001160   0.415521   0.002118   0.002177   0.002924
   21  C  2  S   -0.014044   0.004351  -1.038375  -0.890823  -1.156164
   22  C  2  X    0.045937   0.004035  -0.276132  -0.806058   0.296161
   23  C  2  Y   -0.091199  -0.004257   0.017986   0.770056   0.883498
   24  C  2  Z   -0.000639   0.631234   0.006271   0.006255   0.014062
   25  C  2 XX   -0.033232   0.000237  -0.006827  -0.000695   0.024672
   26  C  2 YY    0.034944   0.000050   0.026974   0.004837  -0.015169
   27  C  2 ZZ   -0.001326  -0.000338  -0.001839   0.001414  -0.002579
   28  C  2 XY   -0.043833  -0.000279   0.009886   0.001761  -0.006187
   29  C  2 XZ   -0.000180   0.030475   0.000124   0.000101  -0.000341
   30  C  2 YZ    0.000483  -0.012162  -0.000038   0.000033  -0.000076
   31  O  3  S   -0.000672  -0.000023   0.001401   0.027470  -0.034484
   32  O  3  S   -0.013220   0.000131  -0.013746  -0.003010   0.089837
   33  O  3  X    0.187680  -0.001241  -0.017325  -0.028867   0.106859
   34  O  3  Y    0.482578   0.003022  -0.016427  -0.073772  -0.047147
   35  O  3  Z    0.003016  -0.353345  -0.000539  -0.000064  -0.003701
   36  O  3  S    0.066848  -0.000063   0.050390  -0.626491   0.347585
   37  O  3  X    0.165900  -0.001931   0.023870  -0.218024   0.167934
   38  O  3  Y    0.380104   0.003812  -0.034956  -0.064954  -0.258571
   39  O  3  Z    0.002206  -0.484242  -0.002043   0.000986  -0.006328
   40  O  3 XX    0.006635   0.000009   0.003523   0.002980   0.012921
   41  O  3 YY   -0.014055  -0.000000  -0.000297   0.022170   0.001775
   42  O  3 ZZ   -0.005326   0.000058  -0.008780   0.018959  -0.000881
   43  O  3 XY    0.013981  -0.000006   0.004339   0.010437  -0.009934
   44  O  3 XZ    0.000044  -0.001362  -0.000077   0.000204  -0.000118
   45  O  3 YZ   -0.000134  -0.001139  -0.000052  -0.000031   0.000193
   46  H  4  S    0.181059  -0.000281   0.069155   0.021143  -0.018271
   47  H  4  S    0.216550  -0.001621   0.770948   1.436374   1.487052
   48  F  5  S   -0.001933   0.000373  -0.026078  -0.030540   0.069255
   49  F  5  S   -0.013982  -0.000999   0.026824   0.033769  -0.059958
   50  F  5  X   -0.097778   0.001994  -0.058226  -0.106369   0.174828
   51  F  5  Y   -0.071307  -0.000599   0.036021   0.133372  -0.078382
   52  F  5  Z    0.000538  -0.025045  -0.000203  -0.001239   0.003570
   53  F  5  S    0.059883  -0.002537   0.291691   0.298737  -0.827548
   54  F  5  X   -0.095334   0.002142  -0.117653  -0.141041   0.362005
   55  F  5  Y   -0.056712  -0.001359   0.046631   0.209351  -0.230859
   56  F  5  Z    0.000344  -0.040498  -0.000525  -0.002353   0.007305
   57  F  5 XX   -0.006481  -0.000080  -0.005929  -0.016679   0.020277
   58  F  5 YY   -0.006616  -0.000176  -0.006242  -0.012428   0.031342
   59  F  5 ZZ   -0.007348  -0.000102  -0.015640  -0.011180   0.035284
   60  F  5 XY   -0.001697   0.000124  -0.006009   0.000430   0.014575
   61  F  5 XZ    0.000011  -0.001933   0.000049  -0.000094   0.000076
   62  F  5 YZ    0.000000  -0.005814  -0.000061   0.000029   0.000180
   63  H  6  S    0.048074   0.086318  -0.026462  -0.003820   0.016143
   64  H  6  S    0.070091   0.445092  -1.218101   0.913040  -0.098189
   65  H  7  S    0.047700  -0.085436  -0.027460  -0.004781   0.017070
   66  H  7  S    0.070316  -0.442876  -1.223962   0.882110  -0.010949

                     21         22         23         24         25
                    0.3158     0.4299     0.4655     0.7302     0.7402
                     A          A          A          A          A   
    1  C  1  S    0.002172   0.106871   0.048173  -0.020829  -0.000247
    2  C  1  S   -0.003756  -0.087808  -0.074585   0.358801   0.004537
    3  C  1  X   -0.005287  -0.076787   0.173638  -0.175103   0.008420
    4  C  1  Y    0.000691   0.135658   0.191646  -0.857590  -0.004800
    5  C  1  Z   -0.419338   0.000961  -0.002732   0.001312   0.178743
    6  C  1  S   -0.016656  -2.137481  -0.698455   0.027082  -0.001620
    7  C  1  X   -0.029614   0.416391   1.470974   0.139949  -0.007034
    8  C  1  Y    0.000413   1.629888   0.388147   1.316597   0.005473
    9  C  1  Z   -1.459807   0.000461  -0.006474   0.000255  -0.376234
   10  C  1 XX   -0.000070   0.012087   0.039756   0.009087  -0.000562
   11  C  1 YY   -0.000164   0.017574  -0.003134   0.053781   0.000987
   12  C  1 ZZ   -0.000548  -0.040357  -0.025683  -0.034126  -0.000380
   13  C  1 XY   -0.000404   0.009233   0.012485   0.066100   0.001223
   14  C  1 XZ   -0.002327   0.000145   0.000173  -0.000038  -0.017707
   15  C  1 YZ   -0.000876  -0.000011  -0.000455  -0.000437   0.030461
   16  C  2  S   -0.001026  -0.041962  -0.094003   0.044794  -0.000218
   17  C  2  S    0.001167   0.092305   0.010193   0.188860   0.001267
   18  C  2  X   -0.000035   0.231282   0.099970   0.162785   0.006762
   19  C  2  Y   -0.005318   0.184798   0.318100   0.131105  -0.004431
   20  C  2  Z    0.106261   0.001206   0.000188  -0.005600   1.024877
   21  C  2  S    0.014012   0.262129   2.640420  -0.051760   0.000137
   22  C  2  X   -0.012944   2.444956  -0.898091  -0.246902  -0.008094
   23  C  2  Y   -0.020310   0.401118   1.613722  -0.595338   0.002005
   24  C  2  Z    0.508583  -0.003853   0.015324   0.004656  -0.990826
   25  C  2 XX   -0.000233  -0.010753  -0.006313   0.120713   0.000652
   26  C  2 YY    0.000502   0.015113  -0.009781   0.056058  -0.000751
   27  C  2 ZZ   -0.000177  -0.004374   0.020352  -0.048346   0.000427
   28  C  2 XY    0.000059   0.002415  -0.005106   0.069679  -0.000085
   29  C  2 XZ   -0.006407   0.000077   0.000015   0.000064  -0.014857
   30  C  2 YZ   -0.010922  -0.000138  -0.000267   0.000468   0.014545
   31  O  3  S    0.000942  -0.064609   0.088750  -0.007824   0.000075
   32  O  3  S   -0.002461  -0.037347  -0.063867   0.013825  -0.001521
   33  O  3  X   -0.002744  -0.044318  -0.140851   0.050376   0.000275
   34  O  3  Y    0.000579  -0.155170  -0.000425   0.061566  -0.000194
   35  O  3  Z   -0.131266  -0.000757   0.000683   0.000931   0.015428
   36  O  3  S   -0.011045   1.707112  -1.913186   0.056412   0.000389
   37  O  3  X   -0.005264   0.425697  -0.883049   0.085963  -0.000362
   38  O  3  Y    0.007063  -0.509745   0.053336   0.142089   0.000671
   39  O  3  Z   -0.211879  -0.006221   0.003952  -0.000494   0.063727
   40  O  3 XX   -0.000531  -0.012786  -0.000872  -0.022476  -0.000146
   41  O  3 YY    0.000073  -0.062589   0.029040   0.007807  -0.000169
   42  O  3 ZZ   -0.000074  -0.066123   0.060896  -0.015346  -0.001280
   43  O  3 XY    0.000414  -0.014315   0.024354   0.022256  -0.000265
   44  O  3 XZ   -0.000129  -0.000379   0.000374  -0.000377   0.078501
   45  O  3 YZ    0.000926  -0.000044  -0.000273   0.000133  -0.031382
   46  H  4  S    0.000649   0.042465  -0.118941   0.082095  -0.002137
   47  H  4  S   -0.025353   0.195366   0.707543  -0.144019   0.000025
   48  F  5  S   -0.002256  -0.047318   0.018344  -0.004231   0.000003
   49  F  5  S    0.001707  -0.036113   0.057184  -0.061320  -0.000192
   50  F  5  X   -0.005594  -0.121545  -0.105385   0.073847   0.001937
   51  F  5  Y    0.004289   0.081147  -0.111695  -0.143694  -0.002599
   52  F  5  Z    0.080848  -0.000437   0.000133   0.000041   0.082065
   53  F  5  S    0.027130   0.786443  -0.462387   0.343657   0.004363
   54  F  5  X   -0.011758  -0.370456  -0.030969  -0.128580  -0.001182
   55  F  5  Y    0.009718   0.099100  -0.236929  -0.098217   0.000138
   56  F  5  Z    0.184956  -0.001848   0.001762  -0.000474   0.033871
   57  F  5 XX   -0.000860  -0.042098   0.017076   0.049611   0.001032
   58  F  5 YY   -0.001171  -0.049057   0.047616  -0.039747   0.000409
   59  F  5 ZZ   -0.001235  -0.061070   0.034265  -0.054994  -0.000512
   60  F  5 XY   -0.000329   0.012833   0.009261  -0.027691  -0.001319
   61  F  5 XZ    0.005207   0.000086  -0.000161   0.000348   0.014438
   62  F  5 YZ   -0.000229   0.000074  -0.000102  -0.000217   0.012339
   63  H  6  S   -0.000305  -0.056037  -0.073115  -0.165659  -0.161114
   64  H  6  S   -1.577848  -0.035665  -0.195839  -0.102485  -0.169140
   65  H  7  S   -0.000353  -0.054492  -0.074708  -0.168589   0.158807
   66  H  7  S    1.598145  -0.044901  -0.180625  -0.106819   0.167318

                     26         27         28         29         30
                    0.7766     0.8611     0.8764     0.9520     0.9695
                     A          A          A          A          A   
    1  C  1  S    0.012925  -0.001136  -0.045917  -0.022362  -0.006643
    2  C  1  S   -0.227072   0.007173   0.163626  -0.314202  -0.158508
    3  C  1  X   -1.007736  -0.000778  -0.107525  -0.096273   0.009041
    4  C  1  Y    0.161704  -0.007569  -0.251342  -0.013471  -0.230700
    5  C  1  Z   -0.001932  -0.704850   0.023843  -0.008787  -0.014111
    6  C  1  S    0.468211  -0.041408  -1.190383   0.537174   0.094924
    7  C  1  X    1.268030   0.026908   0.996629   0.192374  -0.367978
    8  C  1  Y   -0.353552   0.020893   0.883716   0.714416   1.273994
    9  C  1  Z    0.000714   2.120178  -0.072152   0.020661   0.035492
   10  C  1 XX    0.063418  -0.000124  -0.032974  -0.082175  -0.093904
   11  C  1 YY   -0.002478  -0.002586  -0.044243   0.060461   0.037534
   12  C  1 ZZ   -0.015757   0.001857   0.012890  -0.073058  -0.025464
   13  C  1 XY   -0.078035  -0.002300  -0.092871  -0.017724  -0.013159
   14  C  1 XZ    0.000402  -0.004454  -0.000133   0.001010   0.000941
   15  C  1 YZ    0.000065  -0.118619   0.003002  -0.000154  -0.000188
   16  C  2  S    0.020810   0.000324  -0.008085   0.017442  -0.063808
   17  C  2  S    0.043057  -0.000292  -0.272172  -1.118601  -0.481406
   18  C  2  X   -0.123256  -0.015836  -0.664542   0.516719  -0.632292
   19  C  2  Y   -0.038167  -0.021610  -0.638923  -0.362666   0.429975
   20  C  2  Z    0.010063   0.311728  -0.008974  -0.002763   0.007141
   21  C  2  S    0.367683   0.021995   1.469236   1.410908   1.744137
   22  C  2  X   -0.358381   0.028951   1.059101   0.107861   1.386721
   23  C  2  Y    0.064860   0.075545   2.087963  -0.008011  -1.616613
   24  C  2  Z   -0.010603  -1.023807   0.040223  -0.006481  -0.024787
   25  C  2 XX    0.004619  -0.000564  -0.004112   0.075355  -0.083013
   26  C  2 YY    0.061809   0.002453   0.014541  -0.179918  -0.155774
   27  C  2 ZZ   -0.022677  -0.000547  -0.024211  -0.068223   0.057295
   28  C  2 XY    0.065019   0.001439   0.048123  -0.064785   0.063126
   29  C  2 XZ   -0.000218   0.031851  -0.000700  -0.001132   0.001188
   30  C  2 YZ    0.000392   0.052173  -0.001446  -0.000993  -0.002461
   31  O  3  S    0.006332   0.000496   0.021488  -0.045955   0.018109
   32  O  3  S    0.105798  -0.001056  -0.166761   0.040634  -0.186236
   33  O  3  X    0.038001  -0.004420  -0.100308   0.237112  -0.094041
   34  O  3  Y    0.156621  -0.008675  -0.202572  -0.084640   0.184577
   35  O  3  Z    0.000816   0.113033  -0.004023   0.001126   0.005133
   36  O  3  S   -0.447467  -0.004299  -0.132242   0.169764   0.651493
   37  O  3  X   -0.077243  -0.008214  -0.402039   0.395425  -0.114530
   38  O  3  Y    0.085100  -0.006425  -0.072656  -0.092295   0.175664
   39  O  3  Z    0.002030   0.133329  -0.003188  -0.003155   0.000595
   40  O  3 XX    0.037616   0.000401  -0.060103  -0.178981   0.052524
   41  O  3 YY    0.042907   0.000318  -0.017939   0.020637  -0.054979
   42  O  3 ZZ    0.029729  -0.000408  -0.042529   0.048783  -0.059767
   43  O  3 XY   -0.032234  -0.001569  -0.058188   0.070375  -0.060532
   44  O  3 XZ    0.000627   0.032967  -0.001183   0.001596  -0.000902
   45  O  3 YZ    0.000057   0.022644  -0.000432  -0.000560   0.000257
   46  H  4  S    0.004114   0.016537   0.156638  -0.382452  -0.615753
   47  H  4  S   -0.089263   0.023067   0.727397  -0.110637  -0.914331
   48  F  5  S    0.006096   0.000266   0.001252  -0.014002  -0.013557
   49  F  5  S    0.147424  -0.004970  -0.274890  -0.174877  -0.112074
   50  F  5  X   -0.262809   0.000081   0.025268   0.013610   0.144550
   51  F  5  Y    0.109111  -0.003358  -0.041331   0.046325   0.123039
   52  F  5  Z   -0.000296  -0.209665   0.007311  -0.002300  -0.003841
   53  F  5  S   -0.728841   0.002802   0.401081   0.391520   0.566829
   54  F  5  X    0.075344   0.002302   0.007465  -0.089537  -0.180084
   55  F  5  Y   -0.096261  -0.003275  -0.102147  -0.053321  -0.007227
   56  F  5  Z    0.000882  -0.176151   0.005986  -0.001268  -0.002500
   57  F  5 XX   -0.025614  -0.001923  -0.094735  -0.070350   0.020801
   58  F  5 YY    0.022440  -0.002181  -0.125948  -0.093911  -0.065820
   59  F  5 ZZ    0.101314  -0.001789  -0.124291  -0.100243  -0.080897
   60  F  5 XY    0.106238  -0.000157   0.009726   0.042896   0.032928
   61  F  5 XZ   -0.000636   0.003560  -0.000098   0.000078   0.000641
   62  F  5 YZ    0.000724  -0.006330   0.000248  -0.000018  -0.000103
   63  H  6  S    0.013395   0.400029  -0.234410  -0.172809  -0.012808
   64  H  6  S   -0.019924   0.517717  -0.246176  -0.377477  -0.403000
   65  H  7  S    0.016817  -0.410019  -0.212068  -0.171862  -0.010815
   66  H  7  S   -0.015890  -0.522117  -0.205517  -0.401312  -0.439295

                     31         32         33         34         35
                    1.0644     1.0774     1.0856     1.1490     1.2400
                     A          A          A          A          A   
    1  C  1  S   -0.000274   0.037776   0.013942   0.009233  -0.081828
    2  C  1  S    0.010760  -0.093594  -0.130560  -1.274661  -1.098036
    3  C  1  X    0.003436  -0.032810  -0.076229   0.067772   0.229959
    4  C  1  Y    0.001230  -0.123695  -0.062705  -0.572821   0.069898
    5  C  1  Z   -0.877821  -0.008905  -0.003681   0.000500   0.001704
    6  C  1  S   -0.021279   0.035905   0.006939   2.896611   4.185997
    7  C  1  X   -0.002001   0.122994   0.171838   0.080329  -1.695624
    8  C  1  Y   -0.010566   0.050007   0.289821   0.590311  -0.496111
    9  C  1  Z    1.409289   0.019827   0.007537  -0.004486  -0.004477
   10  C  1 XX    0.002777  -0.075124  -0.082921  -0.123348   0.085817
   11  C  1 YY    0.000039   0.083339   0.024395  -0.115356  -0.001285
   12  C  1 ZZ   -0.000925   0.008613   0.018877   0.066588  -0.207249
   13  C  1 XY   -0.000842   0.038559  -0.007218  -0.049336  -0.039793
   14  C  1 XZ    0.002358   0.000168  -0.000059  -0.001564   0.001686
   15  C  1 YZ    0.217262   0.001239   0.001124   0.001784  -0.001117
   16  C  2  S    0.000425  -0.007803   0.056393  -0.019326   0.032924
   17  C  2  S    0.003585   0.997372  -0.233400  -0.155739   0.745617
   18  C  2  X    0.000409   0.127640  -0.137544   0.032342   0.103080
   19  C  2  Y   -0.000059  -0.558940   0.301424  -0.018680   0.153857
   20  C  2  Z   -0.033020  -0.004788   0.002784  -0.000246  -0.000442
   21  C  2  S   -0.009689  -1.748922   1.263885  -0.154294  -3.500089
   22  C  2  X   -0.007558  -0.250597   0.155614  -0.256911  -0.799435
   23  C  2  Y    0.011177   1.197048  -0.196617   0.180439  -2.064201
   24  C  2  Z   -0.033965   0.006409  -0.003032   0.004264  -0.001227
   25  C  2 XX   -0.001659   0.217646   0.202054  -0.118295   0.024031
   26  C  2 YY    0.003077  -0.095977   0.006756   0.028739   0.107639
   27  C  2 ZZ   -0.000791   0.091183  -0.123157   0.026954  -0.047357
   28  C  2 XY    0.000632  -0.001110  -0.179033  -0.011442  -0.007227
   29  C  2 XZ   -0.073228  -0.000530  -0.002888   0.000250  -0.001688
   30  C  2 YZ   -0.068512  -0.001543   0.001673   0.000222  -0.000068
   31  O  3  S    0.000215  -0.000431  -0.012436   0.009905  -0.026294
   32  O  3  S    0.005166  -0.221377  -0.457062   0.072613  -0.343073
   33  O  3  X   -0.003287   0.187047   0.615586  -0.242168   0.000177
   34  O  3  Y   -0.000358   0.009688  -0.243651  -0.019068  -0.071549
   35  O  3  Z    0.064665   0.001388  -0.002949   0.003133   0.015298
   36  O  3  S   -0.013062   0.324148   0.530465  -0.275015   1.444220
   37  O  3  X    0.001923  -0.336470  -1.015407   0.300312   0.401572
   38  O  3  Y   -0.001807  -0.012137   0.326742  -0.111051   0.311089
   39  O  3  Z   -0.086082   0.000114   0.005302  -0.004615  -0.019512
   40  O  3 XX    0.002662  -0.155782  -0.274775   0.088730  -0.063660
   41  O  3 YY    0.001539  -0.042105  -0.215194   0.036430  -0.067850
   42  O  3 ZZ    0.001626  -0.082322  -0.160315   0.041259  -0.235510
   43  O  3 XY   -0.000090  -0.047784   0.087927   0.029501   0.026457
   44  O  3 XZ    0.000707  -0.000051   0.001133  -0.000159  -0.000266
   45  O  3 YZ   -0.013247   0.000672  -0.000860  -0.000580   0.000294
   46  H  4  S    0.010404  -0.730811   0.400718   0.249038  -0.033635
   47  H  4  S    0.002468   1.830340  -0.737016  -0.043109  -0.539316
   48  F  5  S    0.000163  -0.005541  -0.002960   0.006767  -0.049658
   49  F  5  S   -0.000891   0.111265   0.083416  -0.031351  -1.042366
   50  F  5  X   -0.001469   0.003489   0.034150  -0.085928  -0.161567
   51  F  5  Y   -0.002115   0.076061   0.025768   0.004576   0.194837
   52  F  5  Z    0.049185  -0.000527  -0.000542   0.001635  -0.002227
   53  F  5  S   -0.000961  -0.135007  -0.094298  -0.243250   1.860553
   54  F  5  X    0.003046  -0.085415  -0.091846   0.162592   0.356661
   55  F  5  Y    0.000481  -0.028581   0.004155  -0.097860  -0.197493
   56  F  5  Z   -0.112267  -0.001716  -0.000522   0.000015   0.002655
   57  F  5 XX   -0.001513   0.048248   0.060427  -0.008555  -0.561999
   58  F  5 YY   -0.000182   0.037160   0.008296  -0.051415  -0.490463
   59  F  5 ZZ    0.000806   0.024571   0.028154   0.018489  -0.430474
   60  F  5 XY   -0.000524   0.009565   0.021468   0.038954   0.035082
   61  F  5 XZ    0.076115   0.000568   0.000236   0.000340  -0.000861
   62  F  5 YZ   -0.055968  -0.000156  -0.000133  -0.000166   0.000498
   63  H  6  S   -0.664060   0.279190   0.173259   0.540519  -0.388774
   64  H  6  S    1.409967  -0.214780  -0.248503  -1.268718  -0.237781
   65  H  7  S    0.655100   0.285746   0.178764   0.548109  -0.390742
   66  H  7  S   -1.383081  -0.245019  -0.262714  -1.274463  -0.235291

                     36         37         38         39         40
                    1.2803     1.3382     1.4676     1.5127     1.5767
                     A          A          A          A          A   
    1  C  1  S   -0.001424  -0.008345  -0.101379  -0.000490   0.019486
    2  C  1  S   -0.022708   0.014628  -1.123534  -0.007511   0.278193
    3  C  1  X    0.004344   0.095798  -0.023874   0.001579  -0.118364
    4  C  1  Y   -0.001979  -0.095890   0.119877  -0.001499   0.028120
    5  C  1  Z   -0.135773   0.000623  -0.001101   0.098612   0.000996
    6  C  1  S    0.079844  -0.779527   3.432293   0.021253  -0.851676
    7  C  1  X   -0.028667   0.243079  -0.624415  -0.003991   0.485329
    8  C  1  Y    0.000986   0.423070  -0.462757  -0.008626   0.134225
    9  C  1  Z    0.543722  -0.004333   0.002105  -0.474922  -0.006765
   10  C  1 XX    0.000569  -0.008694  -0.113576  -0.000395   0.035031
   11  C  1 YY    0.000452  -0.006547  -0.137760  -0.005900   0.036665
   12  C  1 ZZ   -0.003513  -0.001120  -0.014838   0.005054  -0.044362
   13  C  1 XY   -0.000907  -0.068610   0.153846   0.000554   0.066862
   14  C  1 XZ   -0.007269   0.000727  -0.002361   0.428582   0.005955
   15  C  1 YZ    0.019958  -0.000831   0.001183   0.083604   0.002442
   16  C  2  S    0.000453  -0.008000   0.026587   0.000600  -0.021269
   17  C  2  S    0.009972  -0.049950   0.365134   0.003995  -0.075625
   18  C  2  X    0.001579  -0.064423  -0.059280  -0.002015   0.119355
   19  C  2  Y    0.001393  -0.279431  -0.076873  -0.001592  -0.018855
   20  C  2  Z    0.126206  -0.001556  -0.000829   0.034430   0.001364
   21  C  2  S   -0.052120   0.096247  -2.099357   0.008031  -0.982842
   22  C  2  X   -0.010962   0.720692  -0.617457  -0.019706   0.845591
   23  C  2  Y   -0.032665   1.505008  -0.564745   0.009118   0.011612
   24  C  2  Z   -0.657520   0.008745  -0.001125   0.155547  -0.004688
   25  C  2 XX    0.001256  -0.100455  -0.002808  -0.000437  -0.091139
   26  C  2 YY    0.000732   0.101565   0.062008   0.001265   0.144331
   27  C  2 ZZ   -0.001116   0.007936  -0.052612  -0.000826  -0.037910
   28  C  2 XY   -0.000756  -0.120983  -0.005862  -0.001405   0.120022
   29  C  2 XZ    0.086950  -0.000438  -0.000102  -0.242094  -0.001510
   30  C  2 YZ    0.016733   0.000814   0.002350  -0.340292  -0.005409
   31  O  3  S   -0.000469  -0.005490  -0.003720   0.001105  -0.055197
   32  O  3  S   -0.005803  -0.093190  -0.041683   0.017830  -0.989234
   33  O  3  X   -0.003306   0.273551   0.012947   0.004153  -0.253315
   34  O  3  Y    0.005043   0.812026   0.069519  -0.001302   0.071623
   35  O  3  Z   -0.960615   0.004107   0.000397  -0.046648  -0.000301
   36  O  3  S    0.025813   0.260151   0.308322  -0.052970   2.780383
   37  O  3  X    0.011346  -0.430374   0.099846  -0.018274   1.013898
   38  O  3  Y   -0.002881  -1.447138  -0.025492   0.006448  -0.388267
   39  O  3  Z    1.273766  -0.008133  -0.000579  -0.049503  -0.004496
   40  O  3 XX   -0.001484   0.028596   0.033813   0.006030  -0.333022
   41  O  3 YY   -0.001397  -0.093085   0.048251   0.006406  -0.239275
   42  O  3 ZZ   -0.003348  -0.019582  -0.119948   0.002859  -0.217359
   43  O  3 XY    0.000886   0.090593   0.020495  -0.001587   0.045250
   44  O  3 XZ   -0.042266   0.000375  -0.000577   0.021117   0.000380
   45  O  3 YZ    0.035155  -0.001140   0.001506  -0.152871  -0.002902
   46  H  4  S   -0.002403   0.085086   0.001056  -0.001174   0.187327
   47  H  4  S   -0.010164   0.677261   0.110137   0.009618  -0.075048
   48  F  5  S   -0.000773  -0.007542   0.059972   0.000279   0.006603
   49  F  5  S   -0.016423  -0.170823   0.781071   0.002681   0.083782
   50  F  5  X   -0.003730  -0.036996   0.495673  -0.005064   0.459760
   51  F  5  Y    0.002376   0.029851  -0.390400  -0.014447   0.524407
   52  F  5  Z   -0.033292  -0.000141   0.005258  -0.647976  -0.015002
   53  F  5  S    0.029065   0.391887  -1.957022  -0.008256  -0.200874
   54  F  5  X    0.006946   0.043435  -0.465381   0.007079  -0.573425
   55  F  5  Y   -0.003232  -0.059718   0.424605   0.015291  -0.627369
   56  F  5  Z   -0.019999   0.000446  -0.005552   0.734023   0.018046
   57  F  5 XX   -0.008638  -0.052879   0.280150   0.000241  -0.011902
   58  F  5 YY   -0.007765  -0.075094   0.404368   0.002195   0.105845
   59  F  5 ZZ   -0.006674  -0.097605   0.494667   0.001509   0.033888
   60  F  5 XY    0.000662  -0.012527   0.054665  -0.001803   0.011122
   61  F  5 XZ    0.015583  -0.000010  -0.000497  -0.063439   0.000339
   62  F  5 YZ    0.008997   0.000045   0.000214   0.110274   0.001451
   63  H  6  S   -0.028986  -0.052504  -0.356181  -0.009298   0.086053
   64  H  6  S    0.288988  -0.077396  -0.314967  -0.196136   0.123777
   65  H  7  S    0.018000  -0.053404  -0.355643   0.008581   0.088160
   66  H  7  S   -0.310733  -0.071513  -0.318764   0.190104   0.127249

                     41         42         43         44         45
                    1.7040     1.7657     1.7797     1.8686     2.0295
                     A          A          A          A          A   
    1  C  1  S   -0.000029   0.008353   0.000082   0.023309  -0.002069
    2  C  1  S    0.001322   0.264926   0.002278   0.043902  -0.014255
    3  C  1  X   -0.000357  -0.024843   0.000917   0.103092  -0.004588
    4  C  1  Y    0.002076   0.151356   0.001367  -0.045680  -0.006994
    5  C  1  Z    0.171601  -0.003135   0.006864  -0.001234   0.008576
    6  C  1  S   -0.003062  -0.653027  -0.002295  -0.602075   0.074496
    7  C  1  X   -0.002279  -0.446380  -0.013398  -0.463677  -0.047114
    8  C  1  Y   -0.005985  -0.292186   0.000865   0.300333   0.011805
    9  C  1  Z   -0.775251   0.008219   0.180914   0.012100  -0.576685
   10  C  1 XX   -0.000311  -0.200360  -0.001655   0.394271   0.002935
   11  C  1 YY    0.004407   0.323825   0.003068  -0.511086  -0.017706
   12  C  1 ZZ   -0.004044  -0.115437  -0.000969   0.099656   0.015561
   13  C  1 XY   -0.002214  -0.039628   0.000020   0.139890  -0.003500
   14  C  1 XZ   -0.433434   0.004788   0.045632  -0.003852   0.343736
   15  C  1 YZ    0.093576  -0.003616   0.109015   0.001895   0.084368
   16  C  2  S   -0.000200  -0.025919  -0.000610  -0.011949   0.001751
   17  C  2  S    0.000943   0.077937  -0.001122  -0.410386   0.015043
   18  C  2  X   -0.000228   0.047989   0.000014  -0.033517   0.007199
   19  C  2  Y   -0.000130   0.094654   0.003697   0.014394   0.007683
   20  C  2  Z   -0.030482   0.003451  -0.201972   0.001414   0.047560
   21  C  2  S   -0.010878  -2.056669  -0.052575  -0.651501  -0.129560
   22  C  2  X    0.003308   1.106327   0.037956   1.765146   0.031046
   23  C  2  Y   -0.001344  -0.707438  -0.028013  -0.988205  -0.068252
   24  C  2  Z    0.191340  -0.011658   0.100964  -0.015093   0.316682
   25  C  2 XX    0.000400  -0.059950  -0.005168  -0.081123  -0.005228
   26  C  2 YY   -0.002201   0.017846  -0.005171   0.155010  -0.018881
   27  C  2 ZZ    0.001483   0.031879   0.009813  -0.102618   0.027937
   28  C  2 XY   -0.000208   0.061842   0.008447   0.274276  -0.002350
   29  C  2 XZ    0.125108   0.009563  -0.492386   0.004871   0.284646
   30  C  2 YZ    0.240647  -0.011094   0.491684  -0.001951   0.193239
   31  O  3  S   -0.000221  -0.058852  -0.001789  -0.058661  -0.002189
   32  O  3  S   -0.003786  -1.112696  -0.030342  -0.730034  -0.031274
   33  O  3  X   -0.000888  -0.264253  -0.005606   0.098838   0.002111
   34  O  3  Y    0.000458   0.078336   0.003296   0.066680   0.000462
   35  O  3  Z    0.045239   0.004885  -0.164860   0.001633   0.100001
   36  O  3  S    0.011472   3.418291   0.099442   2.927879   0.126152
   37  O  3  X    0.003549   1.147890   0.030855   0.711727   0.036992
   38  O  3  Y   -0.001698  -0.356239  -0.008759  -0.292430  -0.006069
   39  O  3  Z   -0.077048  -0.005699  -0.082473  -0.005018  -0.145406
   40  O  3 XX   -0.000714  -0.334861  -0.006380  -0.330107  -0.016917
   41  O  3 YY   -0.001999  -0.236187  -0.004865   0.131907  -0.038458
   42  O  3 ZZ   -0.000297  -0.233092  -0.011083  -0.351009   0.035428
   43  O  3 XY    0.000656   0.053640  -0.002541  -0.020182  -0.012928
   44  O  3 XZ    0.012013  -0.008327   0.511560  -0.004342   0.083671
   45  O  3 YZ    0.089186  -0.000686   0.014022   0.004509   0.761529
   46  H  4  S   -0.001640   0.040095  -0.001238  -0.226443   0.010931
   47  H  4  S    0.003157  -0.077582  -0.007066  -0.485944  -0.015040
   48  F  5  S   -0.000127  -0.014946   0.000060  -0.007762  -0.000639
   49  F  5  S   -0.001062  -0.186582   0.000536   0.002948  -0.011336
   50  F  5  X   -0.001777  -0.165693  -0.005764  -0.242357  -0.000748
   51  F  5  Y   -0.007848  -0.452308  -0.006849  -0.226652  -0.006933
   52  F  5  Z   -0.604280   0.003374   0.035732   0.002296  -0.116627
   53  F  5  S    0.003541   0.526060   0.001549   0.254659   0.029036
   54  F  5  X    0.001871   0.224461   0.008608   0.269921   0.000352
   55  F  5  Y    0.011996   0.754452   0.011533   0.328733   0.010937
   56  F  5  Z    0.925021  -0.006489  -0.072956  -0.004304   0.198021
   57  F  5 XX    0.000835   0.229183   0.005227  -0.184029  -0.021117
   58  F  5 YY   -0.004459  -0.343318  -0.002224   0.339386  -0.003092
   59  F  5 ZZ    0.002074  -0.118547  -0.001641  -0.184993   0.011960
   60  F  5 XY    0.003743   0.230876   0.002734  -0.078841  -0.013962
   61  F  5 XZ    0.324176  -0.002226  -0.013370   0.001706  -0.000817
   62  F  5 YZ   -0.255256   0.005222   0.047291  -0.002859   0.329758
   63  H  6  S   -0.044727   0.019425   0.077283   0.152397  -0.140580
   64  H  6  S   -0.302800   0.308396   0.107348   0.022989  -0.154958
   65  H  7  S    0.043400   0.021574  -0.078237   0.150255   0.118802
   66  H  7  S    0.307193   0.300673  -0.101214   0.012902   0.140385

                     46         47         48         49         50
                    2.0343     2.0646     2.1024     2.1136     2.2235
                     A          A          A          A          A   
    1  C  1  S   -0.032880   0.024309   0.000362   0.029467  -0.066662
    2  C  1  S   -0.156004  -0.177934   0.001368   0.786868  -0.823231
    3  C  1  X   -0.093143   0.190244   0.001129  -0.188351  -0.067572
    4  C  1  Y   -0.112104   0.089534   0.000568  -0.090881   0.007026
    5  C  1  Z   -0.001602   0.000489   0.027106  -0.000727  -0.000050
    6  C  1  S    1.072348  -0.474635  -0.013726  -2.184282   3.303539
    7  C  1  X   -0.805608  -0.347059  -0.010420  -0.548439  -0.118316
    8  C  1  Y    0.266607  -0.125297   0.002519   0.427700  -0.971391
    9  C  1  Z    0.039551  -0.014580   0.543366  -0.001092   0.006474
   10  C  1 XX    0.068995  -0.025226   0.000559   0.045825   0.232438
   11  C  1 YY   -0.314505   0.260536   0.004030  -0.170572  -0.021975
   12  C  1 ZZ    0.252302  -0.188272  -0.004134   0.067594  -0.201671
   13  C  1 XY   -0.112761   0.356811   0.003366   0.008766  -0.223362
   14  C  1 XZ   -0.023225   0.000505  -0.076398  -0.000580   0.001826
   15  C  1 YZ   -0.005072  -0.005894   0.283485   0.000036  -0.000168
   16  C  2  S    0.025864   0.014096   0.000116  -0.009927   0.018958
   17  C  2  S    0.262225  -0.082985  -0.001355   0.039729   0.387799
   18  C  2  X    0.152122  -0.131763  -0.001291   0.075237   0.046050
   19  C  2  Y    0.145619   0.038329   0.000420  -0.058654  -0.049599
   20  C  2  Z   -0.002396   0.000487  -0.016846  -0.000590   0.000097
   21  C  2  S   -2.218743   0.398492   0.012160   0.682489  -1.978721
   22  C  2  X    0.684692  -0.425760  -0.007572   0.049234  -0.884691
   23  C  2  Y   -1.318635   0.930070   0.004965  -0.514511  -0.805832
   24  C  2  Z   -0.029157   0.010125  -0.100268  -0.003910  -0.005307
   25  C  2 XX   -0.157790   0.292794   0.003104  -0.137318  -0.136045
   26  C  2 YY   -0.240635  -0.320458  -0.002726   0.166721   0.134586
   27  C  2 ZZ    0.466503  -0.023487  -0.001131  -0.027271  -0.059439
   28  C  2 XY   -0.038008   0.218407   0.000294  -0.209435  -0.152688
   29  C  2 XZ   -0.012717   0.000048  -0.039868  -0.001355  -0.002103
   30  C  2 YZ   -0.015131  -0.001210  -0.052116   0.002930  -0.000771
   31  O  3  S   -0.042656   0.020528   0.000258   0.000306  -0.008177
   32  O  3  S   -0.591775   0.297285   0.006353   0.115626  -0.094254
   33  O  3  X    0.035433   0.031634   0.000379  -0.016803  -0.050887
   34  O  3  Y   -0.003822   0.225258   0.001833  -0.144864  -0.099274
   35  O  3  Z   -0.005714   0.000643   0.007926  -0.001863  -0.000574
   36  O  3  S    2.425072  -1.191489  -0.020800  -0.217646   0.360250
   37  O  3  X    0.713458  -0.433088  -0.007233  -0.030485   0.280595
   38  O  3  Y   -0.102478  -0.248175  -0.000480   0.253157   0.235241
   39  O  3  Z    0.004605   0.000494   0.003849   0.003049   0.001161
   40  O  3 XX   -0.304912  -0.123474  -0.000227   0.210102  -0.003940
   41  O  3 YY   -0.509781  -0.045615  -0.002376  -0.254606  -0.382465
   42  O  3 ZZ    0.432787   0.346050   0.005269   0.078219   0.316975
   43  O  3 XY   -0.237672  -0.387280  -0.004995   0.214335  -0.088510
   44  O  3 XZ   -0.004283   0.000667  -0.084247   0.004294   0.001139
   45  O  3 YZ   -0.050653  -0.004374  -0.196756   0.000823  -0.002883
   46  H  4  S    0.089924   0.564367   0.004498  -0.366867  -0.104075
   47  H  4  S   -0.317278   0.180936  -0.002405  -0.244331  -0.030389
   48  F  5  S   -0.010889  -0.039889  -0.000884  -0.075916   0.070817
   49  F  5  S   -0.219597  -0.498188  -0.013003  -1.288777   0.870442
   50  F  5  X    0.001751   0.024234   0.001331   0.274189  -0.026345
   51  F  5  Y   -0.122663  -0.015202  -0.000800  -0.229361   0.018293
   52  F  5  Z    0.008300  -0.001891   0.118384   0.001611   0.000271
   53  F  5  S    0.553307   1.239815   0.031772   3.104055  -2.450665
   54  F  5  X   -0.007098  -0.244723  -0.006077  -0.728414   0.514693
   55  F  5  Y    0.195047   0.173525   0.003890   0.529115  -0.270657
   56  F  5  Z   -0.014454   0.002562  -0.204200  -0.004217   0.001515
   57  F  5 XX   -0.323380  -0.277385  -0.010240  -0.670396   0.677748
   58  F  5 YY   -0.148002   0.084048   0.005088  -0.116203   0.682862
   59  F  5 ZZ    0.242347  -0.379820  -0.009093  -0.582716  -0.403882
   60  F  5 XY   -0.201056   0.285404   0.006140   0.387955   0.033231
   61  F  5 XZ   -0.001072  -0.009027   0.644053  -0.005678   0.002448
   62  F  5 YZ   -0.019935  -0.010580   0.641654  -0.004286  -0.006684
   63  H  6  S   -0.175637   0.126536   0.268409   0.191143  -0.137972
   64  H  6  S   -0.067811  -0.012266   0.168481   0.281060  -0.152024
   65  H  7  S   -0.190746   0.135294  -0.264189   0.191994  -0.140489
   66  H  7  S   -0.092134  -0.001950  -0.165880   0.279775  -0.154141

                     51         52         53         54         55
                    2.3183     2.3586     2.4226     2.4915     2.5524
                     A          A          A          A          A   
    1  C  1  S    0.001057   0.028597  -0.032236   0.023611   0.001619
    2  C  1  S    0.002738  -0.014860  -0.136781   0.025233   0.007861
    3  C  1  X    0.002898   0.061021   0.023910   0.296031   0.007463
    4  C  1  Y    0.001721   0.025881  -0.075419   0.067620   0.004144
    5  C  1  Z    0.119137  -0.002533   0.002337  -0.002977   0.103568
    6  C  1  S   -0.036030  -0.794311   1.370058  -0.534136  -0.057368
    7  C  1  X    0.007809   0.176045  -0.733119   0.193865   0.018355
    8  C  1  Y    0.011339  -0.064289  -0.189127   0.642865   0.031360
    9  C  1  Z    0.959770  -0.012299   0.015959  -0.014330   0.270091
   10  C  1 XX    0.007919   0.429580  -0.284490   0.032189   0.003306
   11  C  1 YY    0.002753   0.123990   0.087671  -0.395643  -0.011553
   12  C  1 ZZ   -0.011089  -0.598732   0.257624   0.445294   0.009113
   13  C  1 XY   -0.005331   0.005171   0.655238   0.127645  -0.008771
   14  C  1 XZ   -0.076878   0.001994  -0.000894  -0.012486   0.444590
   15  C  1 YZ    0.318057  -0.008527   0.015214  -0.017551   0.774223
   16  C  2  S   -0.000719  -0.028218   0.008924   0.002243  -0.001355
   17  C  2  S   -0.007185  -0.376205  -0.011968  -0.054573  -0.004299
   18  C  2  X    0.000357  -0.175222  -0.291764   0.210234   0.009837
   19  C  2  Y    0.000779  -0.152093  -0.169842  -0.042884   0.001359
   20  C  2  Z    0.045856  -0.001988   0.002056  -0.003812   0.158682
   21  C  2  S    0.035797   1.111439  -1.168942   0.865998   0.061737
   22  C  2  X    0.013205   0.322126  -0.013723   0.348272   0.018403
   23  C  2  Y    0.015200   0.182088  -1.041601   0.207752   0.024451
   24  C  2  Z   -0.395621   0.004015  -0.009504   0.001098   0.083660
   25  C  2 XX    0.001266   0.103675   0.118033  -0.336559  -0.003914
   26  C  2 YY    0.009712   0.391517   0.023569   0.460268   0.007063
   27  C  2 ZZ   -0.011799  -0.559446  -0.183509  -0.119928  -0.005814
   28  C  2 XY    0.002681   0.070644  -0.100674   0.412848   0.011185
   29  C  2 XZ   -0.316373   0.001662  -0.005469   0.002448   0.021921
   30  C  2 YZ   -0.616388   0.014297  -0.000051  -0.005322   0.448772
   31  O  3  S   -0.000013   0.000667  -0.003974  -0.000537  -0.000029
   32  O  3  S    0.002562   0.045506  -0.345490   0.413848   0.011897
   33  O  3  X    0.000892  -0.043941  -0.203759   0.364004   0.007512
   34  O  3  Y    0.002711   0.005574  -0.032039  -0.103243  -0.000113
   35  O  3  Z   -0.048293   0.000470   0.001102  -0.003208   0.044389
   36  O  3  S   -0.007255  -0.250629   0.891933  -0.475403  -0.023074
   37  O  3  X   -0.005481  -0.108906   0.428596  -0.315798  -0.013894
   38  O  3  Y   -0.005774   0.022682   0.219924   0.002852  -0.005136
   39  O  3  Z    0.128408   0.000001  -0.001645   0.004006  -0.174572
   40  O  3 XX   -0.001659   0.042945   0.193499   0.019267  -0.005605
   41  O  3 YY   -0.005617  -0.366159  -0.488857  -0.058848   0.003064
   42  O  3 ZZ    0.007317   0.306011   0.159631   0.266712   0.006421
   43  O  3 XY   -0.005638  -0.054308   0.343659  -0.150018  -0.008650
   44  O  3 XZ    0.188564   0.001485  -0.002937   0.008557  -0.452256
   45  O  3 YZ    0.485536  -0.010992  -0.003976   0.002704  -0.125202
   46  H  4  S   -0.001554  -0.379657  -0.200897  -0.253104  -0.006941
   47  H  4  S    0.000195  -0.006793  -0.267013   0.066180   0.005346
   48  F  5  S    0.000015   0.006135  -0.022084  -0.005137  -0.000110
   49  F  5  S   -0.008380  -0.128539   0.448292   0.008915  -0.009696
   50  F  5  X    0.004813   0.102253  -0.411396  -0.003673   0.005301
   51  F  5  Y   -0.001851  -0.166053   0.143053   0.181861   0.002657
   52  F  5  Z    0.205025  -0.002567   0.001409  -0.003801   0.084492
   53  F  5  S    0.014962   0.155417  -0.492109   0.151657   0.022389
   54  F  5  X   -0.005542  -0.040917   0.428734  -0.143486  -0.011833
   55  F  5  Y    0.000413   0.182033  -0.020112  -0.298127  -0.007405
   56  F  5  Z   -0.400775   0.005915  -0.005221   0.007237  -0.175970
   57  F  5 XX   -0.000987  -0.106428  -0.101814   0.481036   0.012536
   58  F  5 YY   -0.014656  -0.317233   0.198066  -0.506986  -0.020510
   59  F  5 ZZ    0.009178   0.326813   0.121136   0.049520   0.001948
   60  F  5 XY    0.001426  -0.247056  -0.060237   0.411623   0.012174
   61  F  5 XZ    0.252245  -0.006599  -0.000277  -0.000304  -0.024586
   62  F  5 YZ   -0.381558   0.009278  -0.008776   0.014559  -0.345773
   63  H  6  S    0.446466   0.360436  -0.238184  -0.148449   0.466385
   64  H  6  S    0.202473  -0.035182  -0.004138  -0.086085  -0.082202
   65  H  7  S   -0.431682   0.374048  -0.258760  -0.119545  -0.466127
   66  H  7  S   -0.204931  -0.029742  -0.010478  -0.086887   0.078435

                     56         57         58         59         60
                    2.6485     2.7244     2.9285     3.0033     3.1397
                     A          A          A          A          A   
    1  C  1  S   -0.043256   0.000864   0.000148   0.045060   0.064193
    2  C  1  S   -0.379688   0.006040  -0.002035  -0.023973  -0.295930
    3  C  1  X   -0.075250   0.001460   0.000907   0.256029  -0.208759
    4  C  1  Y   -0.059367   0.001474   0.000873   0.052627   0.413449
    5  C  1  Z    0.001742   0.020843  -0.000765   0.000731  -0.001616
    6  C  1  S    1.819055  -0.032136  -0.000658  -0.963971  -1.043141
    7  C  1  X   -0.582130   0.008205   0.000725   0.367111   0.055032
    8  C  1  Y   -0.782125   0.015135   0.003371   0.092931   0.452974
    9  C  1  Z    0.009321   0.250600   0.101328   0.000192  -0.000253
   10  C  1 XX    0.263566  -0.008296  -0.001862  -0.705404  -0.113113
   11  C  1 YY    0.252649  -0.007974   0.001749   0.568787  -0.235782
   12  C  1 ZZ   -0.537781   0.016599   0.001406   0.286899   0.419256
   13  C  1 XY    0.292813  -0.001801  -0.002226  -0.552929  -0.141373
   14  C  1 XZ    0.017563   0.686211  -0.009780  -0.001455  -0.004314
   15  C  1 YZ   -0.003144  -0.534928   0.446385  -0.000471   0.000285
   16  C  2  S    0.118497  -0.002228   0.000168  -0.011325  -0.058957
   17  C  2  S    0.113321  -0.001658   0.000024   0.150751  -0.124952
   18  C  2  X   -0.181472   0.002673  -0.000336  -0.012690   0.304702
   19  C  2  Y   -0.191485   0.003445   0.002148   0.192238  -0.096143
   20  C  2  Z   -0.000234  -0.073281  -0.228418   0.001607  -0.001592
   21  C  2  S   -1.815952   0.031731   0.003553   1.110728   0.584872
   22  C  2  X   -0.493817   0.011968   0.001406   0.346848   0.422315
   23  C  2  Y   -0.701854   0.007451   0.003059   0.509429  -0.208331
   24  C  2  Z   -0.004131  -0.064693  -0.281388   0.002820  -0.003009
   25  C  2 XX   -0.504435   0.010062   0.004415  -0.130559   0.507424
   26  C  2 YY   -0.031830   0.002820   0.005181   0.478465  -0.629315
   27  C  2 ZZ    0.880700  -0.019770  -0.008327  -0.271652  -0.155796
   28  C  2 XY    0.358892  -0.005724  -0.002981   0.588159   0.803479
   29  C  2 XZ    0.011263   0.250010   0.906330  -0.001826   0.001725
   30  C  2 YZ   -0.004493   0.063835  -0.264513   0.002492  -0.006904
   31  O  3  S    0.002531   0.000152  -0.000010   0.028448  -0.008713
   32  O  3  S    0.338693  -0.007508   0.003139   0.385229  -0.188073
   33  O  3  X    0.404245  -0.006991   0.002635   0.235448   0.026960
   34  O  3  Y   -0.201993   0.002543  -0.000557  -0.058121   0.055473
   35  O  3  Z   -0.002893  -0.009611   0.019072  -0.001303   0.000061
   36  O  3  S   -0.032322   0.004496  -0.003043  -0.886224   0.594628
   37  O  3  X   -0.074170   0.003504  -0.000816  -0.507493   0.418356
   38  O  3  Y    0.348839  -0.004947  -0.002953   0.063646   0.166815
   39  O  3  Z    0.002859   0.117602   0.434077   0.000429  -0.000446
   40  O  3 XX    0.160446  -0.000011   0.006007  -0.120588   0.652194
   41  O  3 YY    0.018769  -0.000047   0.004224   0.097968  -0.515548
   42  O  3 ZZ    0.099809  -0.002791  -0.009014   0.349690  -0.142920
   43  O  3 XY    0.450251  -0.007938  -0.007099   0.101604   0.418161
   44  O  3 XZ    0.001993   0.221652   0.876742  -0.000532  -0.001116
[...]
   53  F  5  S   -0.632249   0.012214   0.003069  -0.211059   1.206276
   54  F  5  X    0.169956  -0.001395  -0.000243   0.202913  -0.590477
   55  F  5  Y    0.035974  -0.000781  -0.000285   0.169616   0.277088
   56  F  5  Z   -0.008584  -0.376667   0.030951   0.000141  -0.002487
   57  F  5 XX    0.094587  -0.006072   0.000097  -0.461310   0.267614
   58  F  5 YY    0.107747  -0.004297  -0.000844   0.492239  -0.157737
   59  F  5 ZZ    0.078354   0.004551  -0.002576   0.058404  -0.322580
   60  F  5 XY   -0.051538   0.003608  -0.000870  -0.142718  -0.321082
   61  F  5 XZ    0.013542   0.712395  -0.180763  -0.001970   0.002789
   62  F  5 YZ   -0.011524  -0.436465   0.007468  -0.002106  -0.000640
   63  H  6  S    0.091862  -0.196069   0.211149  -0.093308  -0.013586
   64  H  6  S   -0.024759   0.187083  -0.071874   0.101126   0.043130
   65  H  7  S    0.087988   0.193701  -0.214362  -0.096159  -0.012062
   66  H  7  S   -0.029410  -0.186259   0.070055   0.103733   0.041274

                     61         62         63         64         65
                    3.3274     3.4058     4.1787     4.4681     4.6087
                     A          A          A          A          A   
    1  C  1  S   -0.034284   0.072254  -0.027600  -0.255716   0.080283
    2  C  1  S    0.179459  -0.445133   0.338964   1.565759  -0.059156
    3  C  1  X    0.131944  -0.782836  -0.097306  -0.221387  -0.225480
    4  C  1  Y   -0.127992   0.404337   0.045764   0.027476   0.182998
    5  C  1  Z    0.000506  -0.004056  -0.001379  -0.000690  -0.000974
    6  C  1  S    0.541305  -1.614630  -0.424539   0.304425  -2.840771
    7  C  1  X   -0.133609  -0.407846  -0.500222  -0.226737  -0.501747
    8  C  1  Y   -0.266542   0.378797   0.244161   0.348367   0.753676
    9  C  1  Z    0.004209  -0.001882   0.007720  -0.001257  -0.007666
   10  C  1 XX   -0.081142  -0.495861  -0.196757  -1.025562   0.028668
   11  C  1 YY    0.115051   0.245736  -0.178840  -0.936981   0.144291
   12  C  1 ZZ   -0.192377   0.446518  -0.060054  -0.995281   0.319102
   13  C  1 XY   -0.091980   0.794489   0.021006   0.259319   0.131243
   14  C  1 XZ    0.001632  -0.004584  -0.000216  -0.000977  -0.001469
   15  C  1 YZ   -0.000919   0.004260  -0.000694   0.001070   0.001775
   16  C  2  S   -0.032632   0.009884   0.037860  -0.387031   0.086938
   17  C  2  S   -1.305232  -0.279013  -0.477872   2.409435  -0.423909
   18  C  2  X    1.225440   0.112453  -0.005111   0.215751  -0.059041
   19  C  2  Y   -0.434637  -0.053577   0.079783  -0.055864   0.082375
   20  C  2  Z   -0.008109  -0.000829   0.000530  -0.001094   0.001471
   21  C  2  S   -1.814761   0.129417  -2.055757   0.942481   1.816661
   22  C  2  X    0.709649   0.334129   1.292545   0.313375  -0.379571
   23  C  2  Y   -0.530190   0.280362  -0.872838  -0.166758   0.608027
   24  C  2  Z   -0.007078   0.001676  -0.012057  -0.002415   0.007372
   25  C  2 XX   -0.711929  -0.409315   0.289409  -1.732923   0.378022
   26  C  2 YY    0.307618   0.410989   0.232056  -1.451923   0.316376
   27  C  2 ZZ    0.409172   0.101121   0.305201  -1.416200   0.264665
   28  C  2 XY    0.384916  -0.241392   0.030832   0.158199  -0.040610
   29  C  2 XZ    0.007231  -0.000045  -0.000638   0.002333  -0.001818
   30  C  2 YZ   -0.002867   0.003107  -0.000669  -0.000797   0.002120
   31  O  3  S   -0.028401  -0.011550  -0.494464   0.005023   0.212328
   32  O  3  S   -0.696824   0.036913  -0.181493   0.109530   0.278019
   33  O  3  X    0.331731   0.083428  -0.226504   0.244199   0.064359
   34  O  3  Y   -0.141774  -0.035697   0.085303  -0.068665   0.008912
   35  O  3  Z   -0.002227  -0.000662   0.001193  -0.001648  -0.000668
   36  O  3  S    2.881330   0.224667   5.555259   0.113265  -2.995584
   37  O  3  X    1.648604   0.022842   1.128781   0.196308  -0.887394
   38  O  3  Y   -0.568378  -0.301251  -0.348053  -0.143087   0.146557
   39  O  3  Z   -0.010587  -0.002371  -0.006438  -0.001372   0.004552
   40  O  3 XX    1.232823  -0.080627  -1.452946   0.224018   0.454518
   41  O  3 YY   -0.314564   0.137244  -1.696253   0.042708   0.760275
   42  O  3 ZZ   -0.573679  -0.076429  -1.683460  -0.002494   0.758447
   43  O  3 XY   -0.820808  -0.381158  -0.073921  -0.138593   0.069868
   44  O  3 XZ   -0.014097  -0.002760  -0.001763  -0.001899   0.001255
   45  O  3 YZ    0.005357   0.003652   0.000375   0.001124   0.000205
   46  H  4  S   -0.015633  -0.177478   0.004311   0.140962  -0.034813
   47  H  4  S   -0.057494   0.225115  -0.245572  -0.415858   0.062305
   48  F  5  S   -0.006752   0.011948  -0.209553  -0.126297  -0.639269
   49  F  5  S    0.299443  -0.968038  -0.533609  -0.414240  -2.043839
   50  F  5  X   -0.083591   0.111147   0.027876   0.011649   0.285842
   51  F  5  Y   -0.013371  -0.101963  -0.087935  -0.026892  -0.147360
   52  F  5  Z   -0.000167   0.000728   0.000725   0.000334   0.001370
   53  F  5  S   -0.550634   1.977263   2.563031   1.686011   8.496593
   54  F  5  X    0.370440  -1.082414  -0.204569  -0.340936  -1.155267
   55  F  5  Y   -0.026477   0.788014   0.319495   0.280093   0.615516
   56  F  5  Z    0.000763  -0.006085  -0.003384  -0.002415  -0.005212
   57  F  5 XX   -0.244591   0.558962  -0.783266  -0.327647  -2.279885
   58  F  5 YY    0.103244   0.080857  -0.779807  -0.451536  -2.562486
   59  F  5 ZZ    0.092513  -0.377134  -0.845009  -0.555316  -2.687873
   60  F  5 XY    0.081180  -0.832988  -0.137582  -0.251916  -0.263056
   61  F  5 XZ   -0.001494   0.006077   0.001263   0.001653   0.002254
   62  F  5 YZ   -0.000549  -0.004717  -0.001542  -0.001139  -0.000923
   63  H  6  S    0.001624  -0.009766   0.033097   0.130187   0.132889
   64  H  6  S    0.040915   0.163928   0.068249  -0.290893   0.175920
   65  H  7  S    0.000802  -0.010979   0.033186   0.129275   0.132048
   66  H  7  S    0.038057   0.164077   0.058030  -0.289996   0.180242

                     66
                    4.7886
                     A   
    1  C  1  S   -0.407604
    2  C  1  S    2.372731
    3  C  1  X   -0.047854
    4  C  1  Y    0.201479
    5  C  1  Z   -0.000589
    6  C  1  S    2.201563
    7  C  1  X   -0.188427
    8  C  1  Y   -0.056840
    9  C  1  Z   -0.003642
   10  C  1 XX   -1.860139
   11  C  1 YY   -1.689068
   12  C  1 ZZ   -1.507125
   13  C  1 XY    0.000390
   14  C  1 XZ   -0.001307
   15  C  1 YZ    0.000663
   16  C  2  S    0.262098
   17  C  2  S   -1.471766
   18  C  2  X   -0.113273
   19  C  2  Y    0.143671
   20  C  2  Z    0.001466
   21  C  2  S   -0.660474
   22  C  2  X   -0.797217
   23  C  2  Y    0.181290
   24  C  2  Z    0.004748
   25  C  2 XX    1.343961
   26  C  2 YY    1.033843
   27  C  2 ZZ    0.883961
   28  C  2 XY    0.094481
   29  C  2 XZ   -0.001384
   30  C  2 YZ    0.000718
   31  O  3  S    0.090370
   32  O  3  S    0.151300
   33  O  3  X   -0.094355
   34  O  3  Y    0.058544
   35  O  3  Z    0.000654
   36  O  3  S   -1.545761
   37  O  3  X   -0.579987
   38  O  3  Y    0.205930
   39  O  3  Z    0.004056
   40  O  3 XX    0.030623
   41  O  3 YY    0.252185
   42  O  3 ZZ    0.403088
   43  O  3 XY    0.140195
   44  O  3 XZ    0.002903
   45  O  3 YZ   -0.001602
   46  H  4  S   -0.039758
   47  H  4  S    0.309175
   48  F  5  S    0.040255
   49  F  5  S    0.010943
   50  F  5  X   -0.013721
   51  F  5  Y    0.034981
   52  F  5  Z   -0.000320
   53  F  5  S   -0.462379
   54  F  5  X   -0.251489
   55  F  5  Y    0.096119
   56  F  5  Z   -0.000458
   57  F  5 XX    0.419479
   58  F  5 YY    0.210933
   59  F  5 ZZ    0.035305
   60  F  5 XY   -0.213767
   61  F  5 XZ    0.001923
   62  F  5 YZ   -0.001110
   63  H  6  S    0.064704
   64  H  6  S   -0.430689
   65  H  7  S    0.065374
   66  H  7  S   -0.428685
 ...... END OF RHF CALCULATION ......
 STEP CPU TIME =     0.44 TOTAL CPU TIME =          0.7 (      0.0 MIN)
 TOTAL WALL CLOCK TIME=          0.7 SECONDS, CPU UTILIZATION IS    95.77%

     ----------------------------------------------------------------
     PROPERTY VALUES FOR THE RHF   SELF-CONSISTENT FIELD WAVEFUNCTION
     ----------------------------------------------------------------

          -----------------
          ENERGY COMPONENTS
          -----------------

         WAVEFUNCTION NORMALIZATION =       1.0000000000

                ONE ELECTRON ENERGY =    -570.9505891601
                TWO ELECTRON ENERGY =     206.1051464744
           NUCLEAR REPULSION ENERGY =     113.0893956963
                                      ------------------
                       TOTAL ENERGY =    -251.7560469895

 ELECTRON-ELECTRON POTENTIAL ENERGY =     206.1051464744
  NUCLEUS-ELECTRON POTENTIAL ENERGY =    -822.0439097256
   NUCLEUS-NUCLEUS POTENTIAL ENERGY =     113.0893956963
                                      ------------------
             TOTAL POTENTIAL ENERGY =    -502.8493675550
               TOTAL KINETIC ENERGY =     251.0933205656
                 VIRIAL RATIO (V/T) =       2.0026393630

          ---------------------------------------
          MULLIKEN AND LOWDIN POPULATION ANALYSES
          ---------------------------------------

     ATOMIC MULLIKEN POPULATION IN EACH MOLECULAR ORBITAL

                      1          2          3          4          5

                  2.000000   2.000000   2.000000   2.000000   2.000000

    1             0.000044  -0.000003   0.001138   1.997768   0.146247
    2            -0.000008  -0.000258   1.999190   0.001477   0.012931
    3             0.000000   2.000265  -0.000791   0.000002   0.000316
    4            -0.000001  -0.000003   0.000436   0.000004   0.000728
    5             1.999968   0.000000   0.000001  -0.000216   1.835148
    6            -0.000001  -0.000000   0.000013   0.000483   0.002319
    7            -0.000001  -0.000000   0.000013   0.000482   0.002311

                      6          7          8          9         10

                  2.000000   2.000000   2.000000   2.000000   2.000000

    1             0.020155   0.976619   0.377096   0.585861   0.375694
    2             0.482724   0.444289   0.697743   0.037596   0.242754
    3             1.494557   0.100638   0.268243   0.017633   0.275584
    4            -0.000689   0.018862   0.268358   0.000122   0.053481
    5             0.002649   0.266650   0.234053   1.115026   0.996161
    6             0.000308   0.096618   0.076736   0.119284   0.032197
    7             0.000297   0.096323   0.077770   0.124479   0.024129

                     11         12         13         14         15

                  2.000000   2.000000   2.000000   2.000000   2.000000

    1             0.257217   0.134199   0.240254   0.282351   0.289602
    2             0.312996   0.386259   0.280675   0.319878   0.311319
    3             0.432881   0.965385   0.427849   0.426030   0.912573
    4             0.067866   0.154068   0.003278   0.000011   0.000003
    5             0.891247   0.278793   0.881764   0.670673   0.176197
    6             0.018379   0.040652   0.083811   0.148767   0.155764
    7             0.019414   0.040643   0.082370   0.152290   0.154541

                     16

                  2.000000

    1             0.291565
    2             0.203642
    3             1.149447
    4             0.252144
    5             0.056045
    6             0.023614
    7             0.023543

               ----- POPULATIONS IN EACH AO -----
                             MULLIKEN      LOWDIN
              1  C  1  S      1.99668     1.97885
              2  C  1  S      0.64862     0.35538
              3  C  1  X      0.53535     0.48933
              4  C  1  Y      0.65309     0.58910
              5  C  1  Z      0.75099     0.66704
              6  C  1  S      0.55025     0.31657
              7  C  1  X      0.12176     0.24470
              8  C  1  Y      0.23292     0.36965
              9  C  1  Z      0.38063     0.47184
             10  C  1 XX      0.01613     0.16207
             11  C  1 YY      0.01278     0.15211
             12  C  1 ZZ      0.02605     0.16477
             13  C  1 XY      0.02410     0.04378
             14  C  1 XZ      0.00706     0.01502
             15  C  1 YZ      0.01939     0.03408
             16  C  2  S      1.99677     1.97520
             17  C  2  S      0.70129     0.36754
             18  C  2  X      0.73288     0.65315
             19  C  2  Y      0.73235     0.64392
             20  C  2  Z      0.38520     0.34974
             21  C  2  S      0.48099     0.31074
             22  C  2  X      0.07415     0.26178
             23  C  2  Y      0.25710     0.39687
             24  C  2  Z      0.26237     0.31437
             25  C  2 XX      0.04295     0.21999
             26  C  2 YY      0.03173     0.18474
             27  C  2 ZZ     -0.02340     0.10141
             28  C  2 XY      0.03800     0.07611
             29  C  2 XZ      0.01762     0.03157
             30  C  2 YZ      0.00322     0.00489
             31  O  3  S      1.99560     1.97779
             32  O  3  S      0.91563     0.71595
             33  O  3  X      0.94528     0.88382
             34  O  3  Y      1.12043     1.08161
             35  O  3  Z      0.75491     0.71102
             36  O  3  S      0.94809     0.46943
             37  O  3  X      0.47866     0.55758
             38  O  3  Y      0.68277     0.70684
             39  O  3  Z      0.58631     0.60526
             40  O  3 XX      0.01638     0.19179
             41  O  3 YY      0.00363     0.17472
             42  O  3 ZZ      0.00065     0.16980
             43  O  3 XY      0.00773     0.01553
             44  O  3 XZ      0.01286     0.01419
             45  O  3 YZ      0.00168     0.00192
             46  H  4  S      0.52531     0.49313
             47  H  4  S      0.29336     0.36443
             48  F  5  S      1.99541     1.97790
             49  F  5  S      0.97107     0.85690
             50  F  5  X      0.99136     0.94778
             51  F  5  Y      1.10090     1.06562
             52  F  5  Z      1.19597     1.16870
             53  F  5  S      0.88561     0.51354
             54  F  5  X      0.67140     0.68626
             55  F  5  Y      0.71713     0.74523
             56  F  5  Z      0.76356     0.78481
             57  F  5 XX      0.04337     0.17078
             58  F  5 YY      0.03188     0.16623
             59  F  5 ZZ      0.02678     0.16260
             60  F  5 XY      0.00685     0.00825
             61  F  5 XZ      0.00194     0.00499
             62  F  5 YZ      0.00093     0.00280
             63  H  6  S      0.52585     0.49024
             64  H  6  S      0.27310     0.33810
             65  H  7  S      0.52586     0.49021
             66  H  7  S      0.27275     0.33798

          ----- MULLIKEN ATOMIC OVERLAP POPULATIONS -----
          (OFF-DIAGONAL ELEMENTS NEED TO BE MULTIPLIED BY 2)

             1           2           3           4           5

    1    4.8717566
    2    0.3049827   4.6315088
    3   -0.0644566   0.5027978   8.0649752
    4   -0.0832835   0.3831292  -0.0395589   0.5468005
    5    0.1878295  -0.0148957   0.0009383   0.0054670   9.2747931
    6    0.3794610  -0.0371441   0.0029013   0.0030291  -0.0250222
    7    0.3795172  -0.0371718   0.0030155   0.0030847  -0.0249515

             6           7

    6    0.5043979
    7   -0.0286799   0.5037894

          TOTAL MULLIKEN AND LOWDIN ATOMIC POPULATIONS
       ATOM         MULL.POP.    CHARGE          LOW.POP.     CHARGE
    1 C             5.975807    0.024193         6.054279   -0.054279
    2 C             5.733207    0.266793         5.892010    0.107990
    3 O             8.470613   -0.470613         8.277241   -0.277241
    4 H             0.818668    0.181332         0.857560    0.142440
    5 F             9.404159   -0.404159         9.262382   -0.262382
    6 H             0.798943    0.201057         0.828339    0.171661
    7 H             0.798604    0.201396         0.828190    0.171810

          -------------------------------
          BOND ORDER AND VALENCE ANALYSIS     BOND ORDER THRESHOLD=0.050
          -------------------------------

                   BOND                       BOND                       BOND
  ATOM PAIR DIST  ORDER      ATOM PAIR DIST  ORDER      ATOM PAIR DIST  ORDER
    1   2  1.521  0.911        1   5  1.383  0.807        1   6  1.098  0.931
    1   7  1.098  0.931        2   3  1.209  1.886        2   4  1.112  0.911

                       TOTAL       BONDED        FREE
      ATOM            VALENCE     VALENCE     VALENCE
    1 C                 3.572       3.572      -0.000
    2 C                 3.717       3.717      -0.000
    3 O                 1.920       1.920      -0.000
    4 H                 0.923       0.923       0.000
    5 F                 0.843       0.843      -0.000
    6 H                 0.922       0.922      -0.000
    7 H                 0.922       0.922      -0.000

          ---------------------
          ELECTROSTATIC MOMENTS
          ---------------------

 POINT   1           X           Y           Z (BOHR)    CHARGE
                -0.000000    0.000000   -0.000000       -0.00 (A.U.)
         DX          DY          DZ         /D/  (DEBYE)
     1.214632    0.342889   -0.026458    1.262380
 ...... END OF PROPERTY EVALUATION ......
 STEP CPU TIME =     0.00 TOTAL CPU TIME =          0.7 (      0.0 MIN)
 TOTAL WALL CLOCK TIME=          0.7 SECONDS, CPU UTILIZATION IS    94.44%

 --------------------------   -----------------------------
 RHF-MP2 ENERGY CALCULATION   PROGRAM WRITTEN BY K.ISHIMURA
 --------------------------   -----------------------------
 NUMBER OF OCCUPIED ORBITALS            =   16
 NUMBER OF CORRELATED OCCUPIED ORBITALS =   12
 NUMBER OF VIRTUAL ORBITALS             =   50
 NUMBER OF BASIS FUNCTIONS              =   66
 NUMBER OF BASIS SHELLS                 =   22
 AO-TRANSFORMED INTEGRAL THRESHOLD      = 1.00E-09
 HALF-TRANSFORMED INTEGRAL THRESHOLD    = 1.39E-11
 TOTAL DISK REQUIRED (ALL PROCESSORS)=              2 MBYTES
                  DISK SPACE PER CORE=              2 MBYTES, USING P=    1
 MEMORY REQUIRED FOR TRANSFORMATION OF 1ST THREE INDICES=       84934
 MEMORY REQUIRED FOR    4TH INDEX TRANSF. AND MP2 ENERGY=      275342
 BEGINNING MP2 INTEGRAL TRANSFORMATION...
 BEGINNING    1ST SHELL LOOP...

 RESULTS OF MOLLER-PLESSET 2ND ORDER CORRECTION ARE
               E(0)=      -251.7560469895
               E(1)=         0.0
               E(2)=        -0.5973633139
             E(MP2)=      -252.3534103033
 SPIN-COMPONENT-SCALED MP2 RESULTS ARE
              E(2S)=        -0.4402307226
              E(2T)=        -0.1571325913
             E(2ST)=        -0.5806543975 = 6/5 * E(2S) + 1/3 * E(2T)
            SCS-MP2=      -252.3367013870
 ..... DONE WITH MP2 ENERGY .....
 STEP CPU TIME =     0.82 TOTAL CPU TIME =          1.5 (      0.0 MIN)
 TOTAL WALL CLOCK TIME=          1.6 SECONDS, CPU UTILIZATION IS    96.15%
                580000  WORDS OF DYNAMIC MEMORY USED
 EXECUTION OF GAMESS TERMINATED NORMALLY Fri Oct 18 09:45:49 2019
 DDI: 263640 bytes (0.3 MB / 0 MWords) used by master data server.

 ----------------------------------------
 CPU timing information for all processes
 ========================================
 0: 1.184 + 0.329 = 1.513
 ----------------------------------------
 ddikick.x: exited gracefully.
----- accounting info -----
Files used on the master node crcfe02.crc.nd.edu were:
-rw-r--r-- 1 cdrisko campus      415 Oct 18 09:45 /afs/crc.nd.edu/user/c/cdrisko/acetaldehyde-F_MP2.F05
-rw-r--r-- 1 cdrisko campus    72586 Oct 18 09:45 /afs/crc.nd.edu/user/c/cdrisko/acetaldehyde-F_MP2.F07
-rw-r--r-- 1 cdrisko campus 24842208 Oct 18 09:45 /afs/crc.nd.edu/user/c/cdrisko/acetaldehyde-F_MP2.F08
-rw-r--r-- 1 cdrisko campus  1636000 Oct 18 09:45 /afs/crc.nd.edu/user/c/cdrisko/acetaldehyde-F_MP2.F10
Fri Oct 18 09:45:52 EDT 2019
0.466u 0.256s 0:05.26 13.4%	0+0k 0+24io 0pf+0w
