----- GAMESS execution script 'rungms' -----
This job is running on host crcfe01.crc.nd.edu
under operating system Linux at Fri Oct 18 07:31:33 EDT 2019
Available scratch disk space (Kbyte units) at beginning of the job is
Filesystem      1K-blocks  Used  Available Use% Mounted on
AFS            2147483647     0 2147483647   0% /afs
GAMESS temporary binary files will be written to /afs/crc.nd.edu/user/c/cdrisko
GAMESS supplementary output files will be written to /afs/crc.nd.edu/user/c/cdrisko/scr
Copying input file acetaldehyde-F_opt.inp to your run's scratch directory...

 Distributed Data Interface kickoff program.
 Initiating 1 compute processes on 1 nodes to run the following command:
 /afs/crc.nd.edu/x86_64_linux/g/gamess/nov-2017/gamess/gamess.00.x acetaldehyde-F_opt 

          ******************************************************
          *         GAMESS VERSION = 11 NOV 2017 (R3)         *
          *             FROM IOWA STATE UNIVERSITY             *
          * M.W.SCHMIDT, K.K.BALDRIDGE, J.A.BOATZ, S.T.ELBERT, *
          *   M.S.GORDON, J.H.JENSEN, S.KOSEKI, N.MATSUNAGA,   *
          *          K.A.NGUYEN, S.J.SU, T.L.WINDUS,           *
          *       TOGETHER WITH M.DUPUIS, J.A.MONTGOMERY       *
          *         J.COMPUT.CHEM.  14, 1347-1363(1993)        *
          **************** 64 BIT INTEL VERSION ****************

  SINCE 1993, STUDENTS AND POSTDOCS WORKING AT IOWA STATE UNIVERSITY
  AND ALSO IN THEIR VARIOUS JOBS AFTER LEAVING ISU HAVE MADE IMPORTANT
  CONTRIBUTIONS TO THE CODE:
     IVANA ADAMOVIC, CHRISTINE AIKENS, YURI ALEXEEV, POOJA ARORA,
     ANDREY ASADCHEV, ROB BELL, PRADIPTA BANDYOPADHYAY, JONATHAN BENTZ,
     BRETT BODE, KURT BRORSEN, CALEB CARLIN, GALINA CHABAN, WEI CHEN,
     CHEOL HO CHOI, PAUL DAY, ALBERT DEFUSCO, NUWAN DESILVA, TIM DUDLEY,
     DMITRI FEDOROV, ALEX FINDLATER, GRAHAM FLETCHER, MARK FREITAG,
     KURT GLAESEMANN, ANASTASIA GUININA,
     DAN KEMP, GRANT MERRILL, NORIYUKI MINEZAWA, JONATHAN MULLIN,
     TAKESHI NAGATA, SEAN NEDD, HEATHER NETZLOFF, BOSILJKA NJEGIC, RYAN OLSON,
     MIKE PAK, BUU PHAM,
     SPENCER PRUITT, LUKE ROSKOP, JIM SHOEMAKER, LYUDMILA SLIPCHENKO,
     TONY SMITH, SAROM SOK LEANG, JIE SONG, TETSUYA TAKETSUGU, SIMON WEBB,
     PENG XU, SOOHAENG YOO, FEDERICO ZAHARIEV

  ADDITIONAL CODE HAS BEEN PROVIDED BY COLLABORATORS IN OTHER GROUPS:
     IOWA STATE UNIVERSITY:
          JOE IVANIC, AARON WEST, LAIMUTIS BYTAUTAS, KLAUS RUEDENBERG
     UNIVERSITY OF TOKYO: KIMIHIKO HIRAO, TAKAHITO NAKAJIMA,
          TAKAO TSUNEDA, MUNEAKI KAMIYA, SUSUMU YANAGISAWA,
          KIYOSHI YAGI, MAHITO CHIBA, SEIKEN TOKURA, NAOAKI KAWAKAMI
     UNIVERSITY OF AARHUS: FRANK JENSEN
     UNIVERSITY OF IOWA: VISVALDAS KAIRYS, HUI LI
     NATIONAL INST. OF STANDARDS AND TECHNOLOGY: WALT STEVENS, DAVID GARMER
     UNIVERSITY OF PISA: BENEDETTA MENNUCCI, JACOPO TOMASI
     UNIVERSITY OF MEMPHIS: HENRY KURTZ, PRAKASHAN KORAMBATH
     UNIVERSITY OF ALBERTA: TOBY ZENG, MARIUSZ KLOBUKOWSKI
     UNIVERSITY OF NEW ENGLAND: MARK SPACKMAN
     MIE UNIVERSITY: HIROAKI UMEDA
     NAT. INST. OF ADVANCED INDUSTRIAL SCIENCE AND TECHNOLOGY: KAZUO KITAURA
     MICHIGAN STATE UNIVERSITY:
          KAROL KOWALSKI, MARTA WLOCH, JEFFREY GOUR, JESSE LUTZ,
          WEI LI, PIOTR PIECUCH
     UNIVERSITY OF SILESIA: MONIKA MUSIAL, STANISLAW KUCHARSKI
     FACULTES UNIVERSITAIRES NOTRE-DAME DE LA PAIX:
          OLIVIER QUINET, BENOIT CHAMPAGNE
     UNIVERSITY OF CALIFORNIA - SANTA BARBARA: BERNARD KIRTMAN
     INSTITUTE FOR MOLECULAR SCIENCE:
          KAZUYA ISHIMURA, MICHIO KATOUDA, AND SHIGERU NAGASE
     UNIVERSITY OF NOTRE DAME: ANNA POMOGAEVA, DAN CHIPMAN
     KYUSHU UNIVERSITY:
          HARUYUKI NAKANO,
          FENG LONG GU, JACEK KORCHOWIEC, MARCIN MAKOWSKI, AND YURIKO AOKI,
          HIROTOSHI MORI AND EISAKU MIYOSHI
     PENNSYLVANIA STATE UNIVERSITY:
          TZVETELIN IORDANOV, CHET SWALINA, JONATHAN SKONE,
          SHARON HAMMES-SCHIFFER
     WASEDA UNIVERSITY:
          MASATO KOBAYASHI, TOMOKO AKAMA, TSUGUKI TOUMA,
          TAKESHI YOSHIKAWA, YASUHIRO IKABATA, JUNJI SEINO,
          YUYA NAKAJIMA, HIROMI NAKAI
     NANJING UNIVERSITY: SHUHUA LI
     UNIVERSITY OF NEBRASKA:
          PEIFENG SU, DEJUN SI, NANDUN THELLAMUREGE, YALI WANG, HUI LI
     UNIVERSITY OF ZURICH: ROBERTO PEVERATI, KIM BALDRIDGE
     N. COPERNICUS UNIVERSITY AND JACKSON STATE UNIVERSITY:
          MARIA BARYSZ
     UNIVERSITY OF COPENHAGEN: Jimmy Kromann, CASPER STEINMANN
     TOKYO INSTITUTE OF TECHNOLOGY: HIROYA NAKATA
     NAGOYA UNIVERSITY: YOSHIO NISHIMOTO, STEPHAN IRLE
     MOSCOW STATE UNIVERSITY: VLADIMIR MIRONOV

 EXECUTION OF GAMESS BEGUN Fri Oct 18 07:31:34 2019

            ECHO OF THE FIRST FEW INPUT CARDS -
 INPUT CARD> $CONTRL SCFTYP= RHF RUNTYP=OPTIMIZE DFTTYP=B3LYP                               
 INPUT CARD>       ICHARG=0 MULT=1 COORD=CART $END                                          
 INPUT CARD> $STATPT METHOD=NR OPTTOL=0.0001 HESS=GUESS NSTEP=50 $END                       
 INPUT CARD> $BASIS GBASIS=N31 NGAUSS=6 NDFUNC=1 $END                                       
 INPUT CARD> $DATA                                                                          
 INPUT CARD>C2H3OF                                                                          
 INPUT CARD>C1 1                                                                            
 INPUT CARD>C 6 0.00000000 0.00000000 0.00000000                                            
 INPUT CARD>C 6 1.51156500 0.19634092 -0.00035193                                           
 INPUT CARD>O 8 2.28595099 -0.73287782 0.00286977                                           
 INPUT CARD>H 1 1.90168201 1.23994378 -0.00372294                                           
 INPUT CARD>F 9 -0.63235801 1.24220318 -0.00422778                                          
 INPUT CARD>H 1 -0.29271100 -0.58021492 -0.90449733                                         
 INPUT CARD>H 1 -0.29306680 -0.57422662 0.90819609                                          
 INPUT CARD> $END                                                                           
    1000000 WORDS OF MEMORY AVAILABLE


                    * * * WARNING * * *
 OLD KEYWORD COORD=CART SELECTED, AUTOMATICALLY CHANGED TO COORD=PRINAXIS.
 YOUR MOLECULE'S COORDINATES WILL BE CHANGED TO PRINCIPAL AXES BY
   A) TRANSLATION TO THE CENTER OF MASS, THEN
   B) ROTATION TO HAVE A DIAGONAL MOMENT OF INERTIA TENSOR.

 HOWEVER, NOTHING ELSE IN YOUR INPUT WILL BE ROTATED IN THE SAME WAY,
 SO IF YOU HAVE A $VEC, $VIB, $GRAD, $HESS, EFP PARTICLE COORDINATES,
 OR ANYTHING ELSE THAT DEPENDS ON THE INITIAL ORIENTATION, THAT DATA
 WILL NOT BE USED CORRECTLY IN THIS RUN.

 THE PURPOSE OF COORD=PRINAXIS IS TO BE USED ONCE, ONLY AT THE VERY
 BEGINNING OF A SERIES OF COMPUTATIONS, PERHAPS TO FIND THE SYMMETRY
 UNIQUE ATOMS FROM AN ARBITRARY INITIAL ORIENTATION.

 AFTER THE FIRST RUN, YOU SHOULD USE ONLY COORD=UNIQUE, TO ENSURE THAT
 THE COORDINATES WHICH YOU READ IN ARE THE COORDINATES THAT ARE USED.


     BASIS OPTIONS
     -------------
     GBASIS=N31          IGAUSS=       6      POLAR=POPN31  
     NDFUNC=       1     NFFUNC=       0     DIFFSP=       F
     NPFUNC=       0      DIFFS=       F     BASNAM=        


     RUN TITLE
     ---------
 C2H3OF                                                                          

 THE POINT GROUP OF THE MOLECULE IS C1      
 THE ORDER OF THE PRINCIPAL AXIS IS     1

 THE MOMENTS OF INERTIA ARE (AMU-ANGSTROM**2)
 IXX=    12.916   IYY=   118.857   IZZ=   128.461

 ATOM      ATOMIC                      COORDINATES (BOHR)
           CHARGE         X                   Y                   Z
 C           6.0     0.9485949499       -1.0437122554        0.0000000000
 C           6.0    -1.3484242966        0.6942857545        0.0000000000
 O           8.0    -3.4897351082       -0.1055421732        0.0000000000
 H           1.0    -1.0112656127        2.7725350994        0.0000000000
 F           9.0     3.1499425266        0.4028407590        0.0000000000
 H           1.0     0.8886769989       -2.2654252928        1.7127563115
 H           1.0     0.8886770148       -2.2654252908       -1.7127563098

          INTERNUCLEAR DISTANCES (ANGS.)
          ------------------------------

                1 C          2 C          3 O          4 H          5 F     

   1 C       0.0000000    1.5242633 *  2.4005604 *  2.2702134 *  1.3939022 *
   2 C       1.5242633 *  0.0000000    1.2095997 *  1.1141407 *  2.3854242 *
   3 O       2.4005604 *  1.2095997 *  0.0000000    2.0099083 *  3.5238506  
   4 H       2.2702134 *  1.1141407 *  2.0099083 *  0.0000000    2.5340411 *
   5 F       1.3939022 *  2.3854242 *  3.5238506    2.5340411 *  0.0000000  
   6 H       1.1137524 *  2.1623898 *  2.7379041 *  2.9899386 *  2.0608380 *
   7 H       1.1137524 *  2.1623898 *  2.7379041 *  2.9899386 *  2.0608380 *

                6 H          7 H     

   1 C       1.1137524 *  1.1137524 *
   2 C       2.1623898 *  2.1623898 *
   3 O       2.7379041 *  2.7379041 *
   4 H       2.9899386 *  2.9899386 *
   5 F       2.0608380 *  2.0608380 *
   6 H       0.0000000    1.8127033 *
   7 H       1.8127033 *  0.0000000  

  * ... LESS THAN  3.000


     ATOMIC BASIS SET
     ----------------
 THE CONTRACTED PRIMITIVE FUNCTIONS HAVE BEEN UNNORMALIZED
 THE CONTRACTED BASIS FUNCTIONS ARE NOW NORMALIZED TO UNITY

  SHELL TYPE  PRIMITIVE        EXPONENT          CONTRACTION COEFFICIENT(S)

 C         

      1   S       1          3047.5248800    0.001834737132
      1   S       2           457.3695180    0.014037322813
      1   S       3           103.9486850    0.068842622264
      1   S       4            29.2101553    0.232184443216
      1   S       5             9.2866630    0.467941348435
      1   S       6             3.1639270    0.362311985337

      2   L       7             7.8682723   -0.119332419775    0.068999066591
      2   L       8             1.8812885   -0.160854151696    0.316423960957
      2   L       9             0.5442493    1.143456437840    0.744308290898

      3   L      10             0.1687145    1.000000000000    1.000000000000

      4   D      11             0.8000000    1.000000000000

 C         

      5   S      12          3047.5248800    0.001834737132
      5   S      13           457.3695180    0.014037322813
      5   S      14           103.9486850    0.068842622264
      5   S      15            29.2101553    0.232184443216
      5   S      16             9.2866630    0.467941348435
      5   S      17             3.1639270    0.362311985337

      6   L      18             7.8682723   -0.119332419775    0.068999066591
      6   L      19             1.8812885   -0.160854151696    0.316423960957
      6   L      20             0.5442493    1.143456437840    0.744308290898

      7   L      21             0.1687145    1.000000000000    1.000000000000

      8   D      22             0.8000000    1.000000000000

 O         

      9   S      23          5484.6716600    0.001831074430
      9   S      24           825.2349460    0.013950172200
      9   S      25           188.0469580    0.068445078098
      9   S      26            52.9645000    0.232714335992
      9   S      27            16.8975704    0.470192897984
      9   S      28             5.7996353    0.358520852987

     10   L      29            15.5396162   -0.110777549525    0.070874268231
     10   L      30             3.5999336   -0.148026262701    0.339752839147
     10   L      31             1.0137618    1.130767015354    0.727158577316

     11   L      32             0.2700058    1.000000000000    1.000000000000

     12   D      33             0.8000000    1.000000000000

 H         

     13   S      34            18.7311370    0.033494604338
     13   S      35             2.8253944    0.234726953484
     13   S      36             0.6401217    0.813757326146

     14   S      37             0.1612778    1.000000000000

 F         

     15   S      38          7001.7130900    0.001819616901
     15   S      39          1051.3660900    0.013916079607
     15   S      40           239.2856900    0.068405324535
     15   S      41            67.3974453    0.233185760119
     15   S      42            21.5199573    0.471267439240
     15   S      43             7.4031013    0.356618546182

     16   L      44            20.8479528   -0.108506975109    0.071628724237
     16   L      45             4.8083083   -0.146451658147    0.345912102697
     16   L      46             1.3440699    1.128688581135    0.722469956367

     17   L      47             0.3581514    1.000000000000    1.000000000000

     18   D      48             0.8000000    1.000000000000

 H         

     19   S      49            18.7311370    0.033494604338
     19   S      50             2.8253944    0.234726953484
     19   S      51             0.6401217    0.813757326146

     20   S      52             0.1612778    1.000000000000

 H         

     21   S      53            18.7311370    0.033494604338
     21   S      54             2.8253944    0.234726953484
     21   S      55             0.6401217    0.813757326146

     22   S      56             0.1612778    1.000000000000

 TOTAL NUMBER OF BASIS SET SHELLS             =   22
 NUMBER OF CARTESIAN GAUSSIAN BASIS FUNCTIONS =   66
 NUMBER OF ELECTRONS                          =   32
 CHARGE OF MOLECULE                           =    0
 SPIN MULTIPLICITY                            =    1
 NUMBER OF OCCUPIED ORBITALS (ALPHA)          =   16
 NUMBER OF OCCUPIED ORBITALS (BETA )          =   16
 TOTAL NUMBER OF ATOMS                        =    7
 THE NUCLEAR REPULSION ENERGY IS      112.6027914630

     LEBEDEV GRID-BASED DFT OPTIONS
     ------------------------------
     DFTTYP=B3LYP   
     NRAD  =      96     NLEB  =     302
     NRAD0 =      24     NLEB0 =     110
     SWOFF =    5.00E-03 (PURE SCF -> DFT)
     SWITCH=    3.00E-04 (COARSE -> TIGHT GRID)
     THRESH=    0.00E+00 GTHRE=    1.00E+00

 GRIMME'S EMPIRICAL DISPERSION CORRECTION= F

     $CONTRL OPTIONS
     ---------------
 SCFTYP=RHF          RUNTYP=OPTIMIZE     EXETYP=RUN     
 MPLEVL=       0     CITYP =NONE         CCTYP =NONE         VBTYP =NONE    
 DFTTYP=B3LYP        TDDFT =NONE    
 MULT  =       1     ICHARG=       0     NZVAR =       0     COORD =PRINAXIS
 PP    =NONE         RELWFN=NONE         LOCAL =NONE         NUMGRD=       F
 ISPHER=      -1     NOSYM =       0     MAXIT =      30     UNITS =ANGS    
 PLTORB=       F     MOLPLT=       F     AIMPAC=       F     FRIEND=        
 NPRINT=       7     IREST =       0     GEOM  =INPUT   
 NORMF =       0     NORMP =       0     ITOL  =      20     ICUT  =       9
 INTTYP=BEST         GRDTYP=BEST         QMTTOL= 1.0E-06

     $SYSTEM OPTIONS
     ---------------
  REPLICATED MEMORY=     1000000 WORDS (ON EVERY NODE).
 DISTRIBUTED MEMDDI=           0 MILLION WORDS IN AGGREGATE,
 MEMDDI DISTRIBUTED OVER   1 PROCESSORS IS           0 WORDS/PROCESSOR.
 TOTAL MEMORY REQUESTED ON EACH PROCESSOR=     1000000 WORDS.
 TIMLIM=      525600.00 MINUTES, OR     365.0 DAYS.
 PARALL= F  BALTYP=  DLB     KDIAG=    0  COREFL= F
 MXSEQ2=     300 MXSEQ3=     150  mem10=         0

          ----------------
          PROPERTIES INPUT
          ----------------

     MOMENTS            FIELD           POTENTIAL          DENSITY
 IEMOM =       1   IEFLD =       0   IEPOT =       0   IEDEN =       0
 WHERE =COMASS     WHERE =NUCLEI     WHERE =NUCLEI     WHERE =NUCLEI  
 OUTPUT=BOTH       OUTPUT=BOTH       OUTPUT=BOTH       OUTPUT=BOTH    
 IEMINT=       0   IEFINT=       0                     IEDINT=       0
                                                       MORB  =       0
          EXTRAPOLATION IN EFFECT
          DIIS IN EFFECT
 ORBITAL PRINTING OPTION: NPREO=     1    66     2     1

     -------------------------------
     INTEGRAL TRANSFORMATION OPTIONS
     -------------------------------
     NWORD  =            0
     CUTOFF = 1.0E-09     MPTRAN =       0
     DIRTRF =       F     AOINTS =DUP     

          ----------------------
          INTEGRAL INPUT OPTIONS
          ----------------------
 NOPK  =       1 NORDER=       0 SCHWRZ=       T

     ------------------------------------------
     THE POINT GROUP IS C1 , NAXIS= 1, ORDER= 1
     ------------------------------------------

     DIMENSIONS OF THE SYMMETRY SUBSPACES ARE
 A   =   66

 ..... DONE SETTING UP THE RUN .....
 STEP CPU TIME =     0.01 TOTAL CPU TIME =          0.0 (      0.0 MIN)
 TOTAL WALL CLOCK TIME=          0.0 SECONDS, CPU UTILIZATION IS    50.00%


          -----------------------------
          STATIONARY POINT LOCATION RUN
          -----------------------------

 OBTAINING INITIAL HESSIAN, HESS=GUESS   
 CARTESIAN COORDINATE OPTIMIZATION USING BADGER'S RULE FORCE CONSTANT GUESS

          PARAMETERS CONTROLLING GEOMETRY SEARCH ARE
          METHOD =NR                  UPHESS =POWELL  
          NNEG   =         0          NFRZ   =         0
          NSTEP  =        50          IFOLOW =         1
          HESS   =GUESS               RESTAR =         F
          IHREP  =         0          HSSEND =         F
          NPRT   =         0          NPUN   =         0
          OPTTOL = 1.000E-04          RMIN   = 1.500E-03
          RMAX   = 1.000E-01          RLIM   = 7.000E-02
          DXMAX  = 3.000E-01          PURIFY =         F
          MOVIE  =         F          TRUPD  =         T
          TRMAX  = 5.000E-01          TRMIN  = 5.000E-02
          ITBMAT =         5          STPT   =         F
          STSTEP = 1.000E-02          PROJCT=          T

 BEGINNING GEOMETRY SEARCH POINT NSERCH=   0 ...

 COORDINATES OF ALL ATOMS ARE (ANGS)
   ATOM   CHARGE       X              Y              Z
 ------------------------------------------------------------
 C           6.0   0.5019748662  -0.5523087803   0.0000000000
 C           6.0  -0.7135554601   0.3674002257   0.0000000000
 O           8.0  -1.8466884251  -0.0558505169   0.0000000000
 H           1.0  -0.5351387552   1.4671624973   0.0000000000
 F           9.0   1.6668779215   0.2131741647   0.0000000000
 H           1.0   0.4702676498  -1.1988115248   0.9063516736
 H           1.0   0.4702676581  -1.1988115238  -0.9063516726

          ********************
          1 ELECTRON INTEGRALS
          ********************
 ...... END OF ONE-ELECTRON INTEGRALS ......
 STEP CPU TIME =     0.00 TOTAL CPU TIME =          0.0 (      0.0 MIN)
 TOTAL WALL CLOCK TIME=          0.0 SECONDS, CPU UTILIZATION IS    50.00%

          -------------
          GUESS OPTIONS
          -------------
          GUESS =HUCKEL            NORB  =       0          NORDER=       0
          MIX   =       F          PRTMO =       F          PUNMO =       F
          TOLZ  = 1.0E-08          TOLE  = 1.0E-05
          SYMDEN=       F          PURIFY=       F

 INITIAL GUESS ORBITALS GENERATED BY HUCKEL   ROUTINE.
 HUCKEL GUESS REQUIRES     39228 WORDS.

 SYMMETRIES FOR INITIAL GUESS ORBITALS FOLLOW.   BOTH SET(S).
    16 ORBITALS ARE OCCUPIED (    4 CORE ORBITALS).
     5=A        6=A        7=A        8=A        9=A       10=A       11=A   
    12=A       13=A       14=A       15=A       16=A       17=A       18=A   
    19=A       20=A       21=A       22=A       23=A       24=A       25=A   
    26=A   
 ...... END OF INITIAL ORBITAL SELECTION ......
 STEP CPU TIME =     0.00 TOTAL CPU TIME =          0.0 (      0.0 MIN)
 TOTAL WALL CLOCK TIME=          0.0 SECONDS, CPU UTILIZATION IS    33.33%

                    ----------------------
                    AO INTEGRAL TECHNOLOGY
                    ----------------------
     S,P,L SHELL ROTATED AXIS INTEGRALS, REPROGRAMMED BY
        KAZUYA ISHIMURA (IMS) AND JOSE SIERRA (SYNSTAR).
     S,P,D,L SHELL ROTATED AXIS INTEGRALS PROGRAMMED BY
        KAZUYA ISHIMURA (INSTITUTE FOR MOLECULAR SCIENCE).
     S,P,D,F,G SHELL TO TOTAL QUARTET ANGULAR MOMENTUM SUM 5,
        ERIC PROGRAM BY GRAHAM FLETCHER (ELORET AND NASA ADVANCED
        SUPERCOMPUTING DIVISION, AMES RESEARCH CENTER).
     S,P,D,F,G,L SHELL GENERAL RYS QUADRATURE PROGRAMMED BY
        MICHEL DUPUIS (PACIFIC NORTHWEST NATIONAL LABORATORY).

          --------------------
          2 ELECTRON INTEGRALS
          --------------------

 THE -PK- OPTION IS OFF, THE INTEGRALS ARE NOT IN SUPERMATRIX FORM.
 STORING   15000 INTEGRALS/RECORD ON DISK, USING 12 BYTES/INTEGRAL.
 TWO ELECTRON INTEGRAL EVALUATION REQUIRES   90649 WORDS OF MEMORY.
 SCHWARZ INEQUALITY OVERHEAD:      2200 INTEGRALS, T=        0.01
 II,JST,KST,LST =  1  1  1  1 NREC =         1 INTLOC =    1
 II,JST,KST,LST =  2  1  1  1 NREC =         1 INTLOC =    2
 II,JST,KST,LST =  3  1  1  1 NREC =         1 INTLOC =   34
 II,JST,KST,LST =  4  1  1  1 NREC =         1 INTLOC =  214
 II,JST,KST,LST =  5  1  1  1 NREC =         1 INTLOC = 1189
 II,JST,KST,LST =  6  1  1  1 NREC =         1 INTLOC = 2363
 II,JST,KST,LST =  7  1  1  1 NREC =         1 INTLOC = 9258
 II,JST,KST,LST =  8  1  1  1 NREC =         2 INTLOC = 6297
 II,JST,KST,LST =  9  1  1  1 NREC =         4 INTLOC = 7023
 II,JST,KST,LST = 10  1  1  1 NREC =         4 INTLOC =14472
 II,JST,KST,LST = 11  1  1  1 NREC =         7 INTLOC = 8829
 II,JST,KST,LST = 12  1  1  1 NREC =        11 INTLOC = 4505
 II,JST,KST,LST = 13  1  1  1 NREC =        19 INTLOC = 1342
 II,JST,KST,LST = 14  1  1  1 NREC =        20 INTLOC =13226
 II,JST,KST,LST = 15  1  1  1 NREC =        22 INTLOC =12276
 II,JST,KST,LST = 16  1  1  1 NREC =        24 INTLOC = 1243
 II,JST,KST,LST = 17  1  1  1 NREC =        30 INTLOC =10429
 II,JST,KST,LST = 18  1  1  1 NREC =        41 INTLOC = 4608
 II,JST,KST,LST = 19  1  1  1 NREC =        59 INTLOC = 1130
 II,JST,KST,LST = 20  1  1  1 NREC =        66 INTLOC = 8940
 II,JST,KST,LST = 21  1  1  1 NREC =        74 INTLOC =11778
 II,JST,KST,LST = 22  1  1  1 NREC =        83 INTLOC =  743
 SCHWARZ INEQUALITY TEST SKIPPED        2773 INTEGRAL BLOCKS.
 TOTAL NUMBER OF NONZERO TWO-ELECTRON INTEGRALS =             1365311
         92 INTEGRAL RECORDS WERE STORED ON DISK FILE  8.
  ...... END OF TWO-ELECTRON INTEGRALS .....
 STEP CPU TIME =     0.21 TOTAL CPU TIME =          0.2 (      0.0 MIN)
 TOTAL WALL CLOCK TIME=          0.2 SECONDS, CPU UTILIZATION IS    91.67%

          --------------------------
             R-B3LYP SCF CALCULATION
          --------------------------

     NUCLEAR ENERGY =       112.6027914630
     MAXIT =   30     NPUNCH=    2
     EXTRAP=T  DAMP=F  SHIFT=F  RSTRCT=F  DIIS=T  DEM=F  SOSCF=F
         DENSITY MATRIX CONVERGENCE THRESHOLD=  1.00E-05
     COARSE -> FINE DFT GRID SWITCH THRESHOLD=  3.00E-04 (SWITCH IN $DFT)
                   HF -> DFT SWITCH THRESHOLD=  5.00E-03 (SWOFF IN $DFT)
     MEMORY REQUIRED FOR RHF ITERS=    319420 WORDS.

 DFT CODE IS SWITCHING FROM THE FINE GRID NRAD= 96,  NLEB=  302
                      TO THE COARSE GRID NRAD0= 24, NLEB0=  110

     EXCHANGE FUNCTIONAL   =B88&HFX   
     CORRELATION FUNCTIONAL=LYP88&VWN5
     DFT THRESHOLD         =.197E-07
     GRID CHANGE THRESHOLD =.300E-03
 FOR AN EULER-MACLAURIN QUADRATURE USING  96 RADIAL POINTS:
 SMALLEST GAUSSIAN PRIMITIVE EXPONENT=        0.1612777588 OF TYPE -S-
 ON ATOM NUMBER   4 HAS RADIAL NORMALIZATION=  1.000000
  LARGEST GAUSSIAN PRIMITIVE EXPONENT=     7001.7130900000 OF TYPE -S-
 ON ATOM NUMBER   5 HAS RADIAL NORMALIZATION=  1.000000
 DFT IS SWITCHED OFF, PERFORMING PURE SCF UNTIL SWOFF THRESHOLD IS REACHED.

 ITER EX DEM     TOTAL ENERGY        E CHANGE  DENSITY CHANGE    DIIS ERROR
   1  0  0     -251.0251392536  -251.0251392536   0.315446159   0.936498194
          * * *   INITIATING DIIS PROCEDURE   * * *
   2  1  0     -251.6798701255    -0.6547308719   0.152731980   0.114380204
   3  2  0     -251.7226232202    -0.0427530947   0.079248642   0.081176327
   4  3  0     -251.7531627298    -0.0305395096   0.011987178   0.009150305
   5  4  0     -251.7540316807    -0.0008689509   0.004219480   0.003025692
 CONVERGED TO SWOFF, SO DFT CALCULATION IS NOW SWITCHED ON.
          * * *   INITIATING DIIS PROCEDURE   * * *
   6  5  0     -252.9063701955    -1.1523385148   0.161130408   0.097775035
   7  6  0     -252.9236239264    -0.0172537309   0.061079459   0.028998329
   8  7  0     -252.9193817685     0.0042421579   0.049880923   0.042381000
   9  8  0     -252.9282895614    -0.0089077928   0.011045934   0.011272937
  10  9  0     -252.9286242474    -0.0003346860   0.001557440   0.001870690
  11 10  0     -252.9286374015    -0.0000131541   0.000307274   0.000480392
  12 11  0     -252.9286379269    -0.0000005254   0.000052448   0.000055924
 DFT CODE IS SWITCHING BACK TO THE FINE GRID
          * * *   INITIATING DIIS PROCEDURE   * * *
  13 12  0     -252.9288819952    -0.0002440682   0.005173013   0.002440024
  14 13  0     -252.9289085694    -0.0000265743   0.001082629   0.000498255
  15 14  0     -252.9289072368     0.0000013326   0.000753517   0.000694729
  16 15  0     -252.9289094852    -0.0000022484   0.000192276   0.000133060
  17 16  0     -252.9289095317    -0.0000000465   0.000048665   0.000054016
  18 17  0     -252.9289095483    -0.0000000166   0.000006403   0.000005676
  19 18  0     -252.9289095484    -0.0000000001   0.000002816   0.000002442
  20 19  0     -252.9289095485    -0.0000000000   0.000000342   0.000000323

          -----------------
          DENSITY CONVERGED
          -----------------
     TIME TO FORM FOCK OPERATORS=       6.3 SECONDS (       0.3 SEC/ITER)
     TIME TO SOLVE SCF EQUATIONS=       0.0 SECONDS (       0.0 SEC/ITER)

 FINAL R-B3LYP ENERGY IS     -252.9289095485 AFTER  20 ITERATIONS
 DFT EXCHANGE + CORRELATION ENERGY =       -24.9216570380
 TOTAL ELECTRON NUMBER             =        32.0001312190

          ------------
          EIGENVECTORS
          ------------

                      1          2          3          4          5
                  -24.6904   -19.1638   -10.2915   -10.2837    -1.1949
                     A          A          A          A          A   
    1  C  1  S   -0.000014   0.000007   0.014026   0.992918  -0.060089
    2  C  1  S    0.000058   0.000031   0.000562   0.048979   0.111664
    3  C  1  X    0.000515   0.000004   0.000200   0.000783   0.076703
    4  C  1  Y    0.000354   0.000040  -0.000250   0.000613   0.052867
    5  C  1  Z    0.000000   0.000000   0.000000  -0.000000  -0.000000
    6  C  1  S   -0.000392   0.000045   0.002839  -0.015563   0.031683
    7  C  1  X   -0.000500  -0.000217  -0.000911   0.001679   0.008217
    8  C  1  Y   -0.000107  -0.000133   0.001481  -0.000621  -0.004443
    9  C  1  Z   -0.000000   0.000000  -0.000000   0.000000   0.000000
   10  C  1 XX    0.000445  -0.000010  -0.000522  -0.008682   0.009350
   11  C  1 YY    0.000201   0.000050  -0.000401  -0.008849  -0.000399
   12  C  1 ZZ   -0.000028   0.000022  -0.000252  -0.008928  -0.007797
   13  C  1 XY    0.000309   0.000006   0.000195   0.000323   0.014957
   14  C  1 XZ    0.000000   0.000000   0.000000  -0.000000  -0.000000
   15  C  1 YZ    0.000000   0.000000   0.000000  -0.000000  -0.000000
   16  C  2  S    0.000010   0.000020   0.992705  -0.014275  -0.010714
   17  C  2  S    0.000141   0.000538   0.048782  -0.001043   0.017712
   18  C  2  X    0.000018   0.000071  -0.000837  -0.000056   0.012014
   19  C  2  Y   -0.000024  -0.000013  -0.000434   0.000144  -0.005984
   20  C  2  Z    0.000000   0.000000   0.000000   0.000000   0.000000
   21  C  2  S   -0.000007  -0.003164  -0.008718   0.004619   0.018779
   22  C  2  X   -0.000354   0.002375  -0.002750   0.002270   0.013033
   23  C  2  Y    0.000171   0.001270  -0.000408  -0.001737  -0.005024
   24  C  2  Z    0.000000  -0.000000  -0.000000  -0.000000  -0.000000
   25  C  2 XX   -0.000096  -0.000809  -0.008590  -0.000238   0.004736
   26  C  2 YY   -0.000024  -0.000130  -0.009392  -0.000056   0.000413
   27  C  2 ZZ    0.000026  -0.000002  -0.009757  -0.000076  -0.001715
   28  C  2 XY    0.000006  -0.000346   0.000403   0.000125  -0.001937
   29  C  2 XZ    0.000000   0.000000   0.000000  -0.000000  -0.000000
   30  C  2 YZ    0.000000   0.000000   0.000000   0.000000   0.000000
   31  O  3  S    0.000020   0.992774  -0.000183  -0.000040  -0.003919
   32  O  3  S    0.000084   0.025778   0.000273  -0.000201   0.008623
   33  O  3  X    0.000024   0.001139  -0.000059  -0.000021   0.004150
   34  O  3  Y    0.000014   0.000399   0.000010   0.000010   0.000481
   35  O  3  Z    0.000000  -0.000000   0.000000   0.000000  -0.000000
   36  O  3  S   -0.000421   0.013373  -0.002178   0.000683   0.008606
   37  O  3  X   -0.000082   0.001453  -0.001639   0.000133  -0.000381
   38  O  3  Y   -0.000072   0.000483  -0.000807   0.000305   0.002390
   39  O  3  Z    0.000000   0.000000   0.000000   0.000000   0.000000
   40  O  3 XX    0.000064  -0.007558  -0.000313  -0.000038  -0.000252
   41  O  3 YY    0.000059  -0.008004   0.000089  -0.000052  -0.000141
   42  O  3 ZZ    0.000061  -0.008092   0.000318  -0.000250   0.000140
   43  O  3 XY    0.000003   0.000203  -0.000235   0.000037  -0.000013
   44  O  3 XZ    0.000000   0.000000   0.000000   0.000000   0.000000
   45  O  3 YZ    0.000000   0.000000   0.000000   0.000000   0.000000
   46  H  4  S    0.000060  -0.000000  -0.000296  -0.000156   0.002962
   47  H  4  S   -0.000203  -0.000395   0.002217   0.000305   0.003258
   48  F  5  S    0.993011   0.000039  -0.000020  -0.000146  -0.221830
   49  F  5  S    0.019683   0.000210  -0.000124  -0.000477   0.495416
   50  F  5  X   -0.000608  -0.000055   0.000055  -0.000023  -0.075729
   51  F  5  Y   -0.000404   0.000029  -0.000025  -0.000023  -0.048198
   52  F  5  Z   -0.000000   0.000000   0.000000   0.000000  -0.000000
   53  F  5  S    0.014976  -0.000600   0.000090   0.002405   0.467726
   54  F  5  X    0.000325   0.000227  -0.000108   0.000431  -0.041067
   55  F  5  Y    0.000223  -0.000112   0.000107   0.000400  -0.024599
   56  F  5  Z    0.000000   0.000000   0.000000  -0.000000  -0.000000
   57  F  5 XX   -0.008261   0.000083   0.000015  -0.000942   0.021353
   58  F  5 YY   -0.008074   0.000190  -0.000079  -0.000555   0.012854
   59  F  5 ZZ   -0.007947   0.000192  -0.000181  -0.000151   0.007044
   60  F  5 XY   -0.000251   0.000030  -0.000055  -0.000547   0.010210
   61  F  5 XZ    0.000000   0.000000   0.000000   0.000000   0.000000
   62  F  5 YZ    0.000000   0.000000   0.000000   0.000000   0.000000
   63  H  6  S    0.000042   0.000003  -0.000130  -0.000047   0.015619
   64  H  6  S   -0.000036   0.000013   0.000388   0.002575   0.000479
   65  H  7  S    0.000042   0.000003  -0.000130  -0.000047   0.015619
   66  H  7  S   -0.000036   0.000013   0.000388   0.002575   0.000479

                      6          7          8          9         10
                   -1.0607    -0.7453    -0.6020    -0.5126    -0.5039
                     A          A          A          A          A   
    1  C  1  S   -0.014502  -0.169178   0.067992   0.003074   0.000000
    2  C  1  S    0.026769   0.347302  -0.141578  -0.013962   0.000001
    3  C  1  X   -0.030748  -0.088778  -0.106469  -0.291500  -0.000000
    4  C  1  Y    0.007691   0.006117   0.178380  -0.120011  -0.000000
    5  C  1  Z   -0.000000  -0.000000   0.000000  -0.000000   0.382861
    6  C  1  S    0.015134   0.293124  -0.162514   0.006381  -0.000004
    7  C  1  X   -0.012139  -0.036356  -0.019251  -0.089939   0.000000
    8  C  1  Y   -0.005249  -0.015117   0.061610  -0.032351   0.000001
    9  C  1  Z    0.000000   0.000001  -0.000001   0.000000   0.188331
   10  C  1 XX    0.004832  -0.009200   0.005216  -0.009554   0.000000
   11  C  1 YY    0.000439  -0.000735   0.007926  -0.002999   0.000000
   12  C  1 ZZ   -0.000288   0.002649  -0.008952   0.009096   0.000000
   13  C  1 XY   -0.005145  -0.008464  -0.010054  -0.019484  -0.000000
   14  C  1 XZ    0.000000   0.000000   0.000000   0.000000   0.003966
   15  C  1 YZ   -0.000000  -0.000000   0.000000  -0.000000  -0.011002
   16  C  2  S   -0.118223  -0.082661  -0.131233  -0.019430   0.000000
   17  C  2  S    0.229927   0.171543   0.279694   0.045990  -0.000000
   18  C  2  X   -0.172539   0.182394   0.095285   0.038496   0.000000
   19  C  2  Y   -0.069316  -0.044607   0.182242  -0.229522  -0.000000
   20  C  2  Z   -0.000000  -0.000000   0.000000  -0.000000   0.137646
   21  C  2  S    0.079960   0.137919   0.267564   0.018532   0.000001
   22  C  2  X    0.018728   0.031886   0.059217   0.017435   0.000000
   23  C  2  Y    0.017363   0.002203   0.061766  -0.083125  -0.000001
   24  C  2  Z   -0.000000  -0.000000   0.000000  -0.000000   0.060140
   25  C  2 XX    0.018035  -0.004706  -0.013817  -0.009674   0.000000
   26  C  2 YY   -0.011625   0.007573   0.007496   0.000551   0.000000
   27  C  2 ZZ   -0.019562  -0.005423  -0.009876  -0.001126  -0.000000
   28  C  2 XY    0.016991  -0.014002  -0.000033  -0.001370  -0.000000
   29  C  2 XZ   -0.000000  -0.000000   0.000000  -0.000000   0.002538
   30  C  2 YZ    0.000000   0.000000  -0.000000   0.000000  -0.007711
   31  O  3  S   -0.194663   0.058259   0.065555   0.027151   0.000000
   32  O  3  S    0.427070  -0.129066  -0.150788  -0.061634   0.000000
   33  O  3  X    0.155280   0.022635   0.077848   0.132695   0.000000
   34  O  3  Y    0.055395  -0.022742   0.093750  -0.109853  -0.000000
   35  O  3  Z   -0.000000  -0.000000   0.000000  -0.000000   0.099176
   36  O  3  S    0.383783  -0.157944  -0.190797  -0.098706  -0.000000
   37  O  3  X    0.050285   0.011068   0.045706   0.071098  -0.000000
   38  O  3  Y    0.015219  -0.007543   0.048487  -0.058116  -0.000000
   39  O  3  Z    0.000000   0.000000  -0.000000  -0.000000   0.053364
   40  O  3 XX    0.008878   0.006929   0.007499   0.013616   0.000000
   41  O  3 YY   -0.007673   0.001479   0.004423  -0.005461   0.000000
   42  O  3 ZZ   -0.005114   0.001330  -0.001809  -0.001823   0.000000
   43  O  3 XY    0.007395  -0.001193   0.009703  -0.006052  -0.000000
   44  O  3 XZ   -0.000000   0.000000  -0.000000  -0.000000   0.007971
   45  O  3 YZ    0.000000   0.000000  -0.000000   0.000000   0.002131
   46  H  4  S    0.027972   0.050818   0.193321  -0.088372  -0.000000
   47  H  4  S   -0.013434   0.002513   0.089467  -0.047012   0.000000
   48  F  5  S    0.011575   0.066677  -0.019802  -0.049027  -0.000000
   49  F  5  S   -0.024493  -0.140912   0.036071   0.074479  -0.000000
   50  F  5  X   -0.001388  -0.127625   0.031399   0.374360   0.000000
   51  F  5  Y    0.001826  -0.063889   0.155139   0.266503   0.000000
   52  F  5  Z    0.000000   0.000000   0.000000  -0.000000   0.327933
   53  F  5  S   -0.027465  -0.218481   0.081730   0.237450   0.000001
   54  F  5  X    0.001838  -0.072359   0.018238   0.228314  -0.000000
   55  F  5  Y   -0.001831  -0.036180   0.093280   0.160283  -0.000000
   56  F  5  Z   -0.000000  -0.000000   0.000000  -0.000000   0.208063
   57  F  5 XX   -0.000177   0.012993  -0.002210  -0.025438  -0.000000
   58  F  5 YY    0.000542   0.004328  -0.009789  -0.017289  -0.000000
   59  F  5 ZZ    0.000742   0.000412  -0.002385  -0.009707  -0.000000
   60  F  5 XY    0.000288   0.007494  -0.008737  -0.012000   0.000000
   61  F  5 XZ    0.000000   0.000000  -0.000000   0.000000  -0.014206
   62  F  5 YZ    0.000000   0.000000  -0.000000   0.000000  -0.009342
   63  H  6  S    0.005647   0.112352  -0.100984   0.039895   0.166257
   64  H  6  S   -0.000426   0.020856  -0.045823   0.030758   0.102320
   65  H  7  S    0.005647   0.112352  -0.100984   0.039895  -0.166256
   66  H  7  S   -0.000426   0.020858  -0.045825   0.030759  -0.102317

                     11         12         13         14         15
                   -0.4820    -0.4457    -0.3984    -0.3767    -0.3479
                     A          A          A          A          A   
    1  C  1  S    0.003962   0.016830  -0.000000  -0.018011  -0.000000
    2  C  1  S   -0.003302  -0.030459   0.000000   0.030137  -0.000001
    3  C  1  X   -0.088951   0.081615  -0.000000   0.048594   0.000000
    4  C  1  Y    0.296644   0.097290  -0.000000  -0.142920   0.000000
    5  C  1  Z   -0.000000   0.000000   0.009030  -0.000000  -0.276126
    6  C  1  S   -0.017781  -0.058390  -0.000000   0.086013   0.000004
    7  C  1  X   -0.078208   0.030472   0.000000  -0.061579  -0.000000
    8  C  1  Y    0.122896   0.015666   0.000000  -0.022145  -0.000001
    9  C  1  Z   -0.000001  -0.000001  -0.060533   0.000001  -0.060840
   10  C  1 XX    0.005516   0.019085   0.000000  -0.024867  -0.000000
   11  C  1 YY    0.004259  -0.006814   0.000000   0.014261  -0.000000
   12  C  1 ZZ   -0.014471  -0.008534   0.000000   0.010042  -0.000000
   13  C  1 XY    0.003455   0.008075  -0.000000   0.011920   0.000000
   14  C  1 XZ   -0.000000  -0.000000  -0.018218   0.000000   0.013948
   15  C  1 YZ    0.000000   0.000000  -0.002381  -0.000000   0.029718
   16  C  2  S    0.024134  -0.033622  -0.000000   0.035157  -0.000000
   17  C  2  S   -0.056026   0.092368   0.000000  -0.075968   0.000000
   18  C  2  X    0.194240  -0.238229   0.000000  -0.206939   0.000000
   19  C  2  Y   -0.220965  -0.229350   0.000000   0.054962  -0.000000
   20  C  2  Z   -0.000000  -0.000000   0.313356   0.000000   0.112932
   21  C  2  S   -0.093410   0.046831   0.000000  -0.223516  -0.000001
   22  C  2  X    0.077086  -0.029753  -0.000000  -0.021198   0.000000
   23  C  2  Y   -0.055735  -0.066743  -0.000000   0.103555   0.000001
   24  C  2  Z    0.000000   0.000000   0.190873  -0.000000   0.065785
   25  C  2 XX    0.005567   0.004912  -0.000000   0.008676  -0.000000
   26  C  2 YY   -0.006243  -0.016211   0.000000  -0.010439  -0.000000
   27  C  2 ZZ    0.002423  -0.006857  -0.000000   0.000012   0.000000
   28  C  2 XY   -0.000068   0.009058  -0.000000  -0.002051   0.000000
   29  C  2 XZ    0.000000   0.000000  -0.022344  -0.000000  -0.018942
   30  C  2 YZ   -0.000000  -0.000000  -0.010830   0.000000   0.002542
   31  O  3  S   -0.042283   0.075076  -0.000000   0.008298  -0.000000
   32  O  3  S    0.079106  -0.150348   0.000000  -0.027552  -0.000000
   33  O  3  X   -0.100532   0.465899  -0.000000   0.071375  -0.000000
   34  O  3  Y   -0.221892   0.069444  -0.000000   0.224136  -0.000000
   35  O  3  Z   -0.000000   0.000000   0.436862   0.000000   0.258179
   36  O  3  S    0.221811  -0.344563   0.000000   0.024071   0.000001
   37  O  3  X   -0.030317   0.239017  -0.000000   0.059201   0.000000
   38  O  3  Y   -0.112934   0.031573  -0.000000   0.140449  -0.000000
   39  O  3  Z   -0.000000  -0.000000   0.270065   0.000000   0.170535
   40  O  3 XX   -0.006863   0.033720  -0.000000  -0.002222  -0.000000
   41  O  3 YY   -0.014046   0.001138   0.000000   0.001387  -0.000000
   42  O  3 ZZ   -0.003733   0.000317  -0.000000  -0.005129  -0.000000
   43  O  3 XY   -0.014539   0.005743  -0.000000   0.011537  -0.000000
   44  O  3 XZ   -0.000000  -0.000000   0.027072   0.000000   0.014090
   45  O  3 YZ   -0.000000  -0.000000   0.009172   0.000000   0.005937
   46  H  4  S   -0.123256  -0.117765   0.000000  -0.036313  -0.000000
   47  H  4  S   -0.079459  -0.117265   0.000000  -0.020928  -0.000000
   48  F  5  S    0.008888   0.009067   0.000000  -0.000858   0.000000
   49  F  5  S   -0.018142  -0.002249  -0.000000  -0.006142   0.000000
   50  F  5  X   -0.279045  -0.137363   0.000000  -0.287144   0.000000
   51  F  5  Y    0.172169  -0.167253  -0.000000   0.486546  -0.000000
   52  F  5  Z   -0.000000  -0.000000  -0.340255   0.000000   0.469154
   53  F  5  S   -0.027170  -0.058824   0.000000   0.026075  -0.000000
   54  F  5  X   -0.183723  -0.083604   0.000000  -0.207227   0.000000
   55  F  5  Y    0.109571  -0.112456  -0.000000   0.340340   0.000000
   56  F  5  Z    0.000000   0.000000  -0.236629  -0.000000   0.343082
   57  F  5 XX    0.016309   0.009231  -0.000000   0.008622   0.000000
   58  F  5 YY   -0.010387   0.009450  -0.000000  -0.014813   0.000000
   59  F  5 ZZ   -0.001626   0.006069  -0.000000  -0.002018   0.000000
   60  F  5 XY   -0.002309   0.006387   0.000000  -0.005592  -0.000000
   61  F  5 XZ   -0.000000  -0.000000   0.008635   0.000000  -0.008856
   62  F  5 YZ   -0.000000  -0.000000   0.005897   0.000000  -0.003822
   63  H  6  S   -0.101267  -0.057439   0.011885   0.085670  -0.182201
   64  H  6  S   -0.067045  -0.051942   0.040138   0.076742  -0.194615
   65  H  7  S   -0.101268  -0.057439  -0.011885   0.085670   0.182200
   66  H  7  S   -0.067047  -0.051943  -0.040138   0.076743   0.194610

                     16         17         18         19         20
                   -0.2667    -0.0402     0.0832     0.1114     0.1478
                     A          A          A          A          A   
    1  C  1  S   -0.036546  -0.000000  -0.035583  -0.136690  -0.041478
    2  C  1  S    0.079261  -0.000000   0.017748   0.235804   0.088267
    3  C  1  X   -0.179053  -0.000000  -0.316402   0.217629   0.054403
    4  C  1  Y    0.167494   0.000000  -0.237278  -0.133362   0.229372
    5  C  1  Z    0.000000   0.002951   0.000001   0.000002  -0.000003
    6  C  1  S    0.249663   0.000004   0.980548   1.726130   0.140917
    7  C  1  X   -0.069992  -0.000000  -0.803124   0.372926   0.410273
    8  C  1  Y    0.139370  -0.000002  -0.473406  -0.593542   0.684661
    9  C  1  Z   -0.000001   0.159681   0.000000   0.000001  -0.000008
   10  C  1 XX    0.005318  -0.000000   0.013149  -0.016964   0.000495
   11  C  1 YY   -0.005522  -0.000000  -0.013355   0.001242  -0.007298
   12  C  1 ZZ   -0.003403  -0.000000  -0.023302  -0.002214   0.015393
   13  C  1 XY   -0.009696  -0.000000   0.022051  -0.023296   0.001587
   14  C  1 XZ    0.000000  -0.019416   0.000000   0.000000  -0.000000
   15  C  1 YZ    0.000000   0.028603   0.000000   0.000000  -0.000000
   16  C  2  S   -0.003233  -0.000000   0.050168  -0.004215   0.112046
   17  C  2  S    0.024760   0.000000  -0.053220   0.061684  -0.188520
   18  C  2  X    0.066803   0.000000  -0.090663   0.039191  -0.073159
   19  C  2  Y   -0.142950  -0.000000  -0.108094   0.037844  -0.290466
   20  C  2  Z   -0.000000   0.503550  -0.000001  -0.000001   0.000001
   21  C  2  S    0.016499  -0.000001  -0.866667  -0.116302  -1.510258
   22  C  2  X   -0.086425   0.000000  -0.404156   0.415219  -0.184194
   23  C  2  Y   -0.005715   0.000001  -0.079845   0.271957  -0.892614
   24  C  2  Z    0.000000   0.529230  -0.000000  -0.000001   0.000003
   25  C  2 XX    0.028717   0.000000  -0.012928   0.008579   0.028049
   26  C  2 YY   -0.030577   0.000000   0.034178   0.000968  -0.006379
   27  C  2 ZZ    0.001310   0.000000  -0.002118  -0.004887  -0.003706
   28  C  2 XY   -0.035683  -0.000000  -0.014437   0.001030   0.004976
   29  C  2 XZ    0.000000   0.028307   0.000000   0.000000  -0.000000
   30  C  2 YZ   -0.000000   0.012945  -0.000000  -0.000000   0.000000
   31  O  3  S    0.000573  -0.000000   0.014906  -0.027182  -0.017766
   32  O  3  S    0.014684  -0.000000  -0.041034   0.040037   0.075117
   33  O  3  X   -0.200411   0.000000  -0.063103   0.062447   0.103495
   34  O  3  Y    0.526801  -0.000000   0.038311  -0.049812   0.075110
   35  O  3  Z   -0.000000  -0.418780   0.000000   0.000000  -0.000001
   36  O  3  S   -0.073065   0.000001  -0.133418   0.451840   0.030392
   37  O  3  X   -0.163270   0.000000  -0.063971   0.183865   0.056522
   38  O  3  Y    0.373418  -0.000000   0.019221   0.018277   0.198815
   39  O  3  Z   -0.000000  -0.436666   0.000000   0.000000  -0.000001
   40  O  3 XX   -0.006095  -0.000000   0.000291   0.003931   0.006533
   41  O  3 YY    0.014443  -0.000000   0.004716  -0.011671   0.009029
   42  O  3 ZZ    0.005886  -0.000000  -0.005262  -0.012087   0.005495
   43  O  3 XY    0.013945  -0.000000  -0.008056   0.007483  -0.001322
   44  O  3 XZ   -0.000000  -0.000055  -0.000000  -0.000000   0.000000
   45  O  3 YZ   -0.000000   0.001592  -0.000000  -0.000000   0.000000
   46  H  4  S   -0.174128   0.000000   0.108476   0.000535   0.053132
   47  H  4  S   -0.260640  -0.000000   0.758827  -0.267249   1.815152
   48  F  5  S    0.003099  -0.000000  -0.054571   0.041839   0.048503
   49  F  5  S    0.011992   0.000000   0.073703  -0.053835  -0.061617
   50  F  5  X    0.112703  -0.000000  -0.182104   0.165114   0.154803
   51  F  5  Y   -0.075057  -0.000000  -0.131086   0.164351   0.027649
   52  F  5  Z    0.000000  -0.019829  -0.000000  -0.000000   0.000001
   53  F  5  S   -0.070395  -0.000000   0.531978  -0.394736  -0.528269
   54  F  5  X    0.101280  -0.000000  -0.250103   0.194601   0.258108
   55  F  5  Y   -0.054478   0.000000  -0.169139   0.224449   0.104933
   56  F  5  Z    0.000000  -0.025602  -0.000000  -0.000000   0.000001
   57  F  5 XX    0.007973   0.000000  -0.017649   0.021564   0.012118
   58  F  5 YY    0.007019   0.000000  -0.018487   0.023005   0.018092
   59  F  5 ZZ    0.008046   0.000000  -0.026950   0.014495   0.023016
   60  F  5 XY   -0.000703  -0.000000   0.007213   0.002291  -0.008977
   61  F  5 XZ   -0.000000  -0.001661  -0.000000  -0.000000   0.000000
   62  F  5 YZ   -0.000000   0.005306  -0.000000  -0.000000   0.000000
   63  H  6  S   -0.034518  -0.095084  -0.047938  -0.045596   0.012939
   64  H  6  S   -0.074798  -0.318925  -0.694585  -1.185761   0.236613
   65  H  7  S   -0.034518   0.095084  -0.047938  -0.045596   0.012938
   66  H  7  S   -0.074798   0.318921  -0.694585  -1.185760   0.236595

                     21         22         23         24         25
                    0.1584     0.2560     0.2868     0.5145     0.5202
                     A          A          A          A          A   
    1  C  1  S    0.000000  -0.112704  -0.003730   0.012930   0.000000
    2  C  1  S   -0.000001   0.169304   0.030310  -0.355166  -0.000004
    3  C  1  X    0.000000  -0.050137  -0.267694  -0.460137  -0.000006
    4  C  1  Y    0.000003   0.283062   0.130526  -0.764596  -0.000005
    5  C  1  Z    0.515239  -0.000000  -0.000001   0.000001  -0.150737
    6  C  1  S    0.000001   1.911562  -0.163937   0.381089   0.000006
    7  C  1  X    0.000002  -0.988956  -0.876449   0.713889   0.000009
    8  C  1  Y    0.000004   1.288393  -0.388146   1.447940   0.000010
    9  C  1  Z    1.261691   0.000000  -0.000000  -0.000002   0.229328
   10  C  1 XX   -0.000000  -0.035289  -0.032003   0.024217   0.000000
   11  C  1 YY   -0.000000  -0.022880   0.017441  -0.030571  -0.000000
   12  C  1 ZZ    0.000000   0.037961   0.003429   0.033691   0.000000
   13  C  1 XY    0.000000   0.017047   0.010963   0.077569   0.000001
   14  C  1 XZ    0.001550   0.000000   0.000000  -0.000000   0.010095
   15  C  1 YZ    0.006012  -0.000000  -0.000000  -0.000000   0.035675
   16  C  2  S    0.000001   0.069355   0.072347  -0.012378  -0.000000
   17  C  2  S   -0.000001  -0.113728  -0.012809  -0.127372  -0.000001
   18  C  2  X   -0.000000  -0.315972   0.045860  -0.174257  -0.000002
   19  C  2  Y   -0.000002   0.375131   0.270805   0.125670   0.000001
   20  C  2  Z   -0.118165   0.000000  -0.000000   0.000008  -0.992111
   21  C  2  S   -0.000010  -0.920892  -2.014364   0.140847   0.000003
   22  C  2  X   -0.000000  -1.727301   1.749386  -0.239356  -0.000003
   23  C  2  Y   -0.000004   0.932417   1.150119  -0.441339  -0.000004
   24  C  2  Z   -0.376602  -0.000000   0.000000  -0.000009   1.095568
   25  C  2 XX    0.000000   0.017688   0.018742  -0.064683  -0.000000
   26  C  2 YY   -0.000000   0.002540   0.012767  -0.023763  -0.000000
   27  C  2 ZZ   -0.000000  -0.002306  -0.028016   0.026053   0.000000
   28  C  2 XY    0.000000  -0.009619   0.001282   0.021110   0.000000
   29  C  2 XZ    0.011435  -0.000000  -0.000000  -0.000000   0.017107
   30  C  2 YZ   -0.011351   0.000000   0.000000  -0.000000   0.015976
   31  O  3  S   -0.000000   0.030029  -0.111370   0.009052   0.000000
   32  O  3  S    0.000000   0.020334   0.102803   0.067791   0.000001
   33  O  3  X    0.000001   0.084088   0.164446   0.021321   0.000000
   34  O  3  Y    0.000001  -0.171077   0.066239  -0.076723  -0.000001
   35  O  3  Z    0.122234   0.000000  -0.000000   0.000000  -0.049857
   36  O  3  S    0.000002  -0.801972   2.260669  -0.405970  -0.000005
   37  O  3  X    0.000001  -0.090791   0.917944  -0.121601  -0.000001
   38  O  3  Y    0.000001  -0.438771   0.243160   0.019847  -0.000000
   39  O  3  Z    0.142565   0.000000  -0.000000   0.000001  -0.103161
   40  O  3 XX    0.000000   0.003280  -0.012598   0.030494   0.000000
   41  O  3 YY   -0.000000   0.041793  -0.049484   0.023907   0.000000
   42  O  3 ZZ   -0.000000   0.031175  -0.073962   0.036320   0.000000
   43  O  3 XY   -0.000000  -0.004466   0.025827   0.030739   0.000000
   44  O  3 XZ   -0.002353   0.000000   0.000000   0.000001  -0.064585
   45  O  3 YZ    0.000519   0.000000  -0.000000   0.000000  -0.025302
   46  H  4  S    0.000000   0.019188   0.115488  -0.142432  -0.000001
   47  H  4  S    0.000011  -0.588360  -0.518736   0.152563   0.000001
   48  F  5  S    0.000000   0.023485  -0.030740   0.018360   0.000000
   49  F  5  S   -0.000000   0.005660  -0.049819   0.096331   0.000001
   50  F  5  X    0.000001   0.152348   0.044810  -0.197056  -0.000002
   51  F  5  Y   -0.000000   0.024197  -0.150581  -0.181256  -0.000002
   52  F  5  Z   -0.104042   0.000000   0.000000   0.000001  -0.083936
   53  F  5  S   -0.000003  -0.322157   0.599697  -0.786924  -0.000008
   54  F  5  X    0.000001   0.248318  -0.105971   0.217992   0.000002
   55  F  5  Y    0.000000  -0.035800  -0.203375   0.032663   0.000001
   56  F  5  Z   -0.170731  -0.000000  -0.000000   0.000000  -0.013047
   57  F  5 XX    0.000000   0.031034  -0.026536  -0.046322  -0.000000
   58  F  5 YY    0.000000   0.014590  -0.056863   0.040095   0.000000
   59  F  5 ZZ    0.000000   0.030720  -0.048447   0.094840   0.000001
   60  F  5 XY   -0.000000   0.019257  -0.003497  -0.074828  -0.000001
   61  F  5 XZ   -0.009110   0.000000   0.000000   0.000000  -0.015761
   62  F  5 YZ   -0.000757   0.000000   0.000000  -0.000000   0.011831
   63  H  6  S   -0.055300   0.057284   0.057049   0.128800  -0.162660
   64  H  6  S   -1.433626   0.072982   0.052054   0.132882  -0.090537
   65  H  7  S    0.055301   0.057284   0.057049   0.128797   0.162662
   66  H  7  S    1.433630   0.072983   0.052053   0.132882   0.090537

                     26         27         28         29         30
                    0.5350     0.6433     0.6599     0.6923     0.7531
                     A          A          A          A          A   
    1  C  1  S   -0.005358   0.032819   0.000000   0.026259  -0.004629
    2  C  1  S    0.066677  -0.158202  -0.000002   0.037617  -0.248312
    3  C  1  X   -0.870511  -0.005631   0.000000   0.077169  -0.037959
    4  C  1  Y    0.430178  -0.143406   0.000003   0.064924   0.244346
    5  C  1  Z    0.000001  -0.000007  -0.756150   0.000002   0.000005
    6  C  1  S    0.063647   1.384899  -0.000005   0.294925   0.366039
    7  C  1  X    1.421158  -0.690760   0.000005  -0.583662  -0.286562
    8  C  1  Y   -0.724696   0.814939  -0.000009   0.293466  -1.401652
    9  C  1  Z   -0.000001   0.000020   2.179944  -0.000009  -0.000010
   10  C  1 XX    0.045610   0.014531  -0.000000   0.029392  -0.116448
   11  C  1 YY    0.024650   0.052799  -0.000001  -0.028854   0.088368
   12  C  1 ZZ   -0.031826  -0.010786   0.000000   0.050830  -0.055850
   13  C  1 XY    0.014369  -0.076849   0.000001  -0.027369   0.004273
   14  C  1 XZ   -0.000000   0.000000   0.003766  -0.000000   0.000000
   15  C  1 YZ   -0.000000   0.000001   0.110108  -0.000001   0.000001
   16  C  2  S    0.028972   0.037387  -0.000001  -0.042932  -0.043439
   17  C  2  S    0.091801   0.113362   0.000002   0.737452  -0.691334
   18  C  2  X   -0.072236   0.878667  -0.000011  -0.492357  -0.265752
   19  C  2  Y    0.003814  -0.385097   0.000000  -0.685959  -0.191268
   20  C  2  Z    0.000002   0.000002   0.259471  -0.000001   0.000000
   21  C  2  S    0.821396  -1.223586   0.000009  -0.929159   1.716520
   22  C  2  X   -0.241021  -1.500146   0.000015   0.186058   0.997980
   23  C  2  Y   -0.157610   1.589937  -0.000008   1.383616   1.334175
   24  C  2  Z   -0.000002  -0.000009  -0.957631   0.000005   0.000001
   25  C  2 XX    0.066331   0.074045  -0.000001  -0.117449   0.007952
   26  C  2 YY    0.073634  -0.014099   0.000000   0.084961  -0.212914
   27  C  2 ZZ   -0.045419  -0.016431   0.000001   0.066820   0.042984
   28  C  2 XY   -0.085750   0.059062  -0.000001  -0.069650  -0.013354
   29  C  2 XZ   -0.000000   0.000000   0.033269  -0.000000   0.000000
   30  C  2 YZ   -0.000000  -0.000000  -0.048933   0.000000  -0.000000
   31  O  3  S    0.007659  -0.030657   0.000000   0.032776  -0.001478
   32  O  3  S    0.063196   0.189399  -0.000002  -0.006234  -0.189280
   33  O  3  X    0.045175   0.275484  -0.000004  -0.312129   0.065679
   34  O  3  Y   -0.154358  -0.157069   0.000000  -0.257449  -0.189403
   35  O  3  Z    0.000000   0.000001   0.148004  -0.000001  -0.000001
   36  O  3  S   -0.445623  -0.147388   0.000002   0.187580   0.627509
   37  O  3  X   -0.135095   0.314244  -0.000004  -0.046090  -0.008406
   38  O  3  Y   -0.095234  -0.060424  -0.000000  -0.083963  -0.075426
   39  O  3  Z    0.000000   0.000001   0.080484  -0.000000   0.000000
   40  O  3 XX    0.007901  -0.019205   0.000001   0.204003  -0.060850
   41  O  3 YY    0.032021   0.025668  -0.000000  -0.010502  -0.047053
   42  O  3 ZZ    0.014666   0.052530  -0.000001  -0.032079  -0.042163
   43  O  3 XY    0.014739  -0.075527   0.000001   0.061493   0.017864
   44  O  3 XZ    0.000000   0.000000   0.024682  -0.000000   0.000000
   45  O  3 YZ    0.000000  -0.000000  -0.024240   0.000000  -0.000000
   46  H  4  S    0.091423  -0.088889   0.000000   0.142876  -0.828979
   47  H  4  S   -0.073406  -0.554045   0.000003  -0.695273  -0.539995
   48  F  5  S    0.008532  -0.002113   0.000000   0.005038  -0.019635
   49  F  5  S    0.040046   0.245790  -0.000001   0.170559  -0.126597
   50  F  5  X   -0.169376  -0.056670   0.000001   0.030410   0.148857
   51  F  5  Y    0.040998  -0.014875  -0.000000  -0.034464  -0.152591
   52  F  5  Z    0.000000  -0.000002  -0.247731   0.000002   0.000000
   53  F  5  S   -0.374649  -0.431835   0.000002  -0.232568   0.616047
   54  F  5  X    0.002302   0.023355  -0.000000   0.023658  -0.239327
   55  F  5  Y    0.170009  -0.049945   0.000001  -0.056614   0.050017
   56  F  5  Z    0.000000  -0.000001  -0.141336   0.000000   0.000001
   57  F  5 XX    0.006642   0.078297  -0.000000   0.083718   0.004977
   58  F  5 YY   -0.008298   0.097618  -0.000001   0.073727  -0.077914
   59  F  5 ZZ    0.031202   0.103798  -0.000000   0.083874  -0.102351
   60  F  5 XY   -0.056258   0.006472  -0.000000   0.016929  -0.044201
   61  F  5 XZ    0.000000   0.000000   0.001040   0.000000  -0.000000
   62  F  5 YZ   -0.000000   0.000000   0.004964   0.000000  -0.000000
   63  H  6  S   -0.106892   0.211843  -0.348044   0.266059  -0.026688
   64  H  6  S   -0.144191   0.102070  -0.623598   0.075701  -0.547508
   65  H  7  S   -0.106892   0.211848   0.348047   0.266054  -0.026682
   66  H  7  S   -0.144193   0.102083   0.623588   0.075699  -0.547526

                     31         32         33         34         35
                    0.8005     0.8351     0.8399     0.8903     0.9819
                     A          A          A          A          A   
    1  C  1  S   -0.000000   0.044355   0.014185   0.009717   0.000000
    2  C  1  S   -0.000005  -0.215387  -0.132771  -1.102861   0.000002
    3  C  1  X    0.000001  -0.009293  -0.049443   0.047322  -0.000000
    4  C  1  Y   -0.000001   0.252342   0.060635   0.459302  -0.000001
    5  C  1  Z    0.781404   0.000003   0.000000  -0.000001  -0.144515
    6  C  1  S    0.000015   0.176937  -0.031614   2.310086  -0.000007
    7  C  1  X   -0.000004   0.385070   0.196098   0.261145   0.000001
    8  C  1  Y    0.000009  -0.120299  -0.337665  -0.688038   0.000000
    9  C  1  Z   -1.332678  -0.000006  -0.000001  -0.000001   0.620926
   10  C  1 XX    0.000000  -0.063215  -0.072191  -0.089242   0.000000
   11  C  1 YY   -0.000001   0.032160   0.011450  -0.096949   0.000000
   12  C  1 ZZ    0.000000   0.055043   0.029669   0.072906   0.000000
   13  C  1 XY    0.000000  -0.020000   0.013248   0.063923  -0.000000
   14  C  1 XZ    0.004738  -0.000000  -0.000000  -0.000000   0.007876
   15  C  1 YZ    0.203676  -0.000000  -0.000000  -0.000001  -0.020101
   16  C  2  S    0.000000  -0.013999   0.047004  -0.020172  -0.000000
   17  C  2  S    0.000002   1.035027  -0.241915  -0.655935  -0.000001
   18  C  2  X    0.000001   0.062714  -0.228254   0.052440  -0.000000
   19  C  2  Y   -0.000002   0.556883  -0.321878  -0.007600   0.000000
   20  C  2  Z    0.074612   0.000000  -0.000000  -0.000000   0.111272
   21  C  2  S   -0.000013  -1.640130   1.541635   0.883059   0.000004
   22  C  2  X   -0.000008  -0.209228   0.209571  -0.041739   0.000001
   23  C  2  Y    0.000004  -1.726943   0.211867  -0.115597  -0.000002
   24  C  2  Z   -0.046212   0.000001   0.000000   0.000001  -0.707024
   25  C  2 XX   -0.000001   0.150772   0.154609  -0.145863   0.000000
   26  C  2 YY    0.000001  -0.049776   0.020932   0.009168  -0.000000
   27  C  2 ZZ   -0.000000   0.069451  -0.099861   0.007871   0.000000
   28  C  2 XY    0.000000   0.003360   0.149233   0.014554  -0.000000
   29  C  2 XZ    0.058151  -0.000000  -0.000000  -0.000000   0.050444
   30  C  2 YZ   -0.064104  -0.000000   0.000000   0.000000  -0.024916
   31  O  3  S   -0.000000   0.012146   0.005103   0.002066   0.000000
   32  O  3  S    0.000001  -0.169061  -0.432517   0.136029   0.000000
   33  O  3  X   -0.000001   0.118406   0.573720  -0.280315   0.000000
   34  O  3  Y    0.000001   0.019916   0.284176   0.078262  -0.000000
   35  O  3  Z   -0.059722  -0.000001  -0.000000  -0.000001  -0.931439
   36  O  3  S   -0.000002   0.043041   0.337813  -0.383607  -0.000001
   37  O  3  X    0.000002  -0.385276  -1.083125   0.439682  -0.000000
   38  O  3  Y   -0.000000   0.085766  -0.408692   0.084176   0.000000
   39  O  3  Z    0.091473   0.000001   0.000000   0.000001   1.300511
   40  O  3 XX    0.000001  -0.086879  -0.213725   0.072818   0.000000
   41  O  3 YY    0.000000  -0.024136  -0.187304   0.050205   0.000000
   42  O  3 ZZ    0.000000  -0.058262  -0.136837   0.083559   0.000000
   43  O  3 XY   -0.000000   0.043416  -0.066038  -0.042342   0.000000
   44  O  3 XZ    0.005360  -0.000000  -0.000000  -0.000000  -0.030731
   45  O  3 YZ   -0.012709   0.000000   0.000000   0.000000  -0.028909
   46  H  4  S    0.000006  -0.508920   0.440099   0.331595  -0.000000
   47  H  4  S   -0.000005   2.011528  -0.864842  -0.447000   0.000000
   48  F  5  S    0.000000   0.000843  -0.002996   0.007326   0.000000
   49  F  5  S    0.000000   0.154011   0.057479  -0.077385   0.000001
   50  F  5  X   -0.000001  -0.043388   0.031137  -0.095486   0.000000
   51  F  5  Y    0.000000  -0.032649  -0.026975  -0.000365   0.000000
   52  F  5  Z   -0.068276   0.000001   0.000000   0.000001  -0.057958
   53  F  5  S   -0.000004  -0.325543  -0.053285  -0.143255  -0.000001
   54  F  5  X    0.000002  -0.002733  -0.075385   0.168822  -0.000000
   55  F  5  Y   -0.000000   0.055871   0.006800   0.106648  -0.000000
   56  F  5  Z    0.122709   0.000000  -0.000000  -0.000001  -0.009198
   57  F  5 XX   -0.000000   0.061701   0.045222  -0.028102   0.000000
   58  F  5 YY    0.000000   0.053485   0.000416  -0.057603   0.000000
   59  F  5 ZZ    0.000001   0.051292   0.016727  -0.003337   0.000000
   60  F  5 XY    0.000000  -0.001496  -0.018590  -0.044888   0.000000
   61  F  5 XZ   -0.062153  -0.000000   0.000000   0.000000   0.010211
   62  F  5 YZ   -0.051286  -0.000000   0.000000   0.000000  -0.012418
   63  H  6  S   -0.699130   0.450590   0.183017   0.473515   0.014351
   64  H  6  S    1.459958  -0.474530  -0.292550  -1.217443  -0.335497
   65  H  7  S    0.699131   0.450592   0.183016   0.473511  -0.014351
   66  H  7  S   -1.459956  -0.474540  -0.292551  -1.217439   0.335500

                     36         37         38         39         40
                    1.0174     1.0728     1.2008     1.2297     1.2880
                     A          A          A          A          A   
    1  C  1  S   -0.067018   0.009049  -0.092559   0.000000   0.024891
    2  C  1  S   -1.056267   0.105975  -1.293143   0.000000   0.344123
    3  C  1  X    0.220851  -0.135300  -0.043586   0.000000  -0.126445
    4  C  1  Y    0.015916  -0.092788  -0.110005   0.000000  -0.022986
    5  C  1  Z   -0.000001   0.000000  -0.000001   0.125516   0.000000
    6  C  1  S    4.032533   0.623940   3.738479  -0.000001  -1.117140
    7  C  1  X   -1.600385  -0.229629  -0.777612   0.000000   0.730125
    8  C  1  Y    0.427757   0.444471   0.477653  -0.000000  -0.175677
    9  C  1  Z    0.000002  -0.000000   0.000001  -0.654139  -0.000000
   10  C  1 XX    0.078989   0.006083  -0.101361  -0.000000   0.031217
   11  C  1 YY    0.018508   0.028081  -0.113695   0.000000   0.043100
   12  C  1 ZZ   -0.185771  -0.001979  -0.029363   0.000000  -0.035807
   13  C  1 XY    0.052861  -0.071646  -0.123587   0.000000  -0.057084
   14  C  1 XZ    0.000000  -0.000000   0.000000   0.369166   0.000000
   15  C  1 YZ   -0.000000   0.000000  -0.000000  -0.101853   0.000000
   16  C  2  S    0.028524   0.005424   0.026123  -0.000000  -0.016457
   17  C  2  S    0.745484   0.075832   0.439746  -0.000000  -0.053520
   18  C  2  X    0.122010   0.077338  -0.019079   0.000000   0.132306
   19  C  2  Y   -0.141222  -0.280501   0.048260  -0.000000   0.069729
   20  C  2  Z    0.000000  -0.000000   0.000000   0.020643   0.000000
   21  C  2  S   -3.344959  -0.104478  -2.441021   0.000001  -0.473337
   22  C  2  X   -0.838818  -0.800695  -0.668628   0.000000   0.615979
   23  C  2  Y    1.993840   1.611616   0.787209  -0.000000  -0.476019
   24  C  2  Z   -0.000001   0.000000  -0.000000   0.230458   0.000000
   25  C  2 XX    0.030427   0.101842   0.002438  -0.000000  -0.054481
   26  C  2 YY    0.096829  -0.108779   0.075402  -0.000000   0.128188
   27  C  2 ZZ   -0.055349   0.004294  -0.063788   0.000000  -0.047607
   28  C  2 XY   -0.008793  -0.122540   0.003431   0.000000  -0.083943
   29  C  2 XZ   -0.000000   0.000000  -0.000000  -0.225510  -0.000000
   30  C  2 YZ    0.000000  -0.000000   0.000000   0.303797   0.000000
   31  O  3  S   -0.023029   0.005424  -0.008757   0.000000  -0.037866
   32  O  3  S   -0.331134   0.083830  -0.125063   0.000000  -0.769852
   33  O  3  X   -0.016583  -0.282924  -0.012322   0.000000  -0.195951
   34  O  3  Y    0.083001   0.765163  -0.049477   0.000000  -0.066749
   35  O  3  Z   -0.000001   0.000000  -0.000000  -0.008504   0.000000
   36  O  3  S    1.346279  -0.255419   0.573734  -0.000001   1.969176
   37  O  3  X    0.416628   0.466891   0.206626  -0.000000   0.731576
   38  O  3  Y   -0.335655  -1.456593  -0.008804  -0.000000   0.378393
   39  O  3  Z    0.000001  -0.000000   0.000000  -0.104540  -0.000000
   40  O  3 XX   -0.060316  -0.036425   0.010547   0.000000  -0.268243
   41  O  3 YY   -0.051913   0.092274   0.032124   0.000000  -0.194077
   42  O  3 ZZ   -0.223823   0.021991  -0.153360   0.000000  -0.134691
   43  O  3 XY   -0.018574   0.099563  -0.027260   0.000000  -0.052536
   44  O  3 XZ   -0.000000   0.000000   0.000000   0.023250  -0.000000
   45  O  3 YZ    0.000000  -0.000000   0.000000   0.138192   0.000000
   46  H  4  S   -0.048376  -0.168762   0.006589  -0.000000   0.208913
   47  H  4  S   -0.500763  -0.672973   0.031087   0.000000   0.112796
   48  F  5  S   -0.042178   0.006199   0.041010  -0.000000   0.006699
   49  F  5  S   -1.069625   0.186067   0.584880  -0.000000   0.095631
   50  F  5  X   -0.209678   0.054563   0.501948  -0.000000   0.465991
   51  F  5  Y   -0.258886   0.012201   0.352612  -0.000000  -0.594332
   52  F  5  Z    0.000000   0.000000  -0.000000  -0.711128  -0.000000
   53  F  5  S    1.869198  -0.392463  -1.509703   0.000001  -0.243403
   54  F  5  X    0.415636  -0.067885  -0.503639   0.000000  -0.608373
   55  F  5  Y    0.281944  -0.046132  -0.419627   0.000000   0.755983
   56  F  5  Z   -0.000000  -0.000000   0.000000   0.863520   0.000000
   57  F  5 XX   -0.539224   0.064103   0.167886  -0.000000  -0.018744
   58  F  5 YY   -0.489360   0.076782   0.288323  -0.000000   0.115576
   59  F  5 ZZ   -0.423908   0.093757   0.406419  -0.000000   0.036536
   60  F  5 XY   -0.034357  -0.010076  -0.082745   0.000000   0.008494
   61  F  5 XZ    0.000000  -0.000000   0.000000  -0.026882  -0.000000
   62  F  5 YZ    0.000000  -0.000000   0.000000  -0.075539  -0.000000
   63  H  6  S   -0.294919   0.046993  -0.309964   0.046835   0.097773
   64  H  6  S   -0.289685   0.138502  -0.377254   0.243821   0.119566
   65  H  7  S   -0.294921   0.046994  -0.309965  -0.046834   0.097773
   66  H  7  S   -0.289680   0.138501  -0.377252  -0.243821   0.119566

                     41         42         43         44         45
                    1.4223     1.4883     1.5022     1.5864     1.7433
                     A          A          A          A          A   
    1  C  1  S    0.000000   0.015604   0.000000   0.022919  -0.000000
    2  C  1  S   -0.000000   0.360594   0.000001   0.085143   0.000000
    3  C  1  X   -0.000000  -0.045413  -0.000000   0.088147   0.000000
    4  C  1  Y    0.000000  -0.148672  -0.000000   0.037836  -0.000000
    5  C  1  Z    0.156621   0.000000   0.000232   0.000000  -0.023518
    6  C  1  S    0.000000  -0.954894  -0.000001  -0.646956  -0.000000
    7  C  1  X    0.000000  -0.344047  -0.000000  -0.445614  -0.000000
    8  C  1  Y   -0.000000   0.240568   0.000000  -0.283059   0.000000
    9  C  1  Z   -0.736840  -0.000000   0.190273  -0.000000   0.594825
   10  C  1 XX   -0.000000  -0.188706  -0.000000   0.411640   0.000000
   11  C  1 YY    0.000000   0.324207   0.000000  -0.511890   0.000000
   12  C  1 ZZ    0.000000  -0.128302  -0.000000   0.084940  -0.000000
   13  C  1 XY    0.000000   0.036543   0.000000  -0.153871  -0.000000
   14  C  1 XZ   -0.486556   0.000000   0.025529  -0.000000  -0.346679
   15  C  1 YZ   -0.074639   0.000000  -0.110692  -0.000000   0.079344
   16  C  2  S   -0.000000  -0.026453  -0.000000  -0.010078   0.000000
   17  C  2  S    0.000000   0.064247   0.000000  -0.408982   0.000000
   18  C  2  X    0.000000   0.055087   0.000000  -0.039156   0.000000
   19  C  2  Y   -0.000000  -0.077409  -0.000000  -0.016329  -0.000000
   20  C  2  Z   -0.024867   0.000000  -0.193748   0.000000  -0.037411
   21  C  2  S   -0.000000  -2.038303  -0.000002  -0.638164  -0.000001
   22  C  2  X    0.000000   1.243255   0.000001   1.688281   0.000000
   23  C  2  Y   -0.000000   0.617959   0.000001   0.990088   0.000000
   24  C  2  Z    0.171526  -0.000000   0.100089   0.000000  -0.324935
   25  C  2 XX   -0.000000  -0.035366  -0.000000  -0.077887   0.000000
   26  C  2 YY   -0.000000   0.035755   0.000000   0.188208  -0.000000
   27  C  2 ZZ    0.000000  -0.007445  -0.000000  -0.127054   0.000000
   28  C  2 XY    0.000000  -0.055757  -0.000000  -0.266173  -0.000000
   29  C  2 XZ    0.170701   0.000000  -0.490450   0.000000  -0.266796
   30  C  2 YZ   -0.278506   0.000000  -0.483213   0.000000   0.190706
   31  O  3  S   -0.000000  -0.060583  -0.000000  -0.055170  -0.000000
   32  O  3  S   -0.000000  -1.228073  -0.000001  -0.734643  -0.000000
   33  O  3  X   -0.000000  -0.271118  -0.000000   0.071965   0.000000
   34  O  3  Y    0.000000  -0.087955  -0.000000  -0.060263  -0.000000
   35  O  3  Z    0.042373   0.000000  -0.123243   0.000000  -0.083312
   36  O  3  S    0.000000   3.667861   0.000003   2.867674   0.000000
   37  O  3  X    0.000000   1.211709   0.000001   0.721167   0.000000
   38  O  3  Y    0.000000   0.415261   0.000000   0.282350   0.000000
   39  O  3  Z   -0.060364   0.000000  -0.112610  -0.000000   0.138625
   40  O  3 XX   -0.000000  -0.381957  -0.000000  -0.322202  -0.000000
   41  O  3 YY   -0.000000  -0.247381  -0.000000   0.138729  -0.000000
   42  O  3 ZZ    0.000000  -0.233119  -0.000000  -0.348914   0.000000
   43  O  3 XY   -0.000000  -0.076020  -0.000000   0.005224   0.000000
   44  O  3 XZ   -0.000498  -0.000000   0.526382  -0.000000  -0.101724
   45  O  3 YZ   -0.115168  -0.000000   0.002548   0.000000   0.781754
   46  H  4  S    0.000000   0.053719   0.000000  -0.227966   0.000000
   47  H  4  S    0.000000  -0.050814  -0.000000  -0.483029   0.000000
   48  F  5  S   -0.000000  -0.017167  -0.000000  -0.008935   0.000000
   49  F  5  S    0.000000  -0.219924  -0.000000  -0.013583   0.000000
   50  F  5  X   -0.000000  -0.126470  -0.000000  -0.183902  -0.000000
   51  F  5  Y   -0.000000   0.375619   0.000000   0.187535   0.000000
   52  F  5  Z   -0.510861  -0.000000   0.029950  -0.000000   0.103907
   53  F  5  S   -0.000000   0.608981   0.000000   0.287391  -0.000000
   54  F  5  X    0.000000   0.158488   0.000000   0.196498   0.000000
   55  F  5  Y    0.000000  -0.674640  -0.000001  -0.288253  -0.000000
   56  F  5  Z    0.828523   0.000000  -0.064230   0.000000  -0.187082
   57  F  5 XX    0.000000   0.203924   0.000000  -0.211452   0.000000
   58  F  5 YY   -0.000000  -0.333942  -0.000000   0.345810  -0.000000
   59  F  5 ZZ   -0.000000  -0.142715  -0.000000  -0.185764   0.000000
   60  F  5 XY   -0.000000  -0.227359  -0.000000   0.077010   0.000000
   61  F  5 XZ    0.322771  -0.000000  -0.003179   0.000000   0.026809
   62  F  5 YZ    0.265880  -0.000000  -0.033703   0.000000   0.303023
   63  H  6  S    0.061112   0.058120  -0.075744   0.149474  -0.132442
   64  H  6  S    0.277452   0.326277  -0.106673   0.035980  -0.150954
   65  H  7  S   -0.061111   0.058120   0.075744   0.149475   0.132442
   66  H  7  S   -0.277453   0.326276   0.106674   0.035980   0.150955

                     46         47         48         49         50
                    1.7516     1.7635     1.8127     1.8150     1.9376
                     A          A          A          A          A   
    1  C  1  S   -0.029834   0.006501   0.039762   0.000000  -0.064231
    2  C  1  S    0.103391  -0.352969   0.724120   0.000009  -0.897892
    3  C  1  X   -0.199873   0.181592  -0.124509  -0.000002  -0.067648
    4  C  1  Y    0.152030  -0.055289   0.033922   0.000000  -0.024991
    5  C  1  Z   -0.000000   0.000000  -0.000000   0.013140  -0.000000
    6  C  1  S    0.638643   0.277155  -2.262753  -0.000028   3.336306
    7  C  1  X   -0.726010  -0.533889  -0.402781  -0.000005  -0.100445
    8  C  1  Y   -0.344606   0.027167  -0.252026  -0.000002   0.979149
    9  C  1  Z    0.000000   0.000000  -0.000007   0.561843   0.000001
   10  C  1 XX    0.102691   0.004489   0.088949   0.000001   0.233786
   11  C  1 YY   -0.418486   0.124241  -0.021255  -0.000000  -0.019130
   12  C  1 ZZ    0.279966  -0.063853  -0.120006  -0.000002  -0.192981
   13  C  1 XY    0.254453  -0.262620  -0.043602  -0.000000   0.227690
   14  C  1 XZ    0.000000   0.000000   0.000001  -0.060632   0.000000
   15  C  1 YZ   -0.000000  -0.000000   0.000004  -0.317079  -0.000000
   16  C  2  S    0.011517   0.024836  -0.011285  -0.000000   0.015928
   17  C  2  S    0.315407   0.022096  -0.015812  -0.000000   0.384870
   18  C  2  X    0.204591  -0.062430   0.032125   0.000000   0.043422
   19  C  2  Y   -0.118587  -0.079262   0.061698   0.000001   0.033565
   20  C  2  Z    0.000000   0.000000   0.000000  -0.010872   0.000000
   21  C  2  S   -1.998705  -0.687519   1.186507   0.000014  -1.929671
   22  C  2  X    0.716019   0.058703  -0.326284  -0.000004  -0.891461
   23  C  2  Y    1.657135  -0.423403  -0.007241  -0.000000   0.790746
   24  C  2  Z   -0.000000   0.000000   0.000001  -0.097683  -0.000000
   25  C  2 XX   -0.288236   0.221202  -0.037431  -0.000000  -0.115773
   26  C  2 YY   -0.038894  -0.408578   0.119980   0.000002   0.137376
   27  C  2 ZZ    0.377277   0.180961  -0.111457  -0.000001  -0.094229
   28  C  2 XY    0.171652  -0.245299   0.146397   0.000002   0.142301
   29  C  2 XZ    0.000000   0.000000   0.000000  -0.032985  -0.000000
   30  C  2 YZ   -0.000000  -0.000000  -0.000001   0.055002   0.000000
   31  O  3  S   -0.042350  -0.001494   0.013335   0.000000  -0.006918
   32  O  3  S   -0.622632  -0.022828   0.342402   0.000004  -0.095777
   33  O  3  X    0.002111   0.064504  -0.006079  -0.000000  -0.053843
   34  O  3  Y    0.106270  -0.210704   0.082161   0.000001   0.080565
   35  O  3  Z    0.000000   0.000000  -0.000000   0.010778  -0.000000
   36  O  3  S    2.524937   0.114965  -1.106357  -0.000014   0.329864
   37  O  3  X    0.793378  -0.072801  -0.307374  -0.000004   0.267076
   38  O  3  Y   -0.044510   0.328467  -0.220934  -0.000003  -0.218946
   39  O  3  Z   -0.000000  -0.000000  -0.000000  -0.000421   0.000000
   40  O  3 XX   -0.186171  -0.287236   0.225078   0.000003  -0.017336
   41  O  3 YY   -0.496680  -0.208338  -0.183225  -0.000002  -0.357256
   42  O  3 ZZ    0.295945   0.476066   0.111672   0.000001   0.305132
   43  O  3 XY    0.044077   0.468792  -0.110172  -0.000001   0.111196
   44  O  3 XZ   -0.000000   0.000000   0.000001  -0.082124   0.000000
   45  O  3 YZ   -0.000000  -0.000000  -0.000002   0.155567  -0.000000
   46  H  4  S   -0.204946   0.573713  -0.221475  -0.000003  -0.096252
   47  H  4  S   -0.411408   0.109681  -0.115368  -0.000001  -0.037922
   48  F  5  S   -0.011405  -0.025349  -0.067202  -0.000001   0.067303
   49  F  5  S   -0.339394  -0.309994  -1.296335  -0.000016   0.874445
   50  F  5  X    0.070369  -0.023770   0.279287   0.000003  -0.024839
   51  F  5  Y    0.153985   0.026856   0.197160   0.000002  -0.019639
   52  F  5  Z    0.000000   0.000000  -0.000001   0.108412   0.000000
   53  F  5  S    0.786179   0.795004   2.994325   0.000036  -2.435589
   54  F  5  X   -0.102163  -0.092276  -0.731404  -0.000009   0.509645
   55  F  5  Y   -0.235014  -0.149539  -0.480560  -0.000006   0.273056
   56  F  5  Z   -0.000000  -0.000000   0.000003  -0.198384  -0.000000
   57  F  5 XX   -0.347670  -0.263010  -0.609806  -0.000007   0.690964
   58  F  5 YY   -0.191553   0.042558  -0.039588  -0.000000   0.647059
   59  F  5 ZZ    0.211623  -0.132276  -0.665309  -0.000008  -0.411823
   60  F  5 XY    0.205043  -0.118808  -0.452482  -0.000006   0.002369
   61  F  5 XZ    0.000000   0.000000  -0.000008   0.651285  -0.000000
   62  F  5 YZ   -0.000000  -0.000000   0.000008  -0.633574   0.000000
   63  H  6  S   -0.143301   0.009794   0.272013  -0.272506  -0.139658
   64  H  6  S    0.002905  -0.090577   0.266126  -0.168225  -0.162985
   65  H  7  S   -0.143302   0.009794   0.272007   0.272513  -0.139658
   66  H  7  S    0.002906  -0.090577   0.266122   0.168232  -0.162985

                     51         52         53         54         55
                    2.0055     2.0349     2.0792     2.1659     2.2159
                     A          A          A          A          A   
    1  C  1  S    0.000000   0.036424  -0.028664   0.022121   0.000000
    2  C  1  S    0.000001  -0.031017  -0.113183   0.037867  -0.000001
    3  C  1  X    0.000000   0.024246   0.047173   0.280342   0.000000
    4  C  1  Y   -0.000000  -0.070418   0.087902  -0.039478   0.000000
    5  C  1  Z    0.085237   0.000000  -0.000000  -0.000000  -0.073447
    6  C  1  S   -0.000004  -0.981330   1.181652  -0.514114   0.000001
    7  C  1  X    0.000001   0.438101  -0.726963   0.163855  -0.000000
    8  C  1  Y    0.000000   0.092142   0.224703  -0.597792  -0.000000
    9  C  1  Z    1.001226  -0.000001   0.000000  -0.000000  -0.190849
   10  C  1 XX    0.000000   0.483932  -0.149559   0.090951   0.000000
   11  C  1 YY    0.000000   0.158610   0.100057  -0.377006  -0.000000
   12  C  1 ZZ   -0.000001  -0.675522   0.079321   0.357423   0.000000
   13  C  1 XY    0.000000   0.155659  -0.613977  -0.130228   0.000000
   14  C  1 XZ   -0.062487   0.000000   0.000000   0.000000  -0.430509
   15  C  1 YZ   -0.360883   0.000000  -0.000000  -0.000000   0.763300
   16  C  2  S   -0.000000  -0.025148   0.001679   0.001519  -0.000000
   17  C  2  S   -0.000001  -0.381169  -0.091197  -0.081131   0.000000
   18  C  2  X   -0.000000  -0.123446  -0.319383   0.188984   0.000000
   19  C  2  Y    0.000000   0.092983   0.175860   0.069273  -0.000000
   20  C  2  Z    0.055092  -0.000000   0.000000   0.000000  -0.139898
   21  C  2  S    0.000003   1.390829  -0.821424   0.820471  -0.000000
   22  C  2  X    0.000001   0.200757  -0.085793   0.350661   0.000000
   23  C  2  Y   -0.000001  -0.559462   1.041826  -0.123861   0.000000
   24  C  2  Z   -0.401040   0.000001  -0.000000   0.000000  -0.121692
   25  C  2 XX    0.000000   0.119484   0.175144  -0.384824   0.000000
   26  C  2 YY    0.000000   0.314151   0.142460   0.498084   0.000000
   27  C  2 ZZ   -0.000000  -0.458302  -0.360924  -0.119054  -0.000000
   28  C  2 XY   -0.000000  -0.080178   0.144513  -0.432964   0.000000
   29  C  2 XZ   -0.309814   0.000000   0.000000   0.000000  -0.055052
   30  C  2 YZ    0.593111  -0.000001  -0.000000  -0.000000   0.487047
   31  O  3  S    0.000000   0.004409  -0.001937  -0.002868  -0.000000
   32  O  3  S    0.000000   0.146475  -0.305620   0.414114  -0.000000
   33  O  3  X    0.000000  -0.011628  -0.231620   0.354923  -0.000000
   34  O  3  Y   -0.000000  -0.030670   0.027745   0.115364  -0.000000
   35  O  3  Z   -0.041634   0.000000   0.000000   0.000000  -0.047019
   36  O  3  S   -0.000001  -0.618107   0.665249  -0.417404   0.000000
   37  O  3  X   -0.000000  -0.251647   0.359690  -0.274924   0.000000
   38  O  3  Y    0.000000   0.037721  -0.250641  -0.029271   0.000000
   39  O  3  Z    0.121227  -0.000000  -0.000000  -0.000000   0.182022
   40  O  3 XX    0.000000  -0.014562   0.186329   0.049652  -0.000000
   41  O  3 YY   -0.000000  -0.171587  -0.583014  -0.101081  -0.000000
   42  O  3 ZZ    0.000000   0.207647   0.251733   0.265384   0.000000
   43  O  3 XY   -0.000000   0.135263  -0.299317   0.137964   0.000000
   44  O  3 XZ    0.162868  -0.000000  -0.000000  -0.000000   0.445636
   45  O  3 YZ   -0.463303   0.000000   0.000000   0.000000  -0.152174
   46  H  4  S   -0.000000  -0.240799  -0.314778  -0.313377  -0.000000
   47  H  4  S    0.000000   0.099722  -0.292272   0.059365  -0.000000
   48  F  5  S   -0.000000   0.017301  -0.024513  -0.004059  -0.000000
   49  F  5  S   -0.000001  -0.162066   0.347561   0.001112   0.000000
   50  F  5  X    0.000000   0.176152  -0.322562   0.009533  -0.000000
   51  F  5  Y    0.000000   0.166334  -0.070705  -0.150584  -0.000000
   52  F  5  Z    0.194508  -0.000000   0.000000  -0.000000  -0.062434
   53  F  5  S    0.000002   0.068481  -0.317201   0.147451  -0.000000
   54  F  5  X   -0.000000  -0.106865   0.365302  -0.134135   0.000000
   55  F  5  Y   -0.000000  -0.138860  -0.046276   0.264240   0.000000
   56  F  5  Z   -0.396358   0.000000  -0.000000   0.000000   0.131151
   57  F  5 XX   -0.000000  -0.044340  -0.185508   0.463046   0.000000
   58  F  5 YY   -0.000001  -0.336939   0.110860  -0.526693  -0.000000
   59  F  5 ZZ    0.000000   0.322724   0.175425   0.078901  -0.000000
   60  F  5 XY    0.000000   0.295939   0.084405  -0.408691   0.000000
   61  F  5 XZ    0.229716  -0.000000  -0.000000  -0.000000   0.070778
   62  F  5 YZ    0.430646  -0.000000   0.000000   0.000000  -0.321993
   63  H  6  S   -0.448008   0.402732  -0.135814  -0.089572   0.417015
   64  H  6  S   -0.207828  -0.041849  -0.011123  -0.081724  -0.096720
   65  H  7  S    0.448008   0.402731  -0.135814  -0.089572  -0.417015
   66  H  7  S    0.207830  -0.041850  -0.011123  -0.081724   0.096719

                     56         57         58         59         60
                    2.3143     2.3890     2.5875     2.6608     2.7699
                     A          A          A          A          A   
    1  C  1  S    0.047294  -0.000000  -0.000000   0.048179   0.072101
[...]
   40  O  3 XX   -0.006350   0.000019  -0.000945  -0.003247  -0.008246
   41  O  3 YY    0.014143   0.000002  -0.004380   0.013414  -0.008437
   42  O  3 ZZ    0.005483   0.000028   0.005340   0.013651  -0.005575
   43  O  3 XY    0.013696   0.000018   0.008043  -0.008328   0.001102
   44  O  3 XZ    0.000038  -0.000147   0.000011  -0.000204   0.000018
   45  O  3 YZ    0.000141  -0.001637   0.000084  -0.000040  -0.000099
   46  H  4  S   -0.174283  -0.000334  -0.103914   0.001255  -0.055773
   47  H  4  S   -0.266002  -0.001186  -0.759102   0.336708  -1.822295
   48  F  5  S    0.002682   0.000359   0.054346  -0.042776  -0.048788
   49  F  5  S    0.012530  -0.001031  -0.071943   0.053019   0.063086
   50  F  5  X    0.112606   0.002349   0.175223  -0.165271  -0.150611
   51  F  5  Y   -0.077547   0.000669   0.130008  -0.164986  -0.018026
   52  F  5  Z    0.000941   0.018251  -0.000940   0.001749   0.001192
   53  F  5  S   -0.067255  -0.002158  -0.539807   0.413283   0.531250
   54  F  5  X    0.100931   0.002006   0.246329  -0.196916  -0.255061
   55  F  5  Y   -0.057064   0.001135   0.167197  -0.229833  -0.099881
   56  F  5  Z    0.000632   0.024533  -0.001419   0.002424   0.001512
   57  F  5 XX    0.007846  -0.000061   0.018012  -0.022988  -0.010902
   58  F  5 YY    0.006759  -0.000134   0.018267  -0.023716  -0.018523
   59  F  5 ZZ    0.007862  -0.000073   0.027695  -0.015723  -0.022656
   60  F  5 XY   -0.000543  -0.000105  -0.007265  -0.002084   0.010244
   61  F  5 XZ    0.000003   0.001604   0.000025   0.000117  -0.000037
   62  F  5 YZ   -0.000008  -0.005491   0.000075   0.000019  -0.000159
   63  H  6  S   -0.036469   0.095628   0.046741   0.036490  -0.010989
   64  H  6  S   -0.075804   0.319963   0.745843   1.213906  -0.213697
   65  H  7  S   -0.035819  -0.094661   0.048408   0.035024  -0.011125
   66  H  7  S   -0.075981  -0.318532   0.756388   1.190899  -0.214476

                     21         22         23         24         25
                    0.1634     0.2577     0.2866     0.5174     0.5195
                     A          A          A          A          A   
    1  C  1  S   -0.000938  -0.113748  -0.009418   0.015705   0.000964
    2  C  1  S    0.001947   0.165892   0.043514  -0.354108  -0.022060
    3  C  1  X    0.002628  -0.036053  -0.271558  -0.459449  -0.012311
    4  C  1  Y   -0.002733   0.271216   0.150443  -0.764773  -0.055882
    5  C  1  Z   -0.511306   0.000037  -0.003850   0.013234  -0.157637
    6  C  1  S    0.010874   1.951462  -0.106524   0.312997   0.018750
    7  C  1  X    0.005474  -0.928890  -0.960339   0.719873   0.023404
    8  C  1  Y   -0.007826   1.346132  -0.314601   1.447017   0.107810
    9  C  1  Z   -1.288289  -0.001227  -0.006937  -0.020818   0.266279
   10  C  1 XX   -0.000020  -0.033958  -0.035158   0.027501   0.000876
   11  C  1 YY   -0.000103  -0.023625   0.015236  -0.030539  -0.001866
   12  C  1 ZZ    0.000122   0.038760   0.006060   0.031649   0.002276
   13  C  1 XY   -0.000288   0.016462   0.011572   0.081829   0.004689
   14  C  1 XZ   -0.001533   0.000157  -0.000018  -0.000960   0.009302
   15  C  1 YZ   -0.006067   0.000121   0.000391  -0.001938   0.035542
   16  C  2  S   -0.000542   0.068364   0.074967  -0.013517  -0.001602
   17  C  2  S    0.000574  -0.119138  -0.021070  -0.105629  -0.007263
   18  C  2  X   -0.000462  -0.318657   0.024145  -0.180308  -0.005407
   19  C  2  Y   -0.000936   0.348243   0.299145   0.140588   0.014461
   20  C  2  Z    0.113926   0.001211   0.000556   0.060850  -0.987207
   21  C  2  S    0.010197  -0.895053  -2.028403   0.134528  -0.002641
   22  C  2  X   -0.000020  -1.850387   1.652138  -0.198061  -0.018144
   23  C  2  Y   -0.001676   0.802766   1.231550  -0.497968  -0.037161
   24  C  2  Z    0.378958  -0.001078   0.016167  -0.066251   1.079180
   25  C  2 XX   -0.000343   0.016588   0.020129  -0.066230  -0.005368
   26  C  2 YY   -0.000097  -0.000188   0.013400  -0.018406  -0.002785
   27  C  2 ZZ    0.000241   0.000236  -0.029074   0.026614   0.002952
   28  C  2 XY   -0.000086  -0.009353   0.000783   0.018382   0.002444
   29  C  2 XZ   -0.011606   0.000015   0.000183  -0.001044   0.017269
   30  C  2 YZ    0.010992   0.000176   0.000292  -0.001174   0.015521
   31  O  3  S    0.000106   0.036657  -0.109002   0.008692   0.000610
   32  O  3  S    0.000248   0.016219   0.100561   0.070277   0.002695
   33  O  3  X   -0.000107   0.079534   0.167170   0.012925   0.000220
   34  O  3  Y   -0.000755  -0.176867   0.055712  -0.070469  -0.002180
   35  O  3  Z   -0.120172  -0.000688   0.000957   0.003402  -0.047776
   36  O  3  S   -0.002231  -0.943645   2.213969  -0.394062  -0.020963
   37  O  3  X   -0.000613  -0.143557   0.908648  -0.119885  -0.006628
   38  O  3  Y    0.000144  -0.447182   0.212309   0.033735   0.003868
   39  O  3  Z   -0.140885  -0.004298   0.005684   0.004513  -0.100748
   40  O  3 XX    0.000255   0.004250  -0.013813   0.032660   0.002302
   41  O  3 YY    0.000045   0.046011  -0.047551   0.024568   0.001159
   42  O  3 ZZ    0.000264   0.036191  -0.072617   0.036000   0.001209
   43  O  3 XY    0.000094  -0.005903   0.025383   0.032776   0.002400
   44  O  3 XZ    0.002351  -0.000243   0.000445   0.003980  -0.064253
   45  O  3 YZ   -0.000515   0.000116   0.000199   0.001858  -0.025629
   46  H  4  S   -0.000205  -0.006619   0.128394  -0.113777  -0.009988
   47  H  4  S   -0.004049  -0.419879  -0.629808   0.138593   0.010072
   48  F  5  S    0.000579   0.027270  -0.031245   0.017198   0.001031
   49  F  5  S   -0.000440   0.005938  -0.046783   0.101541   0.006883
   50  F  5  X    0.001615   0.153685   0.053196  -0.204314  -0.010498
   51  F  5  Y    0.002765   0.032144  -0.146081  -0.183771  -0.010846
   52  F  5  Z    0.102655  -0.000195   0.000504   0.006131  -0.085675
   53  F  5  S   -0.006502  -0.385980   0.607540  -0.786964  -0.046429
   54  F  5  X    0.002694   0.266971  -0.096930   0.210758   0.013692
   55  F  5  Y    0.003711  -0.019673  -0.212464   0.026483  -0.001102
   56  F  5  Z    0.172340  -0.000609   0.002141   0.000296  -0.017756
   57  F  5 XX    0.000375   0.032234  -0.024306  -0.047279  -0.002585
   58  F  5 YY    0.000437   0.018614  -0.056923   0.040234   0.003444
   59  F  5 ZZ    0.000334   0.034483  -0.047036   0.096422   0.006080
   60  F  5 XY    0.000085   0.018802  -0.000663  -0.075731  -0.003412
   61  F  5 XZ    0.009281  -0.000015  -0.000113   0.001576  -0.015310
   62  F  5 YZ    0.000557  -0.000047   0.000153  -0.000353   0.012601
   63  H  6  S    0.050856   0.055521   0.057353   0.136704  -0.155255
   64  H  6  S    1.469803   0.074423   0.094441   0.153480  -0.098005
   65  H  7  S   -0.051666   0.054449   0.059026   0.117790   0.174029
   66  H  7  S   -1.486349   0.077805   0.076213   0.142221   0.121914

                     26
                    0.5375
                     A   
    1  C  1  S    0.005329
    2  C  1  S   -0.059857
    3  C  1  X    0.873384
    4  C  1  Y   -0.426590
    5  C  1  Z    0.001888
    6  C  1  S   -0.148823
    7  C  1  X   -1.379640
    8  C  1  Y    0.754173
    9  C  1  Z   -0.003656
   10  C  1 XX   -0.045739
   11  C  1 YY   -0.029175
   12  C  1 ZZ    0.034156
   13  C  1 XY   -0.014501
   14  C  1 XZ    0.000097
   15  C  1 YZ   -0.000253
   16  C  2  S   -0.029384
   17  C  2  S   -0.077836
   18  C  2  X    0.057109
   19  C  2  Y    0.016035
   20  C  2  Z    0.018185
   21  C  2  S   -0.800389
   22  C  2  X    0.253820
   23  C  2  Y    0.044357
   24  C  2  Z   -0.019234
   25  C  2 XX   -0.068544
   26  C  2 YY   -0.066661
   27  C  2 ZZ    0.045386
   28  C  2 XY    0.085339
   29  C  2 XZ   -0.000425
   30  C  2 YZ   -0.000679
   31  O  3  S   -0.006749
   32  O  3  S   -0.060026
   33  O  3  X   -0.054215
   34  O  3  Y    0.163789
   35  O  3  Z    0.002180
   36  O  3  S    0.415955
   37  O  3  X    0.118392
   38  O  3  Y    0.108612
   39  O  3  Z    0.002953
   40  O  3 XX   -0.005549
   41  O  3 YY   -0.030990
   42  O  3 ZZ   -0.013282
   43  O  3 XY   -0.013086
   44  O  3 XZ    0.001131
   45  O  3 YZ    0.000261
   46  H  4  S   -0.041014
   47  H  4  S    0.064837
   48  F  5  S   -0.007129
   49  F  5  S   -0.039623
   50  F  5  X    0.168150
   51  F  5  Y   -0.032919
   52  F  5  Z    0.001131
   53  F  5  S    0.354386
   54  F  5  X    0.007975
   55  F  5  Y   -0.168205
   56  F  5  Z    0.000792
   57  F  5 XX   -0.007239
   58  F  5 YY    0.011266
   59  F  5 ZZ   -0.028526
   60  F  5 XY    0.058337
   61  F  5 XZ    0.000007
   62  F  5 YZ   -0.000505
   63  H  6  S    0.109856
   64  H  6  S    0.173490
   65  H  7  S    0.104546
   66  H  7  S    0.169703

     ---------------------------------------------------------------------
     PROPERTIES FOR THE B3LYP    DFT FUNCTIONAL (RHF  TYPE) DENSITY MATRIX
     ---------------------------------------------------------------------

          -----------------
          ENERGY COMPONENTS
          -----------------

         WAVEFUNCTION NORMALIZATION =       1.0000000000

                ONE ELECTRON ENERGY =    -571.3941662916
                TWO ELECTRON ENERGY =     205.3749531746
           NUCLEAR REPULSION ENERGY =     113.0894077463
                                      ------------------
                       TOTAL ENERGY =    -252.9298053707

 ELECTRON-ELECTRON POTENTIAL ENERGY =     205.3749531746
  NUCLEUS-ELECTRON POTENTIAL ENERGY =    -822.4381763631
   NUCLEUS-NUCLEUS POTENTIAL ENERGY =     113.0894077463
                                      ------------------
             TOTAL POTENTIAL ENERGY =    -503.9738154422
               TOTAL KINETIC ENERGY =     251.0440100715
                 VIRIAL RATIO (V/T) =       2.0075118116

          ---------------------------------------
          MULLIKEN AND LOWDIN POPULATION ANALYSES
          ---------------------------------------

     ATOMIC MULLIKEN POPULATION IN EACH MOLECULAR ORBITAL

                      1          2          3          4          5

                  2.000000   2.000000   2.000000   2.000000   2.000000

    1            -0.000045   0.000007   0.000835   1.997787   0.183197
    2            -0.000010  -0.001009   1.999764   0.001251   0.016604
    3            -0.000000   2.001013  -0.001063   0.000002   0.000734
    4            -0.000002  -0.000011   0.000439   0.000007   0.000837
    5             2.000058  -0.000000   0.000000  -0.000089   1.793773
    6            -0.000001   0.000000   0.000012   0.000521   0.002434
    7            -0.000001   0.000000   0.000012   0.000521   0.002421

                      6          7          8          9         10

                  2.000000   2.000000   2.000000   2.000000   2.000000

    1             0.023321   0.978829   0.411706   0.427525   0.848169
    2             0.509511   0.448737   0.747137   0.250458   0.124007
    3             1.465983   0.098106   0.203485   0.178622   0.050828
    4            -0.003003   0.019883   0.303401   0.047804   0.000001
    5             0.003778   0.253183   0.159393   1.052202   0.548961
    6             0.000213   0.100807   0.086817   0.019828   0.219095
    7             0.000196   0.100455   0.088060   0.023561   0.208939

                     11         12         13         14         15

                  2.000000   2.000000   2.000000   2.000000   2.000000

    1             0.459659   0.074400  -0.002439   0.094241   0.278476
    2             0.413150   0.345687   0.563830   0.212334   0.058457
    3             0.381077   1.195080   0.945218   0.244458   0.300044
    4             0.112381   0.134509   0.000001   0.005271   0.000008
    5             0.495690   0.190185   0.486930   1.340442   0.908641
    6             0.066939   0.029232   0.003014   0.051967   0.227189
    7             0.071104   0.030907   0.003446   0.051287   0.227185

                     16

                  2.000000

    1             0.239529
    2             0.109923
    3             1.300973
    4             0.244535
    5             0.070884
    6             0.017157
    7             0.016999

               ----- POPULATIONS IN EACH AO -----
                             MULLIKEN      LOWDIN
              1  C  1  S      1.99191     1.97703
              2  C  1  S      0.69977     0.36951
              3  C  1  X      0.57717     0.51743
              4  C  1  Y      0.68217     0.60757
              5  C  1  Z      0.76775     0.67512
              6  C  1  S      0.54077     0.31797
              7  C  1  X      0.14173     0.25360
              8  C  1  Y      0.22821     0.36736
              9  C  1  Z      0.33330     0.45958
             10  C  1 XX      0.00205     0.15904
             11  C  1 YY     -0.00053     0.15105
             12  C  1 ZZ      0.00865     0.16186
             13  C  1 XY      0.01902     0.03760
             14  C  1 XZ      0.00798     0.01573
             15  C  1 YZ      0.01526     0.03173
             16  C  2  S      1.99198     1.97336
             17  C  2  S      0.73922     0.37717
             18  C  2  X      0.74564     0.65672
             19  C  2  Y      0.75404     0.65515
             20  C  2  Z      0.45181     0.40597
             21  C  2  S      0.49139     0.31521
             22  C  2  X      0.08158     0.26330
             23  C  2  Y      0.21603     0.38717
             24  C  2  Z      0.27851     0.32400
             25  C  2 XX      0.01694     0.21100
             26  C  2 YY      0.01193     0.17895
             27  C  2 ZZ     -0.02696     0.10712
             28  C  2 XY      0.03173     0.07142
             29  C  2 XZ      0.01345     0.02590
             30  C  2 YZ      0.00254     0.00389
             31  O  3  S      1.99265     1.97655
             32  O  3  S      0.91599     0.71973
             33  O  3  X      0.96342     0.89439
             34  O  3  Y      1.12129     1.07557
             35  O  3  Z      0.77482     0.72359
             36  O  3  S      1.00665     0.47740
             37  O  3  X      0.44617     0.54505
             38  O  3  Y      0.63376     0.68472
             39  O  3  Z      0.50989     0.54686
             40  O  3 XX      0.00007     0.18670
             41  O  3 YY     -0.01251     0.17006
             42  O  3 ZZ     -0.00656     0.17167
             43  O  3 XY      0.00751     0.01589
             44  O  3 XZ      0.01005     0.01298
             45  O  3 YZ      0.00135     0.00179
             46  H  4  S      0.52911     0.49249
             47  H  4  S      0.33695     0.37839
             48  F  5  S      1.99325     1.97693
             49  F  5  S      0.94343     0.85285
             50  F  5  X      1.00160     0.95018
             51  F  5  Y      1.10492     1.06284
             52  F  5  Z      1.20273     1.17068
             53  F  5  S      0.97935     0.52404
             54  F  5  X      0.61541     0.65980
             55  F  5  Y      0.67214     0.72347
             56  F  5  Z      0.73808     0.77172
             57  F  5 XX      0.02526     0.16955
             58  F  5 YY      0.01296     0.16491
             59  F  5 ZZ      0.00563     0.16036
             60  F  5 XY      0.00570     0.00843
             61  F  5 XZ      0.00237     0.00528
             62  F  5 YZ      0.00120     0.00297
             63  H  6  S      0.52906     0.48859
             64  H  6  S      0.29616     0.34326
             65  H  7  S      0.52910     0.48858
             66  H  7  S      0.29599     0.34322

          ----- MULLIKEN ATOMIC OVERLAP POPULATIONS -----
          (OFF-DIAGONAL ELEMENTS NEED TO BE MULTIPLIED BY 2)

             1           2           3           4           5

    1    4.9975244
    2    0.2684744   4.7670401
    3   -0.0614400   0.5032984   7.9613716
    4   -0.1104897   0.3435248  -0.0458917   0.6618509
    5    0.2282748  -0.0142779   0.0011135   0.0077122   9.1382447
    6    0.3464227  -0.0341217   0.0029990   0.0046273  -0.0285415
    7    0.3464305  -0.0341042   0.0031091   0.0047279  -0.0284946

             6           7

    6    0.5719095
    7   -0.0380711   0.5714947

          TOTAL MULLIKEN AND LOWDIN ATOMIC POPULATIONS
       ATOM         MULL.POP.    CHARGE          LOW.POP.     CHARGE
    1 C             6.015197   -0.015197         6.102171   -0.102171
    2 C             5.799834    0.200166         5.956318    0.043682
    3 O             8.364560   -0.364560         8.202948   -0.202948
    4 H             0.866062    0.133938         0.870882    0.129118
    5 F             9.304031   -0.304031         9.204020   -0.204020
    6 H             0.825224    0.174776         0.831852    0.168148
    7 H             0.825092    0.174908         0.831809    0.168191

          -------------------------------
          BOND ORDER AND VALENCE ANALYSIS     BOND ORDER THRESHOLD=0.050
          -------------------------------

                   BOND                       BOND                       BOND
  ATOM PAIR DIST  ORDER      ATOM PAIR DIST  ORDER      ATOM PAIR DIST  ORDER
    1   2  1.521  0.904        1   5  1.383  0.925        1   6  1.098  0.911
    1   7  1.098  0.911        2   3  1.209  1.960        2   4  1.112  0.884
    2   5  2.377  0.052

                       TOTAL       BONDED        FREE
      ATOM            VALENCE     VALENCE     VALENCE
    1 C                 3.676       3.676      -0.000
    2 C                 3.794       3.794      -0.000
    3 O                 2.051       2.051      -0.000
    4 H                 0.927       0.927       0.000
    5 F                 1.003       1.003      -0.000
    6 H                 0.923       0.923      -0.000
    7 H                 0.923       0.923      -0.000

          ---------------------
          ELECTROSTATIC MOMENTS
          ---------------------

 POINT   1           X           Y           Z (BOHR)    CHARGE
                -0.023243   -0.000985   -0.006967       -0.00 (A.U.)
         DX          DY          DZ         /D/  (DEBYE)
     1.033505   -0.400572    0.022393    1.108644
 ...... END OF PROPERTY EVALUATION ......
 STEP CPU TIME =     0.02 TOTAL CPU TIME =         98.4 (      1.6 MIN)
 TOTAL WALL CLOCK TIME=         99.2 SECONDS, CPU UTILIZATION IS    99.18%
  $VIB   
          IVIB=   0 IATOM=   0 ICOORD=   0 E=     -252.9298053707
  2.075805030E-05 1.990211539E-05-3.738890173E-05-3.638034486E-05-2.538988871E-05
 -2.129234689E-05 9.114410032E-06-1.110471243E-06-9.622052025E-06 8.751258695E-06
  3.245770130E-06 2.038801817E-05 1.293465464E-05-1.851743053E-05 7.557725444E-06
  1.301550178E-05 9.035793461E-06 5.089315258E-05-2.819353059E-05 1.283411150E-05
 -1.053559555E-05
  1.033504589E+00-4.005715478E-01 2.239337056E-02
 ......END OF GEOMETRY SEARCH......
 STEP CPU TIME =     0.00 TOTAL CPU TIME =         98.4 (      1.6 MIN)
 TOTAL WALL CLOCK TIME=         99.2 SECONDS, CPU UTILIZATION IS    99.17%
                998100  WORDS OF DYNAMIC MEMORY USED
 EXECUTION OF GAMESS TERMINATED NORMALLY Fri Oct 18 07:33:13 2019
 DDI: 263640 bytes (0.3 MB / 0 MWords) used by master data server.

 ----------------------------------------
 CPU timing information for all processes
 ========================================
 0: 96.486 + 1.909 = 98.396
 ----------------------------------------
 ddikick.x: exited gracefully.
----- accounting info -----
Files used on the master node crcfe01.crc.nd.edu were:
-rw-r--r-- 1 cdrisko campus      483 Oct 18 07:31 /afs/crc.nd.edu/user/c/cdrisko/acetaldehyde-F_opt.F05
-rw-r--r-- 1 cdrisko campus   360067 Oct 18 07:33 /afs/crc.nd.edu/user/c/cdrisko/acetaldehyde-F_opt.F07
-rw-r--r-- 1 cdrisko campus 24842208 Oct 18 07:33 /afs/crc.nd.edu/user/c/cdrisko/acetaldehyde-F_opt.F08
-rw-r--r-- 1 cdrisko campus  1799600 Oct 18 07:33 /afs/crc.nd.edu/user/c/cdrisko/acetaldehyde-F_opt.F10
-rw-r--r-- 1 cdrisko campus  2041032 Oct 18 07:33 /afs/crc.nd.edu/user/c/cdrisko/acetaldehyde-F_opt.F22
Fri Oct 18 07:33:16 EDT 2019
0.384u 0.214s 1:42.83 0.5%	0+0k 0+720io 0pf+0w
