   4   4   0   0
  0.1246917E+02  0.3681000E-09  0.3681000E-09  0.3681000E-09  0.5000000E-15
  1.000000000000000E-004
  CAR 
 unknown system                          
     48.46906634      1.10834727  301     13.89776969      1.00000000
      1.108  0.0000E+00  0.0000E+00
      1.266  0.0000E+00  0.0000E+00
      1.424  0.0000E+00  0.0000E+00
      1.582  0.0000E+00  0.0000E+00
      1.740  0.0000E+00  0.0000E+00
      1.898  0.0000E+00  0.0000E+00
      2.056  0.0000E+00  0.0000E+00
      2.213  0.0000E+00  0.0000E+00
      2.371 -0.1795E-35 -0.2834E-36
      2.529 -0.1942E-24 -0.3066E-25
      2.687 -0.1332E-15 -0.2103E-16
      2.845 -0.5776E-09 -0.9118E-10
      3.003 -0.1376E-04 -0.2172E-05
      3.161 -0.4806E-03 -0.7805E-04
      3.319  0.1274E-01  0.1933E-02
      3.476  0.8667E-01  0.1562E-01
      3.634  0.1891E+00  0.4548E-01
      3.792  0.1552E+00  0.6998E-01
      3.950  0.9440E-01  0.8488E-01
      4.108  0.3876E+00  0.1461E+00
      4.266  0.4690E+00  0.2201E+00
      4.424  0.1502E-01  0.2225E+00
      4.581  0.4919E+00  0.3001E+00
      4.739  0.8683E+00  0.4372E+00
      4.897  0.2096E+01  0.7682E+00
      5.055  0.3815E+01  0.1371E+01
      5.213  0.6046E+01  0.2325E+01
      5.371  0.6129E+01  0.3293E+01
      5.529  0.1021E+02  0.4905E+01
      5.687  0.9237E+01  0.6363E+01
      5.844  0.7692E+01  0.7578E+01
      6.002  0.7662E+01  0.8787E+01
      6.160  0.6316E+01  0.9784E+01
      6.318  0.2741E+01  0.1022E+02
      6.476  0.7591E+01  0.1142E+02
      6.634  0.6202E+01  0.1239E+02
      6.792  0.6203E+01  0.1337E+02
      6.950  0.4600E+01  0.1410E+02
      7.107  0.6235E+01  0.1508E+02
      7.265  0.6638E+01  0.1613E+02
      7.423  0.7124E+01  0.1726E+02
      7.581  0.7552E+01  0.1845E+02
      7.739  0.1027E+02  0.2007E+02
      7.897  0.1047E+02  0.2172E+02
      8.055  0.7447E+01  0.2290E+02
      8.212  0.8172E+01  0.2419E+02
      8.370  0.5370E+01  0.2504E+02
      8.528  0.4263E+01  0.2571E+02
      8.686  0.8216E+01  0.2701E+02
      8.844  0.5753E+01  0.2792E+02
      9.002  0.6363E+01  0.2892E+02
      9.160  0.8657E+01  0.3029E+02
      9.318  0.7008E+01  0.3139E+02
      9.475  0.6418E+01  0.3241E+02
      9.633  0.4580E+01  0.3313E+02
      9.791  0.7082E+01  0.3425E+02
      9.949  0.4466E+01  0.3495E+02
     10.107  0.6679E+01  0.3601E+02
     10.265  0.4802E+01  0.3676E+02
     10.423  0.1310E+02  0.3883E+02
     10.580  0.8020E+01  0.4010E+02
     10.738  0.6115E+01  0.4106E+02
     10.896  0.2883E+01  0.4152E+02
     11.054  0.1219E+01  0.4171E+02
     11.212  0.5647E+00  0.4180E+02
     11.370  0.1897E+01  0.4210E+02
     11.528  0.4915E+00  0.4218E+02
     11.686  0.6124E+00  0.4228E+02
     11.843  0.5237E+00  0.4236E+02
     12.001  0.3964E+00  0.4242E+02
     12.159  0.2524E+00  0.4246E+02
     12.317  0.8965E+00  0.4260E+02
     12.475  0.1926E+01  0.4291E+02
     12.633  0.6043E+00  0.4300E+02
     12.791  0.7002E+00  0.4311E+02
     12.949  0.7938E+00  0.4324E+02
     13.106  0.4680E+00  0.4331E+02
     13.264  0.8052E+00  0.4344E+02
     13.422  0.1063E+01  0.4361E+02
     13.580  0.1387E+01  0.4382E+02
     13.738  0.4260E+00  0.4389E+02
     13.896  0.6612E+00  0.4400E+02
     14.054  0.1052E+01  0.4416E+02
     14.211  0.8179E+00  0.4429E+02
     14.369  0.4088E+00  0.4436E+02
     14.527  0.5059E+00  0.4444E+02
     14.685  0.1478E+01  0.4467E+02
     14.843  0.1342E+01  0.4488E+02
     15.001  0.3716E+00  0.4494E+02
     15.159  0.1941E+01  0.4525E+02
     15.317  0.6585E+00  0.4535E+02
     15.474  0.3071E+00  0.4540E+02
     15.632  0.3708E+00  0.4546E+02
     15.790  0.5895E+00  0.4555E+02
     15.948  0.8635E+00  0.4569E+02
     16.106  0.9183E+00  0.4583E+02
     16.264  0.8999E+00  0.4597E+02
     16.422  0.1801E+01  0.4626E+02
     16.580  0.8550E+00  0.4639E+02
     16.737 -0.5267E-01  0.4638E+02
     16.895  0.2696E+00  0.4643E+02
     17.053  0.1955E+01  0.4674E+02
     17.211  0.6574E-01  0.4675E+02
     17.369  0.6110E+00  0.4684E+02
     17.527  0.5437E+00  0.4693E+02
     17.685  0.2547E+00  0.4697E+02
     17.842  0.1190E+01  0.4716E+02
     18.000  0.1055E+00  0.4717E+02
     18.158  0.6366E+00  0.4727E+02
     18.316  0.9922E+00  0.4743E+02
     18.474  0.6795E+00  0.4754E+02
     18.632  0.2089E+00  0.4757E+02
     18.790 -0.2001E-01  0.4757E+02
     18.948  0.6010E+00  0.4766E+02
     19.105  0.8306E+00  0.4779E+02
     19.263  0.2753E+00  0.4784E+02
     19.421 -0.6614E-01  0.4783E+02
     19.579  0.2106E+01  0.4816E+02
     19.737  0.1807E+01  0.4844E+02
     19.895  0.6634E+00  0.4855E+02
     20.053  0.1170E+01  0.4873E+02
     20.211  0.1641E+01  0.4899E+02
     20.368  0.1393E+01  0.4921E+02
     20.526  0.1285E+01  0.4942E+02
     20.684  0.1642E+01  0.4967E+02
     20.842  0.3813E+00  0.4974E+02
     21.000  0.2696E+00  0.4978E+02
     21.158  0.8858E+00  0.4992E+02
     21.316  0.1367E+01  0.5013E+02
     21.473  0.1300E+01  0.5034E+02
     21.631  0.1300E+01  0.5054E+02
     21.789  0.1205E+01  0.5073E+02
     21.947  0.4649E+00  0.5081E+02
     22.105  0.3590E+00  0.5086E+02
     22.263  0.1639E+01  0.5112E+02
     22.421  0.2127E+00  0.5116E+02
     22.579  0.9479E+00  0.5131E+02
     22.736  0.8816E+00  0.5144E+02
     22.894  0.1204E+01  0.5164E+02
     23.052  0.8088E+00  0.5176E+02
     23.210  0.1536E+01  0.5201E+02
     23.368  0.2396E+01  0.5238E+02
     23.526  0.1841E+01  0.5267E+02
     23.684  0.1204E+01  0.5286E+02
     23.841  0.7220E+00  0.5298E+02
     23.999  0.1426E+01  0.5320E+02
     24.157  0.1508E+01  0.5344E+02
     24.315  0.2254E+01  0.5380E+02
     24.473  0.1376E+01  0.5401E+02
     24.631  0.2651E+01  0.5443E+02
     24.789  0.2589E+01  0.5484E+02
     24.947  0.1822E+01  0.5513E+02
     25.104  0.1552E+01  0.5537E+02
     25.262  0.1214E+01  0.5557E+02
     25.420  0.1290E+01  0.5577E+02
     25.578  0.1084E+01  0.5594E+02
     25.736  0.1998E+01  0.5626E+02
     25.894  0.2423E+01  0.5664E+02
     26.052  0.2108E+01  0.5697E+02
     26.210  0.9268E+00  0.5712E+02
     26.367  0.1208E+01  0.5731E+02
     26.525  0.2007E+01  0.5763E+02
     26.683  0.2592E+01  0.5803E+02
     26.841  0.2436E+01  0.5842E+02
     26.999  0.2314E+01  0.5878E+02
     27.157  0.3354E+01  0.5931E+02
     27.315  0.8352E+00  0.5945E+02
     27.472  0.1693E+01  0.5971E+02
     27.630  0.1950E+01  0.6002E+02
     27.788  0.1922E+01  0.6032E+02
     27.946  0.2203E+01  0.6067E+02
     28.104  0.1037E+01  0.6084E+02
     28.262  0.1040E+01  0.6100E+02
     28.420  0.1106E+01  0.6117E+02
     28.578  0.1596E+01  0.6143E+02
     28.735  0.2856E+01  0.6188E+02
     28.893  0.3737E+01  0.6247E+02
     29.051  0.1801E+01  0.6275E+02
     29.209  0.2451E+01  0.6314E+02
     29.367  0.3992E+01  0.6377E+02
     29.525  0.2592E+01  0.6418E+02
     29.683  0.1011E+01  0.6434E+02
     29.841  0.2502E+01  0.6473E+02
     29.998  0.3150E+01  0.6523E+02
     30.156  0.1560E+01  0.6548E+02
     30.314  0.1478E+01  0.6571E+02
     30.472  0.2563E+01  0.6611E+02
     30.630  0.1724E+01  0.6639E+02
     30.788  0.1309E+01  0.6659E+02
     30.946  0.3485E+01  0.6714E+02
     31.103  0.1617E+01  0.6740E+02
     31.261  0.2274E+01  0.6776E+02
     31.419  0.1496E+01  0.6799E+02
     31.577  0.1543E+01  0.6824E+02
     31.735  0.1851E+01  0.6853E+02
     31.893  0.1423E+01  0.6875E+02
     32.051  0.2261E+01  0.6911E+02
     32.209  0.1520E+01  0.6935E+02
     32.366  0.5541E+00  0.6944E+02
     32.524  0.8743E+00  0.6958E+02
     32.682  0.6750E+00  0.6968E+02
     32.840  0.1152E+01  0.6986E+02
     32.998  0.1023E+01  0.7003E+02
     33.156  0.1155E+01  0.7021E+02
     33.314  0.1026E+01  0.7037E+02
     33.472  0.2155E+01  0.7071E+02
     33.629  0.9577E+00  0.7086E+02
     33.787  0.2228E+01  0.7121E+02
     33.945  0.4147E+01  0.7187E+02
     34.103  0.2768E+01  0.7231E+02
     34.261  0.3613E+01  0.7288E+02
     34.419  0.1580E+01  0.7312E+02
     34.577  0.3015E+01  0.7360E+02
     34.734  0.2567E+01  0.7401E+02
     34.892  0.3305E+01  0.7453E+02
     35.050  0.4535E+01  0.7524E+02
     35.208  0.2002E+01  0.7556E+02
     35.366  0.1099E+01  0.7573E+02
     35.524  0.1873E+01  0.7603E+02
     35.682  0.2944E+01  0.7649E+02
     35.840  0.3614E+01  0.7706E+02
     35.997  0.2718E+01  0.7749E+02
     36.155  0.2927E+01  0.7796E+02
     36.313  0.2290E+01  0.7832E+02
     36.471  0.4023E+00  0.7838E+02
     36.629  0.1985E+01  0.7869E+02
     36.787  0.2458E+01  0.7908E+02
     36.945  0.1136E+01  0.7926E+02
     37.102  0.1043E+01  0.7943E+02
     37.260  0.1151E+01  0.7961E+02
     37.418  0.1595E+01  0.7986E+02
     37.576  0.1030E+01  0.8002E+02
     37.734  0.5121E+00  0.8010E+02
     37.892  0.1794E+01  0.8039E+02
     38.050  0.6628E+00  0.8049E+02
     38.208  0.8757E+00  0.8063E+02
     38.365  0.6588E+00  0.8073E+02
     38.523  0.9343E+00  0.8088E+02
     38.681  0.5051E+00  0.8096E+02
     38.839  0.1620E+01  0.8122E+02
     38.997  0.1360E+01  0.8143E+02
     39.155  0.7982E+00  0.8156E+02
     39.313  0.2243E+01  0.8191E+02
     39.471  0.2619E+01  0.8232E+02
     39.628  0.1811E+01  0.8261E+02
     39.786  0.2804E+01  0.8305E+02
     39.944  0.1742E+01  0.8333E+02
     40.102  0.2043E+01  0.8365E+02
     40.260  0.1129E+01  0.8383E+02
     40.418  0.1937E+01  0.8413E+02
     40.576  0.1536E+01  0.8438E+02
     40.733  0.1781E+01  0.8466E+02
     40.891  0.1487E+01  0.8489E+02
     41.049  0.4234E+01  0.8556E+02
     41.207  0.3571E+01  0.8612E+02
     41.365  0.2833E+01  0.8657E+02
     41.523  0.2933E+01  0.8703E+02
     41.681  0.2149E+01  0.8737E+02
     41.839  0.3983E+01  0.8800E+02
     41.996  0.2205E+01  0.8835E+02
     42.154  0.1181E+01  0.8854E+02
     42.312  0.2724E+01  0.8897E+02
     42.470  0.9243E+00  0.8911E+02
     42.628  0.2379E+01  0.8949E+02
     42.786  0.4716E+01  0.9023E+02
     42.944  0.1431E+01  0.9046E+02
     43.102  0.2684E+01  0.9088E+02
     43.259  0.2474E+01  0.9127E+02
     43.417  0.2799E+01  0.9172E+02
     43.575  0.2618E+01  0.9213E+02
     43.733  0.2871E+01  0.9258E+02
     43.891  0.3540E+01  0.9314E+02
     44.049  0.2880E+01  0.9360E+02
     44.207  0.3350E+01  0.9412E+02
     44.364  0.2539E+01  0.9453E+02
     44.522  0.2988E+01  0.9500E+02
     44.680  0.2676E+01  0.9542E+02
     44.838  0.1158E+01  0.9560E+02
     44.996  0.8398E+00  0.9573E+02
     45.154  0.4675E+00  0.9581E+02
     45.312  0.5720E-01  0.9582E+02
     45.470  0.5368E+00  0.9590E+02
     45.627  0.1517E+00  0.9593E+02
     45.785  0.2682E+00  0.9597E+02
     45.943  0.1389E+00  0.9599E+02
     46.101  0.4316E-01  0.9600E+02
     46.259 -0.4341E-03  0.9600E+02
     46.417  0.1622E-01  0.9600E+02
     46.575 -0.4311E-03  0.9600E+02
     46.733 -0.1376E-04  0.9600E+02
     46.890 -0.5776E-09  0.9600E+02
     47.048 -0.1351E-15  0.9600E+02
     47.206  0.0000E+00  0.9600E+02
     47.364  0.0000E+00  0.9600E+02
     47.522  0.0000E+00  0.9600E+02
     47.680  0.0000E+00  0.9600E+02
     47.838  0.0000E+00  0.9600E+02
     47.995  0.0000E+00  0.9600E+02
     48.153  0.0000E+00  0.9600E+02
     48.311  0.0000E+00  0.9600E+02
     48.469  0.0000E+00  0.9600E+02
