    4    4    1    1
  0.1246917E+02  0.3681000E-09  0.3681000E-09  0.3681000E-09  0.5000000E-15
  1.000000000000000E-004
  CAR 
 unknown system                          
     44     35     48
 
  0.0000000E+00  0.0000000E+00  0.0000000E+00  0.1371742E-02
    1        3.261107   1.000000
    2        4.580061   1.000000
    3        4.580061   1.000000
    4        4.580061   1.000000
    5        4.855081   1.000000
    6        4.855081   1.000000
    7        4.855081   1.000000
    8        7.380166   1.000000
    9        7.380166   1.000000
   10        7.380166   1.000000
   11        9.166347   1.000000
   12        9.166347   1.000000
   13       10.485275   1.000000
   14       10.485275   1.000000
   15       10.485275   1.000000
   16       10.892132   1.000000
   17       10.892132   1.000000
   18       10.892132   1.000000
   19       10.892132   1.000000
   20       10.892132   1.000000
   21       10.892132   1.000000
   22       14.981827  -0.000000
   23       14.981827  -0.000000
   24       14.981827  -0.000000
   25       23.300297   0.000000
   26       23.300297   0.000000
   27       23.300297   0.000000
   28       25.930286   0.000000
   29       25.930286   0.000000
   30       25.930286   0.000000
   31       25.930286   0.000000
   32       25.930286   0.000000
   33       25.930286   0.000000
   34       29.914751   0.000000
   35       35.201337   0.000000
   36       35.201337   0.000000
   37       35.201337   0.000000
   38       35.398423   0.000000
   39       35.398423   0.000000
   40       35.398423   0.000000
   41       35.495172   0.000000
   42       35.495172   0.000000
   43       35.495172   0.000000
   44       41.214501   0.000000
   45       45.349442   0.000000
   46       45.349442   0.000000
   47       45.349443   0.000000
   48       46.316306   0.000000
 
  0.1111111E+00  0.0000000E+00  0.0000000E+00  0.8230453E-02
    1        3.429664   1.000000
    2        4.667910   1.000000
    3        4.687212   1.000000
    4        4.687212   1.000000
    5        4.919190   1.000000
    6        4.956299   1.000000
    7        4.956299   1.000000
    8        7.288276   1.000000
    9        7.457914   1.000000
   10        7.457914   1.000000
   11        9.071767   1.000000
   12        9.203052   1.000000
   13       10.355400   1.000000
   14       10.355400   1.000000
   15       10.393929   1.000000
   16       10.393929   1.000000
   17       10.441932   1.000000
   18       10.737523   1.000000
   19       10.737523   1.000000
   20       10.892419   1.000000
   21       10.892419   1.000000
   22       14.193910  -0.000116
   23       15.592757  -0.000000
   24       15.592757  -0.000000
   25       23.276120   0.000000
   26       23.276120   0.000000
   27       24.254064   0.000000
   28       25.605613   0.000000
   29       25.605613   0.000000
   30       25.620298   0.000000
   31       25.620298   0.000000
   32       26.270632   0.000000
   33       26.270632   0.000000
   34       30.106522   0.000000
   35       34.757647   0.000000
   36       35.075103   0.000000
   37       35.329444   0.000000
   38       35.329444   0.000000
   39       35.434609   0.000000
   40       35.444370   0.000000
   41       35.444370   0.000000
   42       36.246588   0.000000
   43       36.246588   0.000000
   44       42.350798   0.000000
   45       44.509029   0.000000
   46       44.509029   0.000000
   47       45.505116   0.000000
   48       45.934886   0.000000
 
  0.2222222E+00  0.0000000E+00  0.0000000E+00  0.8230453E-02
    1        3.913672   1.000000
    2        4.911605   1.000000
    3        4.984890   1.000000
    4        4.984890   1.000000
    5        5.107028   1.000000
    6        5.258188   1.000000
    7        5.258188   1.000000
    8        7.030134   1.000000
    9        7.686560   1.000000
   10        7.686560   1.000000
   11        8.819567   1.000000
   12        9.309997   1.000000
   13        9.375102   1.000000
   14        9.375102   1.000000
   15        9.997718   1.000000
   16        9.997718   1.000000
   17       10.318553   1.000000
   18       10.320902   1.000000
   19       10.320902   1.000000
   20       10.893116   1.000000
   21       10.893116   1.000000
   22       12.513191   1.000000
   23       16.944022   0.000000
   24       16.944022   0.000000
   25       23.214225   0.000000
   26       23.214225   0.000000
   27       24.754219   0.000000
   28       24.754219   0.000000
   29       24.927071   0.000000
   30       24.927071   0.000000
   31       26.391938   0.000000
   32       27.235911   0.000000
   33       27.235911   0.000000
   34       30.647294   0.000000
   35       33.620253   0.000000
   36       34.700150   0.000000
   37       34.957071   0.000000
   38       34.957071   0.000000
   39       35.373111   0.000000
   40       36.151100   0.000000
   41       36.151100   0.000000
   42       38.163325   0.000000
   43       38.163325   0.000000
   44       43.216738   0.000000
   45       43.216738   0.000000
   46       44.623816   0.000000
   47       44.623817   0.000000
   48       44.828598   0.000000
 
  0.3333333E+00  0.0000000E+00  0.0000000E+00  0.8230453E-02
    1        4.622830   1.000000
    2        5.241220   1.000000
    3        5.388437   1.000000
    4        5.388437   1.000000
    5        5.404808   1.000000
    6        5.755842   1.000000
    7        5.755842   1.000000
    8        6.653918   1.000000
    9        8.056605   1.000000
   10        8.056605   1.000000
   11        8.290869   1.000000
   12        8.290869   1.000000
   13        8.532390   1.000000
   14        9.475720   1.000000
   15        9.521023   1.000000
   16        9.521023   1.000000
   17        9.749580   1.000000
   18        9.749580   1.000000
   19       10.133439   1.000000
   20       10.727354   1.000000
   21       10.894123   1.000000
   22       10.894123   1.000000
   23       18.562840   0.000000
   24       18.562840   0.000000
   25       23.142105   0.000000
   26       23.142105   0.000000
   27       23.475978   0.000000
   28       23.475978   0.000000
   29       24.319043   0.000000
   30       24.319043   0.000000
   31       28.689839   0.000000
   32       28.689839   0.000000
   33       28.760104   0.000000
   34       31.444560   0.000000
   35       32.613197   0.000000
   36       33.947959   0.000000
   37       33.947959   0.000000
   38       34.092192   0.000000
   39       35.681433   0.000000
   40       37.277802   0.000000
   41       37.277802   0.000000
   42       40.659168   0.000000
   43       40.659168   0.000000
   44       42.654527   0.000000
   45       42.654527   0.000000
   46       42.686697   0.000000
   47       42.738946   0.000000
   48       42.738946   0.000000
 
  0.4444444E+00  0.0000000E+00  0.0000000E+00  0.8230453E-02
    1        5.290300   1.000000
    2        5.480427   1.000000
    3        5.713314   1.000000
    4        5.713314   1.000000
    5        5.787995   1.000000
    6        6.220660   1.000000
    7        6.439312   1.000000
    8        6.439312   1.000000
    9        7.293343   1.000000
   10        7.293343   1.000000
   11        8.521382   1.000000
   12        8.549252   1.000000
   13        8.549252   1.000000
   14        9.131667   1.000000
   15        9.131667   1.000000
   16        9.145243   1.000000
   17        9.145243   1.000000
   18        9.264378   1.000000
   19        9.684236   1.000000
   20        9.912520   1.000000
   21       10.894508   1.000000
   22       10.894508   1.000000
   23       20.263412   0.000000
   24       20.263412   0.000000
   25       21.936662   0.000000
   26       21.936662   0.000000
   27       23.093333   0.000000
   28       23.093333   0.000000
   29       23.986331   0.000000
   30       23.986331   0.000000
   31       30.458518   0.000000
   32       30.458518   0.000000
   33       30.622068   0.000000
   34       31.741330   0.000000
   35       32.321153   0.000000
   36       32.321153   0.000000
   37       32.370436   0.000000
   38       33.290525   0.000000
   39       36.966914   0.000000
   40       38.782151   0.000000
   41       38.782151   0.000000
   42       39.472259   0.000000
   43       40.611227   0.000000
   44       40.611227   0.000000
   45       42.981648   0.000000
   46       42.981648   0.000000
   47       43.363974   0.000000
   48       43.363975   0.000000
 
  0.1111111E+00  0.1111111E+00  0.0000000E+00  0.1646091E-01
    1        3.593104   1.000000
    2        4.769366   1.000000
    3        4.776160   1.000000
    4        4.776160   1.000000
    5        5.018159   1.000000
    6        5.018159   1.000000
    7        5.075609   1.000000
    8        7.251412   1.000000
    9        7.484567   1.000000
   10        7.524268   1.000000
   11        9.046166   1.000000
   12        9.185318   1.000000
   13       10.086518   1.000000
   14       10.107420   1.000000
   15       10.107420   1.000000
   16       10.236829   1.000000
   17       10.439352   1.000000
   18       10.439352   1.000000
   19       10.737023   1.000000
   20       10.737023   1.000000
   21       10.787862   1.000000
   22       14.792829  -0.000000
   23       14.792829  -0.000000
   24       16.119123  -0.000000
   25       23.239773   0.000000
   26       24.251534   0.000000
   27       24.251534   0.000000
   28       24.292303   0.000000
   29       25.910013   0.000000
   30       25.910013   0.000000
   31       25.949501   0.000000
   32       25.949501   0.000000
   33       26.584812   0.000000
   34       30.266292   0.000000
   35       33.716862   0.000000
   36       34.934398   0.000000
   37       35.263185   0.000000
   38       35.336128   0.000000
   39       35.336128   0.000000
   40       36.053788   0.000000
   41       36.201655   0.000000
   42       36.201655   0.000000
   43       37.471194   0.000000
   44       42.249430   0.000000
   45       44.368024   0.000000
   46       44.498409   0.000000
   47       45.115998   0.000000
   48       45.711491   0.000000
 
  0.2222222E+00  0.1111111E+00  0.0000000E+00  0.3292181E-01
    1        4.061959   1.000000
    2        5.016087   1.000000
    3        5.023477   1.000000
    4        5.077361   1.000000
    5        5.199290   1.000000
    6        5.313200   1.000000
    7        5.407710   1.000000
    8        7.031982   1.000000
    9        7.688383   1.000000
   10        7.711797   1.000000
   11        8.841444   1.000000
   12        9.144518   1.000000
   13        9.234652   1.000000
   14        9.297990   1.000000
   15        9.640844   1.000000
   16        9.907331   1.000000
   17       10.052498   1.000000
   18       10.318709   1.000000
   19       10.336767   1.000000
   20       10.734811   1.000000
   21       10.735561   1.000000
   22       13.140387   1.000000
   23       16.057934  -0.000000
   24       17.361444   0.000000
   25       22.756521   0.000000
   26       23.365249   0.000000
   27       24.231254   0.000000
   28       25.061746   0.000000
   29       25.198230   0.000000
   30       26.410764   0.000000
   31       26.761841   0.000000
   32       26.797310   0.000000
   33       26.876332   0.000000
   34       30.694198   0.000000
   35       32.474996   0.000000
   36       34.942582   0.000000
   37       35.018079   0.000000
   38       35.098910   0.000000
   39       36.084528   0.000000
   40       36.196592   0.000000
   41       36.218106   0.000000
   42       38.080435   0.000000
   43       39.510063   0.000000
   44       41.366947   0.000000
   45       43.441030   0.000000
   46       44.638632   0.000000
   47       44.667525   0.000000
   48       45.427266   0.000000
 
  0.3333333E+00  0.1111111E+00  0.0000000E+00  0.3292181E-01
    1        4.749630   1.000000
    2        5.359592   1.000000
    3        5.399067   1.000000
    4        5.485772   1.000000
    5        5.486744   1.000000
    6        5.798108   1.000000
    7        5.890080   1.000000
    8        6.679576   1.000000
    9        7.926578   1.000000
   10        8.052844   1.000000
   11        8.115504   1.000000
   12        8.234888   1.000000
   13        8.675380   1.000000
   14        9.021737   1.000000
   15        9.464495   1.000000
   16        9.510815   1.000000
   17        9.568978   1.000000
   18        9.745494   1.000000
   19       10.098684   1.000000
   20       10.725278   1.000000
   21       10.732852   1.000000
   22       11.474752   1.000000
   23       17.499438   0.000000
   24       18.912887   0.000000
   25       21.522961   0.000000
   26       23.297672   0.000000
   27       23.769116   0.000000
   28       24.022823   0.000000
   29       24.822730   0.000000
   30       26.314936   0.000000
   31       27.974879   0.000000
   32       28.244639   0.000000
   33       28.875484   0.000000
   34       31.187042   0.000000
   35       31.396318   0.000000
   36       34.207485   0.000000
   37       34.519447   0.000000
   38       35.142250   0.000000
   39       36.147527   0.000000
   40       36.591363   0.000000
   41       37.257590   0.000000
   42       39.992322   0.000000
   43       41.171575   0.000000
   44       41.915551   0.000000
   45       42.749537   0.000000
   46       43.020656   0.000000
   47       43.247368   0.000000
   48       43.563989   0.000000
 
  0.4444444E+00  0.1111111E+00  0.0000000E+00  0.3292181E-01
    1        5.408001   1.000000
    2        5.604504   1.000000
    3        5.773072   1.000000
    4        5.812291   1.000000
    5        5.853559   1.000000
    6        6.267328   1.000000
    7        6.462136   1.000000
    8        6.467617   1.000000
    9        7.199407   1.000000
   10        7.285932   1.000000
   11        8.003102   1.000000
   12        8.367757   1.000000
   13        8.543997   1.000000
   14        8.987322   1.000000
   15        9.124954   1.000000
   16        9.126505   1.000000
   17        9.166746   1.000000
   18        9.647340   1.000000
   19        9.805460   1.000000
   20       10.303045   1.000000
   21       10.726131   1.000000
   22       10.729414   1.000000
   23       18.927629   0.000000
   24       20.262256   0.000000
   25       20.575379   0.000000
   26       22.230658   0.000000
   27       23.382208   0.000000
   28       23.631842   0.000000
   29       25.049274   0.000000
   30       25.609909   0.000000
   31       29.276334   0.000000
   32       29.814623   0.000000
   33       30.401985   0.000000
   34       31.075583   0.000000
   35       31.188018   0.000000
   36       33.280111   0.000000
   37       33.621264   0.000000
   38       33.935501   0.000000
   39       37.715394   0.000000
   40       37.853183   0.000000
   41       38.805250   0.000000
   42       39.432058   0.000000
   43       40.064469   0.000000
   44       40.674702   0.000000
   45       42.594879   0.000000
   46       43.585665   0.000000
   47       43.951512   0.000000
   48       44.234750   0.000000
 
  0.2222222E+00  0.2222222E+00  0.0000000E+00  0.1646091E-01
    1        4.484829   1.000000
    2        5.173893   1.000000
    3        5.336334   1.000000
    4        5.336334   1.000000
    5        5.473208   1.000000
    6        5.473208   1.000000
    7        5.767915   1.000000
    8        6.954586   1.000000
    9        7.783325   1.000000
   10        7.785798   1.000000
   11        8.658971   1.000000
   12        8.658971   1.000000
   13        8.762453   1.000000
   14        8.767774   1.000000
   15        9.433582   1.000000
   16        9.648904   1.000000
   17       10.032907   1.000000
   18       10.032907   1.000000
   19       10.312475   1.000000
   20       10.312475   1.000000
   21       10.485566   1.000000
   22       14.333679  -0.000000
   23       14.333679  -0.000000
   24       18.427128   0.000000
   25       21.076977   0.000000
   26       23.302155   0.000000
   27       25.696431   0.000000
   28       25.696431   0.000000
   29       25.917996   0.000000
   30       25.917996   0.000000
   31       26.605898   0.000000
   32       26.605898   0.000000
   33       28.376582   0.000000
   34       30.745432   0.000000
   35       31.078775   0.000000
   36       34.056682   0.000000
   37       34.885191   0.000000
   38       35.890370   0.000000
   39       35.890370   0.000000
   40       37.811022   0.000000
   41       38.003031   0.000000
   42       38.003031   0.000000
   43       38.910671   0.000000
   44       41.694618   0.000000
   45       44.014798   0.000000
   46       44.500005   0.000000
   47       44.502235   0.000000
   48       44.560117   0.000000
 
  0.3333333E+00  0.2222222E+00  0.0000000E+00  0.3292181E-01
    1        5.103276   1.000000
    2        5.489523   1.000000
    3        5.694282   1.000000
    4        5.724599   1.000000
    5        5.766889   1.000000
    6        5.920482   1.000000
    7        6.217770   1.000000
    8        6.720553   1.000000
    9        7.725489   1.000000
   10        7.795181   1.000000
   11        8.042134   1.000000
   12        8.083322   1.000000
   13        8.101427   1.000000
   14        8.672554   1.000000
   15        9.289747   1.000000
   16        9.580013   1.000000
   17        9.736041   1.000000
   18        9.813746   1.000000
   19        9.822081   1.000000
   20       10.304552   1.000000
   21       10.354106   1.000000
   22       12.635927   1.000000
   23       15.630379  -0.000000
   24       19.555951   0.000000
   25       19.846735   0.000000
   26       23.370656   0.000000
   27       24.580853   0.000000
   28       24.732575   0.000000
   29       26.707620   0.000000
   30       26.914066   0.000000
   31       27.154841   0.000000
   32       28.786946   0.000000
   33       29.029645   0.000000
   34       29.891491   0.000000
   35       30.532706   0.000000
   36       34.375497   0.000000
   37       34.829124   0.000000
   38       35.589784   0.000000
   39       36.142457   0.000000
   40       37.192541   0.000000
   41       38.322043   0.000000
   42       39.035266   0.000000
   43       39.670170   0.000000
   44       43.036766   0.000000
   45       43.734387   0.000000
   46       43.870579   0.000000
   47       43.989620   0.000000
   48       44.005161   0.000000
 
  0.4444444E+00  0.2222222E+00  0.0000000E+00  0.3292181E-01
    1        5.724875   1.000000
    2        5.911175   1.000000
    3        5.953975   1.000000
    4        6.043112   1.000000
    5        6.094292   1.000000
    6        6.392344   1.000000
    7        6.523867   1.000000
    8        6.598207   1.000000
    9        6.985946   1.000000
   10        7.251550   1.000000
   11        7.609178   1.000000
   12        7.646319   1.000000
   13        8.546910   1.000000
   14        8.939971   1.000000
   15        9.032137   1.000000
   16        9.118962   1.000000
   17        9.153090   1.000000
   18        9.418279   1.000000
   19       10.299765   1.000000
   20       10.308498   1.000000
   21       10.399485   1.000000
   22       11.296433   1.000000
   23       16.920220   0.000000
   24       18.203280   0.000000
   25       21.426616   0.000000
   26       23.041181   0.000000
   27       23.584564   0.000000
   28       24.020265   0.000000
   29       27.453987   0.000000
   30       27.789163   0.000000
   31       28.188245   0.000000
   32       28.540797   0.000000
   33       28.840073   0.000000
   34       29.775004   0.000000
   35       31.432313   0.000000
   36       33.757796   0.000000
   37       34.936741   0.000000
   38       35.235319   0.000000
   39       35.950253   0.000000
   40       37.833802   0.000000
   41       38.857617   0.000000
   42       39.408934   0.000000
   43       40.844684   0.000000
   44       40.915393   0.000000
   45       41.780430   0.000000
   46       42.738105   0.000000
   47       43.972372   0.000000
   48       45.027377   0.000000
 
  0.3333333E+00  0.3333333E+00  0.0000000E+00  0.1646091E-01
    1        5.600055   1.000000
    2        5.707037   1.000000
    3        6.107099   1.000000
    4        6.107099   1.000000
    5        6.170861   1.000000
    6        6.170861   1.000000
    7        6.619423   1.000000
    8        6.689922   1.000000
    9        7.298316   1.000000
   10        7.298316   1.000000
   11        7.671416   1.000000
   12        7.724031   1.000000
   13        8.250782   1.000000
   14        8.489198   1.000000
   15        9.017874   1.000000
   16        9.404430   1.000000
   17        9.404430   1.000000
   18        9.730829   1.000000
   19        9.730829   1.000000
   20       10.017996   1.000000
   21       10.433522   1.000000
   22       13.850528   0.854572
   23       13.850528   0.854572
   24       17.852392   0.000000
   25       21.147853   0.000000
   26       23.560017   0.000000
   27       25.503468   0.000000
   28       25.503468   0.000000
   29       25.749948   0.000000
   30       25.749948   0.000000
   31       28.591753   0.000000
   32       29.361974   0.000000
   33       29.361974   0.000000
   34       29.594290   0.000000
   35       30.960653   0.000000
   36       33.096332   0.000000
   37       35.409613   0.000000
   38       35.590639   0.000000
   39       37.059023   0.000000
   40       37.059023   0.000000
   41       38.479038   0.000000
   42       38.479038   0.000000
   43       39.270237   0.000000
   44       43.274786   0.000000
   45       43.657375   0.000000
   46       43.855028   0.000000
   47       44.116416   0.000000
   48       44.355160   0.000000
 
  0.4444444E+00  0.3333333E+00  0.0000000E+00  0.3292181E-01
    1        6.063695   1.000000
    2        6.108777   1.000000
    3        6.329818   1.000000
    4        6.432397   1.000000
    5        6.486037   1.000000
    6        6.544616   1.000000
    7        6.602878   1.000000
    8        6.795305   1.000000
    9        6.881459   1.000000
   10        7.094318   1.000000
   11        7.155997   1.000000
   12        7.441965   1.000000
   13        8.612779   1.000000
   14        8.614173   1.000000
   15        8.818287   1.000000
   16        8.981275   1.000000
   17        9.028560   1.000000
   18        9.134317   1.000000
   19        9.748765   1.000000
   20        9.826084   1.000000
   21       11.274563   1.000000
   22       12.387669   1.000000
   23       15.089088  -0.000000
   24       16.392783  -0.000000
   25       22.642597   0.000000
   26       23.936866   0.000000
   27       24.209401   0.000000
   28       24.570801   0.000000
   29       26.433598   0.000000
   30       27.088630   0.000000
   31       27.462501   0.000000
   32       28.418246   0.000000
   33       29.964269   0.000000
   34       30.833666   0.000000
   35       31.663343   0.000000
   36       33.686830   0.000000
   37       34.396577   0.000000
   38       36.297562   0.000000
   39       36.660307   0.000000
   40       36.790803   0.000000
   41       38.535729   0.000000
   42       38.851331   0.000000
   43       39.005822   0.000000
   44       40.956640   0.000000
   45       43.768426   0.000000
   46       44.150642   0.000000
   47       44.258668   0.000000
   48       44.314493   0.000000
 
  0.4444444E+00  0.4444444E+00  0.0000000E+00  0.1646091E-01
    1        6.254580   1.000000
    2        6.368493   1.000000
    3        6.516964   1.000000
    4        6.516964   1.000000
    5        6.649167   1.000000
    6        6.661021   1.000000
    7        6.661021   1.000000
    8        6.958331   1.000000
    9        7.074247   1.000000
   10        7.074247   1.000000
   11        7.167098   1.000000
   12        7.408780   1.000000
   13        8.391434   1.000000
   14        8.565701   1.000000
   15        8.639085   1.000000
   16        8.639085   1.000000
   17        8.825551   1.000000
   18        9.220316   1.000000
   19        9.220316   1.000000
   20        9.440591   1.000000
   21       12.311997   1.000000
   22       13.558045   1.000009
   23       13.558045   1.000009
   24       14.863767  -0.000000
   25       24.063668   0.000000
   26       24.506597   0.000000
   27       25.333140   0.000000
   28       25.333140   0.000000
   29       25.573359   0.000000
   30       25.573359   0.000000
   31       26.297968   0.000000
   32       27.004611   0.000000
   33       32.100755   0.000000
   34       32.100755   0.000000
   35       32.645944   0.000000
   36       33.271926   0.000000
   37       34.018794   0.000000
   38       36.292308   0.000000
   39       36.292308   0.000000
   40       37.211858   0.000000
   41       37.599248   0.000000
   42       38.523672   0.000000
   43       38.523672   0.000000
   44       40.214806   0.000000
   45       43.253128   0.000000
   46       43.359605   0.000000
   47       43.686507   0.000000
   48       43.686507   0.000000
 
  0.1111111E+00  0.1111111E+00  0.1111111E+00  0.1097394E-01
    1        3.749160   1.000000
    2        4.854065   1.000000
    3        4.854065   1.000000
    4        4.854065   1.000000
    5        5.139719   1.000000
    6        5.139719   1.000000
    7        5.139719   1.000000
    8        7.233276   1.000000
    9        7.540204   1.000000
   10        7.540204   1.000000
   11        9.101527   1.000000
   12        9.101527   1.000000
   13        9.913320   1.000000
   14        9.913320   1.000000
   15        9.913320   1.000000
   16       10.099305   1.000000
   17       10.099305   1.000000
   18       10.099305   1.000000
   19       10.753035   1.000000
   20       10.753035   1.000000
   21       10.753035   1.000000
   22       15.286613  -0.000000
   23       15.286613  -0.000000
   24       15.286613  -0.000000
   25       24.166693   0.000000
   26       24.166693   0.000000
   27       24.166693   0.000000
   28       24.665679   0.000000
   29       24.665679   0.000000
   30       24.665679   0.000000
   31       26.895667   0.000000
   32       26.895667   0.000000
   33       26.895667   0.000000
   34       30.380901   0.000000
   35       32.867828   0.000000
   36       34.819922   0.000000
   37       34.819922   0.000000
   38       34.819922   0.000000
   39       35.985880   0.000000
   40       35.985880   0.000000
   41       37.444602   0.000000
   42       37.444602   0.000000
   43       37.444602   0.000000
   44       41.851498   0.000000
   45       44.058938   0.000000
   46       44.058938   0.000000
   47       45.347243   0.000000
   48       45.783262   0.000000
 
  0.2222222E+00  0.1111111E+00  0.1111111E+00  0.3292181E-01
    1        4.194820   1.000000
    2        5.082844   1.000000
    3        5.093666   1.000000
    4        5.093666   1.000000
    5        5.333962   1.000000
    6        5.472739   1.000000
    7        5.472739   1.000000
    8        7.060578   1.000000
    9        7.699163   1.000000
   10        7.706423   1.000000
   11        8.901340   1.000000
   12        9.044414   1.000000
   13        9.044414   1.000000
   14        9.260519   1.000000
   15        9.441566   1.000000
   16        9.748940   1.000000
   17        9.832667   1.000000
   18        9.832667   1.000000
   19       10.626528   1.000000
   20       10.693765   1.000000
   21       10.693765   1.000000
   22       13.591913   1.000067
   23       16.419299  -0.000000
   24       16.419299  -0.000000
   25       23.072702   0.000000
   26       23.072702   0.000000
   27       24.417762   0.000000
   28       24.417762   0.000000
   29       25.345478   0.000000
   30       26.485322   0.000000
   31       27.054367   0.000000
   32       27.054367   0.000000
   33       27.789303   0.000000
   34       30.573968   0.000000
   35       31.792457   0.000000
   36       34.521657   0.000000
   37       34.993680   0.000000
   38       34.993680   0.000000
   39       35.586101   0.000000
   40       36.521713   0.000000
   41       37.458343   0.000000
   42       39.470687   0.000000
   43       39.470687   0.000000
   44       40.999978   0.000000
   45       42.615327   0.000000
   46       44.252757   0.000000
   47       44.663796   0.000000
   48       44.663800   0.000000
 
  0.3333333E+00  0.1111111E+00  0.1111111E+00  0.3292181E-01
    1        4.842262   1.000000
    2        5.377832   1.000000
    3        5.475749   1.000000
    4        5.475749   1.000000
    5        5.653726   1.000000
    6        5.940583   1.000000
    7        5.940583   1.000000
    8        6.749442   1.000000
    9        7.871154   1.000000
   10        7.980688   1.000000
   11        8.089556   1.000000
   12        8.089556   1.000000
   13        8.787660   1.000000
   14        8.846655   1.000000
   15        9.288546   1.000000
   16        9.444314   1.000000
   17        9.444314   1.000000
   18        9.503489   1.000000
   19       10.403579   1.000000
   20       10.642313   1.000000
   21       10.642313   1.000000
   22       11.853862   1.000000
   23       17.767454   0.000000
   24       17.767454   0.000000
   25       21.781371   0.000000
   26       21.781371   0.000000
   27       24.576918   0.000000
   28       24.576918   0.000000
   29       26.500611   0.000000
   30       26.500611   0.000000
   31       26.550329   0.000000
   32       28.867555   0.000000
   33       29.165257   0.000000
   34       30.070385   0.000000
   35       31.621923   0.000000
   36       34.155332   0.000000
   37       34.477007   0.000000
   38       35.812937   0.000000
   39       36.032352   0.000000
   40       36.032352   0.000000
   41       37.777530   0.000000
   42       40.907677   0.000000
   43       41.230469   0.000000
   44       41.230469   0.000000
   45       42.129039   0.000000
   46       43.456048   0.000000
   47       43.456048   0.000000
   48       43.854514   0.000000
 
  0.4444444E+00  0.1111111E+00  0.1111111E+00  0.3292181E-01
    1        5.450276   1.000000
    2        5.605766   1.000000