       N       E                     dE             d eps       ncg     rms          rms(c)
DAV:   1     0.201575287720E+03    0.20158E+03   -0.18886E+04  3360   0.776E+02
DAV:   2    -0.490630623197E+01   -0.20648E+03   -0.19640E+03  4488   0.199E+02
DAV:   3    -0.803341400692E+01   -0.31271E+01   -0.31253E+01  4008   0.257E+01
DAV:   4    -0.804161328228E+01   -0.81993E-02   -0.81991E-02  4656   0.138E+00
DAV:   5    -0.804166994932E+01   -0.56667E-04   -0.56665E-04  3792   0.111E-01    0.263E+01
DAV:   6    -0.697060724388E+01    0.10711E+01   -0.16163E+00  4416   0.786E+00    0.153E+01
DAV:   7    -0.682188833780E+01    0.14872E+00   -0.18625E-01  4392   0.264E+00    0.461E+00
DAV:   8    -0.680404619694E+01    0.17842E-01   -0.19477E-02  4080   0.809E-01    0.352E-01
DAV:   9    -0.680407604677E+01   -0.29850E-04   -0.53618E-05  3552   0.381E-02
   1 F= -.68040760E+01 E0= -.68032754E+01  d E =-.240192E-02
