 vasp.5.4.1 05Feb16 (build Feb 08 2018 09:21:51) complex                        
  
 executed on             LinuxIFC date 2019.11.21  15:54:08
 running on   24 total cores
 distrk:  each k-point on   24 cores,    1 groups
 distr:  one band on NCORES_PER_BAND=   1 cores,   24 groups


--------------------------------------------------------------------------------------------------------


 INCAR:
 POTCAR:    PAW_PBE Ag 02Apr2005                  

 ----------------------------------------------------------------------------- 
|                                                                             |
|           W    W    AA    RRRRR   N    N  II  N    N   GGGG   !!!           |
|           W    W   A  A   R    R  NN   N  II  NN   N  G    G  !!!           |
|           W    W  A    A  R    R  N N  N  II  N N  N  G       !!!           |
|           W WW W  AAAAAA  RRRRR   N  N N  II  N  N N  G  GGG   !            |
|           WW  WW  A    A  R   R   N   NN  II  N   NN  G    G                |
|           W    W  A    A  R    R  N    N  II  N    N   GGGG   !!!           |
|                                                                             |
|      For optimal performance we recommend to set                            |
|        NCORE= 4 - approx SQRT( number of cores)                             |
|      NCORE specifies how many cores store one orbital (NPAR=cpu/NCORE).     |
|      This setting can  greatly improve the performance of VASP for DFT.     |
|      The default, NPAR=number of cores might be grossly inefficient         |
|      on modern multi-core architectures or massively parallel machines.     |
|      Do your own testing !!!!                                               |
|      Unfortunately you need to use the default for GW and RPA calculations. |
|      (for HF NCORE is supported but not extensively tested yet)             |
|                                                                             |
 ----------------------------------------------------------------------------- 

 POTCAR:    PAW_PBE Ag 02Apr2005                  
   VRHFIN =Ag : s1 d10                                                          
   LEXCH  = PE                                                                  
   EATOM  =  1037.2675 eV,   76.2370 Ry                                         
                                                                                
   TITEL  = PAW_PBE Ag 02Apr2005                                                
   LULTRA =        F    use ultrasoft PP ?                                      
   IUNSCR =        1    unscreen: 0-lin 1-nonlin 2-no                           
   RPACOR =    2.000    partial core radius                                     
   POMASS =  107.868; ZVAL   =   11.000    mass and valenz                      
   RCORE  =    2.500    outmost cutoff radius                                   
   RWIGS  =    2.840; RWIGS  =    1.503    wigner-seitz radius (au A)           
   ENMAX  =  249.844; ENMIN  =  187.383 eV                                      
   ICORE  =        3    local potential                                         
   LCOR   =        T    correct aug charges                                     
   LPAW   =        T    paw PP                                                  
   EAUG   =  412.496                                                            
   DEXC   =    0.000                                                            
   RMAX   =    2.560    core radius for proj-oper                               
   RAUG   =    1.300    factor for augmentation sphere                          
   RDEP   =    2.576    radius for radial grids                                 
   RDEPT  =    2.072    core radius for aug-charge                              
                                                                                
   Atomic configuration                                                         
   12 entries                                                                   
     n  l   j            E        occ.                                          
     1  0  0.50    -25324.9161   2.0000                                         
     2  0  0.50     -3728.5341   2.0000                                         
     2  1  1.50     -3344.0404   6.0000                                         
     3  0  0.50      -683.5581   2.0000                                         
     3  1  1.50      -557.3225   6.0000                                         
     3  2  2.50      -358.3853  10.0000                                         
     4  0  0.50       -95.0341   2.0000                                         
     4  1  1.50       -58.5511   6.0000                                         
     4  2  2.50        -7.4440  10.0000                                         
     5  0  0.50        -4.4045   1.0000                                         
     5  1  0.50        -1.3606   0.0000                                         
     4  3  2.50        -1.3606   0.0000                                         
   Description                                                                  
     l       E           TYP  RCUT    TYP  RCUT                                 
     2     -7.4439781     23  2.400                                             
     2     -8.8045607     23  2.400                                             
     0     -4.4044681     23  2.400                                             
     0      1.9520038     23  2.400                                             
     1     -1.3605826     23  2.500                                             
     1     27.2116520     23  2.500                                             
     3     -4.0817478     23  2.400                                             
  local pseudopotential read in
  partial core-charges read in
  partial kinetic energy density read in
  atomic valenz-charges read in
  non local Contribution for L=           2  read in
    real space projection operators read in
  non local Contribution for L=           2  read in
    real space projection operators read in
  non local Contribution for L=           0  read in
    real space projection operators read in
  non local Contribution for L=           0  read in
    real space projection operators read in
  non local Contribution for L=           1  read in
    real space projection operators read in
  non local Contribution for L=           1  read in
    real space projection operators read in
    PAW grid and wavefunctions read in
 
   number of l-projection  operators is LMAX  =           6
   number of lm-projection operators is LMMAX =          18
 
  PAW_PBE Ag 02Apr2005                  :
 energy of atom  1       EATOM=-1037.2675
 kinetic energy error for atom=    0.0091 (will be added to EATOM!!)
 
 
 POSCAR: Ag                                      
  positions in cartesian coordinates
  No initial velocities read in
 exchange correlation table for  LEXCH =        8
   RHO(1)=    0.500       N(1)  =     2000
   RHO(2)=  100.500       N(2)  =     4000
 


--------------------------------------------------------------------------------------------------------


 ion  position               nearest neighbor table
   1  0.000  0.000  0.000-   2 2.60   3 2.60   4 2.60   2 2.60   3 2.60   2 2.60   4 2.60   2 2.60
                             3 2.60   4 2.60   3 2.60   4 2.60
   2  0.000  0.500  0.500-   1 2.60   3 2.60   4 2.60   1 2.60   4 2.60   1 2.60   3 2.60   1 2.60
                             3 2.60   4 2.60   4 2.60   3 2.60
   3  0.500  0.000  0.500-   1 2.60   2 2.60   4 2.60   1 2.60   4 2.60   2 2.60   4 2.60   4 2.60
                             1 2.60   2 2.60   1 2.60   2 2.60
   4  0.500  0.500  0.000-   1 2.60   2 2.60   3 2.60   2 2.60   3 2.60   1 2.60   3 2.60   3 2.60
                             1 2.60   2 2.60   2 2.60   1 2.60
 
  LATTYP: Found a simple cubic cell.
 ALAT       =     3.6810000000
  
  Lattice vectors:
  
 A1 = (   3.6810000000,   0.0000000000,   0.0000000000)
 A2 = (   0.0000000000,   3.6810000000,   0.0000000000)
 A3 = (   0.0000000000,   0.0000000000,   3.6810000000)


Analysis of symmetry for initial positions (statically):
=====================================================================
 Subroutine PRICEL returns following result:
 
  LATTYP: Found a face centered cubic cell.
 ALAT       =     3.6810000000
  
  Lattice vectors:
  
 A1 = (   1.8405000000,   1.8405000000,   0.0000000000)
 A2 = (   1.8405000000,   0.0000000000,  -1.8405000000)
 A3 = (   0.0000000000,   1.8405000000,  -1.8405000000)
 
   4 primitive cells build up your supercell.
 

 Routine SETGRP: Setting up the symmetry group for a 
 simple cubic supercell.


 Subroutine GETGRP returns: Found 48 space group operations
 (whereof 48 operations were pure point group operations)
 out of a pool of 48 trial point group operations.


The static configuration has the point symmetry O_h .


Analysis of symmetry for dynamics (positions and initial velocities):
=====================================================================
 Subroutine PRICEL returns following result:
 
  LATTYP: Found a face centered cubic cell.
 ALAT       =     3.6810000000
  
  Lattice vectors:
  
 A1 = (   1.8405000000,   1.8405000000,   0.0000000000)
 A2 = (   1.8405000000,   0.0000000000,  -1.8405000000)
 A3 = (   0.0000000000,   1.8405000000,  -1.8405000000)
 
   4 primitive cells build up your supercell.
 

 Routine SETGRP: Setting up the symmetry group for a 
 simple cubic supercell.


 Subroutine GETGRP returns: Found 48 space group operations
 (whereof 48 operations were pure point group operations)
 out of a pool of 48 trial point group operations.


The dynamic configuration has the point symmetry O_h .


 Subroutine INISYM returns: Found 48 space group operations
 (whereof 48 operations are pure point group operations),
 and found     4 'primitive' translations

 
 
 KPOINTS: KPOINTS created by Atomic Simulation Env

Automatic generation of k-mesh.
Space group operators:
 irot       det(A)        alpha          n_x          n_y          n_z        tau_x        tau_y        tau_z
    1     1.000000     0.000001     1.000000     0.000000     0.000000     0.000000     0.000000     0.000000
    2    -1.000000     0.000001     1.000000     0.000000     0.000000     0.000000     0.000000     0.000000
    3     1.000000   120.000000    -0.577350    -0.577350    -0.577350     0.000000     0.000000     0.000000
    4    -1.000000   120.000000    -0.577350    -0.577350    -0.577350     0.000000     0.000000     0.000000
    5     1.000000   120.000000     0.577350     0.577350     0.577350     0.000000     0.000000     0.000000
    6    -1.000000   120.000000     0.577350     0.577350     0.577350     0.000000     0.000000     0.000000
    7     1.000000    90.000000     0.000000     0.000000    -1.000000     0.000000     0.000000     0.000000
    8    -1.000000    90.000000     0.000000     0.000000    -1.000000     0.000000     0.000000     0.000000
    9     1.000000   180.000000     0.000000     0.707107     0.707107     0.000000     0.000000     0.000000
   10    -1.000000   180.000000     0.000000     0.707107     0.707107     0.000000     0.000000     0.000000
   11     1.000000    90.000000     0.000000     1.000000     0.000000     0.000000     0.000000     0.000000
   12    -1.000000    90.000000     0.000000     1.000000     0.000000     0.000000     0.000000     0.000000
   13     1.000000   180.000000     0.000000     0.000000     1.000000     0.000000     0.000000     0.000000
   14    -1.000000   180.000000     0.000000     0.000000     1.000000     0.000000     0.000000     0.000000
   15     1.000000   120.000000    -0.577350     0.577350     0.577350     0.000000     0.000000     0.000000
   16    -1.000000   120.000000    -0.577350     0.577350     0.577350     0.000000     0.000000     0.000000
   17     1.000000   120.000000    -0.577350     0.577350    -0.577350     0.000000     0.000000     0.000000
   18    -1.000000   120.000000    -0.577350     0.577350    -0.577350     0.000000     0.000000     0.000000
   19     1.000000    90.000000     0.000000     0.000000     1.000000     0.000000     0.000000     0.000000
   20    -1.000000    90.000000     0.000000     0.000000     1.000000     0.000000     0.000000     0.000000
   21     1.000000    90.000000    -1.000000     0.000000     0.000000     0.000000     0.000000     0.000000
   22    -1.000000    90.000000    -1.000000     0.000000     0.000000     0.000000     0.000000     0.000000
   23     1.000000   180.000000     0.707107     0.000000     0.707107     0.000000     0.000000     0.000000
   24    -1.000000   180.000000     0.707107     0.000000     0.707107     0.000000     0.000000     0.000000
   25     1.000000   120.000000     0.577350    -0.577350     0.577350     0.000000     0.000000     0.000000
   26    -1.000000   120.000000     0.577350    -0.577350     0.577350     0.000000     0.000000     0.000000
   27     1.000000   120.000000    -0.577350    -0.577350     0.577350     0.000000     0.000000     0.000000
   28    -1.000000   120.000000    -0.577350    -0.577350     0.577350     0.000000     0.000000     0.000000
   29     1.000000   180.000000     1.000000     0.000000     0.000000     0.000000     0.000000     0.000000
   30    -1.000000   180.000000     1.000000     0.000000     0.000000     0.000000     0.000000     0.000000
   31     1.000000    90.000000     0.000000    -1.000000     0.000000     0.000000     0.000000     0.000000
   32    -1.000000    90.000000     0.000000    -1.000000     0.000000     0.000000     0.000000     0.000000
   33     1.000000   180.000000     0.707107     0.707107     0.000000     0.000000     0.000000     0.000000
   34    -1.000000   180.000000     0.707107     0.707107     0.000000     0.000000     0.000000     0.000000
   35     1.000000    90.000000     1.000000     0.000000     0.000000     0.000000     0.000000     0.000000
   36    -1.000000    90.000000     1.000000     0.000000     0.000000     0.000000     0.000000     0.000000
   37     1.000000   120.000000     0.577350    -0.577350    -0.577350     0.000000     0.000000     0.000000
   38    -1.000000   120.000000     0.577350    -0.577350    -0.577350     0.000000     0.000000     0.000000
   39     1.000000   180.000000     0.000000     1.000000     0.000000     0.000000     0.000000     0.000000
   40    -1.000000   180.000000     0.000000     1.000000     0.000000     0.000000     0.000000     0.000000
   41     1.000000   120.000000     0.577350     0.577350    -0.577350     0.000000     0.000000     0.000000
   42    -1.000000   120.000000     0.577350     0.577350    -0.577350     0.000000     0.000000     0.000000
   43     1.000000   180.000000     0.000000    -0.707107     0.707107     0.000000     0.000000     0.000000
   44    -1.000000   180.000000     0.000000    -0.707107     0.707107     0.000000     0.000000     0.000000
   45     1.000000   180.000000     0.707107    -0.707107     0.000000     0.000000     0.000000     0.000000
   46    -1.000000   180.000000     0.707107    -0.707107     0.000000     0.000000     0.000000     0.000000
   47     1.000000   180.000000     0.707107     0.000000    -0.707107     0.000000     0.000000     0.000000
   48    -1.000000   180.000000     0.707107     0.000000    -0.707107     0.000000     0.000000     0.000000
 
 Subroutine IBZKPT returns following result:
 ===========================================
 
 Found     35 irreducible k-points:
 
 Following reciprocal coordinates:
            Coordinates               Weight
  0.000000  0.000000  0.000000      1.000000
  0.111111  0.000000  0.000000      6.000000
  0.222222  0.000000  0.000000      6.000000
  0.333333  0.000000  0.000000      6.000000
  0.444444  0.000000  0.000000      6.000000
  0.111111  0.111111  0.000000     12.000000
  0.222222  0.111111  0.000000     24.000000
  0.333333  0.111111  0.000000     24.000000
  0.444444  0.111111  0.000000     24.000000
  0.222222  0.222222  0.000000     12.000000
  0.333333  0.222222  0.000000     24.000000
  0.444444  0.222222  0.000000     24.000000
  0.333333  0.333333  0.000000     12.000000
  0.444444  0.333333  0.000000     24.000000
  0.444444  0.444444  0.000000     12.000000
  0.111111  0.111111  0.111111      8.000000
  0.222222  0.111111  0.111111     24.000000
  0.333333  0.111111  0.111111     24.000000
  0.444444  0.111111  0.111111     24.000000
  0.222222  0.222222  0.111111     24.000000
  0.333333  0.222222  0.111111     48.000000
  0.444444  0.222222  0.111111     48.000000
  0.333333  0.333333  0.111111     24.000000
  0.444444  0.333333  0.111111     48.000000
  0.444444  0.444444  0.111111     24.000000
  0.222222  0.222222  0.222222      8.000000
  0.333333  0.222222  0.222222     24.000000
  0.444444  0.222222  0.222222     24.000000
  0.333333  0.333333  0.222222     24.000000
  0.444444  0.333333  0.222222     48.000000
  0.444444  0.444444  0.222222     24.000000
  0.333333  0.333333  0.333333      8.000000
  0.444444  0.333333  0.333333     24.000000
  0.444444  0.444444  0.333333     24.000000
  0.444444  0.444444  0.444444      8.000000
 
 Following cartesian coordinates:
            Coordinates               Weight
  0.000000  0.000000  0.000000      1.000000
  0.030185  0.000000  0.000000      6.000000
  0.060370  0.000000  0.000000      6.000000
  0.090555  0.000000  0.000000      6.000000
  0.120740  0.000000  0.000000      6.000000
  0.030185  0.030185  0.000000     12.000000
  0.060370  0.030185  0.000000     24.000000
  0.090555  0.030185  0.000000     24.000000
  0.120740  0.030185  0.000000     24.000000
  0.060370  0.060370  0.000000     12.000000
  0.090555  0.060370  0.000000     24.000000
  0.120740  0.060370  0.000000     24.000000
  0.090555  0.090555  0.000000     12.000000
  0.120740  0.090555  0.000000     24.000000
  0.120740  0.120740  0.000000     12.000000
  0.030185  0.030185  0.030185      8.000000
  0.060370  0.030185  0.030185     24.000000
  0.090555  0.030185  0.030185     24.000000
  0.120740  0.030185  0.030185     24.000000
  0.060370  0.060370  0.030185     24.000000
  0.090555  0.060370  0.030185     48.000000
  0.120740  0.060370  0.030185     48.000000
  0.090555  0.090555  0.030185     24.000000
  0.120740  0.090555  0.030185     48.000000
  0.120740  0.120740  0.030185     24.000000
  0.060370  0.060370  0.060370      8.000000
  0.090555  0.060370  0.060370     24.000000
  0.120740  0.060370  0.060370     24.000000
  0.090555  0.090555  0.060370     24.000000
  0.120740  0.090555  0.060370     48.000000
  0.120740  0.120740  0.060370     24.000000
  0.090555  0.090555  0.090555      8.000000
  0.120740  0.090555  0.090555     24.000000
  0.120740  0.120740  0.090555     24.000000
  0.120740  0.120740  0.120740      8.000000
 


--------------------------------------------------------------------------------------------------------




 Dimension of arrays:
   k-points           NKPTS =     35   k-points in BZ     NKDIM =     35   number of bands    NBANDS=     48
   number of dos      NEDOS =    301   number of ions     NIONS =      4
   non local maximal  LDIM  =      6   non local SUM 2l+1 LMDIM =     18
   total plane-waves  NPLWV =   5832
   max r-space proj   IRMAX =      1   max aug-charges    IRDMAX=   5948
   dimension x,y,z NGX =    18 NGY =   18 NGZ =   18
   dimension x,y,z NGXF=    36 NGYF=   36 NGZF=   36
   support grid    NGXF=    36 NGYF=   36 NGZF=   36
   ions per type =               4
 NGX,Y,Z   is equivalent  to a cutoff of   8.13,  8.13,  8.13 a.u.
 NGXF,Y,Z  is equivalent  to a cutoff of  16.26, 16.26, 16.26 a.u.


 I would recommend the setting:
   dimension x,y,z NGX =    18 NGY =   18 NGZ =   18
 SYSTEM =  unknown system                          
 POSCAR =  Ag                                      

 Startparameter for this run:
   NWRITE =      2    write-flag & timer
   PREC   = normal    normal or accurate (medium, high low for compatibility)
   ISTART =      0    job   : 0-new  1-cont  2-samecut
   ICHARG =      2    charge: 1-file 2-atom 10-const
   ISPIN  =      1    spin polarized calculation?
   LNONCOLLINEAR =      F non collinear calculations
   LSORBIT =      F    spin-orbit coupling
   INIWAV =      1    electr: 0-lowe 1-rand  2-diag
   LASPH  =      F    aspherical Exc in radial PAW
   METAGGA=      F    non-selfconsistent MetaGGA calc.

 Electronic Relaxation 1
   ENCUT  =  400.0 eV  29.40 Ry    5.42 a.u.   6.00  6.00  6.00*2*pi/ulx,y,z
   ENINI  =  400.0     initial cutoff
   ENAUG  =  412.5 eV  augmentation charge cutoff
   NELM   =     60;   NELMIN=  2; NELMDL= -5     # of ELM steps 
   EDIFF  = 0.1E-03   stopping-criterion for ELM
   LREAL  =      F    real-space projection
   NLSPLINE    = F    spline interpolate recip. space projectors
   LCOMPAT=      F    compatible to vasp.4.4
   GGA_COMPAT  = T    GGA compatible to vasp.4.4-vasp.4.6
   LMAXPAW     = -100 max onsite density
   LMAXMIX     =    2 max onsite mixed and CHGCAR
   VOSKOWN=      0    Vosko Wilk Nusair interpolation
   ROPT   =    0.00000
 Ionic relaxation
   EDIFFG = 0.1E-02   stopping-criterion for IOM
   NSW    =      0    number of steps for IOM
   NBLOCK =      1;   KBLOCK =      1    inner block; outer block 
   IBRION =     -1    ionic relax: 0-MD 1-quasi-New 2-CG
   NFREE  =      0    steps in history (QN), initial steepest desc. (CG)
   ISIF   =      2    stress and relaxation
   IWAVPR =     10    prediction:  0-non 1-charg 2-wave 3-comb
   ISYM   =      2    0-nonsym 1-usesym 2-fastsym
   LCORR  =      T    Harris-Foulkes like correction to forces

   POTIM  = 0.5000    time-step for ionic-motion
   TEIN   =    0.0    initial temperature
   TEBEG  =    0.0;   TEEND  =   0.0 temperature during run
   SMASS  =  -3.00    Nose mass-parameter (am)
   estimated Nose-frequenzy (Omega)   =  0.10E-29 period in steps =****** mass=  -0.310E-27a.u.
   SCALEE = 1.0000    scale energy and forces
   NPACO  =    256;   APACO  = 16.0  distance and # of slots for P.C.
   PSTRESS=    0.0 pullay stress

  Mass of Ions in am
   POMASS = 107.87
  Ionic Valenz
   ZVAL   =  11.00
  Atomic Wigner-Seitz radii
   RWIGS  =  -1.00
  virtual crystal weights 
   VCA    =   1.00
   NELECT =      44.0000    total number of electrons
   NUPDOWN=      -1.0000    fix difference up-down

 DOS related values:
   EMIN   =  10.00;   EMAX   =-10.00  energy-range for DOS
   EFERMI =   0.00
   ISMEAR =     1;   SIGMA  =   0.10  broadening in eV -4-tet -1-fermi 0-gaus

 Electronic relaxation 2 (details)
   IALGO  =     38    algorithm
   LDIAG  =      T    sub-space diagonalisation (order eigenvalues)
   LSUBROT=      F    optimize rotation matrix (better conditioning)
   TURBO    =      0    0=normal 1=particle mesh
   IRESTART =      0    0=no restart 2=restart with 2 vectors
   NREBOOT  =      0    no. of reboots
   NMIN     =      0    reboot dimension
   EREF     =   0.00    reference energy to select bands
   IMIX   =      4    mixing-type and parameters
     AMIX     =   0.40;   BMIX     =  1.00
     AMIX_MAG =   1.60;   BMIX_MAG =  1.00
     AMIN     =   0.10
     WC   =   100.;   INIMIX=   1;  MIXPRE=   1;  MAXMIX= -45

 Intra band minimization:
   WEIMIN = 0.0000     energy-eigenvalue tresh-hold
   EBREAK =  0.52E-06  absolut break condition
   DEPER  =   0.30     relativ break condition  

   TIME   =   0.40     timestep for ELM

  volume/ion in A,a.u.               =      12.47        84.15
  Fermi-wavevector in a.u.,A,eV,Ry     =   1.570097  2.967054 33.541158  2.465206
  Thomas-Fermi vector in A             =   2.671881
 
 Write flags
   LWAVE  =      F    write WAVECAR
   LCHARG =      F    write CHGCAR
   LVTOT  =      F    write LOCPOT, total local potential
   LVHAR  =      F    write LOCPOT, Hartree potential only
   LELF   =      F    write electronic localiz. function (ELF)
   LORBIT =      0    0 simple, 1 ext, 2 COOP (PROOUT)


 Dipole corrections
   LMONO  =      F    monopole corrections only (constant potential shift)
   LDIPOL =      F    correct potential (dipole corrections)
   IDIPOL =      0    1-x, 2-y, 3-z, 4-all directions 
   EPSILON=  1.0000000 bulk dielectric constant

 Exchange correlation treatment:
   GGA     =    --    GGA type
   LEXCH   =     8    internal setting for exchange type
   VOSKOWN=      0    Vosko Wilk Nusair interpolation
   LHFCALC =     F    Hartree Fock is set to
   LHFONE  =     F    Hartree Fock one center treatment
   AEXX    =    0.0000 exact exchange contribution

 Linear response parameters
   LEPSILON=     F    determine dielectric tensor
   LRPA    =     F    only Hartree local field effects (RPA)
   LNABLA  =     F    use nabla operator in PAW spheres
   LVEL    =     F    velocity operator in full k-point grid
   LINTERFAST=   F  fast interpolation
   KINTER  =     0    interpolate to denser k-point grid
   CSHIFT  =0.1000    complex shift for real part using Kramers Kronig
   OMEGAMAX=  -1.0    maximum frequency
   DEG_THRESHOLD= 0.2000000E-02 threshold for treating states as degnerate
   RTIME   =    0.100 relaxation time in fs

 Orbital magnetization related:
   ORBITALMAG=     F  switch on orbital magnetization
   LCHIMAG   =     F  perturbation theory with respect to B field
   DQ        =  0.001000  dq finite difference perturbation B field



--------------------------------------------------------------------------------------------------------


 Static calculation
 charge density and potential will be updated during run
 non-spin polarized calculation
 Variant of blocked Davidson
 Davidson routine will perform the subspace rotation
 perform sub-space diagonalisation
    after iterative eigenvector-optimisation
 modified Broyden-mixing scheme, WC =      100.0
 initial mixing is a Kerker type mixing with AMIX =  0.4000 and BMIX =      1.0000
 Hartree-type preconditioning will be used
 using additional bands           26
 reciprocal scheme for non local part
 use partial core corrections
 calculate Harris-corrections to forces 
   (improved forces if not selfconsistent)
 use gradient corrections 
 use of overlap-Matrix (Vanderbilt PP)
 Methfessel and Paxton  Order N= 1 SIGMA  =   0.10


--------------------------------------------------------------------------------------------------------


  energy-cutoff  :      400.00
  volume of cell :       49.88
      direct lattice vectors                 reciprocal lattice vectors
     3.681000000  0.000000000  0.000000000     0.271665308  0.000000000  0.000000000
     0.000000000  3.681000000  0.000000000     0.000000000  0.271665308  0.000000000
     0.000000000  0.000000000  3.681000000     0.000000000  0.000000000  0.271665308

  length of vectors
     3.681000000  3.681000000  3.681000000     0.271665308  0.271665308  0.271665308


 
 k-points in units of 2pi/SCALE and weight: KPOINTS created by Atomic Simulation Env
   0.00000000  0.00000000  0.00000000       0.001
   0.03018503  0.00000000  0.00000000       0.008
   0.06037007  0.00000000  0.00000000       0.008
   0.09055510  0.00000000  0.00000000       0.008
   0.12074014  0.00000000  0.00000000       0.008
   0.03018503  0.03018503  0.00000000       0.016
   0.06037007  0.03018503  0.00000000       0.033
   0.09055510  0.03018503  0.00000000       0.033
   0.12074014  0.03018503  0.00000000       0.033
   0.06037007  0.06037007  0.00000000       0.016
   0.09055510  0.06037007  0.00000000       0.033
   0.12074014  0.06037007  0.00000000       0.033
   0.09055510  0.09055510  0.00000000       0.016
   0.12074014  0.09055510  0.00000000       0.033
   0.12074014  0.12074014  0.00000000       0.016
   0.03018503  0.03018503  0.03018503       0.011
   0.06037007  0.03018503  0.03018503       0.033
   0.09055510  0.03018503  0.03018503       0.033
   0.12074014  0.03018503  0.03018503       0.033
   0.06037007  0.06037007  0.03018503       0.033
   0.09055510  0.06037007  0.03018503       0.066
   0.12074014  0.06037007  0.03018503       0.066
   0.09055510  0.09055510  0.03018503       0.033
   0.12074014  0.09055510  0.03018503       0.066
   0.12074014  0.12074014  0.03018503       0.033
   0.06037007  0.06037007  0.06037007       0.011
   0.09055510  0.06037007  0.06037007       0.033
   0.12074014  0.06037007  0.06037007       0.033
   0.09055510  0.09055510  0.06037007       0.033
   0.12074014  0.09055510  0.06037007       0.066
   0.12074014  0.12074014  0.06037007       0.033
   0.09055510  0.09055510  0.09055510       0.011
   0.12074014  0.09055510  0.09055510       0.033
   0.12074014  0.12074014  0.09055510       0.033
   0.12074014  0.12074014  0.12074014       0.011
 
 k-points in reciprocal lattice and weights: KPOINTS created by Atomic Simulation Env
   0.00000000  0.00000000  0.00000000       0.001
   0.11111111  0.00000000  0.00000000       0.008
   0.22222222  0.00000000  0.00000000       0.008
   0.33333333  0.00000000  0.00000000       0.008
   0.44444444  0.00000000  0.00000000       0.008
   0.11111111  0.11111111  0.00000000       0.016
   0.22222222  0.11111111  0.00000000       0.033
   0.33333333  0.11111111  0.00000000       0.033
   0.44444444  0.11111111  0.00000000       0.033
   0.22222222  0.22222222  0.00000000       0.016
   0.33333333  0.22222222  0.00000000       0.033
   0.44444444  0.22222222  0.00000000       0.033
   0.33333333  0.33333333  0.00000000       0.016
   0.44444444  0.33333333  0.00000000       0.033
   0.44444444  0.44444444  0.00000000       0.016
   0.11111111  0.11111111  0.11111111       0.011
   0.22222222  0.11111111  0.11111111       0.033
   0.33333333  0.11111111  0.11111111       0.033
   0.44444444  0.11111111  0.11111111       0.033
   0.22222222  0.22222222  0.11111111       0.033
   0.33333333  0.22222222  0.11111111       0.066
   0.44444444  0.22222222  0.11111111       0.066
   0.33333333  0.33333333  0.11111111       0.033
   0.44444444  0.33333333  0.11111111       0.066
   0.44444444  0.44444444  0.11111111       0.033
   0.22222222  0.22222222  0.22222222       0.011
   0.33333333  0.22222222  0.22222222       0.033
   0.44444444  0.22222222  0.22222222       0.033
   0.33333333  0.33333333  0.22222222       0.033
   0.44444444  0.33333333  0.22222222       0.066
   0.44444444  0.44444444  0.22222222       0.033
   0.33333333  0.33333333  0.33333333       0.011
   0.44444444  0.33333333  0.33333333       0.033
   0.44444444  0.44444444  0.33333333       0.033
   0.44444444  0.44444444  0.44444444       0.011
 
 position of ions in fractional coordinates (direct lattice) 
   0.00000000  0.00000000  0.00000000
   0.00000000  0.50000000  0.50000000
   0.50000000  0.00000000  0.50000000
   0.50000000  0.50000000  0.00000000
 
 position of ions in cartesian coordinates  (Angst):
   0.00000000  0.00000000  0.00000000
   0.00000000  1.84050000  1.84050000
   1.84050000  0.00000000  1.84050000
   1.84050000  1.84050000  0.00000000
 


--------------------------------------------------------------------------------------------------------


 k-point  1 :   0.0000 0.0000 0.0000  plane waves:     925
 k-point  2 :   0.1111 0.0000 0.0000  plane waves:     908
 k-point  3 :   0.2222 0.0000 0.0000  plane waves:     904
 k-point  4 :   0.3333 0.0000 0.0000  plane waves:     884
 k-point  5 :   0.4444 0.0000 0.0000  plane waves:     888
 k-point  6 :   0.1111 0.1111 0.0000  plane waves:     913
 k-point  7 :   0.2222 0.1111 0.0000  plane waves:     896
 k-point  8 :   0.3333 0.1111 0.0000  plane waves:     898
 k-point  9 :   0.4444 0.1111 0.0000  plane waves:     899
 k-point 10 :   0.2222 0.2222 0.0000  plane waves:     901
 k-point 11 :   0.3333 0.2222 0.0000  plane waves:     894
 k-point 12 :   0.4444 0.2222 0.0000  plane waves:     902
 k-point 13 :   0.3333 0.3333 0.0000  plane waves:     894
 k-point 14 :   0.4444 0.3333 0.0000  plane waves:     905
 k-point 15 :   0.4444 0.4444 0.0000  plane waves:     898
 k-point 16 :   0.1111 0.1111 0.1111  plane waves:     913
 k-point 17 :   0.2222 0.1111 0.1111  plane waves:     908
 k-point 18 :   0.3333 0.1111 0.1111  plane waves:     902
 k-point 19 :   0.4444 0.1111 0.1111  plane waves:     897
 k-point 20 :   0.2222 0.2222 0.1111  plane waves:     900
 k-point 21 :   0.3333 0.2222 0.1111  plane waves:     896
 k-point 22 :   0.4444 0.2222 0.1111  plane waves:     909
 k-point 23 :   0.3333 0.3333 0.1111  plane waves:     908
 k-point 24 :   0.4444 0.3333 0.1111  plane waves:     914
 k-point 25 :   0.4444 0.4444 0.1111  plane waves:     903
 k-point 26 :   0.2222 0.2222 0.2222  plane waves:     907
 k-point 27 :   0.3333 0.2222 0.2222  plane waves:     907
 k-point 28 :   0.4444 0.2222 0.2222  plane waves:     910
 k-point 29 :   0.3333 0.3333 0.2222  plane waves:     906
 k-point 30 :   0.4444 0.3333 0.2222  plane waves:     920
 k-point 31 :   0.4444 0.4444 0.2222  plane waves:     912
 k-point 32 :   0.3333 0.3333 0.3333  plane waves:     931
 k-point 33 :   0.4444 0.3333 0.3333  plane waves:     919
 k-point 34 :   0.4444 0.4444 0.3333  plane waves:     911
 k-point 35 :   0.4444 0.4444 0.4444  plane waves:     925

 maximum and minimum number of plane-waves per node :       931      884

 maximum number of plane-waves:       931
 maximum index in each direction: 
   IXMAX=    6   IYMAX=    6   IZMAX=    6
   IXMIN=   -6   IYMIN=   -6   IZMIN=   -6

 WARNING: aliasing errors must be expected set NGX to  26 to avoid them
 WARNING: aliasing errors must be expected set NGY to  26 to avoid them
 WARNING: aliasing errors must be expected set NGZ to  26 to avoid them
 aliasing errors are usually negligible using standard VASP settings
 and one can safely disregard these warnings

 serial   3D FFT for wavefunctions
 parallel 3D FFT for charge:
    minimum data exchange during FFTs selected (reduces bandwidth)


 total amount of memory used by VASP on root node    36447. kBytes
========================================================================

   base      :      30000. kBytes
   nonl-proj :       4777. kBytes
   fftplans  :        113. kBytes
   grid      :        367. kBytes
   one-center:         62. kBytes
   wavefun   :       1128. kBytes
 
     INWAV:  cpu time    0.0000: real time    0.0097
 Broyden mixing: mesh for mixing (old mesh)
   NGX = 13   NGY = 13   NGZ = 13
  (NGX  = 36   NGY  = 36   NGZ  = 36)
  gives a total of   2197 points

 initial charge density was supplied:
 charge density of overlapping atoms calculated
 number of electron      44.0000000 magnetization 
 keeping initial charge density in first step


--------------------------------------------------------------------------------------------------------


 Maximum index for augmentation-charges          377 (set IRDMAX)


--------------------------------------------------------------------------------------------------------


 First call to EWALD:  gamma=   0.482
 Maximum number of real-space cells 3x 3x 3
 Maximum number of reciprocal cells 3x 3x 3

 FEWALD executed in parallel
    FEWALD:  cpu time    0.0028: real time    0.0028


----------------------------------------- Iteration    1(   1)  ---------------------------------------


    POTLOK:  cpu time    0.0363: real time    0.0363
    SETDIJ:  cpu time    0.0027: real time    0.0028
     EDDAV:  cpu time    0.4602: real time    0.4602
       DOS:  cpu time    0.0014: real time    0.0014
    --------------------------------------------
      LOOP:  cpu time    0.5035: real time    0.5049

 eigenvalue-minimisations  :  3360
 total energy-change (2. order) : 0.2015753E+03  (-0.1888624E+04)
 number of electron      44.0000000 magnetization 
 augmentation part       44.0000000 magnetization 

 Free energy of the ion-electron system (eV)
  ---------------------------------------------------
  alpha Z        PSCENC =       272.85801234
  Ewald energy   TEWEN  =     -4340.42145592
  -Hartree energ DENC   =      -623.63724975
  -exchange      EXHF   =         0.00000000
  -V(xc)+E(xc)   XCENC  =       -37.39792590
  PAW double counting   =      4013.84859731    -3829.39709692
  entropy T*S    EENTRO =         0.00090475
  eigenvalues    EBANDS =       596.68778831
  atomic energy  EATOM  =      4149.03371350
  Solvation  Ediel_sol  =         0.00000000
  ---------------------------------------------------
  free energy    TOTEN  =       201.57528772 eV

  energy without entropy =      201.57438297  energy(sigma->0) =      201.57498614


--------------------------------------------------------------------------------------------------------




----------------------------------------- Iteration    1(   2)  ---------------------------------------


     EDDAV:  cpu time    0.6594: real time    0.6595
       DOS:  cpu time    0.0008: real time    0.0008
    --------------------------------------------
      LOOP:  cpu time    0.6615: real time    0.6630

 eigenvalue-minimisations  :  4488
 total energy-change (2. order) :-0.2064816E+03  (-0.1963952E+03)
 number of electron      44.0000000 magnetization 
 augmentation part       44.0000000 magnetization 

 Free energy of the ion-electron system (eV)
  ---------------------------------------------------
  alpha Z        PSCENC =       272.85801234
  Ewald energy   TEWEN  =     -4340.42145592
  -Hartree energ DENC   =      -623.63724975
  -exchange      EXHF   =         0.00000000
  -V(xc)+E(xc)   XCENC  =       -37.39792590
  PAW double counting   =      4013.84859731    -3829.39709692
  entropy T*S    EENTRO =         0.00036608
  eigenvalues    EBANDS =       390.20673302
  atomic energy  EATOM  =      4149.03371350
  Solvation  Ediel_sol  =         0.00000000
  ---------------------------------------------------
  free energy    TOTEN  =        -4.90630623 eV

  energy without entropy =       -4.90667232  energy(sigma->0) =       -4.90642826


--------------------------------------------------------------------------------------------------------




----------------------------------------- Iteration    1(   3)  ---------------------------------------


     EDDAV:  cpu time    0.5834: real time    0.5892
       DOS:  cpu time    0.0023: real time    0.0023
    --------------------------------------------
      LOOP:  cpu time    0.5867: real time    0.5967

 eigenvalue-minimisations  :  4008
 total energy-change (2. order) :-0.3127108E+01  (-0.3125289E+01)
 number of electron      44.0000000 magnetization 
 augmentation part       44.0000000 magnetization 

 Free energy of the ion-electron system (eV)
  ---------------------------------------------------
  alpha Z        PSCENC =       272.85801234
  Ewald energy   TEWEN  =     -4340.42145592
  -Hartree energ DENC   =      -623.63724975
  -exchange      EXHF   =         0.00000000
  -V(xc)+E(xc)   XCENC  =       -37.39792590
  PAW double counting   =      4013.84859731    -3829.39709692
  entropy T*S    EENTRO =         0.00016779
  eigenvalues    EBANDS =       387.07982355
  atomic energy  EATOM  =      4149.03371350
  Solvation  Ediel_sol  =         0.00000000
  ---------------------------------------------------
  free energy    TOTEN  =        -8.03341401 eV

  energy without entropy =       -8.03358179  energy(sigma->0) =       -8.03346994


--------------------------------------------------------------------------------------------------------




----------------------------------------- Iteration    1(   4)  ---------------------------------------


     EDDAV:  cpu time    0.7295: real time    0.7319
       DOS:  cpu time    0.0009: real time    0.0009
    --------------------------------------------
      LOOP:  cpu time    0.7313: real time    0.7351

 eigenvalue-minimisations  :  4656
 total energy-change (2. order) :-0.8199275E-02  (-0.8199144E-02)
 number of electron      44.0000000 magnetization 
 augmentation part       44.0000000 magnetization 

 Free energy of the ion-electron system (eV)
  ---------------------------------------------------
  alpha Z        PSCENC =       272.85801234
  Ewald energy   TEWEN  =     -4340.42145592
  -Hartree energ DENC   =      -623.63724975
  -exchange      EXHF   =         0.00000000
  -V(xc)+E(xc)   XCENC  =       -37.39792590
  PAW double counting   =      4013.84859731    -3829.39709692
  entropy T*S    EENTRO =         0.00016671
  eigenvalues    EBANDS =       387.07162534
  atomic energy  EATOM  =      4149.03371350
  Solvation  Ediel_sol  =         0.00000000
  ---------------------------------------------------
  free energy    TOTEN  =        -8.04161328 eV

  energy without entropy =       -8.04178000  energy(sigma->0) =       -8.04166885


--------------------------------------------------------------------------------------------------------




----------------------------------------- Iteration    1(   5)  ---------------------------------------


     EDDAV:  cpu time    0.5623: real time    0.5708
       DOS:  cpu time    0.0009: real time    0.0011
    CHARGE:  cpu time    0.0107: real time    0.0113
    MIXING:  cpu time    0.0041: real time    0.0041
    --------------------------------------------
      LOOP:  cpu time    0.5789: real time    0.5899

 eigenvalue-minimisations  :  3792
 total energy-change (2. order) :-0.5666703E-04  (-0.5666545E-04)
 number of electron      43.9999963 magnetization 
 augmentation part       20.0991568 magnetization 

 Broyden mixing:
  rms(total) = 0.26325E+01    rms(broyden)= 0.26325E+01
  rms(prec ) = 0.30881E+01
  weight for this iteration     100.00

 Free energy of the ion-electron system (eV)
  ---------------------------------------------------
  alpha Z        PSCENC =       272.85801234
  Ewald energy   TEWEN  =     -4340.42145592
  -Hartree energ DENC   =      -623.63724975
  -exchange      EXHF   =         0.00000000
  -V(xc)+E(xc)   XCENC  =       -37.39792590
  PAW double counting   =      4013.84859731    -3829.39709692
  entropy T*S    EENTRO =         0.00016670
  eigenvalues    EBANDS =       387.07156869
  atomic energy  EATOM  =      4149.03371350
  Solvation  Ediel_sol  =         0.00000000
  ---------------------------------------------------
  free energy    TOTEN  =        -8.04166995 eV

  energy without entropy =       -8.04183665  energy(sigma->0) =       -8.04172552


--------------------------------------------------------------------------------------------------------




----------------------------------------- Iteration    1(   6)  ---------------------------------------


    POTLOK:  cpu time    0.0030: real time    0.0031
    SETDIJ:  cpu time    0.0030: real time    0.0030
     EDDAV:  cpu time    0.7219: real time    0.7248
       DOS:  cpu time    0.0009: real time    0.0009
    CHARGE:  cpu time    0.0061: real time    0.0061
    MIXING:  cpu time    0.0004: real time    0.0004
    --------------------------------------------
      LOOP:  cpu time    0.7364: real time    0.7411

 eigenvalue-minimisations  :  4416
 total energy-change (2. order) : 0.1071063E+01  (-0.1616314E+00)
 number of electron      43.9999962 magnetization 
 augmentation part       20.6208298 magnetization 

 Broyden mixing:
  rms(total) = 0.15267E+01    rms(broyden)= 0.15267E+01
  rms(prec ) = 0.15946E+01
  weight for this iteration     100.00

 eigenvalues of (default mixing * dielectric matrix)
  average eigenvalue GAMMA=   2.2068
  2.2068

 Free energy of the ion-electron system (eV)
  ---------------------------------------------------
  alpha Z        PSCENC =       272.85801234
  Ewald energy   TEWEN  =     -4340.42145592
  -Hartree energ DENC   =      -586.91912320
  -exchange      EXHF   =         0.00000000
  -V(xc)+E(xc)   XCENC  =       -38.66264119
  PAW double counting   =      4549.93724738    -4374.11321244
  entropy T*S    EENTRO =        -0.00271384
  eigenvalues    EBANDS =       361.31956611
  atomic energy  EATOM  =      4149.03371350
  Solvation  Ediel_sol  =         0.00000000
  ---------------------------------------------------
  free energy    TOTEN  =        -6.97060724 eV

  energy without entropy =       -6.96789341  energy(sigma->0) =       -6.96970263


--------------------------------------------------------------------------------------------------------




----------------------------------------- Iteration    1(   7)  ---------------------------------------


    POTLOK:  cpu time    0.0021: real time    0.0021
    SETDIJ:  cpu time    0.0021: real time    0.0021
     EDDAV:  cpu time    0.6307: real time    0.6307
       DOS:  cpu time    0.0008: real time    0.0008
    CHARGE:  cpu time    0.0076: real time    0.0076
    MIXING:  cpu time    0.0003: real time    0.0003
    --------------------------------------------
      LOOP:  cpu time    0.6446: real time    0.6462

 eigenvalue-minimisations  :  4392
 total energy-change (2. order) : 0.1487189E+00  (-0.1862520E-01)
 number of electron      43.9999962 magnetization 
 augmentation part       20.7904635 magnetization 

 Broyden mixing:
  rms(total) = 0.46124E+00    rms(broyden)= 0.46123E+00
  rms(prec ) = 0.46335E+00
  weight for this iteration     100.00

 eigenvalues of (default mixing * dielectric matrix)
  average eigenvalue GAMMA=   1.9092
  1.2184  2.5999

 Free energy of the ion-electron system (eV)
  ---------------------------------------------------
  alpha Z        PSCENC =       272.85801234
  Ewald energy   TEWEN  =     -4340.42145592
  -Hartree energ DENC   =      -568.76496218
  -exchange      EXHF   =         0.00000000
  -V(xc)+E(xc)   XCENC  =       -39.27759711
  PAW double counting   =      5115.22806934    -4948.54917021
  entropy T*S    EENTRO =        -0.00224303
  eigenvalues    EBANDS =       353.07374493
  atomic energy  EATOM  =      4149.03371350
  Solvation  Ediel_sol  =         0.00000000
  ---------------------------------------------------
  free energy    TOTEN  =        -6.82188834 eV

  energy without entropy =       -6.81964531  energy(sigma->0) =       -6.82114066


--------------------------------------------------------------------------------------------------------




----------------------------------------- Iteration    1(   8)  ---------------------------------------


    POTLOK:  cpu time    0.0029: real time    0.0029
    SETDIJ:  cpu time    0.0031: real time    0.0031
     EDDAV:  cpu time    0.5794: real time    0.5800
       DOS:  cpu time    0.0012: real time    0.0012
    CHARGE:  cpu time    0.0062: real time    0.0067
    MIXING:  cpu time    0.0002: real time    0.0002
    --------------------------------------------
      LOOP:  cpu time    0.5941: real time    0.5969

 eigenvalue-minimisations  :  4080
 total energy-change (2. order) : 0.1784214E-01  (-0.1947680E-02)
 number of electron      43.9999962 magnetization 
 augmentation part       20.7496746 magnetization 

 Broyden mixing:
  rms(total) = 0.35177E-01    rms(broyden)= 0.35177E-01
  rms(prec ) = 0.35691E-01
  weight for this iteration     100.00

 eigenvalues of (default mixing * dielectric matrix)
  average eigenvalue GAMMA=   1.5514
  2.5021  0.9286  1.2235

 Free energy of the ion-electron system (eV)
  ---------------------------------------------------
  alpha Z        PSCENC =       272.85801234
  Ewald energy   TEWEN  =     -4340.42145592
  -Hartree energ DENC   =      -567.20295604
  -exchange      EXHF   =         0.00000000
  -V(xc)+E(xc)   XCENC  =       -39.33167985
  PAW double counting   =      5333.65437115    -5170.87360809
  entropy T*S    EENTRO =        -0.00239986
  eigenvalues    EBANDS =       355.48195657
  atomic energy  EATOM  =      4149.03371350
  Solvation  Ediel_sol  =         0.00000000
  ---------------------------------------------------
  free energy    TOTEN  =        -6.80404620 eV

  energy without entropy =       -6.80164634  energy(sigma->0) =       -6.80324624


--------------------------------------------------------------------------------------------------------




----------------------------------------- Iteration    1(   9)  ---------------------------------------


    POTLOK:  cpu time    0.0371: real time    0.0511
    SETDIJ:  cpu time    0.0022: real time    0.0022
     EDDAV:  cpu time    0.5603: real time    0.5603
       DOS:  cpu time    0.0012: real time    0.0012
    --------------------------------------------
      LOOP:  cpu time    0.6021: real time    0.6307

 eigenvalue-minimisations  :  3552
 total energy-change (2. order) :-0.2984984E-04  (-0.5361808E-05)
 number of electron      43.9999962 magnetization 
 augmentation part       20.7496746 magnetization 

 Free energy of the ion-electron system (eV)
  ---------------------------------------------------
  alpha Z        PSCENC =       272.85801234
  Ewald energy   TEWEN  =     -4340.42145592
  -Hartree energ DENC   =      -567.50527639
  -exchange      EXHF   =         0.00000000
  -V(xc)+E(xc)   XCENC  =       -39.32135461
  PAW double counting   =      5318.72276944    -5155.60624028
  entropy T*S    EENTRO =        -0.00240192
  eigenvalues    EBANDS =       355.43815778
  atomic energy  EATOM  =      4149.03371350
  Solvation  Ediel_sol  =         0.00000000
  ---------------------------------------------------
  free energy    TOTEN  =        -6.80407605 eV

  energy without entropy =       -6.80167412  energy(sigma->0) =       -6.80327541


--------------------------------------------------------------------------------------------------------




 average (electrostatic) potential at core
  the test charge radii are     1.1249
  (the norm of the test charge is              1.0000)
       1 -66.4909       2 -66.4909       3 -66.4909       4 -66.4909
 
 
 
 E-fermi :  13.8978     XC(G=0): -14.1817     alpha+bet :-18.4082


 k-point     1 :       0.0000    0.0000    0.0000
  band No.  band energies     occupation 
      1       3.2611      2.00000
      2       4.5801      2.00000
      3       4.5801      2.00000
      4       4.5801      2.00000
      5       4.8551      2.00000
      6       4.8551      2.00000
      7       4.8551      2.00000
      8       7.3802      2.00000
      9       7.3802      2.00000
     10       7.3802      2.00000
     11       9.1663      2.00000
     12       9.1663      2.00000
     13      10.4853      2.00000
     14      10.4853      2.00000
     15      10.4853      2.00000
     16      10.8921      2.00000
     17      10.8921      2.00000
     18      10.8921      2.00000
     19      10.8921      2.00000
     20      10.8921      2.00000
     21      10.8921      2.00000
     22      14.9818     -0.00000
     23      14.9818     -0.00000
     24      14.9818     -0.00000
     25      23.3003      0.00000
     26      23.3003      0.00000
     27      23.3003      0.00000
     28      25.9303      0.00000
     29      25.9303      0.00000
     30      25.9303      0.00000
     31      25.9303      0.00000
     32      25.9303      0.00000
     33      25.9303      0.00000
     34      29.9148      0.00000
     35      35.2013      0.00000
     36      35.2013      0.00000
     37      35.2013      0.00000
     38      35.3984      0.00000
     39      35.3984      0.00000
     40      35.3984      0.00000
     41      35.4952      0.00000
     42      35.4952      0.00000
     43      35.4952      0.00000
     44      41.2145      0.00000
     45      45.3494      0.00000
     46      45.3494      0.00000
     47      45.3494      0.00000
     48      46.3163      0.00000

 k-point     2 :       0.1111    0.0000    0.0000
  band No.  band energies     occupation 
      1       3.4297      2.00000
      2       4.6679      2.00000
      3       4.6872      2.00000
      4       4.6872      2.00000
      5       4.9192      2.00000
      6       4.9563      2.00000
      7       4.9563      2.00000
      8       7.2883      2.00000
      9       7.4579      2.00000
     10       7.4579      2.00000
     11       9.0718      2.00000
     12       9.2031      2.00000
     13      10.3554      2.00000
     14      10.3554      2.00000
     15      10.3939      2.00000
     16      10.3939      2.00000
     17      10.4419      2.00000
     18      10.7375      2.00000
     19      10.7375      2.00000
     20      10.8924      2.00000
     21      10.8924      2.00000
     22      14.1939     -0.00023
     23      15.5928     -0.00000
     24      15.5928     -0.00000
     25      23.2761      0.00000
     26      23.2761      0.00000
     27      24.2541      0.00000
     28      25.6056      0.00000
     29      25.6056      0.00000
     30      25.6203      0.00000
     31      25.6203      0.00000
     32      26.2706      0.00000
     33      26.2706      0.00000
     34      30.1065      0.00000
     35      34.7576      0.00000
     36      35.0751      0.00000
     37      35.3294      0.00000
     38      35.3294      0.00000
     39      35.4346      0.00000
     40      35.4444      0.00000
     41      35.4444      0.00000
     42      36.2466      0.00000
     43      36.2466      0.00000
     44      42.3508      0.00000
     45      44.5090      0.00000
     46      44.5090      0.00000
     47      45.5051      0.00000
     48      45.9349      0.00000

 k-point     3 :       0.2222    0.0000    0.0000
  band No.  band energies     occupation 
      1       3.9137      2.00000
      2       4.9116      2.00000
      3       4.9849      2.00000
      4       4.9849      2.00000
      5       5.1070      2.00000
      6       5.2582      2.00000
      7       5.2582      2.00000
      8       7.0301      2.00000
      9       7.6866      2.00000
     10       7.6866      2.00000
     11       8.8196      2.00000
     12       9.3100      2.00000
     13       9.3751      2.00000
     14       9.3751      2.00000
     15       9.9977      2.00000
     16       9.9977      2.00000
     17      10.3186      2.00000
     18      10.3209      2.00000
     19      10.3209      2.00000
     20      10.8931      2.00000
     21      10.8931      2.00000
     22      12.5132      2.00000
     23      16.9440      0.00000
     24      16.9440      0.00000
     25      23.2142      0.00000
     26      23.2142      0.00000
     27      24.7542      0.00000
     28      24.7542      0.00000
     29      24.9271      0.00000
     30      24.9271      0.00000
     31      26.3919      0.00000
     32      27.2359      0.00000
     33      27.2359      0.00000
     34      30.6473      0.00000
     35      33.6203      0.00000
     36      34.7001      0.00000
     37      34.9571      0.00000
     38      34.9571      0.00000
     39      35.3731      0.00000
     40      36.1511      0.00000
     41      36.1511      0.00000
     42      38.1633      0.00000
     43      38.1633      0.00000
     44      43.2167      0.00000
     45      43.2167      0.00000
     46      44.6238      0.00000
     47      44.6238      0.00000
     48      44.8286      0.00000

 k-point     4 :       0.3333    0.0000    0.0000
  band No.  band energies     occupation 
      1       4.6228      2.00000
      2       5.2412      2.00000
      3       5.3884      2.00000
      4       5.3884      2.00000
      5       5.4048      2.00000
      6       5.7558      2.00000
      7       5.7558      2.00000
      8       6.6539      2.00000
      9       8.0566      2.00000
     10       8.0566      2.00000
     11       8.2909      2.00000
     12       8.2909      2.00000
     13       8.5324      2.00000
     14       9.4757      2.00000
     15       9.5210      2.00000
     16       9.5210      2.00000
     17       9.7496      2.00000
     18       9.7496      2.00000
     19      10.1334      2.00000
     20      10.7274      2.00000
     21      10.8941      2.00000
     22      10.8941      2.00000
     23      18.5628      0.00000
     24      18.5628      0.00000
     25      23.1421      0.00000
     26      23.1421      0.00000
     27      23.4760      0.00000
     28      23.4760      0.00000
     29      24.3190      0.00000
     30      24.3190      0.00000
     31      28.6898      0.00000
     32      28.6898      0.00000
     33      28.7601      0.00000
     34      31.4446      0.00000
     35      32.6132      0.00000
     36      33.9480      0.00000
     37      33.9480      0.00000
     38      34.0922      0.00000
     39      35.6814      0.00000
     40      37.2778      0.00000
     41      37.2778      0.00000
     42      40.6592      0.00000
     43      40.6592      0.00000
     44      42.6545      0.00000
     45      42.6545      0.00000
     46      42.6867      0.00000
     47      42.7389      0.00000
     48      42.7389      0.00000

 k-point     5 :       0.4444    0.0000    0.0000
  band No.  band energies     occupation 
      1       5.2903      2.00000
      2       5.4804      2.00000
      3       5.7133      2.00000
      4       5.7133      2.00000
      5       5.7880      2.00000
      6       6.2207      2.00000
      7       6.4393      2.00000
      8       6.4393      2.00000
      9       7.2933      2.00000
     10       7.2933      2.00000
     11       8.5214      2.00000
     12       8.5493      2.00000
     13       8.5493      2.00000
     14       9.1317      2.00000
     15       9.1317      2.00000
     16       9.1452      2.00000
     17       9.1452      2.00000
     18       9.2644      2.00000
     19       9.6842      2.00000
     20       9.9125      2.00000
     21      10.8945      2.00000
     22      10.8945      2.00000
     23      20.2634      0.00000
     24      20.2634      0.00000
     25      21.9367      0.00000
     26      21.9367      0.00000
     27      23.0933      0.00000
     28      23.0933      0.00000
     29      23.9863      0.00000
     30      23.9863      0.00000
     31      30.4585      0.00000
     32      30.4585      0.00000
     33      30.6221      0.00000
     34      31.7413      0.00000
     35      32.3212      0.00000
     36      32.3212      0.00000
     37      32.3704      0.00000
     38      33.2905      0.00000
     39      36.9669      0.00000
     40      38.7822      0.00000
     41      38.7822      0.00000
     42      39.4723      0.00000
     43      40.6112      0.00000
     44      40.6112      0.00000
     45      42.9816      0.00000
     46      42.9816      0.00000
     47      43.3640      0.00000
     48      43.3640      0.00000

 k-point     6 :       0.1111    0.1111    0.0000
  band No.  band energies     occupation 
      1       3.5931      2.00000
      2       4.7694      2.00000
      3       4.7762      2.00000
      4       4.7762      2.00000
      5       5.0182      2.00000
      6       5.0182      2.00000
      7       5.0756      2.00000
      8       7.2514      2.00000
      9       7.4846      2.00000
     10       7.5243      2.00000
     11       9.0462      2.00000
     12       9.1853      2.00000
     13      10.0865      2.00000
     14      10.1074      2.00000
     15      10.1074      2.00000
     16      10.2368      2.00000
     17      10.4394      2.00000
     18      10.4394      2.00000
     19      10.7370      2.00000
     20      10.7370      2.00000
     21      10.7879      2.00000
     22      14.7928     -0.00000
     23      14.7928     -0.00000
     24      16.1191     -0.00000
     25      23.2398      0.00000
     26      24.2515      0.00000
     27      24.2515      0.00000
     28      24.2923      0.00000
     29      25.9100      0.00000
     30      25.9100      0.00000
     31      25.9495      0.00000
     32      25.9495      0.00000
     33      26.5848      0.00000
     34      30.2663      0.00000
     35      33.7169      0.00000
     36      34.9344      0.00000
     37      35.2632      0.00000
     38      35.3361      0.00000
     39      35.3361      0.00000
     40      36.0538      0.00000
     41      36.2017      0.00000
     42      36.2017      0.00000
     43      37.4712      0.00000
     44      42.2494      0.00000
     45      44.3680      0.00000
     46      44.4984      0.00000
     47      45.1160      0.00000
     48      45.7115      0.00000

 k-point     7 :       0.2222    0.1111    0.0000
  band No.  band energies     occupation 
      1       4.0620      2.00000
      2       5.0161      2.00000
      3       5.0235      2.00000
      4       5.0774      2.00000
      5       5.1993      2.00000
      6       5.3132      2.00000
      7       5.4077      2.00000
      8       7.0320      2.00000
      9       7.6884      2.00000
     10       7.7118      2.00000
     11       8.8414      2.00000
     12       9.1445      2.00000
     13       9.2347      2.00000
     14       9.2980      2.00000
     15       9.6408      2.00000
     16       9.9073      2.00000
     17      10.0525      2.00000
     18      10.3187      2.00000
     19      10.3368      2.00000
     20      10.7348      2.00000
     21      10.7356      2.00000
     22      13.1404      2.00000
     23      16.0579     -0.00000
     24      17.3614      0.00000
     25      22.7565      0.00000
     26      23.3652      0.00000
     27      24.2313      0.00000
     28      25.0617      0.00000
     29      25.1982      0.00000
     30      26.4108      0.00000
     31      26.7618      0.00000
     32      26.7973      0.00000
     33      26.8763      0.00000
     34      30.6942      0.00000
     35      32.4750      0.00000
     36      34.9426      0.00000
     37      35.0181      0.00000
     38      35.0989      0.00000
     39      36.0845      0.00000
     40      36.1966      0.00000
     41      36.2181      0.00000
     42      38.0804      0.00000
     43      39.5101      0.00000
     44      41.3669      0.00000
     45      43.4410      0.00000
     46      44.6386      0.00000
     47      44.6675      0.00000
     48      45.4273      0.00000

 k-point     8 :       0.3333    0.1111    0.0000
  band No.  band energies     occupation 
      1       4.7496      2.00000
      2       5.3596      2.00000
      3       5.3991      2.00000
      4       5.4858      2.00000
      5       5.4867      2.00000
      6       5.7981      2.00000
      7       5.8901      2.00000
      8       6.6796      2.00000
      9       7.9266      2.00000
     10       8.0528      2.00000
     11       8.1155      2.00000
     12       8.2349      2.00000
     13       8.6754      2.00000
     14       9.0217      2.00000
     15       9.4645      2.00000
     16       9.5108      2.00000
     17       9.5690      2.00000
     18       9.7455      2.00000
     19      10.0987      2.00000
     20      10.7253      2.00000
     21      10.7329      2.00000
     22      11.4748      2.00000
     23      17.4994      0.00000
     24      18.9129      0.00000
     25      21.5230      0.00000
     26      23.2977      0.00000
     27      23.7691      0.00000
     28      24.0228      0.00000
     29      24.8227      0.00000
     30      26.3149      0.00000
     31      27.9749      0.00000
     32      28.2446      0.00000
     33      28.8755      0.00000
     34      31.1870      0.00000
     35      31.3963      0.00000
     36      34.2075      0.00000
     37      34.5194      0.00000
     38      35.1422      0.00000
     39      36.1475      0.00000
     40      36.5914      0.00000
     41      37.2576      0.00000
     42      39.9923      0.00000
     43      41.1716      0.00000
     44      41.9156      0.00000
     45      42.7495      0.00000
     46      43.0207      0.00000
     47      43.2474      0.00000
     48      43.5640      0.00000

 k-point     9 :       0.4444    0.1111    0.0000
  band No.  band energies     occupation 
      1       5.4080      2.00000
      2       5.6045      2.00000
      3       5.7731      2.00000
      4       5.8123      2.00000
      5       5.8536      2.00000
      6       6.2673      2.00000
      7       6.4621      2.00000
      8       6.4676      2.00000
      9       7.1994      2.00000
     10       7.2859      2.00000
     11       8.0031      2.00000
     12       8.3678      2.00000
     13       8.5440      2.00000
     14       8.9873      2.00000
     15       9.1250      2.00000
     16       9.1265      2.00000
     17       9.1667      2.00000
     18       9.6473      2.00000
     19       9.8055      2.00000
     20      10.3030      2.00000
     21      10.7261      2.00000
     22      10.7294      2.00000
     23      18.9276      0.00000
     24      20.2623      0.00000
     25      20.5754      0.00000
     26      22.2307      0.00000
     27      23.3822      0.00000
     28      23.6318      0.00000
     29      25.0493      0.00000
     30      25.6099      0.00000
     31      29.2763      0.00000
     32      29.8146      0.00000
     33      30.4020      0.00000
     34      31.0756      0.00000
     35      31.1880      0.00000
     36      33.2801      0.00000
     37      33.6213      0.00000
     38      33.9355      0.00000
     39      37.7154      0.00000
     40      37.8532      0.00000
     41      38.8053      0.00000
     42      39.4321      0.00000
     43      40.0645      0.00000
     44      40.6747      0.00000
     45      42.5949      0.00000
     46      43.5857      0.00000
     47      43.9515      0.00000
     48      44.2347      0.00000

 k-point    10 :       0.2222    0.2222    0.0000
  band No.  band energies     occupation 
      1       4.4848      2.00000
      2       5.1739      2.00000
      3       5.3363      2.00000
      4       5.3363      2.00000
      5       5.4732      2.00000
      6       5.4732      2.00000
      7       5.7679      2.00000
      8       6.9546      2.00000
      9       7.7833      2.00000
     10       7.7858      2.00000
     11       8.6590      2.00000
     12       8.6590      2.00000
     13       8.7625      2.00000
     14       8.7678      2.00000
     15       9.4336      2.00000
     16       9.6489      2.00000
     17      10.0329      2.00000
     18      10.0329      2.00000
     19      10.3125      2.00000
     20      10.3125      2.00000
     21      10.4856      2.00000
     22      14.3337     -0.00000
     23      14.3337     -0.00000
     24      18.4271      0.00000
     25      21.0770      0.00000
     26      23.3022      0.00000
     27      25.6964      0.00000
     28      25.6964      0.00000
     29      25.9180      0.00000
     30      25.9180      0.00000
     31      26.6059      0.00000
     32      26.6059      0.00000
     33      28.3766      0.00000
     34      30.7454      0.00000
     35      31.0788      0.00000
     36      34.0567      0.00000
     37      34.8852      0.00000
     38      35.8904      0.00000
     39      35.8904      0.00000
     40      37.8110      0.00000
     41      38.0030      0.00000
     42      38.0030      0.00000
     43      38.9107      0.00000
     44      41.6946      0.00000
     45      44.0148      0.00000
     46      44.5000      0.00000
     47      44.5022      0.00000
     48      44.5601      0.00000

 k-point    11 :       0.3333    0.2222    0.0000
  band No.  band energies     occupation 
      1       5.1033      2.00000
      2       5.4895      2.00000
      3       5.6943      2.00000
      4       5.7246      2.00000
      5       5.7669      2.00000
      6       5.9205      2.00000
      7       6.2178      2.00000
      8       6.7206      2.00000
      9       7.7255      2.00000
     10       7.7952      2.00000
     11       8.0421      2.00000
     12       8.0833      2.00000
     13       8.1014      2.00000
     14       8.6726      2.00000
     15       9.2897      2.00000
     16       9.5800      2.00000
     17       9.7360      2.00000
     18       9.8137      2.00000
     19       9.8221      2.00000
     20      10.3046      2.00000
     21      10.3541      2.00000
     22      12.6359      2.00000
     23      15.6304     -0.00000
     24      19.5560      0.00000
     25      19.8467      0.00000
     26      23.3707      0.00000
     27      24.5809      0.00000
     28      24.7326      0.00000
     29      26.7076      0.00000
     30      26.9141      0.00000
     31      27.1548      0.00000
     32      28.7869      0.00000
     33      29.0296      0.00000
     34      29.8915      0.00000
     35      30.5327      0.00000
     36      34.3755      0.00000
     37      34.8291      0.00000
     38      35.5898      0.00000
     39      36.1425      0.00000
     40      37.1925      0.00000
     41      38.3220      0.00000
     42      39.0353      0.00000
     43      39.6702      0.00000
     44      43.0368      0.00000
     45      43.7344      0.00000
     46      43.8706      0.00000
     47      43.9896      0.00000
     48      44.0052      0.00000

 k-point    12 :       0.4444    0.2222    0.0000
  band No.  band energies     occupation 
      1       5.7249      2.00000
      2       5.9112      2.00000
      3       5.9540      2.00000
      4       6.0431      2.00000
      5       6.0943      2.00000
      6       6.3923      2.00000
      7       6.5239      2.00000
      8       6.5982      2.00000
      9       6.9859      2.00000
     10       7.2516      2.00000
     11       7.6092      2.00000
     12       7.6463      2.00000
     13       8.5469      2.00000
     14       8.9400      2.00000
     15       9.0321      2.00000
     16       9.1190      2.00000
     17       9.1531      2.00000
     18       9.4183      2.00000
     19      10.2998      2.00000
     20      10.3085      2.00000
     21      10.3995      2.00000
     22      11.2964      2.00000
     23      16.9202      0.00000
     24      18.2033      0.00000
     25      21.4266      0.00000
     26      23.0412      0.00000
     27      23.5846      0.00000
     28      24.0203      0.00000
     29      27.4540      0.00000
     30      27.7892      0.00000
     31      28.1882      0.00000
     32      28.5408      0.00000
     33      28.8401      0.00000
     34      29.7750      0.00000
     35      31.4323      0.00000
     36      33.7578      0.00000
     37      34.9367      0.00000
     38      35.2353      0.00000
     39      35.9503      0.00000
     40      37.8338      0.00000
     41      38.8576      0.00000
     42      39.4089      0.00000
     43      40.8447      0.00000
     44      40.9154      0.00000
     45      41.7804      0.00000
     46      42.7381      0.00000
     47      43.9724      0.00000
     48      45.0274      0.00000

 k-point    13 :       0.3333    0.3333    0.0000
  band No.  band energies     occupation 
      1       5.6001      2.00000
      2       5.7070      2.00000
      3       6.1071      2.00000
      4       6.1071      2.00000
      5       6.1709      2.00000
      6       6.1709      2.00000
      7       6.6194      2.00000
      8       6.6899      2.00000
      9       7.2983      2.00000
     10       7.2983      2.00000
     11       7.6714      2.00000
     12       7.7240      2.00000
     13       8.2508      2.00000
     14       8.4892      2.00000
     15       9.0179      2.00000
     16       9.4044      2.00000
     17       9.4044      2.00000
     18       9.7308      2.00000
     19       9.7308      2.00000
     20      10.0180      2.00000
     21      10.4335      2.00000
     22      13.8505      1.70914
     23      13.8505      1.70914
     24      17.8524      0.00000
     25      21.1479      0.00000
     26      23.5600      0.00000
     27      25.5035      0.00000
     28      25.5035      0.00000
     29      25.7499      0.00000
     30      25.7499      0.00000
     31      28.5918      0.00000
     32      29.3620      0.00000
     33      29.3620      0.00000
     34      29.5943      0.00000
     35      30.9607      0.00000
     36      33.0963      0.00000
     37      35.4096      0.00000
     38      35.5906      0.00000
     39      37.0590      0.00000
     40      37.0590      0.00000
     41      38.4790      0.00000
     42      38.4790      0.00000
     43      39.2702      0.00000
     44      43.2748      0.00000
     45      43.6574      0.00000
     46      43.8550      0.00000
     47      44.1164      0.00000
     48      44.3552      0.00000

 k-point    14 :       0.4444    0.3333    0.0000
  band No.  band energies     occupation 
      1       6.0637      2.00000
      2       6.1088      2.00000
      3       6.3298      2.00000
      4       6.4324      2.00000
      5       6.4860      2.00000
      6       6.5446      2.00000
      7       6.6029      2.00000
      8       6.7953      2.00000
      9       6.8815      2.00000
     10       7.0943      2.00000
     11       7.1560      2.00000
     12       7.4420      2.00000
     13       8.6128      2.00000
     14       8.6142      2.00000
     15       8.8183      2.00000
     16       8.9813      2.00000
     17       9.0286      2.00000
     18       9.1343      2.00000
     19       9.7488      2.00000
     20       9.8261      2.00000
     21      11.2746      2.00000
     22      12.3877      2.00000
     23      15.0891     -0.00000
     24      16.3928     -0.00000
     25      22.6426      0.00000
     26      23.9369      0.00000
     27      24.2094      0.00000
     28      24.5708      0.00000
     29      26.4336      0.00000
     30      27.0886      0.00000
     31      27.4625      0.00000
     32      28.4182      0.00000
     33      29.9643      0.00000
     34      30.8337      0.00000
     35      31.6633      0.00000
     36      33.6868      0.00000
     37      34.3966      0.00000
     38      36.2976      0.00000
     39      36.6603      0.00000
     40      36.7908      0.00000
     41      38.5357      0.00000
     42      38.8513      0.00000
     43      39.0058      0.00000
     44      40.9566      0.00000
     45      43.7684      0.00000
     46      44.1506      0.00000
     47      44.2587      0.00000
     48      44.3145      0.00000

 k-point    15 :       0.4444    0.4444    0.0000
  band No.  band energies     occupation 
      1       6.2546      2.00000
      2       6.3685      2.00000
      3       6.5170      2.00000
      4       6.5170      2.00000
      5       6.6492      2.00000
      6       6.6610      2.00000
      7       6.6610      2.00000
      8       6.9583      2.00000
      9       7.0742      2.00000
     10       7.0742      2.00000
     11       7.1671      2.00000
     12       7.4088      2.00000
     13       8.3914      2.00000
     14       8.5657      2.00000
     15       8.6391      2.00000
     16       8.6391      2.00000
     17       8.8256      2.00000
     18       9.2203      2.00000
     19       9.2203      2.00000
     20       9.4406      2.00000
     21      12.3120      2.00000
     22      13.5580      2.00002
     23      13.5580      2.00002
     24      14.8638     -0.00000
     25      24.0637      0.00000
     26      24.5066      0.00000
     27      25.3331      0.00000
     28      25.3331      0.00000
     29      25.5734      0.00000
     30      25.5734      0.00000
     31      26.2980      0.00000
     32      27.0046      0.00000
     33      32.1008      0.00000
     34      32.1008      0.00000
     35      32.6459      0.00000
     36      33.2719      0.00000
     37      34.0188      0.00000
     38      36.2923      0.00000
     39      36.2923      0.00000
     40      37.2119      0.00000
     41      37.5992      0.00000
     42      38.5237      0.00000
     43      38.5237      0.00000
     44      40.2148      0.00000
     45      43.2531      0.00000
     46      43.3596      0.00000
     47      43.6865      0.00000
     48      43.6865      0.00000

 k-point    16 :       0.1111    0.1111    0.1111
  band No.  band energies     occupation 
      1       3.7492      2.00000
      2       4.8541      2.00000
      3       4.8541      2.00000
      4       4.8541      2.00000
      5       5.1397      2.00000
      6       5.1397      2.00000
      7       5.1397      2.00000
      8       7.2333      2.00000
      9       7.5402      2.00000
     10       7.5402      2.00000
     11       9.1015      2.00000
     12       9.1015      2.00000
     13       9.9133      2.00000
     14       9.9133      2.00000
     15       9.9133      2.00000
     16      10.0993      2.00000
     17      10.0993      2.00000
     18      10.0993      2.00000
     19      10.7530      2.00000
     20      10.7530      2.00000
     21      10.7530      2.00000
     22      15.2866     -0.00000
     23      15.2866     -0.00000
     24      15.2866     -0.00000
     25      24.1667      0.00000
     26      24.1667      0.00000
     27      24.1667      0.00000
     28      24.6657      0.00000
     29      24.6657      0.00000
     30      24.6657      0.00000
     31      26.8957      0.00000
     32      26.8957      0.00000
     33      26.8957      0.00000
     34      30.3809      0.00000
     35      32.8678      0.00000
     36      34.8199      0.00000
     37      34.8199      0.00000
     38      34.8199      0.00000
     39      35.9859      0.00000
     40      35.9859      0.00000
     41      37.4446      0.00000
     42      37.4446      0.00000
     43      37.4446      0.00000
     44      41.8515      0.00000
     45      44.0589      0.00000
     46      44.0589      0.00000
     47      45.3472      0.00000
     48      45.7833      0.00000

 k-point    17 :       0.2222    0.1111    0.1111
  band No.  band energies     occupation 
      1       4.1948      2.00000
      2       5.0828      2.00000
      3       5.0937      2.00000
      4       5.0937      2.00000
      5       5.3340      2.00000
      6       5.4727      2.00000
      7       5.4727      2.00000
      8       7.0606      2.00000
      9       7.6992      2.00000
     10       7.7064      2.00000
     11       8.9013      2.00000
     12       9.0444      2.00000
     13       9.0444      2.00000
     14       9.2605      2.00000
     15       9.4416      2.00000
     16       9.7489      2.00000
     17       9.8327      2.00000
     18       9.8327      2.00000
     19      10.6265      2.00000
     20      10.6938      2.00000
     21      10.6938      2.00000
     22      13.5919      2.00013
     23      16.4193     -0.00000
     24      16.4193     -0.00000
     25      23.0727      0.00000
     26      23.0727      0.00000
     27      24.4178      0.00000
     28      24.4178      0.00000
     29      25.3455      0.00000
     30      26.4853      0.00000
     31      27.0544      0.00000
     32      27.0544      0.00000
     33      27.7893      0.00000
     34      30.5740      0.00000
     35      31.7925      0.00000
     36      34.5217      0.00000
     37      34.9937      0.00000
     38      34.9937      0.00000
     39      35.5861      0.00000
     40      36.5217      0.00000
     41      37.4583      0.00000
     42      39.4707      0.00000
     43      39.4707      0.00000
     44      41.0000      0.00000
     45      42.6153      0.00000
     46      44.2528      0.00000
     47      44.6638      0.00000
     48      44.6638      0.00000

 k-point    18 :       0.3333    0.1111    0.1111
  band No.  band energies     occupation 
      1       4.8423      2.00000
      2       5.3778      2.00000
      3       5.4757      2.00000
      4       5.4757      2.00000
      5       5.6537      2.00000
      6       5.9406      2.00000
      7       5.9406      2.00000
      8       6.7494      2.00000
      9       7.8712      2.00000
     10       7.9807      2.00000
     11       8.0896      2.00000
     12       8.0896      2.00000
     13       8.7877      2.00000
     14       8.8467      2.00000
     15       9.2885      2.00000
     16       9.4443      2.00000
     17       9.4443      2.00000
     18       9.5035      2.00000
     19      10.4036      2.00000
     20      10.6423      2.00000
     21      10.6423      2.00000
     22      11.8539      2.00000
     23      17.7675      0.00000
     24      17.7675      0.00000
     25      21.7814      0.00000
     26      21.7814      0.00000
     27      24.5769      0.00000
[...]
  band No.  band energies     occupation 
      1       5.2756      2.00000
      2       5.4338      2.00000
      3       5.6566      2.00000
      4       5.6644      2.00000
      5       6.6802      2.00000
      6       6.7045      2.00000
      7       7.1024      2.00000
      8       7.4082      2.00000
      9       7.7503      2.00000
     10       7.8222      2.00000
     11       7.9741      2.00000
     12       8.1166      2.00000
     13       8.1535      2.00000
     14       8.1626      2.00000
     15       8.1933      2.00000
     16       8.2954      2.00000
     17       9.7827      2.00000
     18      10.2583      2.00000
     19      10.3083      2.00000
     20      10.3238      2.00000
     21      10.9755      2.00000
     22      12.3450      2.00000
     23      15.0684     -0.00000
     24      15.9569     -0.00000
     25      19.6400      0.00000
     26      20.4696      0.00000
     27      22.8718      0.00000
     28      24.1726      0.00000
     29      28.0316      0.00000
     30      28.7818      0.00000
     31      29.9592      0.00000
     32      30.2155      0.00000
     33      30.3228      0.00000
     34      30.9326      0.00000
     35      32.0871      0.00000
     36      33.7795      0.00000
     37      33.8514      0.00000
     38      34.5775      0.00000
     39      34.8683      0.00000
     40      36.7180      0.00000
     41      40.1968      0.00000
     42      40.9442      0.00000
     43      41.2086      0.00000
     44      41.2767      0.00000
     45      41.5677      0.00000
     46      42.9822      0.00000
     47      43.7911      0.00000
     48      44.1381      0.00000

 k-point    31 :       0.4444    0.4444    0.2222
  band No.  band energies     occupation 
      1       5.3036      2.00000
      2       5.4373      2.00000
      3       5.4373      2.00000
      4       5.5111      2.00000
      5       6.9006      2.00000
      6       7.0317      2.00000
      7       7.0317      2.00000
      8       7.2844      2.00000
      9       7.7072      2.00000
     10       7.8490      2.00000
     11       7.8490      2.00000
     12       7.9248      2.00000
     13       8.4585      2.00000
     14       8.4585      2.00000
     15       8.4921      2.00000
     16       8.6138      2.00000
     17       9.7017      2.00000
     18      10.0467      2.00000
     19      10.0467      2.00000
     20      10.1004      2.00000
     21      12.0185      2.00000
     22      13.3752      2.00000
     23      13.3752      2.00000
     24      14.5982     -0.00000
     25      20.4274      0.00000
     26      21.5373      0.00000
     27      21.5373      0.00000
     28      22.7800      0.00000
     29      28.5727      0.00000
     30      29.2601      0.00000
     31      29.2601      0.00000
     32      29.7510      0.00000
     33      31.9625      0.00000
     34      31.9625      0.00000
     35      32.0707      0.00000
     36      33.0504      0.00000
     37      33.9858      0.00000
     38      35.1313      0.00000
     39      35.1313      0.00000
     40      36.5142      0.00000
     41      39.8341      0.00000
     42      40.6181      0.00000
     43      40.6181      0.00000
     44      41.4462      0.00000
     45      41.7976      0.00000
     46      42.6136      0.00000
     47      42.7630      0.00000
     48      42.7630      0.00000

 k-point    32 :       0.3333    0.3333    0.3333
  band No.  band energies     occupation 
      1       5.0198      2.00000
      2       5.3955      2.00000
      3       5.3955      2.00000
      4       5.3955      2.00000
      5       6.8590      2.00000
      6       6.8590      2.00000
      7       6.8590      2.00000
      8       7.5486      2.00000
      9       7.5486      2.00000
     10       8.0033      2.00000
     11       8.0033      2.00000
     12       8.0033      2.00000
     13       8.3219      2.00000
     14       8.3219      2.00000
     15       8.3219      2.00000
     16       9.1142      2.00000
     17       9.8568      2.00000
     18       9.8568      2.00000
     19      10.5779      2.00000
     20      10.5779      2.00000
     21      10.5779      2.00000
     22      14.4542     -0.00000
     23      14.4542     -0.00000
     24      14.4542     -0.00000
     25      20.2927      0.00000
     26      20.2927      0.00000
     27      20.2927      0.00000
     28      23.9995      0.00000
     29      29.2365      0.00000
     30      29.2365      0.00000
     31      29.2365      0.00000
     32      30.2843      0.00000
     33      32.2196      0.00000
     34      32.2196      0.00000
     35      32.2196      0.00000
     36      32.7268      0.00000
     37      32.7268      0.00000
     38      32.7268      0.00000
     39      36.6751      0.00000
     40      36.6751      0.00000
     41      40.3832      0.00000
     42      40.3832      0.00000
     43      41.6040      0.00000
     44      42.5815      0.00000
     45      42.5815      0.00000
     46      42.5815      0.00000
     47      43.1903      0.00000
     48      43.1903      0.00000

 k-point    33 :       0.4444    0.3333    0.3333
  band No.  band energies     occupation 
      1       5.0352      2.00000
      2       5.1757      2.00000
      3       5.3165      2.00000
      4       5.3165      2.00000
      5       6.9081      2.00000
      6       6.9081      2.00000
      7       7.1517      2.00000
      8       7.3973      2.00000
      9       7.5583      2.00000
     10       7.7151      2.00000
     11       7.8257      2.00000
     12       7.8257      2.00000
     13       8.7064      2.00000
     14       8.7370      2.00000
     15       8.7370      2.00000
     16       9.1285      2.00000
     17      10.2595      2.00000
     18      10.4730      2.00000
     19      10.4730      2.00000
     20      10.5141      2.00000
     21      10.8487      2.00000
     22      12.5367      2.00000
     23      14.7065     -0.00000
     24      14.7065     -0.00000
     25      19.5186      0.00000
     26      19.5186      0.00000
     27      21.3533      0.00000
     28      22.6016      0.00000
     29      29.3363      0.00000
     30      29.3363      0.00000
     31      29.8129      0.00000
     32      29.9704      0.00000
     33      31.7413      0.00000
     34      31.7413      0.00000
     35      33.3245      0.00000
     36      33.7849      0.00000
     37      33.7849      0.00000
     38      34.1881      0.00000
     39      34.8191      0.00000
     40      36.0467      0.00000
     41      41.0561      0.00000
     42      41.0751      0.00000
     43      41.7141      0.00000
     44      41.7141      0.00000
     45      41.8458      0.00000
     46      42.4655      0.00000
     47      43.2039      0.00000
     48      43.2066      0.00000

 k-point    34 :       0.4444    0.4444    0.3333
  band No.  band energies     occupation 
      1       4.9695      2.00000
      2       5.0699      2.00000
      3       5.0699      2.00000
      4       5.1179      2.00000
      5       7.0849      2.00000
      6       7.1620      2.00000
      7       7.1620      2.00000
      8       7.3531      2.00000
      9       7.4549      2.00000
     10       7.5663      2.00000
     11       7.5663      2.00000
     12       7.5986      2.00000
     13       9.2805      2.00000
     14       9.3086      2.00000
     15       9.3086      2.00000
     16       9.7283      2.00000
     17      10.1451      2.00000
     18      10.4103      2.00000
     19      10.4132      2.00000
     20      10.4132      2.00000
     21      11.6915      2.00000
     22      13.1104      2.00000
     23      13.1104      2.00000
     24      13.9384      0.37073
     25      19.5191      0.00000
     26      20.2069      0.00000
     27      20.2069      0.00000
     28      21.2733      0.00000
     29      29.3841      0.00000
     30      29.5221      0.00000
     31      29.5221      0.00000
     32      29.6331      0.00000
     33      32.8183      0.00000
     34      33.1382      0.00000
     35      33.1382      0.00000
     36      34.0789      0.00000
     37      34.2308      0.00000
     38      34.6069      0.00000
     39      34.6069      0.00000
     40      35.7376      0.00000
     41      41.0743      0.00000
     42      41.4130      0.00000
     43      41.5174      0.00000
     44      41.5174      0.00000
     45      42.0180      0.00000
     46      42.1220      0.00000
     47      42.2695      0.00000
     48      42.2695      0.00000

 k-point    35 :       0.4444    0.4444    0.4444
  band No.  band energies     occupation 
      1       4.8289      2.00000
      2       4.8818      2.00000
      3       4.8818      2.00000
      4       4.8818      2.00000
      5       7.2539      2.00000
      6       7.2539      2.00000
      7       7.2539      2.00000
      8       7.3492      2.00000
      9       7.3492      2.00000
     10       7.3988      2.00000
     11       7.3988      2.00000
     12       7.3988      2.00000
     13      10.0141      2.00000
     14      10.0141      2.00000
     15      10.0141      2.00000
     16      10.4412      2.00000
     17      10.4412      2.00000
     18      10.5349      2.00000
     19      10.5349      2.00000
     20      10.5349      2.00000
     21      11.7372      2.00000
     22      12.8231      2.00000
     23      12.8231      2.00000
     24      12.8231      2.00000
     25      19.5075      0.00000
     26      19.5075      0.00000
     27      19.5075      0.00000
     28      20.1551      0.00000
     29      29.3203      0.00000
     30      29.3203      0.00000
     31      29.3203      0.00000
     32      29.3476      0.00000
     33      34.2757      0.00000
     34      34.2757      0.00000
     35      34.2757      0.00000
     36      34.3876      0.00000
     37      34.3876      0.00000
     38      34.3876      0.00000
     39      34.9616      0.00000
     40      34.9616      0.00000
     41      41.4339      0.00000
     42      41.4339      0.00000
     43      41.7038      0.00000
     44      41.7038      0.00000
     45      41.7038      0.00000
     46      41.8586      0.00000
     47      41.8586      0.00000
     48      41.8586      0.00000


--------------------------------------------------------------------------------------------------------


 soft charge-density along one line, spin component           1
         0         1         2         3         4         5         6         7         8         9
 total charge-density along one line
 
 pseudopotential strength for first ion, spin component:           1
 -1.722   0.000  -0.000  -0.000   0.000  -2.049   0.000  -0.000
  0.000  -1.722   0.000   0.000   0.000   0.000  -2.049   0.000
 -0.000   0.000  -1.705   0.000   0.000  -0.000   0.000  -2.033
 -0.000   0.000   0.000  -1.722  -0.000  -0.000   0.000   0.000
  0.000   0.000   0.000  -0.000  -1.705   0.000   0.000   0.000
 -2.049   0.000  -0.000  -0.000   0.000  -2.338   0.000  -0.000
  0.000  -2.049   0.000   0.000   0.000   0.000  -2.338   0.000
 -0.000   0.000  -2.033   0.000   0.000  -0.000   0.000  -2.322
 -0.000   0.000   0.000  -2.049  -0.000  -0.000   0.000   0.000
  0.000   0.000   0.000  -0.000  -2.033   0.000   0.000   0.000
 -0.000   0.000  -0.000   0.000   0.000  -0.000   0.000  -0.000
 -0.000   0.000  -0.000   0.000   0.000  -0.000   0.000  -0.000
  0.000  -0.000   0.000  -0.000   0.000   0.000  -0.000   0.000
 -0.000  -0.000  -0.000   0.000  -0.000  -0.000  -0.000  -0.000
 -0.000  -0.000  -0.000  -0.000   0.000  -0.000  -0.000  -0.000
  0.000  -0.000   0.000  -0.000   0.000   0.000  -0.000   0.000
 -0.000  -0.000  -0.000   0.000  -0.000  -0.000  -0.000  -0.000
 -0.000  -0.000   0.000  -0.000  -0.000  -0.000  -0.000   0.000
 total augmentation occupancy for first ion, spin component:           1
  5.549   0.000   0.000   0.000  -0.000  -3.850   0.000   0.000  -0.000  -0.000   0.000   0.000  -0.000  -0.000  -0.000   0.000
 -0.000   5.549   0.000   0.000  -0.000  -0.000  -3.850   0.000  -0.000   0.000   0.000  -0.000   0.000   0.000   0.000   0.000
  0.000   0.000   5.328  -0.000  -0.000  -0.000  -0.000  -3.414  -0.000   0.000  -0.000   0.000  -0.000   0.000  -0.000  -0.000
  0.000   0.000  -0.000   5.549   0.000  -0.000  -0.000  -0.000  -3.850  -0.000   0.000   0.000   0.000  -0.000   0.000  -0.000
 -0.000  -0.000   0.000   0.000   5.328   0.000   0.000  -0.000  -0.000  -3.414  -0.000  -0.000  -0.000   0.000   0.000   0.000
 -3.850  -0.000  -0.000  -0.000   0.000   4.096   0.000  -0.000   0.000  -0.000   0.000  -0.000   0.000  -0.000   0.000  -0.000
  0.000  -3.850  -0.000  -0.000   0.000  -0.000   4.096   0.000   0.000   0.000  -0.000  -0.000  -0.000  -0.000   0.000   0.000
 -0.000   0.000  -3.414  -0.000  -0.000   0.000   0.000   3.472   0.000  -0.000   0.000  -0.000  -0.000   0.000   0.000  -0.000
 -0.000  -0.000  -0.000  -3.850  -0.000  -0.000   0.000   0.000   4.096   0.000   0.000   0.000  -0.000  -0.000  -0.000  -0.000
  0.000   0.000  -0.000  -0.000  -3.414   0.000   0.000   0.000   0.000   3.472  -0.000   0.000  -0.000  -0.000   0.000  -0.000
  0.000   0.000  -0.000  -0.000  -0.000   0.000  -0.000   0.000   0.000  -0.000   3.379  -0.765   0.000   0.000   0.000   0.000
  0.000  -0.000   0.000   0.000  -0.000   0.000  -0.000  -0.000   0.000   0.000  -0.765   0.207   0.000   0.000  -0.000   0.000
 -0.000   0.000  -0.000   0.000   0.000   0.000  -0.000  -0.000  -0.000   0.000   0.000   0.000   0.335  -0.000   0.000  -0.021
 -0.000   0.000  -0.000  -0.000  -0.000  -0.000  -0.000   0.000  -0.000   0.000   0.000   0.000  -0.000   0.335  -0.000   0.000
  0.000   0.000   0.000   0.000  -0.000   0.000  -0.000   0.000  -0.000  -0.000   0.000   0.000   0.000  -0.000   0.335   0.000
  0.000   0.000   0.000  -0.000   0.000  -0.000   0.000  -0.000  -0.000  -0.000   0.000   0.000  -0.021  -0.000  -0.000   0.001
  0.000   0.000  -0.000   0.000   0.000  -0.000   0.000   0.000   0.000  -0.000   0.000   0.000  -0.000  -0.021  -0.000  -0.000
 -0.000  -0.000  -0.000   0.000   0.000  -0.000   0.000   0.000  -0.000   0.000   0.000   0.000  -0.000   0.000  -0.021   0.000


------------------------ aborting loop because EDIFF is reached ----------------------------------------


    CHARGE:  cpu time    0.0062: real time    0.0062
    FORLOC:  cpu time    0.0001: real time    0.0001
    FORNL :  cpu time    0.0586: real time    0.0586
    STRESS:  cpu time    0.1972: real time    0.1973
    FORCOR:  cpu time    0.0021: real time    0.0021
    FORHAR:  cpu time    0.0006: real time    0.0006
    MIXING:  cpu time    0.0003: real time    0.0003
    OFIELD:  cpu time    0.0000: real time    0.0000

  FORCE on cell =-STRESS in cart. coord.  units (eV):
  Direction    XX          YY          ZZ          XY          YZ          ZX
  --------------------------------------------------------------------------------------
  Alpha Z   272.85801   272.85801   272.85801
  Ewald   -1446.80779 -1446.80779 -1446.80779     0.00000     0.00000     0.00000
  Hartree   189.16438   189.16438   189.16438    -0.00000    -0.00000    -0.00000
  E(xc)    -237.31522  -237.31522  -237.31522    -0.00000     0.00000     0.00000
  Local     320.58270   320.58270   320.58270     0.00000     0.00000     0.00000
  n-local    22.48662     3.61920    -1.59193     1.42551     5.10857     2.02206
  augment   365.80071   365.80071   365.80071    -0.00000    -0.00000    -0.00000
  Kinetic   563.78517   554.89821   547.27316    -5.30649    -1.36320    -2.41228
  Fock        0.00000     0.00000     0.00000     0.00000     0.00000     0.00000
  -------------------------------------------------------------------------------------
  Total      27.77293    27.77293    27.77293    -0.00000    -0.00000    -0.00000
  in kB     892.14362   892.14362   892.14362    -0.00000    -0.00000    -0.00000
  external pressure =      892.14 kB  Pullay stress =        0.00 kB


 VOLUME and BASIS-vectors are now :
 -----------------------------------------------------------------------------
  energy-cutoff  :      400.00
  volume of cell :       49.88
      direct lattice vectors                 reciprocal lattice vectors
     3.681000000  0.000000000  0.000000000     0.271665308  0.000000000  0.000000000
     0.000000000  3.681000000  0.000000000     0.000000000  0.271665308  0.000000000
     0.000000000  0.000000000  3.681000000     0.000000000  0.000000000  0.271665308

  length of vectors
     3.681000000  3.681000000  3.681000000     0.271665308  0.271665308  0.271665308


 FORCES acting on ions
    electron-ion (+dipol)            ewald-force                    non-local-force                 convergence-correction
 -----------------------------------------------------------------------------------------------
   -.247E-13 0.916E-14 -.864E-13   -.116E-13 -.620E-14 -.750E-14   0.000E+00 -.165E-22 0.116E-22   0.691E-14 0.351E-13 -.613E-13
   -.250E-13 0.381E-12 0.282E-12   -.120E-13 -.278E-14 0.484E-14   0.000E+00 -.165E-23 0.000E+00   -.198E-14 0.234E-14 0.508E-13
   0.336E-12 0.957E-14 -.419E-12   0.121E-13 0.192E-14 0.501E-14   -.132E-22 0.165E-23 0.000E+00   0.104E-13 0.416E-13 0.703E-13
   0.342E-12 0.384E-12 0.484E-12   0.117E-13 0.534E-14 -.438E-14   0.000E+00 0.000E+00 0.000E+00   -.111E-14 0.104E-13 -.946E-13
 -----------------------------------------------------------------------------------------------
   0.628E-12 0.783E-12 0.261E-12   0.245E-15 -.172E-14 -.203E-14   -.132E-22 -.165E-22 0.116E-22   0.142E-13 0.896E-13 -.348E-13
 
 
 POSITION                                       TOTAL-FORCE (eV/Angst)
 -----------------------------------------------------------------------------------
      0.00000      0.00000      0.00000        -0.000000     -0.000000     -0.000000
      0.00000      1.84050      1.84050         0.000000      0.000000     -0.000000
      1.84050      0.00000      1.84050         0.000000     -0.000000      0.000000
      1.84050      1.84050      0.00000        -0.000000      0.000000     -0.000000
 -----------------------------------------------------------------------------------
    total drift:                                0.000000      0.000000      0.000000


--------------------------------------------------------------------------------------------------------



  FREE ENERGIE OF THE ION-ELECTRON SYSTEM (eV)
  ---------------------------------------------------
  free  energy   TOTEN  =        -6.80407605 eV

  energy  without entropy=       -6.80167412  energy(sigma->0) =       -6.80327541
 


--------------------------------------------------------------------------------------------------------


    POTLOK:  cpu time    0.0048: real time    0.0048


--------------------------------------------------------------------------------------------------------


     LOOP+:  cpu time    5.9250: real time    6.0042
    4ORBIT:  cpu time    0.0000: real time    0.0000

 total amount of memory used by VASP on root node    36447. kBytes
========================================================================

   base      :      30000. kBytes
   nonl-proj :       4777. kBytes
   fftplans  :        113. kBytes
   grid      :        367. kBytes
   one-center:         62. kBytes
   wavefun   :       1128. kBytes
 
  
  
 General timing and accounting informations for this job:
 ========================================================
  
                  Total CPU time used (sec):       23.662
                            User time (sec):       23.508
                          System time (sec):        0.154
                         Elapsed time (sec):       24.139
  
                   Maximum memory used (kb):       61908.
                   Average memory used (kb):           0.
  
                          Minor page faults:        13049
                          Major page faults:           10
                 Voluntary context switches:         1459
