<?xml version="1.0" encoding="ISO-8859-1"?>
<modeling>
 <generator>
  <i name="program" type="string">vasp </i>
  <i name="version" type="string">5.4.1  </i>
  <i name="subversion" type="string">05Feb16 (build Feb 08 2018 09:21:51) complex                          parallel </i>
  <i name="platform" type="string">LinuxIFC </i>
  <i name="date" type="string">2019 11 21 </i>
  <i name="time" type="string">15:54:08 </i>
 </generator>
 <incar>
  <i type="string" name="PREC">normal</i>
  <i name="ENCUT">    400.00000000</i>
  <i type="int" name="ISMEAR">     1</i>
  <i name="SIGMA">      0.10000000</i>
  <i type="logical" name="LWAVE"> F  </i>
  <i type="logical" name="LCHARG"> F  </i>
  <v type="int" name="KPOINT_BSE">    -1     0     0     0</v>
 </incar>
 <kpoints>
  <generation param="Monkhorst-Pack">
   <v type="int" name="divisions">       9        9        9 </v>
   <v name="usershift">      0.00000000       0.00000000       0.00000000 </v>
   <v name="genvec1">      0.11111111       0.00000000       0.00000000 </v>
   <v name="genvec2">      0.00000000       0.11111111       0.00000000 </v>
   <v name="genvec3">      0.00000000       0.00000000       0.11111111 </v>
   <v name="shift">      0.00000000       0.00000000       0.00000000 </v>
  </generation>
  <varray name="kpointlist" >
   <v>       0.00000000       0.00000000       0.00000000 </v>
   <v>       0.11111111       0.00000000       0.00000000 </v>
   <v>       0.22222222       0.00000000       0.00000000 </v>
   <v>       0.33333333       0.00000000       0.00000000 </v>
   <v>       0.44444444       0.00000000       0.00000000 </v>
   <v>       0.11111111       0.11111111       0.00000000 </v>
   <v>       0.22222222       0.11111111       0.00000000 </v>
   <v>       0.33333333       0.11111111       0.00000000 </v>
   <v>       0.44444444       0.11111111       0.00000000 </v>
   <v>       0.22222222       0.22222222       0.00000000 </v>
   <v>       0.33333333       0.22222222       0.00000000 </v>
   <v>       0.44444444       0.22222222       0.00000000 </v>
   <v>       0.33333333       0.33333333       0.00000000 </v>
   <v>       0.44444444       0.33333333       0.00000000 </v>
   <v>       0.44444444       0.44444444       0.00000000 </v>
   <v>       0.11111111       0.11111111       0.11111111 </v>
   <v>       0.22222222       0.11111111       0.11111111 </v>
   <v>       0.33333333       0.11111111       0.11111111 </v>
   <v>       0.44444444       0.11111111       0.11111111 </v>
   <v>       0.22222222       0.22222222       0.11111111 </v>
   <v>       0.33333333       0.22222222       0.11111111 </v>
   <v>       0.44444444       0.22222222       0.11111111 </v>
   <v>       0.33333333       0.33333333       0.11111111 </v>
   <v>       0.44444444       0.33333333       0.11111111 </v>
   <v>       0.44444444       0.44444444       0.11111111 </v>
   <v>       0.22222222       0.22222222       0.22222222 </v>
   <v>       0.33333333       0.22222222       0.22222222 </v>
   <v>       0.44444444       0.22222222       0.22222222 </v>
   <v>       0.33333333       0.33333333       0.22222222 </v>
   <v>       0.44444444       0.33333333       0.22222222 </v>
   <v>       0.44444444       0.44444444       0.22222222 </v>
   <v>       0.33333333       0.33333333       0.33333333 </v>
   <v>       0.44444444       0.33333333       0.33333333 </v>
   <v>       0.44444444       0.44444444       0.33333333 </v>
   <v>       0.44444444       0.44444444       0.44444444 </v>
  </varray>
  <varray name="weights" >
   <v>       0.00137174 </v>
   <v>       0.00823045 </v>
   <v>       0.00823045 </v>
   <v>       0.00823045 </v>
   <v>       0.00823045 </v>
   <v>       0.01646091 </v>
   <v>       0.03292181 </v>
   <v>       0.03292181 </v>
   <v>       0.03292181 </v>
   <v>       0.01646091 </v>
   <v>       0.03292181 </v>
   <v>       0.03292181 </v>
   <v>       0.01646091 </v>
   <v>       0.03292181 </v>
   <v>       0.01646091 </v>
   <v>       0.01097394 </v>
   <v>       0.03292181 </v>
   <v>       0.03292181 </v>
   <v>       0.03292181 </v>
   <v>       0.03292181 </v>
   <v>       0.06584362 </v>
   <v>       0.06584362 </v>
   <v>       0.03292181 </v>
   <v>       0.06584362 </v>
   <v>       0.03292181 </v>
   <v>       0.01097394 </v>
   <v>       0.03292181 </v>
   <v>       0.03292181 </v>
   <v>       0.03292181 </v>
   <v>       0.06584362 </v>
   <v>       0.03292181 </v>
   <v>       0.01097394 </v>
   <v>       0.03292181 </v>
   <v>       0.03292181 </v>
   <v>       0.01097394 </v>
  </varray>
 </kpoints>
 <parameters>
  <separator name="general" >
   <i type="string" name="SYSTEM">unknown system</i>
   <i type="logical" name="LCOMPAT"> F  </i>
  </separator>
  <separator name="electronic" >
   <i type="string" name="PREC">normal</i>
   <i name="ENMAX">    400.00000000</i>
   <i name="ENAUG">    412.49600000</i>
   <i name="EDIFF">      0.00010000</i>
   <i type="int" name="IALGO">    38</i>
   <i type="int" name="IWAVPR">    10</i>
   <i type="int" name="NBANDS">    48</i>
   <i name="NELECT">     44.00000000</i>
   <i type="int" name="TURBO">     0</i>
   <i type="int" name="IRESTART">     0</i>
   <i type="int" name="NREBOOT">     0</i>
   <i type="int" name="NMIN">     0</i>
   <i name="EREF">      0.00000000</i>
   <separator name="electronic smearing" >
    <i type="int" name="ISMEAR">     1</i>
    <i name="SIGMA">      0.10000000</i>
    <i name="KSPACING">      0.50000000</i>
    <i type="logical" name="KGAMMA"> T  </i>
   </separator>
   <separator name="electronic projectors" >
    <i type="logical" name="LREAL"> F  </i>
    <v name="ROPT">      0.00000000</v>
    <i type="int" name="LMAXPAW">  -100</i>
    <i type="int" name="LMAXMIX">     2</i>
    <i type="logical" name="NLSPLINE"> F  </i>
   </separator>
   <separator name="electronic startup" >
    <i type="int" name="ISTART">     0</i>
    <i type="int" name="ICHARG">     2</i>
    <i type="int" name="INIWAV">     1</i>
   </separator>
   <separator name="electronic spin" >
    <i type="int" name="ISPIN">     1</i>
    <i type="logical" name="LNONCOLLINEAR"> F  </i>
    <v name="MAGMOM">      1.00000000      1.00000000      1.00000000      1.00000000</v>
    <i name="NUPDOWN">     -1.00000000</i>
    <i type="logical" name="LSORBIT"> F  </i>
    <v name="SAXIS">      0.00000000      0.00000000      1.00000000</v>
    <i type="logical" name="LSPIRAL"> F  </i>
    <v name="QSPIRAL">      0.00000000      0.00000000      0.00000000</v>
    <i type="logical" name="LZEROZ"> F  </i>
   </separator>
   <separator name="electronic exchange-correlation" >
    <i type="logical" name="LASPH"> F  </i>
    <i type="logical" name="LMETAGGA"> F  </i>
   </separator>
   <separator name="electronic convergence" >
    <i type="int" name="NELM">    60</i>
    <i type="int" name="NELMDL">    -5</i>
    <i type="int" name="NELMIN">     2</i>
    <i name="ENINI">    400.00000000</i>
    <separator name="electronic convergence detail" >
     <i type="logical" name="LDIAG"> T  </i>
     <i type="logical" name="LSUBROT"> F  </i>
     <i name="WEIMIN">      0.00000000</i>
     <i name="EBREAK">      0.00000052</i>
     <i name="DEPER">      0.30000000</i>
     <i type="int" name="NRMM">     4</i>
     <i name="TIME">      0.40000000</i>
    </separator>
   </separator>
   <separator name="electronic mixer" >
    <i name="AMIX">      0.40000000</i>
    <i name="BMIX">      1.00000000</i>
    <i name="AMIN">      0.10000000</i>
    <i name="AMIX_MAG">      1.60000000</i>
    <i name="BMIX_MAG">      1.00000000</i>
    <separator name="electronic mixer details" >
     <i type="int" name="IMIX">     4</i>
     <i type="logical" name="MIXFIRST"> F  </i>
     <i type="int" name="MAXMIX">   -45</i>
     <i name="WC">    100.00000000</i>
     <i type="int" name="INIMIX">     1</i>
     <i type="int" name="MIXPRE">     1</i>
     <i type="int" name="MREMOVE">     5</i>
    </separator>
   </separator>
   <separator name="electronic dipolcorrection" >
    <i type="logical" name="LDIPOL"> F  </i>
    <i type="logical" name="LMONO"> F  </i>
    <i type="int" name="IDIPOL">     0</i>
    <i name="EPSILON">      1.00000000</i>
    <v name="DIPOL">   -100.00000000   -100.00000000   -100.00000000</v>
    <i name="EFIELD">      0.00000000</i>
   </separator>
  </separator>
  <separator name="grids" >
   <i type="int" name="NGX">    18</i>
   <i type="int" name="NGY">    18</i>
   <i type="int" name="NGZ">    18</i>
   <i type="int" name="NGXF">    36</i>
   <i type="int" name="NGYF">    36</i>
   <i type="int" name="NGZF">    36</i>
   <i type="logical" name="ADDGRID"> F  </i>
  </separator>
  <separator name="ionic" >
   <i type="int" name="NSW">     0</i>
   <i type="int" name="IBRION">    -1</i>
   <i type="int" name="ISIF">     2</i>
   <i name="PSTRESS">      0.00000000</i>
   <i name="EDIFFG">      0.00100000</i>
   <i type="int" name="NFREE">     0</i>
   <i name="POTIM">      0.50000000</i>
   <i name="SMASS">     -3.00000000</i>
   <i name="SCALEE">      1.00000000</i>
  </separator>
  <separator name="ionic md" >
   <i name="TEBEG">      0.00010000</i>
   <i name="TEEND">      0.00010000</i>
   <i type="int" name="NBLOCK">     1</i>
   <i type="int" name="KBLOCK">     1</i>
   <i type="int" name="NPACO">   256</i>
   <i name="APACO">     16.00000000</i>
  </separator>
  <separator name="symmetry" >
   <i type="int" name="ISYM">     2</i>
   <i name="SYMPREC">      0.00001000</i>
  </separator>
  <separator name="dos" >
   <i type="logical" name="LORBIT"> F  </i>
   <v name="RWIGS">     -1.00000000</v>
   <i type="int" name="NEDOS">   301</i>
   <i name="EMIN">     10.00000000</i>
   <i name="EMAX">    -10.00000000</i>
   <i name="EFERMI">      0.00000000</i>
  </separator>
  <separator name="writing" >
   <i type="int" name="NWRITE">     2</i>
   <i type="logical" name="LWAVE"> F  </i>
   <i type="logical" name="LCHARG"> F  </i>
   <i type="logical" name="LPARD"> F  </i>
   <i type="logical" name="LVTOT"> F  </i>
   <i type="logical" name="LVHAR"> F  </i>
   <i type="logical" name="LELF"> F  </i>
   <i type="logical" name="LOPTICS"> F  </i>
   <v name="STM">      0.00000000      0.00000000      0.00000000      0.00000000      0.00000000      0.00000000      0.00000000</v>
  </separator>
  <separator name="performance" >
   <i type="int" name="NPAR">    24</i>
   <i type="int" name="NSIM">     4</i>
   <i type="int" name="NBLK">    -1</i>
   <i type="logical" name="LPLANE"> T  </i>
   <i type="logical" name="LSCALAPACK"> F  </i>
   <i type="logical" name="LSCAAWARE"> F  </i>
   <i type="logical" name="LSCALU"> F  </i>
   <i type="logical" name="LASYNC"> F  </i>
   <i type="logical" name="LORBITALREAL"> F  </i>
  </separator>
  <separator name="miscellaneous" >
   <i type="int" name="IDIOT">     3</i>
   <i type="logical" name="LMUSIC"> F  </i>
   <v name="POMASS">    107.86800000</v>
   <v name="DARWINR">      0.00000000</v>
   <v name="DARWINV">      1.00000000</v>
   <i type="logical" name="LCORR"> T  </i>
  </separator>
  <i type="logical" name="GGA_COMPAT"> T  </i>
  <i type="logical" name="LBERRY"> F  </i>
  <i type="int" name="ICORELEVEL">     0</i>
  <i type="logical" name="LDAU"> F  </i>
  <i type="int" name="I_CONSTRAINED_M">     0</i>
  <separator name="electronic exchange-correlation" >
   <i type="string" name="GGA">--</i>
   <i type="int" name="VOSKOWN">     0</i>
   <i type="logical" name="LHFCALC"> F  </i>
   <i type="string" name="PRECFOCK"></i>
   <i type="logical" name="LSYMGRAD"> F  </i>
   <i type="logical" name="LHFONE"> F  </i>
   <i type="logical" name="LRHFCALC"> F  </i>
   <i type="logical" name="LTHOMAS"> F  </i>
   <i type="logical" name="LMODELHF"> F  </i>
   <i name="ENCUT4O">     -1.00000000</i>
   <i type="int" name="EXXOEP">     0</i>
   <i type="int" name="FOURORBIT">     0</i>
   <i name="AEXX">      0.00000000</i>
   <i name="HFALPHA">      0.00000000</i>
   <i name="MCALPHA">      0.00000000</i>
   <i name="ALDAX">      1.00000000</i>
   <i name="AGGAX">      1.00000000</i>
   <i name="ALDAC">      1.00000000</i>
   <i name="AGGAC">      1.00000000</i>
   <i type="int" name="NKREDX">     1</i>
   <i type="int" name="NKREDY">     1</i>
   <i type="int" name="NKREDZ">     1</i>
   <i type="logical" name="SHIFTRED"> F  </i>
   <i type="logical" name="ODDONLY"> F  </i>
   <i type="logical" name="EVENONLY"> F  </i>
   <i type="int" name="LMAXFOCK">     0</i>
   <i type="int" name="NMAXFOCKAE">     0</i>
   <i type="logical" name="LFOCKAEDFT"> F  </i>
   <i name="HFSCREEN">      0.00000000</i>
   <i name="HFSCREENC">      0.00000000</i>
   <i type="int" name="NBANDSGWLOW">     0</i>
  </separator>
  <separator name="vdW DFT" >
   <i type="logical" name="LUSE_VDW"> F  </i>
   <i name="Zab_VDW">     -0.84910000</i>
   <i name="PARAM1">      0.12340000</i>
   <i name="PARAM2">      1.00000000</i>
   <i name="PARAM3">      0.00000000</i>
  </separator>
  <separator name="model GW" >
   <i type="int" name="MODEL_GW">     0</i>
   <i name="MODEL_EPS0">      7.48150054</i>
   <i name="MODEL_ALPHA">      1.00000000</i>
  </separator>
  <separator name="linear response parameters" >
   <i type="logical" name="LEPSILON"> F  </i>
   <i type="logical" name="LRPA"> F  </i>
   <i type="logical" name="LNABLA"> F  </i>
   <i type="logical" name="LVEL"> F  </i>
   <i type="int" name="KINTER">     0</i>
   <i name="CSHIFT">      0.10000000</i>
   <i name="OMEGAMAX">     -1.00000000</i>
   <i name="DEG_THRESHOLD">      0.00200000</i>
  </separator>
  <separator name="orbital magnetization" >
   <i type="logical" name="NUCIND"> F  </i>
   <v name="MAGPOS">      0.00000000      0.00000000      0.00000000</v>
   <i type="logical" name="LNICSALL"> T  </i>
   <i type="logical" name="ORBITALMAG"> F  </i>
   <i type="logical" name="LMAGBLOCH"> F  </i>
   <i type="logical" name="LCHIMAG"> F  </i>
   <i type="logical" name="LGAUGE"> T  </i>
   <i type="int" name="MAGATOM">     0</i>
   <v name="MAGDIPOL">      0.00000000      0.00000000      0.00000000</v>
   <v name="AVECCONST">      0.00000000      0.00000000      0.00000000</v>
  </separator>
  <separator name="response functions" >
   <i type="logical" name="LADDER"> F  </i>
   <i type="logical" name="LFXC"> F  </i>
   <i type="logical" name="LHARTREE"> T  </i>
   <i type="int" name="IBSE">     0</i>
   <v type="int" name="KPOINT">    -1     0     0     0</v>
   <i type="logical" name="LTCTE"> F  </i>
   <i type="logical" name="LTETE"> F  </i>
   <i type="logical" name="LTRIPLET"> F  </i>
   <i type="logical" name="LFXCEPS"> F  </i>
   <i type="logical" name="LFXHEG"> F  </i>
   <i type="int" name="NATURALO">     0</i>
   <i type="logical" name="L2ORDER"> F  </i>
   <i type="logical" name="LUSEW"> F  </i>
   <i name="ENCUTGW">     -2.00000000</i>
   <i name="ENCUTGWSOFT">     -2.00000000</i>
   <i name="ENCUTLF">     -1.00000000</i>
   <i type="int" name="LMAXMP2">    -1</i>
   <i name="SCISSOR">      0.00000000</i>
   <i type="int" name="NOMEGA">     0</i>
   <i type="int" name="NOMEGAR">     0</i>
   <i type="int" name="NBANDSGW">    -1</i>
   <i type="int" name="NBANDSO">    -1</i>
   <i type="int" name="NBANDSV">    -1</i>
   <i type="int" name="NELM">     1</i>
   <i type="int" name="NELMHF">     1</i>
   <i type="int" name="DIM">     3</i>
   <i type="int" name="ANTIRES">     0</i>
   <i name="OMEGAMAX">    -30.00000000</i>
   <i name="OMEGAMIN">    -30.00000000</i>
   <i name="OMEGATL">   -200.00000000</i>
   <i type="int" name="OMEGAGRID">     0</i>
   <i name="CSHIFT">     -0.10000000</i>
   <i type="logical" name="SELFENERGY"> F  </i>
   <i type="logical" name="LSPECTRAL"> F  </i>
   <i type="logical" name="LSPECTRALGW"> F  </i>
   <i type="logical" name="LSINGLES"> F  </i>
   <i type="logical" name="LFERMIGW"> F  </i>
   <i type="logical" name="ODDONLYGW"> F  </i>
   <i type="logical" name="EVENONLYGW"> F  </i>
   <i type="int" name="NKREDLFX">     1</i>
   <i type="int" name="NKREDLFY">     1</i>
   <i type="int" name="NKREDLFZ">     1</i>
   <i type="int" name="MAXMEM">  1800</i>
   <i type="int" name="TELESCOPE">     0</i>
   <i type="int" name="TAUPAR">     1</i>
   <i type="int" name="OMEGAPAR">    -1</i>
   <i name="LAMBDA">      1.00000000</i>
  </separator>
  <separator name="External order field" >
   <i name="OFIELD_KAPPA">      0.00000000</i>
   <v name="OFIELD_K">      0.00000000      0.00000000      0.00000000</v>
   <i name="OFIELD_Q6_NEAR">      0.00000000</i>
   <i name="OFIELD_Q6_FAR">      0.00000000</i>
   <i name="OFIELD_A">      0.00000000</i>
  </separator>
 </parameters>
 <atominfo>
  <atoms>       4 </atoms>
  <types>       1 </types>
  <array name="atoms" >
   <dimension dim="1">ion</dimension>
   <field type="string">element</field>
   <field type="int">atomtype</field>
   <set>
    <rc><c>Ag</c><c>   1</c></rc>
    <rc><c>Ag</c><c>   1</c></rc>
    <rc><c>Ag</c><c>   1</c></rc>
    <rc><c>Ag</c><c>   1</c></rc>
   </set>
  </array>
  <array name="atomtypes" >
   <dimension dim="1">type</dimension>
   <field type="int">atomspertype</field>
   <field type="string">element</field>
   <field>mass</field>
   <field>valence</field>
   <field type="string">pseudopotential</field>
   <set>
    <rc><c>   4</c><c>Ag</c><c>    107.86800000</c><c>     11.00000000</c><c>  PAW_PBE Ag 02Apr2005                  </c></rc>
   </set>
  </array>
 </atominfo>
 <structure name="initialpos" >
  <crystal>
   <varray name="basis" >
    <v>       3.68100000       0.00000000       0.00000000 </v>
    <v>       0.00000000       3.68100000       0.00000000 </v>
    <v>       0.00000000       0.00000000       3.68100000 </v>
   </varray>
   <i name="volume">     49.87667024 </i>
   <varray name="rec_basis" >
    <v>       0.27166531       0.00000000       0.00000000 </v>
    <v>       0.00000000       0.27166531       0.00000000 </v>
    <v>       0.00000000       0.00000000       0.27166531 </v>
   </varray>
  </crystal>
  <varray name="positions" >
   <v>       0.00000000       0.00000000       0.00000000 </v>
   <v>       0.00000000       0.50000000       0.50000000 </v>
   <v>       0.50000000       0.00000000       0.50000000 </v>
   <v>       0.50000000       0.50000000       0.00000000 </v>
  </varray>
 </structure>
 <calculation>
  <scstep>
   <time name="dav">    0.46    0.46</time>
   <time name="total">    0.50    0.50</time>
   <energy>
    <i name="alphaZ">    272.85801234 </i>
    <i name="ewald">  -4340.42145592 </i>
    <i name="hartreedc">   -623.63724975 </i>
    <i name="XCdc">    -37.39792590 </i>
    <i name="pawpsdc">   4013.84859731 </i>
    <i name="pawaedc">  -3829.39709692 </i>
    <i name="eentropy">      0.00090475 </i>
    <i name="bandstr">    596.68778831 </i>
    <i name="atom">   4149.03371350 </i>
    <i name="e_fr_energy">    201.57528772 </i>
    <i name="e_wo_entrp">    201.57438297 </i>
    <i name="e_0_energy">    201.57498614 </i>
   </energy>
  </scstep>
  <scstep>
   <time name="dav">    0.66    0.66</time>
   <time name="total">    0.66    0.66</time>
   <energy>
    <i name="e_fr_energy">     -4.90630623 </i>
    <i name="e_wo_entrp">     -4.90667232 </i>
    <i name="e_0_energy">     -4.90642826 </i>
   </energy>
  </scstep>
  <scstep>
   <time name="dav">    0.58    0.59</time>
   <time name="total">    0.59    0.60</time>
   <energy>
    <i name="e_fr_energy">     -8.03341401 </i>
    <i name="e_wo_entrp">     -8.03358179 </i>
    <i name="e_0_energy">     -8.03346994 </i>
   </energy>
  </scstep>
  <scstep>
   <time name="dav">    0.73    0.73</time>
   <time name="total">    0.73    0.74</time>
   <energy>
    <i name="e_fr_energy">     -8.04161328 </i>
    <i name="e_wo_entrp">     -8.04178000 </i>
    <i name="e_0_energy">     -8.04166885 </i>
   </energy>
  </scstep>
  <scstep>
   <time name="dav">    0.56    0.57</time>
   <time name="total">    0.58    0.59</time>
   <energy>
    <i name="e_fr_energy">     -8.04166995 </i>
    <i name="e_wo_entrp">     -8.04183665 </i>
    <i name="e_0_energy">     -8.04172552 </i>
   </energy>
  </scstep>
  <scstep>
   <time name="dav">    0.72    0.72</time>
   <time name="total">    0.74    0.74</time>
   <energy>
    <i name="e_fr_energy">     -6.97060724 </i>
    <i name="e_wo_entrp">     -6.96789341 </i>
    <i name="e_0_energy">     -6.96970263 </i>
   </energy>
  </scstep>
  <scstep>
   <time name="dav">    0.63    0.63</time>
   <time name="total">    0.64    0.65</time>
   <energy>
    <i name="e_fr_energy">     -6.82188834 </i>
    <i name="e_wo_entrp">     -6.81964531 </i>
    <i name="e_0_energy">     -6.82114066 </i>
   </energy>
  </scstep>
  <scstep>
   <time name="dav">    0.58    0.58</time>
   <time name="total">    0.59    0.60</time>
   <energy>
    <i name="e_fr_energy">     -6.80404620 </i>
    <i name="e_wo_entrp">     -6.80164634 </i>
    <i name="e_0_energy">     -6.80324624 </i>
   </energy>
  </scstep>
  <scstep>
   <time name="dav">    0.56    0.56</time>
   <time name="total">    0.60    0.63</time>
   <energy>
    <i name="alphaZ">    272.85801234 </i>
    <i name="ewald">  -4340.42145592 </i>
    <i name="hartreedc">   -567.50527639 </i>
    <i name="XCdc">    -39.32135461 </i>
    <i name="pawpsdc">   5318.72276944 </i>
    <i name="pawaedc">  -5155.60624028 </i>
    <i name="eentropy">     -0.00240192 </i>
    <i name="bandstr">    355.43815778 </i>
    <i name="atom">   4149.03371350 </i>
    <i name="e_fr_energy">     -6.80407605 </i>
    <i name="e_wo_entrp">     -6.80167412 </i>
    <i name="e_0_energy">     -6.80327541 </i>
   </energy>
  </scstep>
  <structure>
   <crystal>
    <varray name="basis" >
     <v>       3.68100000       0.00000000       0.00000000 </v>
     <v>       0.00000000       3.68100000       0.00000000 </v>
     <v>       0.00000000       0.00000000       3.68100000 </v>
    </varray>
    <i name="volume">     49.87667024 </i>
    <varray name="rec_basis" >
     <v>       0.27166531       0.00000000       0.00000000 </v>
     <v>       0.00000000       0.27166531       0.00000000 </v>
     <v>       0.00000000       0.00000000       0.27166531 </v>
    </varray>
   </crystal>
   <varray name="positions" >
    <v>       0.00000000       0.00000000       0.00000000 </v>
    <v>       0.00000000       0.50000000       0.50000000 </v>
    <v>       0.50000000       0.00000000       0.50000000 </v>
    <v>       0.50000000       0.50000000       0.00000000 </v>
   </varray>
  </structure>
  <varray name="forces" >
   <v>      -0.00000000      -0.00000000      -0.00000000 </v>
   <v>       0.00000000       0.00000000      -0.00000000 </v>
   <v>       0.00000000      -0.00000000       0.00000000 </v>
   <v>      -0.00000000       0.00000000      -0.00000000 </v>
  </varray>
  <varray name="stress" >
   <v>     892.14361553       0.00000000      -0.00000000 </v>
   <v>      -0.00000000     892.14361553       0.00000000 </v>
   <v>       0.00000000      -0.00000000     892.14361553 </v>
  </varray>
  <energy>
   <i name="e_fr_energy">     -6.80407605 </i>
   <i name="e_wo_entrp">     -6.80327541 </i>
   <i name="e_0_energy">     -0.00240192 </i>
  </energy>
  <time name="totalsc">    5.93    6.00</time>
  <eigenvalues>
   <array>
    <dimension dim="1">band</dimension>
    <dimension dim="2">kpoint</dimension>
    <dimension dim="3">spin</dimension>
    <field>eigene</field>
    <field>occ</field>
    <set>
     <set comment="spin 1">
      <set comment="kpoint 1">
       <r>    3.2611    1.0000 </r>
       <r>    4.5801    1.0000 </r>
       <r>    4.5801    1.0000 </r>
       <r>    4.5801    1.0000 </r>
       <r>    4.8551    1.0000 </r>
       <r>    4.8551    1.0000 </r>
       <r>    4.8551    1.0000 </r>
       <r>    7.3802    1.0000 </r>
       <r>    7.3802    1.0000 </r>
       <r>    7.3802    1.0000 </r>
       <r>    9.1663    1.0000 </r>
       <r>    9.1663    1.0000 </r>
       <r>   10.4853    1.0000 </r>
       <r>   10.4853    1.0000 </r>
       <r>   10.4853    1.0000 </r>
       <r>   10.8921    1.0000 </r>
       <r>   10.8921    1.0000 </r>
       <r>   10.8921    1.0000 </r>
       <r>   10.8921    1.0000 </r>
       <r>   10.8921    1.0000 </r>
       <r>   10.8921    1.0000 </r>
       <r>   14.9818   -0.0000 </r>
       <r>   14.9818   -0.0000 </r>
       <r>   14.9818   -0.0000 </r>
       <r>   23.3003    0.0000 </r>
       <r>   23.3003    0.0000 </r>
       <r>   23.3003    0.0000 </r>
       <r>   25.9303    0.0000 </r>
       <r>   25.9303    0.0000 </r>
       <r>   25.9303    0.0000 </r>
       <r>   25.9303    0.0000 </r>
       <r>   25.9303    0.0000 </r>
       <r>   25.9303    0.0000 </r>
       <r>   29.9148    0.0000 </r>
       <r>   35.2013    0.0000 </r>
       <r>   35.2013    0.0000 </r>
       <r>   35.2013    0.0000 </r>
       <r>   35.3984    0.0000 </r>
       <r>   35.3984    0.0000 </r>
       <r>   35.3984    0.0000 </r>
       <r>   35.4952    0.0000 </r>
       <r>   35.4952    0.0000 </r>
       <r>   35.4952    0.0000 </r>
       <r>   41.2145    0.0000 </r>
       <r>   45.3494    0.0000 </r>
       <r>   45.3494    0.0000 </r>
       <r>   45.3494    0.0000 </r>
       <r>   46.3163    0.0000 </r>
      </set>
      <set comment="kpoint 2">
       <r>    3.4297    1.0000 </r>
       <r>    4.6679    1.0000 </r>
       <r>    4.6872    1.0000 </r>
       <r>    4.6872    1.0000 </r>
       <r>    4.9192    1.0000 </r>
       <r>    4.9563    1.0000 </r>
       <r>    4.9563    1.0000 </r>
       <r>    7.2883    1.0000 </r>
       <r>    7.4579    1.0000 </r>
       <r>    7.4579    1.0000 </r>
       <r>    9.0718    1.0000 </r>
       <r>    9.2031    1.0000 </r>
       <r>   10.3554    1.0000 </r>
       <r>   10.3554    1.0000 </r>
       <r>   10.3939    1.0000 </r>
       <r>   10.3939    1.0000 </r>
       <r>   10.4419    1.0000 </r>
       <r>   10.7375    1.0000 </r>
       <r>   10.7375    1.0000 </r>
       <r>   10.8924    1.0000 </r>
       <r>   10.8924    1.0000 </r>
       <r>   14.1939   -0.0001 </r>
       <r>   15.5928   -0.0000 </r>
       <r>   15.5928   -0.0000 </r>
       <r>   23.2761    0.0000 </r>
       <r>   23.2761    0.0000 </r>
       <r>   24.2541    0.0000 </r>
       <r>   25.6056    0.0000 </r>
       <r>   25.6056    0.0000 </r>
       <r>   25.6203    0.0000 </r>
       <r>   25.6203    0.0000 </r>
       <r>   26.2706    0.0000 </r>
       <r>   26.2706    0.0000 </r>
       <r>   30.1065    0.0000 </r>
       <r>   34.7576    0.0000 </r>
       <r>   35.0751    0.0000 </r>
       <r>   35.3294    0.0000 </r>
       <r>   35.3294    0.0000 </r>
       <r>   35.4346    0.0000 </r>
       <r>   35.4444    0.0000 </r>
       <r>   35.4444    0.0000 </r>
       <r>   36.2466    0.0000 </r>
       <r>   36.2466    0.0000 </r>
       <r>   42.3508    0.0000 </r>
       <r>   44.5090    0.0000 </r>
       <r>   44.5090    0.0000 </r>
       <r>   45.5051    0.0000 </r>
       <r>   45.9349    0.0000 </r>
      </set>
      <set comment="kpoint 3">
       <r>    3.9137    1.0000 </r>
       <r>    4.9116    1.0000 </r>
       <r>    4.9849    1.0000 </r>
       <r>    4.9849    1.0000 </r>
       <r>    5.1070    1.0000 </r>
       <r>    5.2582    1.0000 </r>
       <r>    5.2582    1.0000 </r>
       <r>    7.0301    1.0000 </r>
       <r>    7.6866    1.0000 </r>
       <r>    7.6866    1.0000 </r>
       <r>    8.8196    1.0000 </r>
       <r>    9.3100    1.0000 </r>
       <r>    9.3751    1.0000 </r>
       <r>    9.3751    1.0000 </r>
       <r>    9.9977    1.0000 </r>
       <r>    9.9977    1.0000 </r>
       <r>   10.3186    1.0000 </r>
       <r>   10.3209    1.0000 </r>
       <r>   10.3209    1.0000 </r>
       <r>   10.8931    1.0000 </r>
       <r>   10.8931    1.0000 </r>
       <r>   12.5132    1.0000 </r>
       <r>   16.9440    0.0000 </r>
       <r>   16.9440    0.0000 </r>
       <r>   23.2142    0.0000 </r>
       <r>   23.2142    0.0000 </r>
       <r>   24.7542    0.0000 </r>
       <r>   24.7542    0.0000 </r>
       <r>   24.9271    0.0000 </r>
       <r>   24.9271    0.0000 </r>
       <r>   26.3919    0.0000 </r>
       <r>   27.2359    0.0000 </r>
       <r>   27.2359    0.0000 </r>
       <r>   30.6473    0.0000 </r>
       <r>   33.6203    0.0000 </r>
       <r>   34.7001    0.0000 </r>
       <r>   34.9571    0.0000 </r>
       <r>   34.9571    0.0000 </r>
       <r>   35.3731    0.0000 </r>
       <r>   36.1511    0.0000 </r>
       <r>   36.1511    0.0000 </r>
       <r>   38.1633    0.0000 </r>
       <r>   38.1633    0.0000 </r>
       <r>   43.2167    0.0000 </r>
       <r>   43.2167    0.0000 </r>
       <r>   44.6238    0.0000 </r>
       <r>   44.6238    0.0000 </r>
       <r>   44.8286    0.0000 </r>
      </set>
      <set comment="kpoint 4">
       <r>    4.6228    1.0000 </r>
       <r>    5.2412    1.0000 </r>
       <r>    5.3884    1.0000 </r>
       <r>    5.3884    1.0000 </r>
       <r>    5.4048    1.0000 </r>
       <r>    5.7558    1.0000 </r>
       <r>    5.7558    1.0000 </r>
       <r>    6.6539    1.0000 </r>
       <r>    8.0566    1.0000 </r>
       <r>    8.0566    1.0000 </r>
       <r>    8.2909    1.0000 </r>
       <r>    8.2909    1.0000 </r>
       <r>    8.5324    1.0000 </r>
       <r>    9.4757    1.0000 </r>
       <r>    9.5210    1.0000 </r>
       <r>    9.5210    1.0000 </r>
       <r>    9.7496    1.0000 </r>
       <r>    9.7496    1.0000 </r>
       <r>   10.1334    1.0000 </r>
       <r>   10.7274    1.0000 </r>
       <r>   10.8941    1.0000 </r>
       <r>   10.8941    1.0000 </r>
       <r>   18.5628    0.0000 </r>
       <r>   18.5628    0.0000 </r>
       <r>   23.1421    0.0000 </r>
       <r>   23.1421    0.0000 </r>
       <r>   23.4760    0.0000 </r>
       <r>   23.4760    0.0000 </r>
       <r>   24.3190    0.0000 </r>
       <r>   24.3190    0.0000 </r>
       <r>   28.6898    0.0000 </r>
       <r>   28.6898    0.0000 </r>
       <r>   28.7601    0.0000 </r>
       <r>   31.4446    0.0000 </r>
       <r>   32.6132    0.0000 </r>
       <r>   33.9480    0.0000 </r>
       <r>   33.9480    0.0000 </r>
       <r>   34.0922    0.0000 </r>
       <r>   35.6814    0.0000 </r>
       <r>   37.2778    0.0000 </r>
       <r>   37.2778    0.0000 </r>
       <r>   40.6592    0.0000 </r>
       <r>   40.6592    0.0000 </r>
       <r>   42.6545    0.0000 </r>
       <r>   42.6545    0.0000 </r>
       <r>   42.6867    0.0000 </r>
       <r>   42.7389    0.0000 </r>
       <r>   42.7389    0.0000 </r>
      </set>
      <set comment="kpoint 5">
       <r>    5.2903    1.0000 </r>
       <r>    5.4804    1.0000 </r>
       <r>    5.7133    1.0000 </r>
       <r>    5.7133    1.0000 </r>
       <r>    5.7880    1.0000 </r>
       <r>    6.2207    1.0000 </r>
       <r>    6.4393    1.0000 </r>
       <r>    6.4393    1.0000 </r>
       <r>    7.2933    1.0000 </r>
       <r>    7.2933    1.0000 </r>
       <r>    8.5214    1.0000 </r>
       <r>    8.5493    1.0000 </r>
       <r>    8.5493    1.0000 </r>
       <r>    9.1317    1.0000 </r>
       <r>    9.1317    1.0000 </r>
       <r>    9.1452    1.0000 </r>
       <r>    9.1452    1.0000 </r>
       <r>    9.2644    1.0000 </r>
       <r>    9.6842    1.0000 </r>
       <r>    9.9125    1.0000 </r>
       <r>   10.8945    1.0000 </r>
       <r>   10.8945    1.0000 </r>
       <r>   20.2634    0.0000 </r>
       <r>   20.2634    0.0000 </r>
       <r>   21.9367    0.0000 </r>
       <r>   21.9367    0.0000 </r>
       <r>   23.0933    0.0000 </r>
       <r>   23.0933    0.0000 </r>
       <r>   23.9863    0.0000 </r>
       <r>   23.9863    0.0000 </r>
       <r>   30.4585    0.0000 </r>
       <r>   30.4585    0.0000 </r>
       <r>   30.6221    0.0000 </r>
       <r>   31.7413    0.0000 </r>
       <r>   32.3212    0.0000 </r>
       <r>   32.3212    0.0000 </r>
       <r>   32.3704    0.0000 </r>
       <r>   33.2905    0.0000 </r>
       <r>   36.9669    0.0000 </r>
       <r>   38.7822    0.0000 </r>
       <r>   38.7822    0.0000 </r>
       <r>   39.4723    0.0000 </r>
       <r>   40.6112    0.0000 </r>
       <r>   40.6112    0.0000 </r>
       <r>   42.9816    0.0000 </r>
       <r>   42.9816    0.0000 </r>
       <r>   43.3640    0.0000 </r>
       <r>   43.3640    0.0000 </r>
      </set>
      <set comment="kpoint 6">
       <r>    3.5931    1.0000 </r>
       <r>    4.7694    1.0000 </r>
       <r>    4.7762    1.0000 </r>
       <r>    4.7762    1.0000 </r>
       <r>    5.0182    1.0000 </r>
       <r>    5.0182    1.0000 </r>
       <r>    5.0756    1.0000 </r>
       <r>    7.2514    1.0000 </r>
       <r>    7.4846    1.0000 </r>
       <r>    7.5243    1.0000 </r>
       <r>    9.0462    1.0000 </r>
       <r>    9.1853    1.0000 </r>
       <r>   10.0865    1.0000 </r>
       <r>   10.1074    1.0000 </r>
       <r>   10.1074    1.0000 </r>
       <r>   10.2368    1.0000 </r>
       <r>   10.4394    1.0000 </r>
       <r>   10.4394    1.0000 </r>
       <r>   10.7370    1.0000 </r>
       <r>   10.7370    1.0000 </r>
       <r>   10.7879    1.0000 </r>
       <r>   14.7928   -0.0000 </r>
       <r>   14.7928   -0.0000 </r>
       <r>   16.1191   -0.0000 </r>
       <r>   23.2398    0.0000 </r>
       <r>   24.2515    0.0000 </r>
       <r>   24.2515    0.0000 </r>
       <r>   24.2923    0.0000 </r>
       <r>   25.9100    0.0000 </r>
       <r>   25.9100    0.0000 </r>
       <r>   25.9495    0.0000 </r>
       <r>   25.9495    0.0000 </r>
       <r>   26.5848    0.0000 </r>
       <r>   30.2663    0.0000 </r>
       <r>   33.7169    0.0000 </r>
       <r>   34.9344    0.0000 </r>
       <r>   35.2632    0.0000 </r>
       <r>   35.3361    0.0000 </r>
       <r>   35.3361    0.0000 </r>
       <r>   36.0538    0.0000 </r>
       <r>   36.2017    0.0000 </r>
       <r>   36.2017    0.0000 </r>
       <r>   37.4712    0.0000 </r>
       <r>   42.2494    0.0000 </r>
       <r>   44.3680    0.0000 </r>
       <r>   44.4984    0.0000 </r>
       <r>   45.1160    0.0000 </r>
       <r>   45.7115    0.0000 </r>
      </set>
      <set comment="kpoint 7">
       <r>    4.0620    1.0000 </r>
       <r>    5.0161    1.0000 </r>
       <r>    5.0235    1.0000 </r>
       <r>    5.0774    1.0000 </r>
       <r>    5.1993    1.0000 </r>
       <r>    5.3132    1.0000 </r>
       <r>    5.4077    1.0000 </r>
       <r>    7.0320    1.0000 </r>
       <r>    7.6884    1.0000 </r>
       <r>    7.7118    1.0000 </r>
       <r>    8.8414    1.0000 </r>
       <r>    9.1445    1.0000 </r>
       <r>    9.2347    1.0000 </r>
       <r>    9.2980    1.0000 </r>
       <r>    9.6408    1.0000 </r>
       <r>    9.9073    1.0000 </r>
       <r>   10.0525    1.0000 </r>
       <r>   10.3187    1.0000 </r>
       <r>   10.3368    1.0000 </r>
       <r>   10.7348    1.0000 </r>
       <r>   10.7356    1.0000 </r>
       <r>   13.1404    1.0000 </r>
       <r>   16.0579   -0.0000 </r>
       <r>   17.3614    0.0000 </r>
       <r>   22.7565    0.0000 </r>
       <r>   23.3652    0.0000 </r>
       <r>   24.2313    0.0000 </r>
       <r>   25.0617    0.0000 </r>
       <r>   25.1982    0.0000 </r>
       <r>   26.4108    0.0000 </r>
       <r>   26.7618    0.0000 </r>
       <r>   26.7973    0.0000 </r>
       <r>   26.8763    0.0000 </r>
       <r>   30.6942    0.0000 </r>
       <r>   32.4750    0.0000 </r>
       <r>   34.9426    0.0000 </r>
       <r>   35.0181    0.0000 </r>
       <r>   35.0989    0.0000 </r>
       <r>   36.0845    0.0000 </r>
       <r>   36.1966    0.0000 </r>
       <r>   36.2181    0.0000 </r>
       <r>   38.0804    0.0000 </r>
       <r>   39.5101    0.0000 </r>
       <r>   41.3669    0.0000 </r>
       <r>   43.4410    0.0000 </r>
       <r>   44.6386    0.0000 </r>
       <r>   44.6675    0.0000 </r>
       <r>   45.4273    0.0000 </r>
      </set>
      <set comment="kpoint 8">
       <r>    4.7496    1.0000 </r>
       <r>    5.3596    1.0000 </r>
       <r>    5.3991    1.0000 </r>
       <r>    5.4858    1.0000 </r>
       <r>    5.4867    1.0000 </r>
       <r>    5.7981    1.0000 </r>
       <r>    5.8901    1.0000 </r>
       <r>    6.6796    1.0000 </r>
       <r>    7.9266    1.0000 </r>
       <r>    8.0528    1.0000 </r>
       <r>    8.1155    1.0000 </r>
       <r>    8.2349    1.0000 </r>
       <r>    8.6754    1.0000 </r>
       <r>    9.0217    1.0000 </r>
       <r>    9.4645    1.0000 </r>
       <r>    9.5108    1.0000 </r>
       <r>    9.5690    1.0000 </r>
       <r>    9.7455    1.0000 </r>
       <r>   10.0987    1.0000 </r>
       <r>   10.7253    1.0000 </r>
       <r>   10.7329    1.0000 </r>
       <r>   11.4748    1.0000 </r>
       <r>   17.4994    0.0000 </r>
       <r>   18.9129    0.0000 </r>
       <r>   21.5230    0.0000 </r>
       <r>   23.2977    0.0000 </r>
       <r>   23.7691    0.0000 </r>
       <r>   24.0228    0.0000 </r>
       <r>   24.8227    0.0000 </r>
       <r>   26.3149    0.0000 </r>
       <r>   27.9749    0.0000 </r>
       <r>   28.2446    0.0000 </r>
       <r>   28.8755    0.0000 </r>
       <r>   31.1870    0.0000 </r>
       <r>   31.3963    0.0000 </r>
       <r>   34.2075    0.0000 </r>
       <r>   34.5194    0.0000 </r>
       <r>   35.1422    0.0000 </r>
       <r>   36.1475    0.0000 </r>
       <r>   36.5914    0.0000 </r>
       <r>   37.2576    0.0000 </r>
       <r>   39.9923    0.0000 </r>
       <r>   41.1716    0.0000 </r>
       <r>   41.9156    0.0000 </r>
       <r>   42.7495    0.0000 </r>
       <r>   43.0207    0.0000 </r>
       <r>   43.2474    0.0000 </r>
       <r>   43.5640    0.0000 </r>
      </set>
      <set comment="kpoint 9">
       <r>    5.4080    1.0000 </r>
       <r>    5.6045    1.0000 </r>
       <r>    5.7731    1.0000 </r>
       <r>    5.8123    1.0000 </r>
       <r>    5.8536    1.0000 </r>
       <r>    6.2673    1.0000 </r>
       <r>    6.4621    1.0000 </r>
       <r>    6.4676    1.0000 </r>
       <r>    7.1994    1.0000 </r>
       <r>    7.2859    1.0000 </r>
       <r>    8.0031    1.0000 </r>
       <r>    8.3678    1.0000 </r>
       <r>    8.5440    1.0000 </r>
       <r>    8.9873    1.0000 </r>
       <r>    9.1250    1.0000 </r>
       <r>    9.1265    1.0000 </r>
       <r>    9.1667    1.0000 </r>
       <r>    9.6473    1.0000 </r>
       <r>    9.8055    1.0000 </r>
       <r>   10.3030    1.0000 </r>
       <r>   10.7261    1.0000 </r>
       <r>   10.7294    1.0000 </r>
       <r>   18.9276    0.0000 </r>
       <r>   20.2623    0.0000 </r>
       <r>   20.5754    0.0000 </r>
       <r>   22.2307    0.0000 </r>
       <r>   23.3822    0.0000 </r>
       <r>   23.6318    0.0000 </r>
       <r>   25.0493    0.0000 </r>
       <r>   25.6099    0.0000 </r>
       <r>   29.2763    0.0000 </r>
       <r>   29.8146    0.0000 </r>
       <r>   30.4020    0.0000 </r>
       <r>   31.0756    0.0000 </r>
       <r>   31.1880    0.0000 </r>
       <r>   33.2801    0.0000 </r>
       <r>   33.6213    0.0000 </r>
       <r>   33.9355    0.0000 </r>
       <r>   37.7154    0.0000 </r>
       <r>   37.8532    0.0000 </r>
       <r>   38.8053    0.0000 </r>
       <r>   39.4321    0.0000 </r>
       <r>   40.0645    0.0000 </r>
       <r>   40.6747    0.0000 </r>
       <r>   42.5949    0.0000 </r>
       <r>   43.5857    0.0000 </r>
       <r>   43.9515    0.0000 </r>
       <r>   44.2347    0.0000 </r>
      </set>
      <set comment="kpoint 10">
       <r>    4.4848    1.0000 </r>
       <r>    5.1739    1.0000 </r>
       <r>    5.3363    1.0000 </r>
       <r>    5.3363    1.0000 </r>
       <r>    5.4732    1.0000 </r>
       <r>    5.4732    1.0000 </r>
       <r>    5.7679    1.0000 </r>
       <r>    6.9546    1.0000 </r>
       <r>    7.7833    1.0000 </r>
       <r>    7.7858    1.0000 </r>
       <r>    8.6590    1.0000 </r>
       <r>    8.6590    1.0000 </r>
       <r>    8.7625    1.0000 </r>
       <r>    8.7678    1.0000 </r>
       <r>    9.4336    1.0000 </r>
       <r>    9.6489    1.0000 </r>
       <r>   10.0329    1.0000 </r>
       <r>   10.0329    1.0000 </r>
       <r>   10.3125    1.0000 </r>
       <r>   10.3125    1.0000 </r>
       <r>   10.4856    1.0000 </r>
       <r>   14.3337   -0.0000 </r>
       <r>   14.3337   -0.0000 </r>
       <r>   18.4271    0.0000 </r>
       <r>   21.0770    0.0000 </r>
       <r>   23.3022    0.0000 </r>
       <r>   25.6964    0.0000 </r>
       <r>   25.6964    0.0000 </r>
       <r>   25.9180    0.0000 </r>
       <r>   25.9180    0.0000 </r>
       <r>   26.6059    0.0000 </r>
       <r>   26.6059    0.0000 </r>
       <r>   28.3766    0.0000 </r>
       <r>   30.7454    0.0000 </r>
       <r>   31.0788    0.0000 </r>
       <r>   34.0567    0.0000 </r>
       <r>   34.8852    0.0000 </r>
       <r>   35.8904    0.0000 </r>
       <r>   35.8904    0.0000 </r>
       <r>   37.8110    0.0000 </r>
       <r>   38.0030    0.0000 </r>
       <r>   38.0030    0.0000 </r>
       <r>   38.9107    0.0000 </r>
       <r>   41.6946    0.0000 </r>
       <r>   44.0148    0.0000 </r>
       <r>   44.5000    0.0000 </r>
       <r>   44.5022    0.0000 </r>
       <r>   44.5601    0.0000 </r>
      </set>
      <set comment="kpoint 11">
       <r>    5.1033    1.0000 </r>
       <r>    5.4895    1.0000 </r>
       <r>    5.6943    1.0000 </r>
       <r>    5.7246    1.0000 </r>
       <r>    5.7669    1.0000 </r>
       <r>    5.9205    1.0000 </r>
       <r>    6.2178    1.0000 </r>
       <r>    6.7206    1.0000 </r>
       <r>    7.7255    1.0000 </r>
       <r>    7.7952    1.0000 </r>
       <r>    8.0421    1.0000 </r>
       <r>    8.0833    1.0000 </r>
       <r>    8.1014    1.0000 </r>
       <r>    8.6726    1.0000 </r>
       <r>    9.2897    1.0000 </r>
       <r>    9.5800    1.0000 </r>
       <r>    9.7360    1.0000 </r>
       <r>    9.8137    1.0000 </r>
       <r>    9.8221    1.0000 </r>
       <r>   10.3046    1.0000 </r>
       <r>   10.3541    1.0000 </r>
       <r>   12.6359    1.0000 </r>
       <r>   15.6304   -0.0000 </r>
       <r>   19.5560    0.0000 </r>
       <r>   19.8467    0.0000 </r>
       <r>   23.3707    0.0000 </r>
       <r>   24.5809    0.0000 </r>
       <r>   24.7326    0.0000 </r>
       <r>   26.7076    0.0000 </r>
       <r>   26.9141    0.0000 </r>
       <r>   27.1548    0.0000 </r>
       <r>   28.7869    0.0000 </r>
       <r>   29.0296    0.0000 </r>
       <r>   29.8915    0.0000 </r>
       <r>   30.5327    0.0000 </r>
       <r>   34.3755    0.0000 </r>
       <r>   34.8291    0.0000 </r>
       <r>   35.5898    0.0000 </r>
       <r>   36.1425    0.0000 </r>
       <r>   37.1925    0.0000 </r>
       <r>   38.3220    0.0000 </r>
       <r>   39.0353    0.0000 </r>
       <r>   39.6702    0.0000 </r>
       <r>   43.0368    0.0000 </r>
       <r>   43.7344    0.0000 </r>
       <r>   43.8706    0.0000 </r>
       <r>   43.9896    0.0000 </r>
       <r>   44.0052    0.0000 </r>
      </set>
      <set comment="kpoint 12">
       <r>    5.7249    1.0000 </r>
       <r>    5.9112    1.0000 </r>
       <r>    5.9540    1.0000 </r>
       <r>    6.0431    1.0000 </r>
       <r>    6.0943    1.0000 </r>
       <r>    6.3923    1.0000 </r>
       <r>    6.5239    1.0000 </r>
       <r>    6.5982    1.0000 </r>
       <r>    6.9859    1.0000 </r>
       <r>    7.2516    1.0000 </r>
       <r>    7.6092    1.0000 </r>
       <r>    7.6463    1.0000 </r>
       <r>    8.5469    1.0000 </r>
       <r>    8.9400    1.0000 </r>
       <r>    9.0321    1.0000 </r>
       <r>    9.1190    1.0000 </r>
       <r>    9.1531    1.0000 </r>
       <r>    9.4183    1.0000 </r>
       <r>   10.2998    1.0000 </r>
       <r>   10.3085    1.0000 </r>
       <r>   10.3995    1.0000 </r>
       <r>   11.2964    1.0000 </r>
       <r>   16.9202    0.0000 </r>
       <r>   18.2033    0.0000 </r>
       <r>   21.4266    0.0000 </r>
       <r>   23.0412    0.0000 </r>
       <r>   23.5846    0.0000 </r>
       <r>   24.0203    0.0000 </r>
       <r>   27.4540    0.0000 </r>
       <r>   27.7892    0.0000 </r>
       <r>   28.1882    0.0000 </r>
       <r>   28.5408    0.0000 </r>
       <r>   28.8401    0.0000 </r>
       <r>   29.7750    0.0000 </r>
       <r>   31.4323    0.0000 </r>
       <r>   33.7578    0.0000 </r>
       <r>   34.9367    0.0000 </r>
       <r>   35.2353    0.0000 </r>
       <r>   35.9503    0.0000 </r>
       <r>   37.8338    0.0000 </r>
       <r>   38.8576    0.0000 </r>
       <r>   39.4089    0.0000 </r>
       <r>   40.8447    0.0000 </r>
       <r>   40.9154    0.0000 </r>
       <r>   41.7804    0.0000 </r>
       <r>   42.7381    0.0000 </r>
       <r>   43.9724    0.0000 </r>
       <r>   45.0274    0.0000 </r>
      </set>
      <set comment="kpoint 13">
       <r>    5.6001    1.0000 </r>
       <r>    5.7070    1.0000 </r>
       <r>    6.1071    1.0000 </r>
       <r>    6.1071    1.0000 </r>
       <r>    6.1709    1.0000 </r>
       <r>    6.1709    1.0000 </r>
       <r>    6.6194    1.0000 </r>
       <r>    6.6899    1.0000 </r>
       <r>    7.2983    1.0000 </r>
       <r>    7.2983    1.0000 </r>
       <r>    7.6714    1.0000 </r>
       <r>    7.7240    1.0000 </r>
       <r>    8.2508    1.0000 </r>
       <r>    8.4892    1.0000 </r>
       <r>    9.0179    1.0000 </r>
       <r>    9.4044    1.0000 </r>
       <r>    9.4044    1.0000 </r>
       <r>    9.7308    1.0000 </r>
       <r>    9.7308    1.0000 </r>
       <r>   10.0180    1.0000 </r>
       <r>   10.4335    1.0000 </r>
       <r>   13.8505    0.8546 </r>
       <r>   13.8505    0.8546 </r>
       <r>   17.8524    0.0000 </r>
       <r>   21.1479    0.0000 </r>
       <r>   23.5600    0.0000 </r>
       <r>   25.5035    0.0000 </r>
       <r>   25.5035    0.0000 </r>
       <r>   25.7499    0.0000 </r>
       <r>   25.7499    0.0000 </r>
       <r>   28.5918    0.0000 </r>
       <r>   29.3620    0.0000 </r>
       <r>   29.3620    0.0000 </r>
       <r>   29.5943    0.0000 </r>
       <r>   30.9607    0.0000 </r>
       <r>   33.0963    0.0000 </r>
       <r>   35.4096    0.0000 </r>
       <r>   35.5906    0.0000 </r>
       <r>   37.0590    0.0000 </r>
       <r>   37.0590    0.0000 </r>
       <r>   38.4790    0.0000 </r>
       <r>   38.4790    0.0000 </r>
       <r>   39.2702    0.0000 </r>
       <r>   43.2748    0.0000 </r>
       <r>   43.6574    0.0000 </r>
       <r>   43.8550    0.0000 </r>
       <r>   44.1164    0.0000 </r>
       <r>   44.3552    0.0000 </r>
      </set>
      <set comment="kpoint 14">
       <r>    6.0637    1.0000 </r>
       <r>    6.1088    1.0000 </r>
       <r>    6.3298    1.0000 </r>
       <r>    6.4324    1.0000 </r>
       <r>    6.4860    1.0000 </r>
       <r>    6.5446    1.0000 </r>
       <r>    6.6029    1.0000 </r>
       <r>    6.7953    1.0000 </r>
       <r>    6.8815    1.0000 </r>
       <r>    7.0943    1.0000 </r>
       <r>    7.1560    1.0000 </r>
       <r>    7.4420    1.0000 </r>
       <r>    8.6128    1.0000 </r>
       <r>    8.6142    1.0000 </r>
       <r>    8.8183    1.0000 </r>
       <r>    8.9813    1.0000 </r>
       <r>    9.0286    1.0000 </r>
       <r>    9.1343    1.0000 </r>
       <r>    9.7488    1.0000 </r>
       <r>    9.8261    1.0000 </r>
       <r>   11.2746    1.0000 </r>
       <r>   12.3877    1.0000 </r>
       <r>   15.0891   -0.0000 </r>
       <r>   16.3928   -0.0000 </r>
       <r>   22.6426    0.0000 </r>
       <r>   23.9369    0.0000 </r>
       <r>   24.2094    0.0000 </r>
       <r>   24.5708    0.0000 </r>
       <r>   26.4336    0.0000 </r>
       <r>   27.0886    0.0000 </r>
       <r>   27.4625    0.0000 </r>
       <r>   28.4182    0.0000 </r>
       <r>   29.9643    0.0000 </r>
       <r>   30.8337    0.0000 </r>
       <r>   31.6633    0.0000 </r>
       <r>   33.6868    0.0000 </r>
       <r>   34.3966    0.0000 </r>
       <r>   36.2976    0.0000 </r>
       <r>   36.6603    0.0000 </r>
       <r>   36.7908    0.0000 </r>
       <r>   38.5357    0.0000 </r>
       <r>   38.8513    0.0000 </r>
       <r>   39.0058    0.0000 </r>
       <r>   40.9566    0.0000 </r>
       <r>   43.7684    0.0000 </r>
       <r>   44.1506    0.0000 </r>
       <r>   44.2587    0.0000 </r>
       <r>   44.3145    0.0000 </r>
      </set>
      <set comment="kpoint 15">
       <r>    6.2546    1.0000 </r>
       <r>    6.3685    1.0000 </r>
       <r>    6.5170    1.0000 </r>
       <r>    6.5170    1.0000 </r>
       <r>    6.6492    1.0000 </r>
       <r>    6.6610    1.0000 </r>
       <r>    6.6610    1.0000 </r>
       <r>    6.9583    1.0000 </r>
       <r>    7.0742    1.0000 </r>
       <r>    7.0742    1.0000 </r>
       <r>    7.1671    1.0000 </r>
       <r>    7.4088    1.0000 </r>
       <r>    8.3914    1.0000 </r>
       <r>    8.5657    1.0000 </r>
       <r>    8.6391    1.0000 </r>
       <r>    8.6391    1.0000 </r>
       <r>    8.8256    1.0000 </r>
       <r>    9.2203    1.0000 </r>
       <r>    9.2203    1.0000 </r>
       <r>    9.4406    1.0000 </r>
       <r>   12.3120    1.0000 </r>
       <r>   13.5580    1.0000 </r>
       <r>   13.5580    1.0000 </r>
       <r>   14.8638   -0.0000 </r>
       <r>   24.0637    0.0000 </r>
       <r>   24.5066    0.0000 </r>
       <r>   25.3331    0.0000 </r>
       <r>   25.3331    0.0000 </r>
       <r>   25.5734    0.0000 </r>
       <r>   25.5734    0.0000 </r>
       <r>   26.2980    0.0000 </r>
       <r>   27.0046    0.0000 </r>
       <r>   32.1008    0.0000 </r>
       <r>   32.1008    0.0000 </r>
       <r>   32.6459    0.0000 </r>
       <r>   33.2719    0.0000 </r>
       <r>   34.0188    0.0000 </r>
       <r>   36.2923    0.0000 </r>
       <r>   36.2923    0.0000 </r>
       <r>   37.2119    0.0000 </r>
       <r>   37.5992    0.0000 </r>
       <r>   38.5237    0.0000 </r>
       <r>   38.5237    0.0000 </r>
       <r>   40.2148    0.0000 </r>
       <r>   43.2531    0.0000 </r>
       <r>   43.3596    0.0000 </r>
       <r>   43.6865    0.0000 </r>
       <r>   43.6865    0.0000 </r>
      </set>
      <set comment="kpoint 16">
       <r>    3.7492    1.0000 </r>
       <r>    4.8541    1.0000 </r>
       <r>    4.8541    1.0000 </r>
       <r>    4.8541    1.0000 </r>
       <r>    5.1397    1.0000 </r>
       <r>    5.1397    1.0000 </r>
       <r>    5.1397    1.0000 </r>
       <r>    7.2333    1.0000 </r>
       <r>    7.5402    1.0000 </r>
       <r>    7.5402    1.0000 </r>
       <r>    9.1015    1.0000 </r>
       <r>    9.1015    1.0000 </r>
       <r>    9.9133    1.0000 </r>
       <r>    9.9133    1.0000 </r>
       <r>    9.9133    1.0000 </r>
       <r>   10.0993    1.0000 </r>
       <r>   10.0993    1.0000 </r>
       <r>   10.0993    1.0000 </r>
       <r>   10.7530    1.0000 </r>
       <r>   10.7530    1.0000 </r>
       <r>   10.7530    1.0000 </r>
       <r>   15.2866   -0.0000 </r>
       <r>   15.2866   -0.0000 </r>
       <r>   15.2866   -0.0000 </r>
       <r>   24.1667    0.0000 </r>
       <r>   24.1667    0.0000 </r>
       <r>   24.1667    0.0000 </r>
       <r>   24.6657    0.0000 </r>
       <r>   24.6657    0.0000 </r>
       <r>   24.6657    0.0000 </r>
       <r>   26.8957    0.0000 </r>
       <r>   26.8957    0.0000 </r>
       <r>   26.8957    0.0000 </r>
       <r>   30.3809    0.0000 </r>
       <r>   32.8678    0.0000 </r>
       <r>   34.8199    0.0000 </r>
       <r>   34.8199    0.0000 </r>
       <r>   34.8199    0.0000 </r>
       <r>   35.9859    0.0000 </r>
       <r>   35.9859    0.0000 </r>
       <r>   37.4446    0.0000 </r>
       <r>   37.4446    0.0000 </r>
       <r>   37.4446    0.0000 </r>
       <r>   41.8515    0.0000 </r>
       <r>   44.0589    0.0000 </r>
       <r>   44.0589    0.0000 </r>
       <r>   45.3472    0.0000 </r>
       <r>   45.7833    0.0000 </r>
      </set>
      <set comment="kpoint 17">
       <r>    4.1948    1.0000 </r>
       <r>    5.0828    1.0000 </r>
       <r>    5.0937    1.0000 </r>
       <r>    5.0937    1.0000 </r>
       <r>    5.3340    1.0000 </r>
       <r>    5.4727    1.0000 </r>
       <r>    5.4727    1.0000 </r>
       <r>    7.0606    1.0000 </r>
       <r>    7.6992    1.0000 </r>
       <r>    7.7064    1.0000 </r>
       <r>    8.9013    1.0000 </r>
       <r>    9.0444    1.0000 </r>
       <r>    9.0444    1.0000 </r>
       <r>    9.2605    1.0000 </r>
       <r>    9.4416    1.0000 </r>
       <r>    9.7489    1.0000 </r>
       <r>    9.8327    1.0000 </r>
       <r>    9.8327    1.0000 </r>
       <r>   10.6265    1.0000 </r>
       <r>   10.6938    1.0000 </r>
       <r>   10.6938    1.0000 </r>
       <r>   13.5919    1.0001 </r>
       <r>   16.4193   -0.0000 </r>
       <r>   16.4193   -0.0000 </r>
       <r>   23.0727    0.0000 </r>
       <r>   23.0727    0.0000 </r>
       <r>   24.4178    0.0000 </r>
       <r>   24.4178    0.0000 </r>
       <r>   25.3455    0.0000 </r>
       <r>   26.4853    0.0000 </r>
       <r>   27.0544    0.0000 </r>
       <r>   27.0544    0.0000 </r>
       <r>   27.7893    0.0000 </r>
       <r>   30.5740    0.0000 </r>
       <r>   31.7925    0.0000 </r>
       <r>   34.5217    0.0000 </r>
       <r>   34.9937    0.0000 </r>
       <r>   34.9937    0.0000 </r>
       <r>   35.5861    0.0000 </r>
       <r>   36.5217    0.0000 </r>
       <r>   37.4583    0.0000 </r>
       <r>   39.4707    0.0000 </r>
       <r>   39.4707    0.0000 </r>
       <r>   41.0000    0.0000 </r>
       <r>   42.6153    0.0000 </r>
       <r>   44.2528    0.0000 </r>
       <r>   44.6638    0.0000 </r>
       <r>   44.6638    0.0000 </r>
      </set>
      <set comment="kpoint 18">
       <r>    4.8423    1.0000 </r>
       <r>    5.3778    1.0000 </r>
       <r>    5.4757    1.0000 </r>
       <r>    5.4757    1.0000 </r>
       <r>    5.6537    1.0000 </r>
       <r>    5.9406    1.0000 </r>
       <r>    5.9406    1.0000 </r>
       <r>    6.7494    1.0000 </r>
       <r>    7.8712    1.0000 </r>
       <r>    7.9807    1.0000 </r>
       <r>    8.0896    1.0000 </r>
       <r>    8.0896    1.0000 </r>
       <r>    8.7877    1.0000 </r>
       <r>    8.8467    1.0000 </r>
       <r>    9.2885    1.0000 </r>
       <r>    9.4443    1.0000 </r>
       <r>    9.4443    1.0000 </r>
       <r>    9.5035    1.0000 </r>
       <r>   10.4036    1.0000 </r>
       <r>   10.6423    1.0000 </r>
       <r>   10.6423    1.0000 </r>
       <r>   11.8539    1.0000 </r>
       <r>   17.7675    0.0000 </r>
       <r>   17.7675    0.0000 </r>
       <r>   21.7814    0.0000 </r>
       <r>   21.7814    0.0000 </r>
       <r>   24.5769    0.0000 </r>
       <r>   24.5769    0.0000 </r>
       <r>   26.5006    0.0000 </r>
       <r>   26.5006    0.0000 </r>
       <r>   26.5503    0.0000 </r>
       <r>   28.8676    0.0000 </r>
       <r>   29.1653    0.0000 </r>
       <r>   30.0704    0.0000 </r>
       <r>   31.6219    0.0000 </r>
       <r>   34.1553    0.0000 </r>
       <r>   34.4770    0.0000 </r>
       <r>   35.8129    0.0000 </r>
       <r>   36.0324    0.0000 </r>
       <r>   36.0324    0.0000 </r>
       <r>   37.7775    0.0000 </r>
       <r>   40.9077    0.0000 </r>
       <r>   41.2305    0.0000 </r>
       <r>   41.2305    0.0000 </r>
       <r>   42.1290    0.0000 </r>
       <r>   43.4560    0.0000 </r>
       <r>   43.4560    0.0000 </r>
       <r>   43.8545    0.0000 </r>
      </set>
      <set comment="kpoint 19">
       <r>    5.4503    1.0000 </r>
       <r>    5.6058    1.0000 </r>
       <r>    5.8646    1.0000 </r>
       <r>    5.8646    1.0000 </r>
       <r>    6.0284    1.0000 </r>
       <r>    6.3881    1.0000 </r>
       <r>    6.4353    1.0000 </r>
       <r>    6.4353    1.0000 </r>
       <r>    7.2680    1.0000 </r>
       <r>    7.2680    1.0000 </r>
       <r>    7.8574    1.0000 </r>
       <r>    8.1444    1.0000 </r>
       <r>    8.3534    1.0000 </r>
       <r>    8.8026    1.0000 </r>
       <r>    9.1007    1.0000 </r>
       <r>    9.1007    1.0000 </r>
       <r>    9.3672    1.0000 </r>
       <r>    9.8005    1.0000 </r>
       <r>   10.1143    1.0000 </r>
       <r>   10.4012    1.0000 </r>
       <r>   10.6205    1.0000 </r>
       <r>   10.6205    1.0000 </r>
       <r>   19.0848    0.0000 </r>
       <r>   19.0848    0.0000 </r>
       <r>   20.5778    0.0000 </r>
       <r>   20.5778    0.0000 </r>
       <r>   24.9059    0.0000 </r>
       <r>   24.9059    0.0000 </r>
       <r>   25.7787    0.0000 </r>
       <r>   25.7787    0.0000 </r>
       <r>   27.8485    0.0000 </r>
       <r>   29.0457    0.0000 </r>
       <r>   30.8851    0.0000 </r>
       <r>   30.8999    0.0000 </r>
       <r>   31.7823    0.0000 </r>
       <r>   32.7602    0.0000 </r>
       <r>   33.9325    0.0000 </r>
       <r>   34.4984    0.0000 </r>
       <r>   37.3758    0.0000 </r>
       <r>   37.3758    0.0000 </r>
       <r>   38.7736    0.0000 </r>
       <r>   40.3109    0.0000 </r>
       <r>   40.3109    0.0000 </r>
       <r>   40.4247    0.0000 </r>
       <r>   42.7089    0.0000 </r>
       <r>   43.0566    0.0000 </r>
       <r>   43.9123    0.0000 </r>
       <r>   44.3164    0.0000 </r>
      </set>
      <set comment="kpoint 20">
       <r>    4.5674    1.0000 </r>
       <r>    5.2322    1.0000 </r>
       <r>    5.2936    1.0000 </r>
       <r>    5.2936    1.0000 </r>
       <r>    5.6777    1.0000 </r>
       <r>    5.6777    1.0000 </r>
       <r>    5.8352    1.0000 </r>
       <r>    7.0619    1.0000 </r>
       <r>    7.7527    1.0000 </r>
       <r>    7.7596    1.0000 </r>
       <r>    8.6000    1.0000 </r>
       <r>    8.6000    1.0000 </r>
       <r>    8.6430    1.0000 </r>
       <r>    8.8968    1.0000 </r>
       <r>    9.3635    1.0000 </r>
       <r>    9.4502    1.0000 </r>
       <r>    9.5486    1.0000 </r>
       <r>    9.5486    1.0000 </r>
       <r>   10.5709    1.0000 </r>
       <r>   10.5790    1.0000 </r>
       <r>   10.5790    1.0000 </r>
       <r>   14.6092   -0.0000 </r>
       <r>   14.6092   -0.0000 </r>
       <r>   17.3137    0.0000 </r>
       <r>   21.3624    0.0000 </r>
       <r>   23.8566    0.0000 </r>
       <r>   23.8566    0.0000 </r>
       <r>   24.5083    0.0000 </r>
       <r>   26.6297    0.0000 </r>
       <r>   26.6297    0.0000 </r>
       <r>   27.7952    0.0000 </r>
       <r>   27.7952    0.0000 </r>
       <r>   28.6118    0.0000 </r>
       <r>   29.7967    0.0000 </r>
       <r>   31.3079    0.0000 </r>
       <r>   33.9175    0.0000 </r>
       <r>   34.7476    0.0000 </r>
       <r>   34.7476    0.0000 </r>
       <r>   35.6826    0.0000 </r>
       <r>   37.7809    0.0000 </r>
       <r>   39.2394    0.0000 </r>
       <r>   39.4638    0.0000 </r>
       <r>   39.4638    0.0000 </r>
       <r>   41.6796    0.0000 </r>
       <r>   42.7367    0.0000 </r>
       <r>   42.8785    0.0000 </r>
       <r>   44.4960    0.0000 </r>
       <r>   44.4967    0.0000 </r>
      </set>
      <set comment="kpoint 21">
       <r>    5.0887    1.0000 </r>
       <r>    5.5294    1.0000 </r>
       <r>    5.5301    1.0000 </r>
       <r>    5.6587    1.0000 </r>
       <r>    6.0292    1.0000 </r>
       <r>    6.1156    1.0000 </r>
       <r>    6.2572    1.0000 </r>
       <r>    6.9262    1.0000 </r>
       <r>    7.7637    1.0000 </r>
       <r>    7.7712    1.0000 </r>
       <r>    7.9384    1.0000 </r>
       <r>    7.9842    1.0000 </r>
       <r>    8.0687    1.0000 </r>
       <r>    8.9265    1.0000 </r>
       <r>    9.1063    1.0000 </r>
       <r>    9.1315    1.0000 </r>
       <r>    9.2846    1.0000 </r>
       <r>    9.7402    1.0000 </r>
       <r>   10.3551    1.0000 </r>
       <r>   10.4317    1.0000 </r>
       <r>   10.4409    1.0000 </r>
       <r>   12.7986    1.0000 </r>
       <r>   15.8016   -0.0000 </r>
       <r>   18.3277    0.0000 </r>
       <r>   20.0125    0.0000 </r>
       <r>   22.4884    0.0000 </r>
       <r>   24.7663    0.0000 </r>
       <r>   24.9602    0.0000 </r>
       <r>   26.9173    0.0000 </r>
       <r>   27.0536    0.0000 </r>
       <r>   28.6293    0.0000 </r>
       <r>   28.7804    0.0000 </r>
       <r>   28.9417    0.0000 </r>
       <r>   29.1734    0.0000 </r>
       <r>   31.1892    0.0000 </r>
       <r>   34.2233    0.0000 </r>
       <r>   34.5607    0.0000 </r>
       <r>   34.9891    0.0000 </r>
       <r>   35.7712    0.0000 </r>
       <r>   36.8516    0.0000 </r>
       <r>   39.7116    0.0000 </r>
       <r>   39.7747    0.0000 </r>
       <r>   40.5082    0.0000 </r>
       <r>   41.8088    0.0000 </r>
       <r>   42.6917    0.0000 </r>
       <r>   43.6681    0.0000 </r>
       <r>   43.8810    0.0000 </r>
       <r>   44.1976    0.0000 </r>
      </set>
      <set comment="kpoint 22">
       <r>    5.5562    1.0000 </r>
       <r>    5.6872    1.0000 </r>
       <r>    5.9525    1.0000 </r>
       <r>    6.1045    1.0000 </r>
       <r>    6.3494    1.0000 </r>
       <r>    6.4407    1.0000 </r>
       <r>    6.4647    1.0000 </r>
       <r>    6.7269    1.0000 </r>
       <r>    7.2659    1.0000 </r>
       <r>    7.4153    1.0000 </r>
       <r>    7.5808    1.0000 </r>
       <r>    7.6278    1.0000 </r>
       <r>    8.2344    1.0000 </r>
       <r>    8.6373    1.0000 </r>
       <r>    8.8977    1.0000 </r>
       <r>    8.9739    1.0000 </r>
       <r>    9.3960    1.0000 </r>
       <r>    9.9685    1.0000 </r>
       <r>   10.3196    1.0000 </r>
       <r>   10.3524    1.0000 </r>
       <r>   10.3556    1.0000 </r>
       <r>   11.3055    1.0000 </r>
       <r>   17.0079    0.0000 </r>
       <r>   18.1369    0.0000 </r>
       <r>   20.1207    0.0000 </r>
       <r>   21.2451    0.0000 </r>
       <r>   25.2715    0.0000 </r>
       <r>   26.0595    0.0000 </r>
       <r>   26.2011    0.0000 </r>
       <r>   27.4358    0.0000 </r>
       <r>   27.5073    0.0000 </r>
       <r>   28.2721    0.0000 </r>
       <r>   30.0040    0.0000 </r>
       <r>   30.8436    0.0000 </r>
       <r>   31.4075    0.0000 </r>
       <r>   33.4216    0.0000 </r>
       <r>   34.7219    0.0000 </r>
       <r>   35.4696    0.0000 </r>
       <r>   35.6240    0.0000 </r>
       <r>   36.5403    0.0000 </r>
       <r>   39.9427    0.0000 </r>
       <r>   40.3790    0.0000 </r>
       <r>   40.8901    0.0000 </r>
       <r>   41.1780    0.0000 </r>
       <r>   41.4090    0.0000 </r>
       <r>   42.7799    0.0000 </r>
       <r>   43.8563    0.0000 </r>
       <r>   44.4658    0.0000 </r>
      </set>
      <set comment="kpoint 23">
       <r>    5.4047    1.0000 </r>
       <r>    5.7012    1.0000 </r>
       <r>    5.8149    1.0000 </r>
       <r>    5.8149    1.0000 </r>
       <r>    6.4695    1.0000 </r>
       <r>    6.4695    1.0000 </r>
       <r>    6.5866    1.0000 </r>
       <r>    7.0791    1.0000 </r>
       <r>    7.4260    1.0000 </r>
       <r>    7.4260    1.0000 </r>
       <r>    7.7371    1.0000 </r>
       <r>    7.7706    1.0000 </r>
       <r>    7.9585    1.0000 </r>
       <r>    8.7967    1.0000 </r>
       <r>    8.8630    1.0000 </r>
       <r>    8.9344    1.0000 </r>
       <r>    8.9344    1.0000 </r>
       <r>   10.1466    1.0000 </r>
       <r>   10.1466    1.0000 </r>
       <r>   10.1908    1.0000 </r>
       <r>   10.3477    1.0000 </r>
       <r>   13.9230    0.2941 </r>
       <r>   13.9230    0.2941 </r>
       <r>   17.7051    0.0000 </r>
       <r>   19.9724    0.0000 </r>
       <r>   23.5068    0.0000 </r>
       <r>   23.5068    0.0000 </r>
       <r>   25.1414    0.0000 </r>
       <r>   27.2502    0.0000 </r>
       <r>   27.8542    0.0000 </r>
       <r>   27.8542    0.0000 </r>
       <r>   29.3909    0.0000 </r>
       <r>   29.3909    0.0000 </r>
       <r>   30.5189    0.0000 </r>
       <r>   31.0873    0.0000 </r>
       <r>   32.9055    0.0000 </r>
       <r>   34.7534    0.0000 </r>
       <r>   35.6302    0.0000 </r>
       <r>   35.6302    0.0000 </r>
       <r>   37.0894    0.0000 </r>
       <r>   39.3604    0.0000 </r>
       <r>   40.0342    0.0000 </r>
       <r>   40.0342    0.0000 </r>
       <r>   41.4169    0.0000 </r>
       <r>   43.2811    0.0000 </r>
       <r>   43.5359    0.0000 </r>
       <r>   44.5301    0.0000 </r>
       <r>   44.5350    0.0000 </r>
      </set>
      <set comment="kpoint 24">
       <r>    5.6864    1.0000 </r>
       <r>    5.8384    1.0000 </r>
       <r>    5.9790    1.0000 </r>
       <r>    6.1203    1.0000 </r>
       <r>    6.5469    1.0000 </r>
       <r>    6.6431    1.0000 </r>
       <r>    6.9573    1.0000 </r>
       <r>    7.1171    1.0000 </r>
       <r>    7.2070    1.0000 </r>
       <r>    7.3461    1.0000 </r>
       <r>    7.4715    1.0000 </r>
       <r>    7.5804    1.0000 </r>
       <r>    8.1470    1.0000 </r>
       <r>    8.5103    1.0000 </r>
       <r>    8.5950    1.0000 </r>
       <r>    8.6965    1.0000 </r>
       <r>    9.1749    1.0000 </r>
       <r>    9.7072    1.0000 </r>
       <r>    9.9978    1.0000 </r>
       <r>   10.0155    1.0000 </r>
       <r>   11.1954    1.0000 </r>
       <r>   12.3633    1.0000 </r>
       <r>   15.1075   -0.0000 </r>
       <r>   16.3636   -0.0000 </r>
       <r>   21.0196    0.0000 </r>
       <r>   22.2092    0.0000 </r>
       <r>   24.6937    0.0000 </r>
       <r>   25.7914    0.0000 </r>
       <r>   25.9498    0.0000 </r>
       <r>   26.7333    0.0000 </r>
       <r>   28.8104    0.0000 </r>
       <r>   29.7266    0.0000 </r>
       <r>   29.9615    0.0000 </r>
       <r>   30.8345    0.0000 </r>
       <r>   31.5979    0.0000 </r>
       <r>   33.4096    0.0000 </r>
       <r>   34.1656    0.0000 </r>
       <r>   35.7934    0.0000 </r>
       <r>   35.9565    0.0000 </r>
       <r>   36.7324    0.0000 </r>
       <r>   39.2301    0.0000 </r>
       <r>   39.6244    0.0000 </r>
       <r>   39.7382    0.0000 </r>
       <r>   41.1802    0.0000 </r>
       <r>   42.2563    0.0000 </r>
       <r>   43.6080    0.0000 </r>
       <r>   44.1357    0.0000 </r>
       <r>   44.8779    0.0000 </r>
      </set>
      <set comment="kpoint 25">
       <r>    5.8190    1.0000 </r>
       <r>    5.9627    1.0000 </r>
       <r>    5.9627    1.0000 </r>
       <r>    5.9890    1.0000 </r>
       <r>    6.8020    1.0000 </r>
       <r>    6.9039    1.0000 </r>
       <r>    6.9039    1.0000 </r>
       <r>    7.1155    1.0000 </r>
       <r>    7.5315    1.0000 </r>
       <r>    7.5315    1.0000 </r>
       <r>    7.6919    1.0000 </r>
       <r>    7.7252    1.0000 </r>
       <r>    8.0767    1.0000 </r>
       <r>    8.3194    1.0000 </r>
       <r>    8.3411    1.0000 </r>
       <r>    8.3411    1.0000 </r>
       <r>    9.1918    1.0000 </r>
       <r>    9.5625    1.0000 </r>
       <r>    9.5625    1.0000 </r>
       <r>    9.6948    1.0000 </r>
       <r>   12.2385    1.0000 </r>
       <r>   13.5167    1.0000 </r>
       <r>   13.5167    1.0000 </r>
       <r>   14.8232   -0.0000 </r>
       <r>   22.1272    0.0000 </r>
       <r>   23.3469    0.0000 </r>
       <r>   23.3469    0.0000 </r>
       <r>   24.5954    0.0000 </r>
       <r>   26.5790    0.0000 </r>
       <r>   27.6157    0.0000 </r>
       <r>   27.6157    0.0000 </r>
       <r>   28.6386    0.0000 </r>
       <r>   31.9387    0.0000 </r>
       <r>   31.9387    0.0000 </r>
       <r>   32.3883    0.0000 </r>
       <r>   32.9513    0.0000 </r>
       <r>   34.0001    0.0000 </r>
       <r>   35.8164    0.0000 </r>
       <r>   35.8164    0.0000 </r>
       <r>   37.0395    0.0000 </r>
       <r>   38.3348    0.0000 </r>
       <r>   39.2973    0.0000 </r>
       <r>   39.2973    0.0000 </r>
       <r>   40.6129    0.0000 </r>
       <r>   42.6610    0.0000 </r>
       <r>   43.0596    0.0000 </r>
       <r>   43.3508    0.0000 </r>
       <r>   43.3508    0.0000 </r>
      </set>
      <set comment="kpoint 26">
       <r>    4.7905    1.0000 </r>
       <r>    5.3684    1.0000 </r>
       <r>    5.3684    1.0000 </r>
       <r>    5.3684    1.0000 </r>
       <r>    6.0518    1.0000 </r>
       <r>    6.0518    1.0000 </r>
       <r>    6.0518    1.0000 </r>
       <r>    7.3199    1.0000 </r>
       <r>    7.7216    1.0000 </r>
       <r>    7.7216    1.0000 </r>
       <r>    8.3214    1.0000 </r>
       <r>    8.3214    1.0000 </r>
       <r>    8.3214    1.0000 </r>
       <r>    9.0444    1.0000 </r>
       <r>    9.0444    1.0000 </r>
       <r>    9.0444    1.0000 </r>
       <r>    9.2212    1.0000 </r>
       <r>    9.2212    1.0000 </r>
       <r>   10.6510    1.0000 </r>
       <r>   10.6510    1.0000 </r>
       <r>   10.6510    1.0000 </r>
       <r>   15.3167   -0.0000 </r>
       <r>   15.3167   -0.0000 </r>
       <r>   15.3167   -0.0000 </r>
       <r>   22.1136    0.0000 </r>
       <r>   22.1136    0.0000 </r>
       <r>   22.1136    0.0000 </r>
       <r>   26.7827    0.0000 </r>
       <r>   26.7827    0.0000 </r>
       <r>   26.7827    0.0000 </r>
       <r>   28.4116    0.0000 </r>
       <r>   29.3117    0.0000 </r>
       <r>   29.3117    0.0000 </r>
       <r>   29.3117    0.0000 </r>
       <r>   31.2604    0.0000 </r>
       <r>   33.6066    0.0000 </r>
       <r>   33.6066    0.0000 </r>
       <r>   33.6066    0.0000 </r>
       <r>   37.3177    0.0000 </r>
       <r>   37.3177    0.0000 </r>
       <r>   39.8810    0.0000 </r>
       <r>   41.0756    0.0000 </r>
       <r>   41.0756    0.0000 </r>
       <r>   41.7553    0.0000 </r>
       <r>   41.7553    0.0000 </r>
       <r>   41.7553    0.0000 </r>
       <r>   44.1976    0.0000 </r>
       <r>   44.1976    0.0000 </r>
      </set>
      <set comment="kpoint 27">
       <r>    5.0876    1.0000 </r>
       <r>    5.4912    1.0000 </r>
       <r>    5.5908    1.0000 </r>
       <r>    5.5908    1.0000 </r>
       <r>    6.4098    1.0000 </r>
       <r>    6.4098    1.0000 </r>
       <r>    6.4314    1.0000 </r>
       <r>    7.4397    1.0000 </r>
       <r>    7.7238    1.0000 </r>
       <r>    7.7752    1.0000 </r>
       <r>    7.8658    1.0000 </r>
       <r>    7.8658    1.0000 </r>
       <r>    7.9285    1.0000 </r>
       <r>    8.6111    1.0000 </r>
       <r>    8.7833    1.0000 </r>
       <r>    8.7833    1.0000 </r>
       <r>    9.3437    1.0000 </r>
       <r>    9.6249    1.0000 </r>
       <r>   10.5317    1.0000 </r>
       <r>   10.5317    1.0000 </r>
       <r>   10.5884    1.0000 </r>
       <r>   13.3266    1.0000 </r>
       <r>   16.2015   -0.0000 </r>
       <r>   16.2015   -0.0000 </r>
       <r>   20.6841    0.0000 </r>
       <r>   20.6841    0.0000 </r>
       <r>   23.1887    0.0000 </r>
       <r>   27.0455    0.0000 </r>
       <r>   27.1129    0.0000 </r>
       <r>   27.1129    0.0000 </r>
       <r>   29.0304    0.0000 </r>
       <r>   29.4123    0.0000 </r>
       <r>   29.4123    0.0000 </r>
       <r>   30.4544    0.0000 </r>
       <r>   31.1131    0.0000 </r>
       <r>   33.4701    0.0000 </r>
       <r>   33.9270    0.0000 </r>
       <r>   33.9270    0.0000 </r>
       <r>   35.7996    0.0000 </r>
       <r>   38.0845    0.0000 </r>
       <r>   39.2755    0.0000 </r>
       <r>   40.8747    0.0000 </r>
       <r>   41.8662    0.0000 </r>
       <r>   42.0923    0.0000 </r>
       <r>   42.2525    0.0000 </r>
       <r>   42.2525    0.0000 </r>
       <r>   43.5370    0.0000 </r>
       <r>   44.7660    0.0000 </r>
      </set>
      <set comment="kpoint 28">
       <r>    5.3620    1.0000 </r>
       <r>    5.5088    1.0000 </r>
       <r>    5.8976    1.0000 </r>
       <r>    5.8976    1.0000 </r>
       <r>    6.4360    1.0000 </r>
       <r>    6.4360    1.0000 </r>
       <r>    6.9256    1.0000 </r>
       <r>    7.3871    1.0000 </r>
       <r>    7.5039    1.0000 </r>
       <r>    7.6122    1.0000 </r>
       <r>    7.7113    1.0000 </r>
       <r>    7.7113    1.0000 </r>
       <r>    7.9447    1.0000 </r>
       <r>    8.2302    1.0000 </r>
       <r>    8.5867    1.0000 </r>
       <r>    8.5867    1.0000 </r>
       <r>   10.0292    1.0000 </r>
       <r>   10.1781    1.0000 </r>
       <r>   10.3692    1.0000 </r>
       <r>   10.4009    1.0000 </r>
       <r>   10.4009    1.0000 </r>
       <r>   11.5710    1.0000 </r>
       <r>   16.9402    0.0000 </r>
       <r>   16.9402    0.0000 </r>
       <r>   19.7261    0.0000 </r>
       <r>   19.7261    0.0000 </r>
       <r>   24.4327    0.0000 </r>
       <r>   25.7296    0.0000 </r>
       <r>   27.6822    0.0000 </r>
       <r>   27.6822    0.0000 </r>
       <r>   28.5775    0.0000 </r>
       <r>   28.5775    0.0000 </r>
       <r>   30.4749    0.0000 </r>
       <r>   30.9343    0.0000 </r>
       <r>   31.9924    0.0000 </r>
       <r>   33.8381    0.0000 </r>
       <r>   34.2015    0.0000 </r>
       <r>   34.9622    0.0000 </r>
       <r>   34.9622    0.0000 </r>
       <r>   35.9930    0.0000 </r>
       <r>   40.9623    0.0000 </r>
       <r>   40.9623    0.0000 </r>
       <r>   41.0451    0.0000 </r>
       <r>   41.5771    0.0000 </r>
       <r>   42.4192    0.0000 </r>
       <r>   42.5762    0.0000 </r>
       <r>   43.0639    0.0000 </r>
       <r>   43.4327    0.0000 </r>
      </set>
      <set comment="kpoint 29">
       <r>    5.1491    1.0000 </r>
       <r>    5.5613    1.0000 </r>
       <r>    5.5613    1.0000 </r>
       <r>    5.6076    1.0000 </r>
       <r>    6.6330    1.0000 </r>
       <r>    6.7183    1.0000 </r>
       <r>    6.7183    1.0000 </r>
       <r>    7.5781    1.0000 </r>
       <r>    7.6870    1.0000 </r>
       <r>    7.7960    1.0000 </r>
       <r>    7.7960    1.0000 </r>
       <r>    8.0070    1.0000 </r>
       <r>    8.0971    1.0000 </r>
       <r>    8.3889    1.0000 </r>
       <r>    8.4028    1.0000 </r>
       <r>    8.4028    1.0000 </r>
       <r>    9.3685    1.0000 </r>
       <r>   10.1078    1.0000 </r>
       <r>   10.4489    1.0000 </r>
       <r>   10.4987    1.0000 </r>
       <r>   10.4987    1.0000 </r>
       <r>   14.1403   -0.0016 </r>
       <r>   14.1403   -0.0016 </r>
       <r>   16.4286   -0.0000 </r>
       <r>   19.5902    0.0000 </r>
       <r>   21.6798    0.0000 </r>
       <r>   21.6798    0.0000 </r>
       <r>   25.5565    0.0000 </r>
       <r>   27.4535    0.0000 </r>
       <r>   29.1257    0.0000 </r>
       <r>   29.1257    0.0000 </r>
       <r>   30.3695    0.0000 </r>
       <r>   30.3695    0.0000 </r>
       <r>   30.6920    0.0000 </r>
       <r>   31.4896    0.0000 </r>
       <r>   32.5477    0.0000 </r>
       <r>   33.9411    0.0000 </r>
       <r>   33.9411    0.0000 </r>
       <r>   35.4894    0.0000 </r>
       <r>   38.7678    0.0000 </r>
       <r>   39.0087    0.0000 </r>
       <r>   39.9249    0.0000 </r>
       <r>   41.8428    0.0000 </r>
       <r>   41.8428    0.0000 </r>
       <r>   42.5713    0.0000 </r>
       <r>   43.1701    0.0000 </r>
       <r>   43.3062    0.0000 </r>
       <r>   44.4506    0.0000 </r>
      </set>
      <set comment="kpoint 30">
       <r>    5.2756    1.0000 </r>
       <r>    5.4338    1.0000 </r>
       <r>    5.6566    1.0000 </r>
       <r>    5.6644    1.0000 </r>
       <r>    6.6802    1.0000 </r>
       <r>    6.7045    1.0000 </r>
       <r>    7.1024    1.0000 </r>
       <r>    7.4082    1.0000 </r>
       <r>    7.7503    1.0000 </r>
       <r>    7.8222    1.0000 </r>
       <r>    7.9741    1.0000 </r>
       <r>    8.1166    1.0000 </r>
       <r>    8.1535    1.0000 </r>
       <r>    8.1626    1.0000 </r>
       <r>    8.1933    1.0000 </r>
       <r>    8.2954    1.0000 </r>
       <r>    9.7827    1.0000 </r>
       <r>   10.2583    1.0000 </r>
       <r>   10.3083    1.0000 </r>
       <r>   10.3238    1.0000 </r>
       <r>   10.9755    1.0000 </r>
       <r>   12.3450    1.0000 </r>
       <r>   15.0684   -0.0000 </r>
       <r>   15.9569   -0.0000 </r>
       <r>   19.6400    0.0000 </r>
       <r>   20.4696    0.0000 </r>
       <r>   22.8718    0.0000 </r>
       <r>   24.1726    0.0000 </r>
       <r>   28.0316    0.0000 </r>
       <r>   28.7818    0.0000 </r>
       <r>   29.9592    0.0000 </r>
       <r>   30.2155    0.0000 </r>
       <r>   30.3228    0.0000 </r>
       <r>   30.9326    0.0000 </r>
       <r>   32.0871    0.0000 </r>
       <r>   33.7795    0.0000 </r>
       <r>   33.8514    0.0000 </r>
       <r>   34.5775    0.0000 </r>
       <r>   34.8683    0.0000 </r>
       <r>   36.7180    0.0000 </r>
       <r>   40.1968    0.0000 </r>
       <r>   40.9442    0.0000 </r>
       <r>   41.2086    0.0000 </r>
       <r>   41.2767    0.0000 </r>
       <r>   41.5677    0.0000 </r>
       <r>   42.9822    0.0000 </r>
       <r>   43.7911    0.0000 </r>
       <r>   44.1381    0.0000 </r>
      </set>
      <set comment="kpoint 31">
       <r>    5.3036    1.0000 </r>
       <r>    5.4373    1.0000 </r>
       <r>    5.4373    1.0000 </r>
       <r>    5.5111    1.0000 </r>
       <r>    6.9006    1.0000 </r>
       <r>    7.0317    1.0000 </r>
       <r>    7.0317    1.0000 </r>
       <r>    7.2844    1.0000 </r>
       <r>    7.7072    1.0000 </r>
       <r>    7.8490    1.0000 </r>
       <r>    7.8490    1.0000 </r>
       <r>    7.9248    1.0000 </r>
       <r>    8.4585    1.0000 </r>
       <r>    8.4585    1.0000 </r>
       <r>    8.4921    1.0000 </r>
       <r>    8.6138    1.0000 </r>
       <r>    9.7017    1.0000 </r>
       <r>   10.0467    1.0000 </r>
       <r>   10.0467    1.0000 </r>
       <r>   10.1004    1.0000 </r>
       <r>   12.0185    1.0000 </r>
       <r>   13.3752    1.0000 </r>
       <r>   13.3752    1.0000 </r>
       <r>   14.5982   -0.0000 </r>
       <r>   20.4274    0.0000 </r>
       <r>   21.5373    0.0000 </r>
       <r>   21.5373    0.0000 </r>
       <r>   22.7800    0.0000 </r>
       <r>   28.5727    0.0000 </r>
       <r>   29.2601    0.0000 </r>
       <r>   29.2601    0.0000 </r>
       <r>   29.7510    0.0000 </r>
       <r>   31.9625    0.0000 </r>
       <r>   31.9625    0.0000 </r>
       <r>   32.0707    0.0000 </r>
       <r>   33.0504    0.0000 </r>
       <r>   33.9858    0.0000 </r>
       <r>   35.1313    0.0000 </r>
       <r>   35.1313    0.0000 </r>
       <r>   36.5142    0.0000 </r>
       <r>   39.8341    0.0000 </r>
       <r>   40.6181    0.0000 </r>
       <r>   40.6181    0.0000 </r>
       <r>   41.4462    0.0000 </r>
       <r>   41.7976    0.0000 </r>
       <r>   42.6136    0.0000 </r>
       <r>   42.7630    0.0000 </r>
       <r>   42.7630    0.0000 </r>
      </set>
      <set comment="kpoint 32">
       <r>    5.0198    1.0000 </r>
       <r>    5.3955    1.0000 </r>
       <r>    5.3955    1.0000 </r>
       <r>    5.3955    1.0000 </r>
       <r>    6.8590    1.0000 </r>
       <r>    6.8590    1.0000 </r>
       <r>    6.8590    1.0000 </r>
       <r>    7.5486    1.0000 </r>
       <r>    7.5486    1.0000 </r>
       <r>    8.0033    1.0000 </r>
       <r>    8.0033    1.0000 </r>
       <r>    8.0033    1.0000 </r>
       <r>    8.3219    1.0000 </r>
       <r>    8.3219    1.0000 </r>
       <r>    8.3219    1.0000 </r>
       <r>    9.1142    1.0000 </r>
       <r>    9.8568    1.0000 </r>
       <r>    9.8568    1.0000 </r>
       <r>   10.5779    1.0000 </r>
       <r>   10.5779    1.0000 </r>
       <r>   10.5779    1.0000 </r>
       <r>   14.4542   -0.0000 </r>
       <r>   14.4542   -0.0000 </r>
       <r>   14.4542   -0.0000 </r>
       <r>   20.2927    0.0000 </r>
       <r>   20.2927    0.0000 </r>
       <r>   20.2927    0.0000 </r>
       <r>   23.9995    0.0000 </r>
       <r>   29.2365    0.0000 </r>
       <r>   29.2365    0.0000 </r>
       <r>   29.2365    0.0000 </r>
       <r>   30.2843    0.0000 </r>
       <r>   32.2196    0.0000 </r>
       <r>   32.2196    0.0000 </r>
       <r>   32.2196    0.0000 </r>
       <r>   32.7268    0.0000 </r>
       <r>   32.7268    0.0000 </r>
       <r>   32.7268    0.0000 </r>
       <r>   36.6751    0.0000 </r>
       <r>   36.6751    0.0000 </r>
       <r>   40.3832    0.0000 </r>
       <r>   40.3832    0.0000 </r>
       <r>   41.6040    0.0000 </r>
       <r>   42.5815    0.0000 </r>
[...]
       <r>   41.0751    0.0000 </r>
       <r>   41.7141    0.0000 </r>
       <r>   41.7141    0.0000 </r>
       <r>   41.8458    0.0000 </r>
       <r>   42.4655    0.0000 </r>
       <r>   43.2039    0.0000 </r>
       <r>   43.2066    0.0000 </r>
      </set>
      <set comment="kpoint 34">
       <r>    4.9695    1.0000 </r>
       <r>    5.0699    1.0000 </r>
       <r>    5.0699    1.0000 </r>
       <r>    5.1179    1.0000 </r>
       <r>    7.0849    1.0000 </r>
       <r>    7.1620    1.0000 </r>
       <r>    7.1620    1.0000 </r>
       <r>    7.3531    1.0000 </r>
       <r>    7.4549    1.0000 </r>
       <r>    7.5663    1.0000 </r>
       <r>    7.5663    1.0000 </r>
       <r>    7.5986    1.0000 </r>
       <r>    9.2805    1.0000 </r>
       <r>    9.3086    1.0000 </r>
       <r>    9.3086    1.0000 </r>
       <r>    9.7283    1.0000 </r>
       <r>   10.1451    1.0000 </r>
       <r>   10.4103    1.0000 </r>
       <r>   10.4132    1.0000 </r>
       <r>   10.4132    1.0000 </r>
       <r>   11.6915    1.0000 </r>
       <r>   13.1104    1.0000 </r>
       <r>   13.1104    1.0000 </r>
       <r>   13.9384    0.1854 </r>
       <r>   19.5191    0.0000 </r>
       <r>   20.2069    0.0000 </r>
       <r>   20.2069    0.0000 </r>
       <r>   21.2733    0.0000 </r>
       <r>   29.3841    0.0000 </r>
       <r>   29.5221    0.0000 </r>
       <r>   29.5221    0.0000 </r>
       <r>   29.6331    0.0000 </r>
       <r>   32.8183    0.0000 </r>
       <r>   33.1382    0.0000 </r>
       <r>   33.1382    0.0000 </r>
       <r>   34.0789    0.0000 </r>
       <r>   34.2308    0.0000 </r>
       <r>   34.6069    0.0000 </r>
       <r>   34.6069    0.0000 </r>
       <r>   35.7376    0.0000 </r>
       <r>   41.0743    0.0000 </r>
       <r>   41.4130    0.0000 </r>
       <r>   41.5174    0.0000 </r>
       <r>   41.5174    0.0000 </r>
       <r>   42.0180    0.0000 </r>
       <r>   42.1220    0.0000 </r>
       <r>   42.2695    0.0000 </r>
       <r>   42.2695    0.0000 </r>
      </set>
      <set comment="kpoint 35">
       <r>    4.8289    1.0000 </r>
       <r>    4.8818    1.0000 </r>
       <r>    4.8818    1.0000 </r>
       <r>    4.8818    1.0000 </r>
       <r>    7.2539    1.0000 </r>
       <r>    7.2539    1.0000 </r>
       <r>    7.2539    1.0000 </r>
       <r>    7.3492    1.0000 </r>
       <r>    7.3492    1.0000 </r>
       <r>    7.3988    1.0000 </r>
       <r>    7.3988    1.0000 </r>
       <r>    7.3988    1.0000 </r>
       <r>   10.0141    1.0000 </r>
       <r>   10.0141    1.0000 </r>
       <r>   10.0141    1.0000 </r>
       <r>   10.4412    1.0000 </r>
       <r>   10.4412    1.0000 </r>
       <r>   10.5349    1.0000 </r>
       <r>   10.5349    1.0000 </r>
       <r>   10.5349    1.0000 </r>
       <r>   11.7372    1.0000 </r>
       <r>   12.8231    1.0000 </r>
       <r>   12.8231    1.0000 </r>
       <r>   12.8231    1.0000 </r>
       <r>   19.5075    0.0000 </r>
       <r>   19.5075    0.0000 </r>
       <r>   19.5075    0.0000 </r>
       <r>   20.1551    0.0000 </r>
       <r>   29.3203    0.0000 </r>
       <r>   29.3203    0.0000 </r>
       <r>   29.3203    0.0000 </r>
       <r>   29.3476    0.0000 </r>
       <r>   34.2757    0.0000 </r>
       <r>   34.2757    0.0000 </r>
       <r>   34.2757    0.0000 </r>
       <r>   34.3876    0.0000 </r>
       <r>   34.3876    0.0000 </r>
       <r>   34.3876    0.0000 </r>
       <r>   34.9616    0.0000 </r>
       <r>   34.9616    0.0000 </r>
       <r>   41.4339    0.0000 </r>
       <r>   41.4339    0.0000 </r>
       <r>   41.7038    0.0000 </r>
       <r>   41.7038    0.0000 </r>
       <r>   41.7038    0.0000 </r>
       <r>   41.8586    0.0000 </r>
       <r>   41.8586    0.0000 </r>
       <r>   41.8586    0.0000 </r>
      </set>
     </set>
    </set>
   </array>
  </eigenvalues>
  <separator name="orbital magnetization" >
   <v name="MAGDIPOLOUT">      0.00000000      0.00000000      0.00000000</v>
  </separator>
  <dos>
   <i name="efermi">     13.89776969 </i>
   <total>
    <array>
     <dimension dim="1">gridpoints</dimension>
     <dimension dim="2">spin</dimension>
     <field>energy</field>
     <field>total</field>
     <field>integrated</field>
     <set>
      <set comment="spin 1">
       <r>     1.1083     0.0000     0.0000 </r>
       <r>     1.2662     0.0000     0.0000 </r>
       <r>     1.4241     0.0000     0.0000 </r>
       <r>     1.5820     0.0000     0.0000 </r>
       <r>     1.7398     0.0000     0.0000 </r>
       <r>     1.8977     0.0000     0.0000 </r>
       <r>     2.0556     0.0000     0.0000 </r>
       <r>     2.2134     0.0000     0.0000 </r>
       <r>     2.3713    -0.0000    -0.0000 </r>
       <r>     2.5292    -0.0000    -0.0000 </r>
       <r>     2.6870    -0.0000    -0.0000 </r>
       <r>     2.8449    -0.0000    -0.0000 </r>
       <r>     3.0028    -0.0000    -0.0000 </r>
       <r>     3.1606    -0.0005    -0.0001 </r>
       <r>     3.3185     0.0127     0.0019 </r>
       <r>     3.4764     0.0867     0.0156 </r>
       <r>     3.6343     0.1891     0.0455 </r>
       <r>     3.7921     0.1552     0.0700 </r>
       <r>     3.9500     0.0944     0.0849 </r>
       <r>     4.1079     0.3876     0.1461 </r>
       <r>     4.2657     0.4690     0.2201 </r>
       <r>     4.4236     0.0150     0.2225 </r>
       <r>     4.5815     0.4919     0.3001 </r>
       <r>     4.7393     0.8683     0.4372 </r>
       <r>     4.8972     2.0964     0.7682 </r>
       <r>     5.0551     3.8155     1.3705 </r>
       <r>     5.2129     6.0465     2.3251 </r>
       <r>     5.3708     6.1290     3.2926 </r>
       <r>     5.5287    10.2136     4.9050 </r>
       <r>     5.6866     9.2365     6.3632 </r>
       <r>     5.8444     7.6918     7.5775 </r>
       <r>     6.0023     7.6618     8.7871 </r>
       <r>     6.1602     6.3165     9.7842 </r>
       <r>     6.3180     2.7408    10.2169 </r>
       <r>     6.4759     7.5906    11.4152 </r>
       <r>     6.6338     6.2023    12.3944 </r>
       <r>     6.7916     6.2033    13.3737 </r>
       <r>     6.9495     4.5997    14.0998 </r>
       <r>     7.1074     6.2348    15.0841 </r>
       <r>     7.2652     6.6384    16.1321 </r>
       <r>     7.4231     7.1236    17.2567 </r>
       <r>     7.5810     7.5521    18.4490 </r>
       <r>     7.7388    10.2715    20.0705 </r>
       <r>     7.8967    10.4711    21.7236 </r>
       <r>     8.0546     7.4471    22.8992 </r>
       <r>     8.2125     8.1721    24.1894 </r>
       <r>     8.3703     5.3697    25.0371 </r>
       <r>     8.5282     4.2626    25.7100 </r>
       <r>     8.6861     8.2164    27.0071 </r>
       <r>     8.8439     5.7525    27.9153 </r>
       <r>     9.0018     6.3630    28.9198 </r>
       <r>     9.1597     8.6569    30.2864 </r>
       <r>     9.3175     7.0077    31.3927 </r>
       <r>     9.4754     6.4178    32.4059 </r>
       <r>     9.6333     4.5798    33.1289 </r>
       <r>     9.7911     7.0821    34.2470 </r>
       <r>     9.9490     4.4657    34.9520 </r>
       <r>    10.1069     6.6794    36.0064 </r>
       <r>    10.2648     4.8018    36.7645 </r>
       <r>    10.4226    13.1031    38.8331 </r>
       <r>    10.5805     8.0203    40.0992 </r>
       <r>    10.7384     6.1148    41.0646 </r>
       <r>    10.8962     2.8827    41.5197 </r>
       <r>    11.0541     1.2189    41.7121 </r>
       <r>    11.2120     0.5647    41.8012 </r>
       <r>    11.3698     1.8975    42.1008 </r>
       <r>    11.5277     0.4915    42.1784 </r>
       <r>    11.6856     0.6124    42.2751 </r>
       <r>    11.8434     0.5237    42.3577 </r>
       <r>    12.0013     0.3964    42.4203 </r>
       <r>    12.1592     0.2524    42.4602 </r>
       <r>    12.3171     0.8965    42.6017 </r>
       <r>    12.4749     1.9256    42.9057 </r>
       <r>    12.6328     0.6043    43.0011 </r>
       <r>    12.7907     0.7002    43.1116 </r>
       <r>    12.9485     0.7938    43.2369 </r>
       <r>    13.1064     0.4680    43.3108 </r>
       <r>    13.2643     0.8052    43.4379 </r>
       <r>    13.4221     1.0627    43.6057 </r>
       <r>    13.5800     1.3875    43.8247 </r>
       <r>    13.7379     0.4260    43.8920 </r>
       <r>    13.8957     0.6612    43.9964 </r>
       <r>    14.0536     1.0520    44.1625 </r>
       <r>    14.2115     0.8179    44.2916 </r>
       <r>    14.3693     0.4088    44.3561 </r>
       <r>    14.5272     0.5059    44.4360 </r>
       <r>    14.6851     1.4781    44.6693 </r>
       <r>    14.8430     1.3417    44.8811 </r>
       <r>    15.0008     0.3716    44.9398 </r>
       <r>    15.1587     1.9414    45.2463 </r>
       <r>    15.3166     0.6585    45.3503 </r>
       <r>    15.4744     0.3071    45.3987 </r>
       <r>    15.6323     0.3708    45.4573 </r>
       <r>    15.7902     0.5895    45.5503 </r>
       <r>    15.9480     0.8635    45.6867 </r>
       <r>    16.1059     0.9183    45.8316 </r>
       <r>    16.2638     0.8999    45.9737 </r>
       <r>    16.4216     1.8014    46.2581 </r>
       <r>    16.5795     0.8550    46.3930 </r>
       <r>    16.7374    -0.0527    46.3847 </r>
       <r>    16.8953     0.2696    46.4273 </r>
       <r>    17.0531     1.9554    46.7360 </r>
       <r>    17.2110     0.0657    46.7464 </r>
       <r>    17.3689     0.6110    46.8428 </r>
       <r>    17.5267     0.5437    46.9287 </r>
       <r>    17.6846     0.2547    46.9689 </r>
       <r>    17.8425     1.1901    47.1567 </r>
       <r>    18.0003     0.1055    47.1734 </r>
       <r>    18.1582     0.6366    47.2739 </r>
       <r>    18.3161     0.9922    47.4305 </r>
       <r>    18.4739     0.6795    47.5378 </r>
       <r>    18.6318     0.2089    47.5708 </r>
       <r>    18.7897    -0.0200    47.5676 </r>
       <r>    18.9476     0.6010    47.6625 </r>
       <r>    19.1054     0.8306    47.7936 </r>
       <r>    19.2633     0.2753    47.8371 </r>
       <r>    19.4212    -0.0661    47.8266 </r>
       <r>    19.5790     2.1061    48.1591 </r>
       <r>    19.7369     1.8065    48.4443 </r>
       <r>    19.8948     0.6634    48.5491 </r>
       <r>    20.0526     1.1695    48.7337 </r>
       <r>    20.2105     1.6413    48.9928 </r>
       <r>    20.3684     1.3935    49.2128 </r>
       <r>    20.5262     1.2846    49.4156 </r>
       <r>    20.6841     1.6425    49.6749 </r>
       <r>    20.8420     0.3813    49.7351 </r>
       <r>    20.9998     0.2696    49.7776 </r>
       <r>    21.1577     0.8858    49.9175 </r>
       <r>    21.3156     1.3666    50.1332 </r>
       <r>    21.4735     1.2997    50.3384 </r>
       <r>    21.6313     1.2996    50.5435 </r>
       <r>    21.7892     1.2046    50.7337 </r>
       <r>    21.9471     0.4649    50.8071 </r>
       <r>    22.1049     0.3590    50.8638 </r>
       <r>    22.2628     1.6392    51.1226 </r>
       <r>    22.4207     0.2127    51.1562 </r>
       <r>    22.5785     0.9479    51.3058 </r>
       <r>    22.7364     0.8816    51.4450 </r>
       <r>    22.8943     1.2039    51.6350 </r>
       <r>    23.0521     0.8088    51.7627 </r>
       <r>    23.2100     1.5361    52.0052 </r>
       <r>    23.3679     2.3960    52.3835 </r>
       <r>    23.5258     1.8415    52.6742 </r>
       <r>    23.6836     1.2041    52.8643 </r>
       <r>    23.8415     0.7220    52.9783 </r>
       <r>    23.9994     1.4260    53.2034 </r>
       <r>    24.1572     1.5084    53.4415 </r>
       <r>    24.3151     2.2539    53.7973 </r>
       <r>    24.4730     1.3764    54.0146 </r>
       <r>    24.6308     2.6506    54.4331 </r>
       <r>    24.7887     2.5893    54.8418 </r>
       <r>    24.9466     1.8218    55.1294 </r>
       <r>    25.1044     1.5520    55.3744 </r>
       <r>    25.2623     1.2143    55.5662 </r>
       <r>    25.4202     1.2902    55.7698 </r>
       <r>    25.5781     1.0837    55.9409 </r>
       <r>    25.7359     1.9976    56.2563 </r>
       <r>    25.8938     2.4231    56.6388 </r>
       <r>    26.0517     2.1083    56.9717 </r>
       <r>    26.2095     0.9268    57.1180 </r>
       <r>    26.3674     1.2080    57.3087 </r>
       <r>    26.5253     2.0068    57.6255 </r>
       <r>    26.6831     2.5922    58.0347 </r>
       <r>    26.8410     2.4357    58.4192 </r>
       <r>    26.9989     2.3142    58.7846 </r>
       <r>    27.1567     3.3539    59.3141 </r>
       <r>    27.3146     0.8352    59.4459 </r>
       <r>    27.4725     1.6929    59.7132 </r>
       <r>    27.6303     1.9496    60.0209 </r>
       <r>    27.7882     1.9218    60.3243 </r>
       <r>    27.9461     2.2030    60.6721 </r>
       <r>    28.1040     1.0373    60.8359 </r>
       <r>    28.2618     1.0396    61.0000 </r>
       <r>    28.4197     1.1062    61.1746 </r>
       <r>    28.5776     1.5959    61.4266 </r>
       <r>    28.7354     2.8563    61.8775 </r>
       <r>    28.8933     3.7365    62.4674 </r>
       <r>    29.0512     1.8010    62.7517 </r>
       <r>    29.2090     2.4511    63.1387 </r>
       <r>    29.3669     3.9920    63.7689 </r>
       <r>    29.5248     2.5918    64.1780 </r>
       <r>    29.6826     1.0105    64.3376 </r>
       <r>    29.8405     2.5019    64.7325 </r>
       <r>    29.9984     3.1503    65.2299 </r>
       <r>    30.1563     1.5602    65.4762 </r>
       <r>    30.3141     1.4777    65.7095 </r>
       <r>    30.4720     2.5630    66.1141 </r>
       <r>    30.6299     1.7238    66.3862 </r>
       <r>    30.7877     1.3092    66.5929 </r>
       <r>    30.9456     3.4847    67.1430 </r>
       <r>    31.1035     1.6170    67.3983 </r>
       <r>    31.2613     2.2736    67.7572 </r>
       <r>    31.4192     1.4960    67.9934 </r>
       <r>    31.5771     1.5428    68.2369 </r>
       <r>    31.7349     1.8506    68.5291 </r>
       <r>    31.8928     1.4226    68.7537 </r>
       <r>    32.0507     2.2615    69.1107 </r>
       <r>    32.2086     1.5200    69.3507 </r>
       <r>    32.3664     0.5541    69.4381 </r>
       <r>    32.5243     0.8743    69.5762 </r>
       <r>    32.6822     0.6750    69.6827 </r>
       <r>    32.8400     1.1516    69.8645 </r>
       <r>    32.9979     1.0226    70.0260 </r>
       <r>    33.1558     1.1550    70.2083 </r>
       <r>    33.3136     1.0259    70.3703 </r>
       <r>    33.4715     2.1547    70.7104 </r>
       <r>    33.6294     0.9577    70.8616 </r>
       <r>    33.7872     2.2278    71.2133 </r>
       <r>    33.9451     4.1475    71.8681 </r>
       <r>    34.1030     2.7682    72.3051 </r>
       <r>    34.2609     3.6131    72.8755 </r>
       <r>    34.4187     1.5796    73.1249 </r>
       <r>    34.5766     3.0154    73.6009 </r>
       <r>    34.7345     2.5672    74.0062 </r>
       <r>    34.8923     3.3052    74.5279 </r>
       <r>    35.0502     4.5348    75.2439 </r>
       <r>    35.2081     2.0016    75.5598 </r>
       <r>    35.3659     1.0994    75.7334 </r>
       <r>    35.5238     1.8727    76.0290 </r>
       <r>    35.6817     2.9441    76.4938 </r>
       <r>    35.8395     3.6137    77.0643 </r>
       <r>    35.9974     2.7182    77.4934 </r>
       <r>    36.1553     2.9266    77.9554 </r>
       <r>    36.3131     2.2901    78.3170 </r>
       <r>    36.4710     0.4023    78.3805 </r>
       <r>    36.6289     1.9848    78.6938 </r>
       <r>    36.7868     2.4577    79.0818 </r>
       <r>    36.9446     1.1358    79.2611 </r>
       <r>    37.1025     1.0430    79.4258 </r>
       <r>    37.2604     1.1515    79.6076 </r>
       <r>    37.4182     1.5945    79.8593 </r>
       <r>    37.5761     1.0297    80.0218 </r>
       <r>    37.7340     0.5121    80.1027 </r>
       <r>    37.8918     1.7945    80.3860 </r>
       <r>    38.0497     0.6628    80.4906 </r>
       <r>    38.2076     0.8757    80.6289 </r>
       <r>    38.3654     0.6588    80.7329 </r>
       <r>    38.5233     0.9343    80.8804 </r>
       <r>    38.6812     0.5051    80.9601 </r>
       <r>    38.8391     1.6202    81.2159 </r>
       <r>    38.9969     1.3601    81.4306 </r>
       <r>    39.1548     0.7982    81.5566 </r>
       <r>    39.3127     2.2429    81.9107 </r>
       <r>    39.4705     2.6193    82.3242 </r>
       <r>    39.6284     1.8107    82.6101 </r>
       <r>    39.7863     2.8036    83.0527 </r>
       <r>    39.9441     1.7416    83.3276 </r>
       <r>    40.1020     2.0427    83.6501 </r>
       <r>    40.2599     1.1294    83.8284 </r>
       <r>    40.4177     1.9369    84.1342 </r>
       <r>    40.5756     1.5356    84.3766 </r>
       <r>    40.7335     1.7813    84.6578 </r>
       <r>    40.8914     1.4867    84.8925 </r>
       <r>    41.0492     4.2342    85.5609 </r>
       <r>    41.2071     3.5714    86.1248 </r>
       <r>    41.3650     2.8326    86.5719 </r>
       <r>    41.5228     2.9329    87.0350 </r>
       <r>    41.6807     2.1487    87.3742 </r>
       <r>    41.8386     3.9829    88.0029 </r>
       <r>    41.9964     2.2053    88.3511 </r>
       <r>    42.1543     1.1808    88.5375 </r>
       <r>    42.3122     2.7237    88.9675 </r>
       <r>    42.4700     0.9243    89.1134 </r>
       <r>    42.6279     2.3786    89.4889 </r>
       <r>    42.7858     4.7164    90.2335 </r>
       <r>    42.9436     1.4309    90.4594 </r>
       <r>    43.1015     2.6844    90.8832 </r>
       <r>    43.2594     2.4741    91.2737 </r>
       <r>    43.4173     2.7993    91.7157 </r>
       <r>    43.5751     2.6177    92.1289 </r>
       <r>    43.7330     2.8706    92.5821 </r>
       <r>    43.8909     3.5397    93.1409 </r>
       <r>    44.0487     2.8802    93.5956 </r>
       <r>    44.2066     3.3504    94.1245 </r>
       <r>    44.3645     2.5392    94.5254 </r>
       <r>    44.5223     2.9880    94.9971 </r>
       <r>    44.6802     2.6762    95.4196 </r>
       <r>    44.8381     1.1579    95.6024 </r>
       <r>    44.9959     0.8398    95.7350 </r>
       <r>    45.1538     0.4675    95.8088 </r>
       <r>    45.3117     0.0572    95.8178 </r>
       <r>    45.4696     0.5368    95.9026 </r>
       <r>    45.6274     0.1517    95.9265 </r>
       <r>    45.7853     0.2682    95.9688 </r>
       <r>    45.9432     0.1389    95.9908 </r>
       <r>    46.1010     0.0432    95.9976 </r>
       <r>    46.2589    -0.0004    95.9975 </r>
       <r>    46.4168     0.0162    96.0001 </r>
       <r>    46.5746    -0.0004    96.0000 </r>
       <r>    46.7325    -0.0000    96.0000 </r>
       <r>    46.8904    -0.0000    96.0000 </r>
       <r>    47.0482    -0.0000    96.0000 </r>
       <r>    47.2061     0.0000    96.0000 </r>
       <r>    47.3640     0.0000    96.0000 </r>
       <r>    47.5219     0.0000    96.0000 </r>
       <r>    47.6797     0.0000    96.0000 </r>
       <r>    47.8376     0.0000    96.0000 </r>
       <r>    47.9955     0.0000    96.0000 </r>
       <r>    48.1533     0.0000    96.0000 </r>
       <r>    48.3112     0.0000    96.0000 </r>
       <r>    48.4691     0.0000    96.0000 </r>
      </set>
     </set>
    </array>
   </total>
  </dos>
 </calculation>
 <structure name="finalpos" >
  <crystal>
   <varray name="basis" >
    <v>       3.68100000       0.00000000       0.00000000 </v>
    <v>       0.00000000       3.68100000       0.00000000 </v>
    <v>       0.00000000       0.00000000       3.68100000 </v>
   </varray>
   <i name="volume">     49.87667024 </i>
   <varray name="rec_basis" >
    <v>       0.27166531       0.00000000       0.00000000 </v>
    <v>       0.00000000       0.27166531       0.00000000 </v>
    <v>       0.00000000       0.00000000       0.27166531 </v>
   </varray>
  </crystal>
  <varray name="positions" >
   <v>       0.00000000       0.00000000       0.00000000 </v>
   <v>       0.00000000       0.50000000       0.50000000 </v>
   <v>       0.50000000       0.00000000       0.50000000 </v>
   <v>       0.50000000       0.50000000       0.00000000 </v>
  </varray>
 </structure>
</modeling>
