----- GAMESS execution script 'rungms' -----
This job is running on host crcfe01.crc.nd.edu
under operating system Linux at Thu Oct 17 12:45:32 EDT 2019
Available scratch disk space (Kbyte units) at beginning of the job is
Filesystem      1K-blocks  Used  Available Use% Mounted on
AFS            2147483647     0 2147483647   0% /afs
GAMESS temporary binary files will be written to /afs/crc.nd.edu/user/c/cdrisko
GAMESS supplementary output files will be written to /afs/crc.nd.edu/user/c/cdrisko/scr
Copying input file acetaldehyde.inp to your run's scratch directory...

 Distributed Data Interface kickoff program.
 Initiating 1 compute processes on 1 nodes to run the following command:
 /afs/crc.nd.edu/x86_64_linux/g/gamess/nov-2017/gamess/gamess.00.x acetaldehyde 

          ******************************************************
          *         GAMESS VERSION = 11 NOV 2017 (R3)         *
          *             FROM IOWA STATE UNIVERSITY             *
          * M.W.SCHMIDT, K.K.BALDRIDGE, J.A.BOATZ, S.T.ELBERT, *
          *   M.S.GORDON, J.H.JENSEN, S.KOSEKI, N.MATSUNAGA,   *
          *          K.A.NGUYEN, S.J.SU, T.L.WINDUS,           *
          *       TOGETHER WITH M.DUPUIS, J.A.MONTGOMERY       *
          *         J.COMPUT.CHEM.  14, 1347-1363(1993)        *
          **************** 64 BIT INTEL VERSION ****************

  SINCE 1993, STUDENTS AND POSTDOCS WORKING AT IOWA STATE UNIVERSITY
  AND ALSO IN THEIR VARIOUS JOBS AFTER LEAVING ISU HAVE MADE IMPORTANT
  CONTRIBUTIONS TO THE CODE:
     IVANA ADAMOVIC, CHRISTINE AIKENS, YURI ALEXEEV, POOJA ARORA,
     ANDREY ASADCHEV, ROB BELL, PRADIPTA BANDYOPADHYAY, JONATHAN BENTZ,
     BRETT BODE, KURT BRORSEN, CALEB CARLIN, GALINA CHABAN, WEI CHEN,
     CHEOL HO CHOI, PAUL DAY, ALBERT DEFUSCO, NUWAN DESILVA, TIM DUDLEY,
     DMITRI FEDOROV, ALEX FINDLATER, GRAHAM FLETCHER, MARK FREITAG,
     KURT GLAESEMANN, ANASTASIA GUININA,
     DAN KEMP, GRANT MERRILL, NORIYUKI MINEZAWA, JONATHAN MULLIN,
     TAKESHI NAGATA, SEAN NEDD, HEATHER NETZLOFF, BOSILJKA NJEGIC, RYAN OLSON,
     MIKE PAK, BUU PHAM,
     SPENCER PRUITT, LUKE ROSKOP, JIM SHOEMAKER, LYUDMILA SLIPCHENKO,
     TONY SMITH, SAROM SOK LEANG, JIE SONG, TETSUYA TAKETSUGU, SIMON WEBB,
     PENG XU, SOOHAENG YOO, FEDERICO ZAHARIEV

  ADDITIONAL CODE HAS BEEN PROVIDED BY COLLABORATORS IN OTHER GROUPS:
     IOWA STATE UNIVERSITY:
          JOE IVANIC, AARON WEST, LAIMUTIS BYTAUTAS, KLAUS RUEDENBERG
     UNIVERSITY OF TOKYO: KIMIHIKO HIRAO, TAKAHITO NAKAJIMA,
          TAKAO TSUNEDA, MUNEAKI KAMIYA, SUSUMU YANAGISAWA,
          KIYOSHI YAGI, MAHITO CHIBA, SEIKEN TOKURA, NAOAKI KAWAKAMI
     UNIVERSITY OF AARHUS: FRANK JENSEN
     UNIVERSITY OF IOWA: VISVALDAS KAIRYS, HUI LI
     NATIONAL INST. OF STANDARDS AND TECHNOLOGY: WALT STEVENS, DAVID GARMER
     UNIVERSITY OF PISA: BENEDETTA MENNUCCI, JACOPO TOMASI
     UNIVERSITY OF MEMPHIS: HENRY KURTZ, PRAKASHAN KORAMBATH
     UNIVERSITY OF ALBERTA: TOBY ZENG, MARIUSZ KLOBUKOWSKI
     UNIVERSITY OF NEW ENGLAND: MARK SPACKMAN
     MIE UNIVERSITY: HIROAKI UMEDA
     NAT. INST. OF ADVANCED INDUSTRIAL SCIENCE AND TECHNOLOGY: KAZUO KITAURA
     MICHIGAN STATE UNIVERSITY:
          KAROL KOWALSKI, MARTA WLOCH, JEFFREY GOUR, JESSE LUTZ,
          WEI LI, PIOTR PIECUCH
     UNIVERSITY OF SILESIA: MONIKA MUSIAL, STANISLAW KUCHARSKI
     FACULTES UNIVERSITAIRES NOTRE-DAME DE LA PAIX:
          OLIVIER QUINET, BENOIT CHAMPAGNE
     UNIVERSITY OF CALIFORNIA - SANTA BARBARA: BERNARD KIRTMAN
     INSTITUTE FOR MOLECULAR SCIENCE:
          KAZUYA ISHIMURA, MICHIO KATOUDA, AND SHIGERU NAGASE
     UNIVERSITY OF NOTRE DAME: ANNA POMOGAEVA, DAN CHIPMAN
     KYUSHU UNIVERSITY:
          HARUYUKI NAKANO,
          FENG LONG GU, JACEK KORCHOWIEC, MARCIN MAKOWSKI, AND YURIKO AOKI,
          HIROTOSHI MORI AND EISAKU MIYOSHI
     PENNSYLVANIA STATE UNIVERSITY:
          TZVETELIN IORDANOV, CHET SWALINA, JONATHAN SKONE,
          SHARON HAMMES-SCHIFFER
     WASEDA UNIVERSITY:
          MASATO KOBAYASHI, TOMOKO AKAMA, TSUGUKI TOUMA,
          TAKESHI YOSHIKAWA, YASUHIRO IKABATA, JUNJI SEINO,
          YUYA NAKAJIMA, HIROMI NAKAI
     NANJING UNIVERSITY: SHUHUA LI
     UNIVERSITY OF NEBRASKA:
          PEIFENG SU, DEJUN SI, NANDUN THELLAMUREGE, YALI WANG, HUI LI
     UNIVERSITY OF ZURICH: ROBERTO PEVERATI, KIM BALDRIDGE
     N. COPERNICUS UNIVERSITY AND JACKSON STATE UNIVERSITY:
          MARIA BARYSZ
     UNIVERSITY OF COPENHAGEN: Jimmy Kromann, CASPER STEINMANN
     TOKYO INSTITUTE OF TECHNOLOGY: HIROYA NAKATA
     NAGOYA UNIVERSITY: YOSHIO NISHIMOTO, STEPHAN IRLE
     MOSCOW STATE UNIVERSITY: VLADIMIR MIRONOV

 EXECUTION OF GAMESS BEGUN Thu Oct 17 12:45:32 2019

            ECHO OF THE FIRST FEW INPUT CARDS -
 INPUT CARD> $CONTRL SCFTYP=RHF DFTTYP=B3LYP RUNTYP=ENERGY                                  
 INPUT CARD>       ISPHER=1 MULT=1 COORD=ZMT NZVAR=15 $END                                  
 INPUT CARD> $BASIS GBASIS=N31 NGAUSS=6 NDFUNC=1 $END                                       
 INPUT CARD> $STATPT IFREEZ(1)=9 $END                                                       
 INPUT CARD> $DATA                                                                          
 INPUT CARD>Title Single Point Energy Calculation of Acetaldehyde                           
 INPUT CARD>C1                                                                              
 INPUT CARD>C                                                                               
 INPUT CARD>C      1   1.5086892                                                            
 INPUT CARD>O      2   1.2107245  1  124.7161                                               
 INPUT CARD>H      2   1.1145804  1  114.7739  3  180.0000  0                               
 INPUT CARD>H      1   1.0926781  2  110.5176  3  40.      0                                
 INPUT CARD>H      1   1.0983769  2  109.8265  3  121.4889  0                               
 INPUT CARD>H      1   1.0983769  2  109.8265  3 -121.4889  0                               
 INPUT CARD> $END                                                                           
    1000000 WORDS OF MEMORY AVAILABLE

     BASIS OPTIONS
     -------------
     GBASIS=N31          IGAUSS=       6      POLAR=POPN31  
     NDFUNC=       1     NFFUNC=       0     DIFFSP=       F
     NPFUNC=       0      DIFFS=       F     BASNAM=        


     RUN TITLE
     ---------
 Title Single Point Energy Calculation of Acetaldehyde                           

 THE POINT GROUP OF THE MOLECULE IS C1      
 THE ORDER OF THE PRINCIPAL AXIS IS     0

 YOUR FULLY SUBSTITUTED Z-MATRIX IS
 C   
 C      1   1.5086892
 O      2   1.2107245  1  124.7161
 H      2   1.1145804  1  114.7739  3  180.0000  0
 H      1   1.0926781  2  110.5176  3   40.0000  0
 H      1   1.0983769  2  109.8265  3  121.4889  0
 H      1   1.0983769  2  109.8265  3 -121.4889  0

 THE MOMENTS OF INERTIA ARE (AMU-ANGSTROM**2)
 IXX=     8.787   IYY=    50.760   IZZ=    55.792

 ATOM      ATOMIC                      COORDINATES (BOHR)
           CHARGE         X                   Y                   Z
 C           6.0    -2.3822329638        0.3172058594        0.1177998820
 C           6.0     0.2418054853       -0.7788958411       -0.0852682680
 O           8.0     2.1755944340        0.4364072791        0.0494791537
 H           1.0     0.3072190123       -2.8634642070       -0.3795323990
 H           1.0    -2.4927159932        2.1204069486       -0.8821577392
 H           1.0    -3.4592988554       -0.1111377751       -1.6040294909
 H           1.0    -3.3977536394       -0.5746397064        1.6931013889

          INTERNUCLEAR DISTANCES (ANGS.)
          ------------------------------

                1 C          2 C          3 O          4 H          5 H     

   1 C       0.0000000    1.5086892 *  2.4129941 *  2.2198436 *  1.0926781 *
   2 C       1.5086892 *  0.0000000    1.2107245 *  1.1145804 *  2.1507392 *
   3 O       2.4129941 *  1.2107245 *  0.0000000    2.0194911 *  2.6720530 *
   4 H       2.2198436 *  1.1145804 *  2.0194911 *  0.0000000    3.0367232  
   5 H       1.0926781 *  2.1507392 *  2.6720530 *  3.0367232    0.0000000  
   6 H       1.0983769 *  2.1463151 *  3.1210656    2.5522231 *  1.3423980 *
   7 H       1.0983769 *  2.1463151 *  3.1210656    2.5522231 *  2.0298848 *

                6 H          7 H     

   1 C       1.0983769 *  1.0983769 *
   2 C       2.1463151 *  2.1463151 *
   3 O       3.1210656    3.1210656  
   4 H       2.5522231 *  2.5522231 *
   5 H       1.3423980 *  2.0298848 *
   6 H       0.0000000    1.7622233 *
   7 H       1.7622233 *  0.0000000  

  * ... LESS THAN  3.000


     ATOMIC BASIS SET
     ----------------
 THE CONTRACTED PRIMITIVE FUNCTIONS HAVE BEEN UNNORMALIZED
 THE CONTRACTED BASIS FUNCTIONS ARE NOW NORMALIZED TO UNITY

  SHELL TYPE  PRIMITIVE        EXPONENT          CONTRACTION COEFFICIENT(S)

 C         

      1   S       1          3047.5248800    0.001834737132
      1   S       2           457.3695180    0.014037322813
      1   S       3           103.9486850    0.068842622264
      1   S       4            29.2101553    0.232184443216
      1   S       5             9.2866630    0.467941348435
      1   S       6             3.1639270    0.362311985337

      2   L       7             7.8682723   -0.119332419775    0.068999066591
      2   L       8             1.8812885   -0.160854151696    0.316423960957
      2   L       9             0.5442493    1.143456437840    0.744308290898

      3   L      10             0.1687145    1.000000000000    1.000000000000

      4   D      11             0.8000000    1.000000000000

 C         

      5   S      12          3047.5248800    0.001834737132
      5   S      13           457.3695180    0.014037322813
      5   S      14           103.9486850    0.068842622264
      5   S      15            29.2101553    0.232184443216
      5   S      16             9.2866630    0.467941348435
      5   S      17             3.1639270    0.362311985337

      6   L      18             7.8682723   -0.119332419775    0.068999066591
      6   L      19             1.8812885   -0.160854151696    0.316423960957
      6   L      20             0.5442493    1.143456437840    0.744308290898

      7   L      21             0.1687145    1.000000000000    1.000000000000

      8   D      22             0.8000000    1.000000000000

 O         

      9   S      23          5484.6716600    0.001831074430
      9   S      24           825.2349460    0.013950172200
      9   S      25           188.0469580    0.068445078098
      9   S      26            52.9645000    0.232714335992
      9   S      27            16.8975704    0.470192897984
      9   S      28             5.7996353    0.358520852987

     10   L      29            15.5396162   -0.110777549525    0.070874268231
     10   L      30             3.5999336   -0.148026262701    0.339752839147
     10   L      31             1.0137618    1.130767015354    0.727158577316

     11   L      32             0.2700058    1.000000000000    1.000000000000

     12   D      33             0.8000000    1.000000000000

 H         

     13   S      34            18.7311370    0.033494604338
     13   S      35             2.8253944    0.234726953484
     13   S      36             0.6401217    0.813757326146

     14   S      37             0.1612778    1.000000000000

 H         

     15   S      38            18.7311370    0.033494604338
     15   S      39             2.8253944    0.234726953484
     15   S      40             0.6401217    0.813757326146

     16   S      41             0.1612778    1.000000000000

 H         

     17   S      42            18.7311370    0.033494604338
     17   S      43             2.8253944    0.234726953484
     17   S      44             0.6401217    0.813757326146

     18   S      45             0.1612778    1.000000000000

 H         

     19   S      46            18.7311370    0.033494604338
     19   S      47             2.8253944    0.234726953484
     19   S      48             0.6401217    0.813757326146

     20   S      49             0.1612778    1.000000000000

 TOTAL NUMBER OF BASIS SET SHELLS             =   20
 NUMBER OF CARTESIAN GAUSSIAN BASIS FUNCTIONS =   53
 NOTE: THIS RUN WILL RESTRICT THE MO VARIATION SPACE TO SPHERICAL HARMONICS.
 THE NUMBER OF ORBITALS KEPT IN THE VARIATIONAL SPACE WILL BE PRINTED LATER.
 NUMBER OF ELECTRONS                          =   24
 CHARGE OF MOLECULE                           =    0
 SPIN MULTIPLICITY                            =    1
 NUMBER OF OCCUPIED ORBITALS (ALPHA)          =   12
 NUMBER OF OCCUPIED ORBITALS (BETA )          =   12
 TOTAL NUMBER OF ATOMS                        =    7
 THE NUCLEAR REPULSION ENERGY IS       69.4717846488

     LEBEDEV GRID-BASED DFT OPTIONS
     ------------------------------
     DFTTYP=B3LYP   
     NRAD  =      96     NLEB  =     302
     NRAD0 =      24     NLEB0 =     110
     SWOFF =    5.00E-03 (PURE SCF -> DFT)
     SWITCH=    3.00E-04 (COARSE -> TIGHT GRID)
     THRESH=    0.00E+00 GTHRE=    1.00E+00

 GRIMME'S EMPIRICAL DISPERSION CORRECTION= F

     $CONTRL OPTIONS
     ---------------
 SCFTYP=RHF          RUNTYP=ENERGY       EXETYP=RUN     
 MPLEVL=       0     CITYP =NONE         CCTYP =NONE         VBTYP =NONE    
 DFTTYP=B3LYP        TDDFT =NONE    
 MULT  =       1     ICHARG=       0     NZVAR =      15     COORD =ZMT     
 PP    =NONE         RELWFN=NONE         LOCAL =NONE         NUMGRD=       F
 ISPHER=       1     NOSYM =       0     MAXIT =      30     UNITS =ANGS    
 PLTORB=       F     MOLPLT=       F     AIMPAC=       F     FRIEND=        
 NPRINT=       7     IREST =       0     GEOM  =INPUT   
 NORMF =       0     NORMP =       0     ITOL  =      20     ICUT  =       9
 INTTYP=BEST         GRDTYP=BEST         QMTTOL= 1.0E-06

     $SYSTEM OPTIONS
     ---------------
  REPLICATED MEMORY=     1000000 WORDS (ON EVERY NODE).
 DISTRIBUTED MEMDDI=           0 MILLION WORDS IN AGGREGATE,
 MEMDDI DISTRIBUTED OVER   1 PROCESSORS IS           0 WORDS/PROCESSOR.
 TOTAL MEMORY REQUESTED ON EACH PROCESSOR=     1000000 WORDS.
 TIMLIM=      525600.00 MINUTES, OR     365.0 DAYS.
 PARALL= F  BALTYP=  DLB     KDIAG=    0  COREFL= F
 MXSEQ2=     300 MXSEQ3=     150  mem10=         0

          ----------------
          PROPERTIES INPUT
          ----------------

     MOMENTS            FIELD           POTENTIAL          DENSITY
 IEMOM =       1   IEFLD =       0   IEPOT =       0   IEDEN =       0
 WHERE =COMASS     WHERE =NUCLEI     WHERE =NUCLEI     WHERE =NUCLEI  
 OUTPUT=BOTH       OUTPUT=BOTH       OUTPUT=BOTH       OUTPUT=BOTH    
 IEMINT=       0   IEFINT=       0                     IEDINT=       0
                                                       MORB  =       0
          EXTRAPOLATION IN EFFECT
          DIIS IN EFFECT
 ORBITAL PRINTING OPTION: NPREO=     1    53     2     1

     -------------------------------
     INTEGRAL TRANSFORMATION OPTIONS
     -------------------------------
     NWORD  =            0
     CUTOFF = 1.0E-09     MPTRAN =       0
     DIRTRF =       F     AOINTS =DUP     

          ----------------------
          INTEGRAL INPUT OPTIONS
          ----------------------
 NOPK  =       1 NORDER=       0 SCHWRZ=       T

   --- ENCODED Z MATRIX ---
 COORD  TYPE   I   J   K   L   M   N
    1      1    2   1
    2      1    3   2
    3      2    3   2   1
    4      1    4   2
    5      2    4   2   1
    6      3    4   2   1   3
    7      1    5   1
    8      2    5   1   2
    9      3    5   1   2   3
   10      1    6   1
   11      2    6   1   2
   12      3    6   1   2   3
   13      1    7   1
   14      2    7   1   2
   15      3    7   1   2   3

 THE DETERMINANT OF THE G MATRIX IS 10**(    -8)


                     --------------------
                     INTERNAL COORDINATES
                     --------------------

                 - - ATOMS - -         COORDINATE      COORDINATE
 NO.   TYPE    I  J  K  L  M  N        (BOHR,RAD)       (ANG,DEG)
 ----------------------------------------------------------------
   1 STRETCH   2  1                     2.8510092       1.5086892
   2 STRETCH   3  2                     2.2879376       1.2107245
   3 BEND      3  2  1                  2.1767066     124.7161000
   4 STRETCH   4  2                     2.1062515       1.1145804
   5 BEND      4  2  1                  2.0031825     114.7739000
   6 TORSION   4  2  1  3               3.1415927     180.0000000
   7 STRETCH   5  1                     2.0648622       1.0926781
   8 BEND      5  1  2                  1.9288960     110.5176000
   9 TORSION   5  1  2  3               0.6981317      40.0000000
  10 STRETCH   6  1                     2.0756314       1.0983769
  11 BEND      6  1  2                  1.9168340     109.8265000
  12 TORSION   6  1  2  3               2.1203813     121.4889000
  13 STRETCH   7  1                     2.0756314       1.0983769
  14 BEND      7  1  2                  1.9168340     109.8265000
  15 TORSION   7  1  2  3              -2.1203813    -121.4889000

     ------------------------------------------
     THE POINT GROUP IS C1 , NAXIS= 0, ORDER= 1
     ------------------------------------------

 -- VARIATIONAL SPACE WILL BE RESTRICTED TO PURE SPHERICAL HARMONICS ONLY --
 AFTER EXCLUDING CONTAMINANT COMBINATIONS FROM THE CARTESIAN GAUSSIAN BASIS
 SET, THE NUMBER OF SPHERICAL HARMONICS KEPT IN THE VARIATION SPACE IS   50

     DIMENSIONS OF THE SYMMETRY SUBSPACES ARE
 A   =   50

 ..... DONE SETTING UP THE RUN .....
 STEP CPU TIME =     0.01 TOTAL CPU TIME =          0.0 (      0.0 MIN)
 TOTAL WALL CLOCK TIME=          0.0 SECONDS, CPU UTILIZATION IS    33.33%

          ********************
          1 ELECTRON INTEGRALS
          ********************
 ...... END OF ONE-ELECTRON INTEGRALS ......
 STEP CPU TIME =     0.01 TOTAL CPU TIME =          0.0 (      0.0 MIN)
 TOTAL WALL CLOCK TIME=          0.0 SECONDS, CPU UTILIZATION IS    66.67%

          -------------
          GUESS OPTIONS
          -------------
          GUESS =HUCKEL            NORB  =       0          NORDER=       0
          MIX   =       F          PRTMO =       F          PUNMO =       F
          TOLZ  = 1.0E-08          TOLE  = 1.0E-05
          SYMDEN=       F          PURIFY=       F

 INITIAL GUESS ORBITALS GENERATED BY HUCKEL   ROUTINE.
 HUCKEL GUESS REQUIRES     27154 WORDS.

 STATISTICS FOR GENERATION OF SYMMETRY ORBITAL -Q- MATRIX
 NUMBER OF CARTESIAN ATOMIC ORBITALS=         53
 NUMBER OF SPHERICAL CONTAMINANTS DROPPED=     3
 NUMBER OF LINEARLY DEPENDENT MOS DROPPED=     0
 TOTAL NUMBER OF MOS IN VARIATION SPACE=      50

 SYMMETRIES FOR INITIAL GUESS ORBITALS FOLLOW.   BOTH SET(S).
    12 ORBITALS ARE OCCUPIED (    3 CORE ORBITALS).
     4=A        5=A        6=A        7=A        8=A        9=A       10=A   
    11=A       12=A       13=A       14=A       15=A       16=A       17=A   
    18=A       19=A       20=A       21=A       22=A   
 ...... END OF INITIAL ORBITAL SELECTION ......
 STEP CPU TIME =     0.00 TOTAL CPU TIME =          0.0 (      0.0 MIN)
 TOTAL WALL CLOCK TIME=          0.0 SECONDS, CPU UTILIZATION IS    50.00%

                    ----------------------
                    AO INTEGRAL TECHNOLOGY
                    ----------------------
     S,P,L SHELL ROTATED AXIS INTEGRALS, REPROGRAMMED BY
        KAZUYA ISHIMURA (IMS) AND JOSE SIERRA (SYNSTAR).
     S,P,D,L SHELL ROTATED AXIS INTEGRALS PROGRAMMED BY
        KAZUYA ISHIMURA (INSTITUTE FOR MOLECULAR SCIENCE).
     S,P,D,F,G SHELL TO TOTAL QUARTET ANGULAR MOMENTUM SUM 5,
        ERIC PROGRAM BY GRAHAM FLETCHER (ELORET AND NASA ADVANCED
        SUPERCOMPUTING DIVISION, AMES RESEARCH CENTER).
     S,P,D,F,G,L SHELL GENERAL RYS QUADRATURE PROGRAMMED BY
        MICHEL DUPUIS (PACIFIC NORTHWEST NATIONAL LABORATORY).

          --------------------
          2 ELECTRON INTEGRALS
          --------------------

 THE -PK- OPTION IS OFF, THE INTEGRALS ARE NOT IN SUPERMATRIX FORM.
 STORING   15000 INTEGRALS/RECORD ON DISK, USING 12 BYTES/INTEGRAL.
 TWO ELECTRON INTEGRAL EVALUATION REQUIRES   90606 WORDS OF MEMORY.
 SCHWARZ INEQUALITY OVERHEAD:      1430 INTEGRALS, T=        0.00
 II,JST,KST,LST =  1  1  1  1 NREC =         1 INTLOC =    1
 II,JST,KST,LST =  2  1  1  1 NREC =         1 INTLOC =    2
 II,JST,KST,LST =  3  1  1  1 NREC =         1 INTLOC =   34
 II,JST,KST,LST =  4  1  1  1 NREC =         1 INTLOC =  214
 II,JST,KST,LST =  5  1  1  1 NREC =         1 INTLOC = 1189
 II,JST,KST,LST =  6  1  1  1 NREC =         1 INTLOC = 3234
 II,JST,KST,LST =  7  1  1  1 NREC =         2 INTLOC =  982
 II,JST,KST,LST =  8  1  1  1 NREC =         3 INTLOC = 8238
 II,JST,KST,LST =  9  1  1  1 NREC =         7 INTLOC = 6174
 II,JST,KST,LST = 10  1  1  1 NREC =         8 INTLOC = 3610
 II,JST,KST,LST = 11  1  1  1 NREC =        13 INTLOC = 1199
 II,JST,KST,LST = 12  1  1  1 NREC =        19 INTLOC =14953
 II,JST,KST,LST = 13  1  1  1 NREC =        34 INTLOC =10883
 II,JST,KST,LST = 14  1  1  1 NREC =        37 INTLOC =13849
 II,JST,KST,LST = 15  1  1  1 NREC =        41 INTLOC = 5427
 II,JST,KST,LST = 16  1  1  1 NREC =        44 INTLOC =14310
 II,JST,KST,LST = 17  1  1  1 NREC =        48 INTLOC =12729
 II,JST,KST,LST = 18  1  1  1 NREC =        52 INTLOC =11981
 II,JST,KST,LST = 19  1  1  1 NREC =        57 INTLOC = 2738
 II,JST,KST,LST = 20  1  1  1 NREC =        61 INTLOC = 9434
 SCHWARZ INEQUALITY TEST SKIPPED         784 INTEGRAL BLOCKS.
 TOTAL NUMBER OF NONZERO TWO-ELECTRON INTEGRALS =              983213
         66 INTEGRAL RECORDS WERE STORED ON DISK FILE  8.
  ...... END OF TWO-ELECTRON INTEGRALS .....
 STEP CPU TIME =     0.11 TOTAL CPU TIME =          0.1 (      0.0 MIN)
 TOTAL WALL CLOCK TIME=          0.1 SECONDS, CPU UTILIZATION IS    92.86%

          --------------------------
             R-B3LYP SCF CALCULATION
          --------------------------

     NUCLEAR ENERGY =        69.4717846488
     MAXIT =   30     NPUNCH=    2
     EXTRAP=T  DAMP=F  SHIFT=F  RSTRCT=F  DIIS=T  DEM=F  SOSCF=F
         DENSITY MATRIX CONVERGENCE THRESHOLD=  1.00E-05
     COARSE -> FINE DFT GRID SWITCH THRESHOLD=  3.00E-04 (SWITCH IN $DFT)
                   HF -> DFT SWITCH THRESHOLD=  5.00E-03 (SWOFF IN $DFT)
     MEMORY REQUIRED FOR RHF ITERS=    307426 WORDS.

 DFT CODE IS SWITCHING FROM THE FINE GRID NRAD= 96,  NLEB=  302
                      TO THE COARSE GRID NRAD0= 24, NLEB0=  110

     EXCHANGE FUNCTIONAL   =B88&HFX   
     CORRELATION FUNCTIONAL=LYP88&VWN5
     DFT THRESHOLD         =.197E-07
     GRID CHANGE THRESHOLD =.300E-03
 FOR AN EULER-MACLAURIN QUADRATURE USING  96 RADIAL POINTS:
 SMALLEST GAUSSIAN PRIMITIVE EXPONENT=        0.1612777588 OF TYPE -S-
 ON ATOM NUMBER   4 HAS RADIAL NORMALIZATION=  1.000000
  LARGEST GAUSSIAN PRIMITIVE EXPONENT=     5484.6716600000 OF TYPE -S-
 ON ATOM NUMBER   3 HAS RADIAL NORMALIZATION=  1.000000
 DFT IS SWITCHED OFF, PERFORMING PURE SCF UNTIL SWOFF THRESHOLD IS REACHED.

 ITER EX DEM     TOTAL ENERGY        E CHANGE  DENSITY CHANGE    DIIS ERROR
   1  0  0     -152.4076855599  -152.4076855599   0.254643468   0.540071230
          * * *   INITIATING DIIS PROCEDURE   * * *
   2  1  0     -152.8085786469    -0.4008930870   0.144755804   0.092281969
   3  2  0     -152.8393380363    -0.0307593894   0.072717436   0.098953126
   4  3  0     -152.8642636001    -0.0249255638   0.009443819   0.006979401
   5  4  0     -152.8649096059    -0.0006460058   0.004015881   0.003099633
 CONVERGED TO SWOFF, SO DFT CALCULATION IS NOW SWITCHED ON.
          * * *   INITIATING DIIS PROCEDURE   * * *
   6  5  0     -153.6821709315    -0.8172613255   0.082877678   0.051359543
   7  6  0     -153.6924941398    -0.0103232083   0.054898768   0.024207399
   8  7  0     -153.6904139636     0.0020801762   0.042252830   0.034478701
   9  8  0     -153.6959969705    -0.0055830069   0.008300026   0.009574163
  10  9  0     -153.6962291249    -0.0002321544   0.000798371   0.000678176
  11 10  0     -153.6962321868    -0.0000030619   0.000264059   0.000205840
 DFT CODE IS SWITCHING BACK TO THE FINE GRID
          * * *   INITIATING DIIS PROCEDURE   * * *
  12 11  0     -153.6951337566     0.0010984302   0.002259362   0.001762324
  13 12  0     -153.6951417462    -0.0000079896   0.000744886   0.000207033
  14 13  0     -153.6951413742     0.0000003721   0.000437805   0.000425766
  15 14  0     -153.6951420259    -0.0000006517   0.000061973   0.000047718
  16 15  0     -153.6951420325    -0.0000000066   0.000017685   0.000017376
  17 16  0     -153.6951420333    -0.0000000008   0.000004168   0.000004544
  18 17  0     -153.6951420334    -0.0000000001   0.000000850   0.000000743

          -----------------
          DENSITY CONVERGED
          -----------------
     TIME TO FORM FOCK OPERATORS=       5.0 SECONDS (       0.3 SEC/ITER)
     TIME TO SOLVE SCF EQUATIONS=       0.0 SECONDS (       0.0 SEC/ITER)

 FINAL R-B3LYP ENERGY IS     -153.6951420334 AFTER  18 ITERATIONS
 DFT EXCHANGE + CORRELATION ENERGY =       -16.8193569719
 TOTAL ELECTRON NUMBER             =        23.9999870416

          ------------
          EIGENVECTORS
          ------------

                      1          2          3          4          5
                  -19.1422   -10.2718   -10.1876    -1.0411    -0.7591
                     A          A          A          A          A   
    1  C  1  S    0.000013   0.000971   0.995215  -0.017961  -0.181306
    2  C  1  S   -0.000271  -0.000921   0.036871   0.033911   0.349160
    3  C  1  X   -0.000250  -0.000942   0.000023   0.025147   0.014888
    4  C  1  Y    0.000150   0.000392  -0.000321  -0.004259  -0.024811
    5  C  1  Z   -0.000057  -0.000001  -0.000742  -0.002750  -0.053558
    6  C  1  S   -0.000181   0.005202  -0.030964   0.018587   0.308737
    7  C  1  X   -0.001286   0.002710  -0.001308   0.005562  -0.002871
    8  C  1  Y   -0.002167  -0.002105   0.001262   0.007962  -0.005691
    9  C  1  Z    0.000504  -0.000040   0.003341  -0.002716  -0.025837
   10  C  1 XX   -0.000364  -0.000999   0.000017   0.004836  -0.002466
   11  C  1 YY    0.000323   0.000318   0.000024  -0.002620  -0.003248
   12  C  1 ZZ    0.000041   0.000680  -0.000041  -0.002216   0.005715
   13  C  1 XY   -0.000185   0.000687  -0.000010  -0.001733  -0.002301
   14  C  1 XZ   -0.000054   0.000126  -0.000098  -0.000470   0.002083
   15  C  1 YZ    0.000100  -0.000127  -0.000174  -0.000814  -0.010815
   16  C  2  S    0.000229   0.995146  -0.000925  -0.117405  -0.073628
   17  C  2  S    0.000032   0.035746  -0.001212   0.224142   0.148024
   18  C  2  X   -0.000047   0.001714   0.000483   0.154634  -0.173729
   19  C  2  Y   -0.000231   0.001339  -0.000407   0.100850  -0.007344
   20  C  2  Z   -0.000029   0.000168  -0.000073   0.011041  -0.002951
   21  C  2  S    0.009127  -0.015984   0.006880   0.084181   0.109181
   22  C  2  X    0.005227   0.005809  -0.004099  -0.013084  -0.035480
   23  C  2  Y    0.005476   0.002588   0.001930  -0.018065  -0.012561
   24  C  2  Z    0.000475   0.000195  -0.000358  -0.001827   0.000838
   25  C  2 XX   -0.000528   0.001316  -0.000895   0.016243   0.003637
   26  C  2 YY    0.000265  -0.000133   0.000468  -0.001011   0.000951
   27  C  2 ZZ    0.000263  -0.001184   0.000426  -0.015232  -0.004588
   28  C  2 XY   -0.000805   0.001290   0.000701   0.022680  -0.013286
   29  C  2 XZ   -0.000069   0.000134   0.000234   0.002375  -0.001715
   30  C  2 YZ   -0.000007   0.000144  -0.000065   0.001828   0.000668
   31  O  3  S    0.995117  -0.000047  -0.000016  -0.194452   0.050637
   32  O  3  S    0.029481   0.000467  -0.000449   0.428996  -0.116962
   33  O  3  X   -0.001953   0.000958   0.000149  -0.138865  -0.013508
   34  O  3  Y   -0.001203   0.000546  -0.000004  -0.086296   0.015896
   35  O  3  Z   -0.000155   0.000051  -0.000059  -0.009885   0.000937
   36  O  3  S   -0.019663  -0.005928   0.000791   0.375734  -0.114811
   37  O  3  X    0.005144   0.003687  -0.000096  -0.041585  -0.012091
   38  O  3  Y    0.002793   0.002743  -0.000591  -0.024159   0.002067
   39  O  3  Z    0.000368   0.000346   0.000184  -0.003245  -0.001022
   40  O  3 XX   -0.000189  -0.001093  -0.000023   0.005909   0.003065
   41  O  3 YY    0.000113  -0.000018   0.000252  -0.002880  -0.001573
   42  O  3 ZZ    0.000076   0.001111  -0.000229  -0.003029  -0.001492
   43  O  3 XY   -0.000120  -0.001518   0.000091   0.010094   0.000025
   44  O  3 XZ   -0.000019  -0.000168  -0.000020   0.001363   0.000125
   45  O  3 YZ    0.000000  -0.000157   0.000058  -0.000146   0.000099
   46  H  4  S   -0.000211  -0.000978  -0.000404   0.027983   0.047908
   47  H  4  S    0.001276   0.004936   0.000816  -0.011523   0.006661
   48  H  5  S    0.000153  -0.000347  -0.000545   0.007330   0.123152
   49  H  5  S    0.000925   0.000840   0.004943  -0.002204   0.026261
   50  H  6  S    0.000060  -0.000419  -0.000287   0.005855   0.133941
   51  H  6  S   -0.000468   0.000613   0.005904  -0.001022   0.028375
   52  H  7  S   -0.000111  -0.000488  -0.000908   0.005524   0.107271
   53  H  7  S   -0.000885   0.000567   0.004503   0.001458   0.028124

                      6          7          8          9         10
                   -0.5836    -0.4810    -0.4710    -0.4236    -0.3751
                     A          A          A          A          A   
    1  C  1  S    0.056728  -0.033230   0.002281  -0.007574  -0.000313
    2  C  1  S   -0.112815   0.065896  -0.001961   0.019410   0.001142
    3  C  1  X    0.151051  -0.035621   0.281440  -0.191524   0.064978
    4  C  1  Y   -0.125569  -0.203362   0.037410   0.067198   0.177440
    5  C  1  Z    0.077088   0.337319   0.030025   0.103575  -0.039593
    6  C  1  S   -0.133385   0.082902  -0.006697   0.005435   0.004802
    7  C  1  X    0.047806  -0.022375   0.120949  -0.097408   0.031990
    8  C  1  Y   -0.037727  -0.095806   0.033312   0.051276   0.095712
    9  C  1  Z    0.031940   0.151661   0.009379   0.044454  -0.016149
   10  C  1 XX    0.009470   0.005285   0.011663  -0.002039  -0.004079
   11  C  1 YY    0.000006  -0.003965  -0.001553  -0.001969   0.008101
   12  C  1 ZZ   -0.009476  -0.001320  -0.010110   0.004007  -0.004022
   13  C  1 XY   -0.009071   0.006213  -0.004861   0.008981  -0.006834
   14  C  1 XZ   -0.006842  -0.012469  -0.005366   0.000820   0.010431
   15  C  1 YZ    0.008675  -0.004315   0.000098  -0.008103  -0.007269
   16  C  2  S   -0.137307   0.029242  -0.035838  -0.011092  -0.000362
   17  C  2  S    0.288343  -0.066517   0.084221   0.035490  -0.001569
   18  C  2  X   -0.061007  -0.091973  -0.137928   0.346945  -0.021467
   19  C  2  Y   -0.197983   0.029285   0.348536   0.091322  -0.114855
   20  C  2  Z   -0.006313   0.145712   0.061562   0.080187   0.302907
   21  C  2  S    0.267163  -0.052749   0.045619  -0.015329   0.020213
   22  C  2  X   -0.046191  -0.018019  -0.065198   0.062967   0.008553
   23  C  2  Y   -0.082441   0.024550   0.095358  -0.002189  -0.051291
   24  C  2  Z   -0.006073   0.065753   0.017530   0.041763   0.185685
   25  C  2 XX   -0.008520   0.004480  -0.001331   0.008748  -0.005254
   26  C  2 YY    0.012619  -0.007056  -0.000594  -0.007025   0.003002
   27  C  2 ZZ   -0.004099   0.002577   0.001926  -0.001722   0.002252
   28  C  2 XY   -0.005001   0.001927   0.000617   0.010375  -0.010192
   29  C  2 XZ   -0.002325  -0.004065  -0.000502   0.002090   0.021396
   30  C  2 YZ    0.003735   0.004353  -0.000072   0.001924   0.013312
   31  O  3  S    0.070471  -0.033069   0.038857   0.068665  -0.006349
   32  O  3  S   -0.166307   0.075481  -0.090464  -0.149190   0.012378
   33  O  3  X   -0.066901   0.081423  -0.272568  -0.339368   0.100105
   34  O  3  Y   -0.109096   0.089450   0.122983  -0.324167  -0.040950
   35  O  3  Z   -0.004023   0.111401   0.029362   0.035066   0.453885
   36  O  3  S   -0.194381   0.119779  -0.133581  -0.292695   0.030036
   37  O  3  X   -0.042823   0.042112  -0.150574  -0.175165   0.057120
   38  O  3  Y   -0.057413   0.044649   0.068356  -0.175507  -0.025394
   39  O  3  Z   -0.001690   0.059924   0.016535   0.020885   0.282978
   40  O  3 XX    0.000832  -0.000918   0.020494   0.006933  -0.004400
   41  O  3 YY    0.004383  -0.001929  -0.015101   0.004012   0.006088
   42  O  3 ZZ   -0.005215   0.002847  -0.005393  -0.010945  -0.001688
   43  O  3 XY    0.009157  -0.005223  -0.001871   0.017599   0.001103
   44  O  3 XZ    0.000161  -0.007986  -0.001299  -0.002354  -0.024807
   45  O  3 YZ    0.000965  -0.004825  -0.001999  -0.000476  -0.015052
   46  H  4  S    0.200966  -0.057924  -0.150552  -0.043616   0.048628
   47  H  4  S    0.092238  -0.031140  -0.127090  -0.050629   0.044350
   48  H  5  S   -0.127781  -0.154538  -0.006578   0.028761   0.121464
   49  H  5  S   -0.063239  -0.087594  -0.003328   0.007743   0.099120
   50  H  6  S   -0.105545  -0.098436  -0.111876   0.011098  -0.024481
   51  H  6  S   -0.049058  -0.072856  -0.086616   0.006712  -0.027108
   52  H  7  S   -0.033394   0.240387  -0.081000   0.109019  -0.093736
   53  H  7  S   -0.015472   0.154242  -0.050273   0.089560  -0.079608

                     11         12         13         14         15
                   -0.3309    -0.2501    -0.0192     0.0923     0.1175
                     A          A          A          A          A   
    1  C  1  S   -0.022043   0.037318   0.006526  -0.133690   0.024010
    2  C  1  S    0.050864  -0.072332   0.000956   0.164170  -0.001360
    3  C  1  X    0.083655  -0.214769   0.004132  -0.156481   0.176532
    4  C  1  Y    0.333369   0.078903  -0.014867   0.117634   0.182384
    5  C  1  Z    0.245856   0.026522  -0.016139   0.054312   0.223316
    6  C  1  S    0.056821  -0.279339  -0.103917   2.060984  -0.624506
    7  C  1  X    0.033200  -0.162613  -0.013859  -0.438437   0.411257
    8  C  1  Y    0.175729   0.068848  -0.077791   0.298457   0.363768
    9  C  1  Z    0.142676   0.045079   0.089609   0.026549   0.693000
   10  C  1 XX   -0.006423  -0.003371   0.001012   0.009924   0.008459
   11  C  1 YY    0.015825   0.003463   0.001455  -0.008287  -0.016777
   12  C  1 ZZ   -0.009402  -0.000092  -0.002467  -0.001637   0.008318
   13  C  1 XY   -0.004077   0.005566  -0.005888  -0.002875   0.008048
   14  C  1 XZ   -0.016739   0.001917   0.032291   0.011081   0.005957
   15  C  1 YZ   -0.020721  -0.001262  -0.006103   0.009133   0.018119
   16  C  2  S    0.003574   0.001077  -0.001470  -0.001011   0.038667
   17  C  2  S   -0.013112  -0.015683   0.002976   0.045851  -0.093607
   18  C  2  X    0.013399   0.083832   0.002897   0.007892   0.025072
   19  C  2  Y   -0.088806  -0.121161  -0.068226  -0.028645   0.190522
   20  C  2  Z   -0.087857  -0.015800   0.503691  -0.025645  -0.019366
   21  C  2  S    0.036817   0.037897   0.021579  -0.074351  -0.385012
   22  C  2  X    0.037381  -0.068570  -0.000545   0.069522   0.139995
   23  C  2  Y   -0.012510   0.036968  -0.067731  -0.087691   0.507647
   24  C  2  Z   -0.051293   0.006632   0.546003  -0.034891  -0.129865
   25  C  2 XX   -0.008414  -0.039071   0.000193  -0.001357  -0.007525
   26  C  2 YY    0.010019   0.040415   0.003386   0.006834   0.002398
   27  C  2 ZZ   -0.001605  -0.001344  -0.003579  -0.005476   0.005127
   28  C  2 XY   -0.011835   0.018710   0.003610  -0.007530  -0.013437
   29  C  2 XZ   -0.017849   0.002867  -0.023723  -0.003641  -0.005892
   30  C  2 YZ   -0.003329   0.005985  -0.017037   0.009819   0.012184
   31  O  3  S    0.000222   0.000456  -0.000270  -0.003444   0.014747
   32  O  3  S   -0.001454  -0.003596   0.000925   0.009112  -0.024320
   33  O  3  X    0.123993  -0.306842  -0.009129  -0.017448   0.062962
   34  O  3  Y   -0.003423   0.485697   0.055790   0.044748  -0.044064
   35  O  3  Z   -0.206252   0.064972  -0.426181  -0.006522   0.008081
   36  O  3  S   -0.016087   0.011779  -0.000180   0.032856  -0.238493
   37  O  3  X    0.081713  -0.219263  -0.007978  -0.041740   0.146048
   38  O  3  Y    0.004506   0.343435   0.058380   0.035689  -0.056320
   39  O  3  Z   -0.138913   0.045274  -0.444050   0.009850   0.052645
   40  O  3 XX   -0.006404   0.014016  -0.000188   0.003761  -0.001784
   41  O  3 YY    0.004210  -0.013643   0.000119  -0.001578   0.000669
   42  O  3 ZZ    0.002194  -0.000373   0.000069  -0.002183   0.001115
   43  O  3 XY   -0.002354  -0.007868   0.000162   0.001988  -0.006087
   44  O  3 XZ    0.009310  -0.000978  -0.000440  -0.001196  -0.004300
   45  O  3 YZ    0.006752  -0.002086  -0.000607   0.003129   0.003187
   46  H  4  S    0.070335   0.179414  -0.005656   0.050736   0.040027
   47  H  4  S    0.075420   0.291111  -0.013572  -0.029811   0.884071
   48  H  5  S    0.180127   0.024933   0.013445  -0.112782  -0.134435
   49  H  5  S    0.223896   0.082009   0.116574  -1.223829  -0.502874
   50  H  6  S   -0.229484   0.019932   0.098336   0.040666   0.122311
   51  H  6  S   -0.273692   0.054349   0.232815  -0.540575   1.627072
   52  H  7  S    0.058178   0.038464  -0.098464  -0.104686  -0.053193
   53  H  7  S    0.071322   0.066443  -0.243367  -1.179651  -0.047333

                     16         17         18         19         20
                    0.1372     0.1721     0.2579     0.2870     0.5209
                     A          A          A          A          A   
    1  C  1  S    0.056511   0.022348  -0.075020  -0.024150   0.009748
    2  C  1  S   -0.038990  -0.049876   0.038159   0.047674   0.001246
    3  C  1  X   -0.089066   0.039761   0.125532   0.187917  -0.314116
    4  C  1  Y    0.029709   0.288389  -0.103021   0.135703   0.501596
    5  C  1  Z    0.215486  -0.265748   0.032301   0.045276   0.365450
    6  C  1  S   -1.011910  -0.165452   1.705840  -0.111141   0.004078
    7  C  1  X   -0.362680   0.229660   1.663934   0.723270   0.298291
    8  C  1  Y    0.217355   1.185264  -0.630296   0.581842  -0.603103
    9  C  1  Z    0.799739  -1.087893  -0.003790   0.063479  -0.479232
   10  C  1 XX    0.008398   0.004582  -0.031928  -0.037105  -0.002149
   11  C  1 YY   -0.005732  -0.015405  -0.000312   0.030509   0.015935
   12  C  1 ZZ   -0.002666   0.010823   0.032240   0.006596  -0.013786
   13  C  1 XY   -0.013681  -0.002751   0.025195  -0.006998   0.005195
   14  C  1 XZ    0.001354   0.005266  -0.000839   0.000355  -0.029813
   15  C  1 YZ    0.010234   0.000502  -0.011054  -0.001240  -0.063005
   16  C  2  S   -0.110179  -0.051764   0.050090   0.062858  -0.036070
   17  C  2  S    0.140126   0.063988  -0.101632  -0.039161   0.040635
   18  C  2  X   -0.065976  -0.000232   0.387853   0.040400   0.005586
   19  C  2  Y   -0.229547  -0.059267  -0.300531  -0.261039   0.016277
   20  C  2  Z   -0.074260   0.019274  -0.039260  -0.058809   0.609751
   21  C  2  S    1.841197   0.847843  -0.887979  -1.771042  -0.026478
   22  C  2  X   -0.266378   0.036855   1.822870  -1.433688   0.030369
   23  C  2  Y   -0.473929  -0.330423  -0.730864  -1.454349   0.216353
   24  C  2  Z   -0.273255   0.267992  -0.175810  -0.184021  -0.556077
   25  C  2 XX   -0.006327  -0.016545  -0.002211  -0.000528  -0.053979
   26  C  2 YY   -0.003365   0.006989   0.001776   0.009881   0.002697
   27  C  2 ZZ    0.009692   0.009556   0.000434  -0.009353   0.051282
   28  C  2 XY   -0.000035  -0.014443  -0.008662  -0.000445   0.022644
   29  C  2 XZ   -0.003683   0.004434  -0.003200  -0.003489   0.006817
   30  C  2 YZ    0.006789  -0.007595   0.002193   0.008004  -0.003777
   31  O  3  S    0.013680   0.017697   0.030503  -0.098436   0.010880
   32  O  3  S   -0.033024  -0.039972  -0.045174   0.140387  -0.033789
   33  O  3  X    0.056378   0.068700  -0.062366  -0.151502   0.048811
   34  O  3  Y    0.070664   0.075823   0.138867  -0.064372   0.018241
   35  O  3  Z    0.038333  -0.041340   0.023190  -0.012443   0.039036
   36  O  3  S   -0.123652  -0.180161  -0.628371   2.019947  -0.102045
   37  O  3  X    0.074094   0.100039  -0.020391  -0.803008   0.099163
   38  O  3  Y    0.136915   0.126429   0.442350  -0.387672  -0.020924
   39  O  3  Z    0.087240  -0.079581   0.071399  -0.033158   0.035255
   40  O  3 XX   -0.005832  -0.000378  -0.012677   0.023001   0.008734
   41  O  3 YY   -0.000910  -0.002656   0.009973   0.003259  -0.006326
   42  O  3 ZZ    0.006742   0.003034   0.002704  -0.026260  -0.002408
   43  O  3 XY    0.001381  -0.001264  -0.012403   0.039911   0.016386
   44  O  3 XZ   -0.002092   0.003000  -0.002482   0.003975  -0.030960
   45  O  3 YZ    0.000390  -0.000561   0.001207   0.006546  -0.027202
   46  H  4  S   -0.077747  -0.018661   0.008239   0.069113  -0.100875
   47  H  4  S   -1.533139  -0.634646  -0.790394  -0.621750   0.054600
   48  H  5  S   -0.050403  -0.050569   0.019940   0.088247   0.247977
   49  H  5  S    0.321184  -1.612503   0.074578  -0.542636  -0.226578
   50  H  6  S    0.036246   0.048128   0.092027   0.000305  -0.231809
   51  H  6  S    0.930306  -0.086997   0.218140   0.603815   0.084707
   52  H  7  S   -0.039994   0.024553   0.101582  -0.013562   0.253925
   53  H  7  S   -0.531842   1.733378  -0.021600   0.355759  -0.069477

                     21         22         23         24         25
                    0.5471     0.5715     0.6621     0.6767     0.7174
                     A          A          A          A          A   
    1  C  1  S    0.018125  -0.011509  -0.017315   0.030566  -0.012996
    2  C  1  S   -0.197743   0.214164  -0.154101  -0.067833   0.024093
    3  C  1  X   -0.666237   0.555464  -0.032289  -0.321882   0.101356
    4  C  1  Y    0.306666   0.222526   0.220514  -0.153697   0.239367
    5  C  1  Z    0.078806   0.385607  -0.385768   0.147137   0.169723
    6  C  1  S   -0.070292   0.303669   0.529858   0.959654  -0.533037
    7  C  1  X    0.796142  -0.709950  -0.005025   1.417528  -0.954666
    8  C  1  Y   -0.410305  -0.495858  -0.717048   0.489138  -0.557720
    9  C  1  Z   -0.025343  -0.782537   1.148998  -0.446303  -0.486803
   10  C  1 XX   -0.022479   0.019545  -0.050718   0.047392  -0.005291
   11  C  1 YY    0.007730   0.028272   0.093187  -0.043199   0.011202
   12  C  1 ZZ    0.014750  -0.047817  -0.042469  -0.004193  -0.005911
   13  C  1 XY    0.008991  -0.020788  -0.069013  -0.066721   0.041479
   14  C  1 XZ    0.008420  -0.034331   0.031096  -0.021807  -0.009141
   15  C  1 YZ   -0.008790  -0.053933   0.036258  -0.017294   0.013642
   16  C  2  S   -0.038630   0.008181   0.015396   0.040409   0.036850
   17  C  2  S   -0.113490   0.170121  -0.603553   0.069103  -0.339329
   18  C  2  X    0.041297  -0.100557  -0.253982  -0.985329  -0.192559
   19  C  2  Y    0.164860   0.154376  -0.086075   0.103351  -0.886131
   20  C  2  Z   -0.659248  -0.462584   0.086047   0.017911  -0.158281
   21  C  2  S   -0.157160   0.215110   0.740820  -1.415655   0.490645
   22  C  2  X   -0.265384   0.743384   0.686454   1.369436  -0.152004
   23  C  2  Y   -0.116866  -0.087455  -0.293966  -1.257197   2.357265
   24  C  2  Z    0.790039   0.784361  -0.520438  -0.064219   0.511376
   25  C  2 XX   -0.075136   0.042378   0.069298   0.010458   0.061436
   26  C  2 YY   -0.001469  -0.002327  -0.108416   0.037947   0.009100
   27  C  2 ZZ    0.076605  -0.040051   0.039118  -0.048405  -0.070536
   28  C  2 XY    0.046396  -0.023913   0.104231   0.070964   0.079178
   29  C  2 XZ   -0.000234  -0.010249  -0.002575   0.012474   0.018583
   30  C  2 YZ   -0.025361  -0.014825   0.004277   0.006062  -0.005728
   31  O  3  S    0.010685   0.005086  -0.001679  -0.046379  -0.010685
   32  O  3  S   -0.081090   0.049377   0.010676   0.173164   0.073646
   33  O  3  X    0.110586  -0.135114  -0.286919  -0.198444  -0.148212
   34  O  3  Y   -0.059715   0.170646   0.056428  -0.051782  -0.347492
   35  O  3  Z   -0.053378  -0.012756   0.039785  -0.020681  -0.044324
   36  O  3  S    0.165401  -0.471666  -0.348814   0.249144  -0.650342
   37  O  3  X    0.027113   0.116812   0.048408  -0.492993   0.141603
   38  O  3  Y   -0.045242   0.131850   0.080949  -0.094541  -0.108569
   39  O  3  Z   -0.083543  -0.089827   0.089534  -0.020927  -0.057039
   40  O  3 XX    0.018116  -0.013262  -0.065466   0.002540  -0.109483
   41  O  3 YY   -0.022843   0.004298   0.006178  -0.026013   0.038890
   42  O  3 ZZ    0.004727   0.008964   0.059287   0.023473   0.070593
   43  O  3 XY    0.001840  -0.000768  -0.049952  -0.096900  -0.077412
   44  O  3 XZ    0.040977   0.035642  -0.020061  -0.009900   0.001059
   45  O  3 YZ    0.020842   0.009352   0.005480  -0.010293  -0.011389
   46  H  4  S   -0.124114  -0.079259  -0.601131   0.184423   0.098579
   47  H  4  S    0.042374  -0.036894  -0.049123  -0.670767   1.203122
   48  H  5  S    0.113012   0.249106   0.144701   0.031227  -0.176166
   49  H  5  S    0.133270  -0.162750   0.304991  -0.405946   0.199111
   50  H  6  S    0.095334  -0.289486  -0.184422   0.144032  -0.065773
   51  H  6  S    0.128295  -0.070431   0.352036   0.334490  -0.511400
   52  H  7  S    0.001705   0.068458  -0.447324   0.255197  -0.042019
   53  H  7  S   -0.090998  -0.145550  -0.420536   0.550399  -0.077163

                     26         27         28         29         30
                    0.8055     0.8092     0.8605     0.9049     0.9291
                     A          A          A          A          A   
    1  C  1  S   -0.008963   0.035994  -0.014322   0.012583   0.052702
    2  C  1  S    0.043832  -0.125593   0.131848   0.204735  -1.358503
    3  C  1  X    0.160118   0.139536   0.031073  -0.177018   0.429339
    4  C  1  Y    0.693303   0.412885   0.126279  -0.239284  -0.084869
    5  C  1  Z    0.160951  -0.856068  -0.066450   0.211118   0.243403
    6  C  1  S    0.428752   0.250888  -0.598083  -0.304931   2.271536
    7  C  1  X    0.098608  -0.109140  -0.418712   0.523307  -0.864943
    8  C  1  Y   -1.627554  -1.616258  -0.104729   0.157500   0.216847
    9  C  1  Z    0.202100   2.126212   0.144980  -0.122657  -0.334132
   10  C  1 XX    0.071416   0.028535  -0.028461  -0.020608  -0.102999
   11  C  1 YY   -0.076245   0.002679   0.012005   0.061847   0.007210
   12  C  1 ZZ    0.004829  -0.031213   0.016456  -0.041239   0.095790
   13  C  1 XY    0.002123   0.032860   0.036502  -0.084340   0.030674
   14  C  1 XZ    0.128163  -0.026342  -0.008721   0.090007   0.071166
   15  C  1 YZ    0.093027  -0.076883  -0.002048  -0.016148  -0.057655
   16  C  2  S    0.003595   0.001439   0.050956   0.022324  -0.011423
   17  C  2  S    0.341685   0.660287  -0.984580   1.093864  -0.385383
   18  C  2  X   -0.144585  -0.143500   0.143360   0.048898   0.052823
   19  C  2  Y    0.123371  -0.081447   0.527491  -0.086570  -0.006737
   20  C  2  Z    0.050743  -0.035719   0.063511   0.001817   0.020717
   21  C  2  S   -1.035692  -1.166639   2.908940  -1.065679   0.854524
   22  C  2  X    0.705692   0.637396  -0.067204   0.444955  -0.290988
   23  C  2  Y   -0.211186   0.899321  -0.549232   0.624167   0.084892
   24  C  2  Z   -0.233658  -0.318063  -0.073928   0.002718  -0.030917
   25  C  2 XX   -0.047081  -0.024455   0.004412   0.109221  -0.037036
   26  C  2 YY    0.058112   0.065614   0.097264  -0.033170  -0.021077
   27  C  2 ZZ   -0.011031  -0.041158  -0.101676  -0.076051   0.058113
   28  C  2 XY   -0.030696  -0.006207   0.097899   0.123401   0.076034
   29  C  2 XZ   -0.046882  -0.011625   0.019417  -0.048305  -0.032834
   30  C  2 YZ    0.040403   0.049878   0.025270   0.051199   0.019973
   31  O  3  S   -0.005527   0.009434   0.026832   0.049037   0.006552
   32  O  3  S    0.027771  -0.015649  -0.089775  -0.214544  -0.062985
   33  O  3  X    0.007649   0.004690  -0.318872  -0.427748  -0.084225
   34  O  3  Y    0.056742  -0.056163  -0.306455  -0.285477  -0.046256
   35  O  3  Z    0.221360  -0.025180  -0.040382   0.100117   0.009693
   36  O  3  S    0.012637  -0.301437  -0.566048  -0.332557  -0.025839
   37  O  3  X   -0.128297   0.113398   0.701216   0.944678   0.156820
   38  O  3  Y   -0.014286   0.006348   0.512371   0.544479   0.018450
   39  O  3  Z   -0.147874   0.103301   0.058852  -0.050156   0.008212
   40  O  3 XX    0.025667   0.014014   0.000345  -0.000120  -0.005324
   41  O  3 YY   -0.006063  -0.011159  -0.051509   0.011352  -0.021935
   42  O  3 ZZ   -0.019604  -0.002854   0.051164  -0.011232   0.027258
   43  O  3 XY    0.012950   0.006126  -0.068663   0.001193  -0.016711
   44  O  3 XZ    0.008479  -0.019099  -0.008716  -0.001241  -0.003304
   45  O  3 YZ    0.007707   0.028885  -0.016634   0.019344   0.003994
   46  H  4  S    0.140758   0.305111   0.719472  -0.048967  -0.108082
   47  H  4  S   -0.222272   0.422390  -1.681623   0.735745  -0.024786
   48  H  5  S   -0.448954   0.274651  -0.070492   0.397433   0.435746
   49  H  5  S    1.727454   0.922068   0.207139  -0.422557  -0.889439
   50  H  6  S    0.665336  -0.090083  -0.147779   0.143338   0.658305
   51  H  6  S   -1.189415   0.888372   0.044434   0.232031  -1.296684
   52  H  7  S   -0.334349   0.462817  -0.052348  -0.351044   0.354173
   53  H  7  S    0.027193  -1.798634  -0.152376   0.763470  -0.853068

                     31         32         33         34         35
                    0.9529     1.0024     1.0855     1.1471     1.5168
                     A          A          A          A          A   
    1  C  1  S   -0.006534  -0.016747  -0.009908  -0.084559  -0.014339
    2  C  1  S   -0.160934  -0.323164  -0.101577  -1.714087  -0.242190
    3  C  1  X   -0.071172  -0.027668  -0.103435  -0.069351  -0.037694
    4  C  1  Y   -0.241908   0.039901  -0.086333   0.043894   0.001091
    5  C  1  Z    0.125401   0.128456  -0.007893   0.079774  -0.056391
    6  C  1  S    0.486872   1.072631  -0.657777   5.290140   0.673522
    7  C  1  X    0.014397   0.244277  -0.392031   1.132824   0.147978
    8  C  1  Y   -0.356901  -0.647844   0.089745  -0.411397   0.153300
    9  C  1  Z    0.135298   0.062186  -0.044555  -0.804196  -0.080946
   10  C  1 XX    0.023279   0.028792  -0.023727   0.055636   0.055786
   11  C  1 YY    0.109615   0.046616  -0.005181   0.103750   0.010518
   12  C  1 ZZ   -0.132895  -0.075408   0.028908  -0.159386  -0.066304
   13  C  1 XY    0.034705   0.015633   0.054670   0.070039   0.005250
   14  C  1 XZ    0.137648   0.075436  -0.011772  -0.189926   0.028332
   15  C  1 YZ   -0.065845   0.055247   0.008052   0.208827  -0.153928
   16  C  2  S   -0.003416   0.007904  -0.001901   0.031272   0.003778
   17  C  2  S   -0.205037   0.238135  -0.020414   0.618626  -0.013898
   18  C  2  X   -0.071618  -0.043062   0.140441  -0.053583   0.022921
   19  C  2  Y   -0.003518  -0.006546  -0.269287   0.067479  -0.025812
   20  C  2  Z   -0.011780   0.118185  -0.046243  -0.011159   0.179353
   21  C  2  S   -0.304302  -0.969613   0.049187  -3.012255  -0.137651
   22  C  2  X    0.385551   0.577170  -0.970296   1.531558   0.076711
   23  C  2  Y    0.382569   0.158599   1.575067  -1.198726  -0.204957
   24  C  2  Z   -0.002080  -0.658530   0.289057   0.178033  -0.125595
   25  C  2 XX   -0.080023  -0.033487  -0.132670  -0.010387   0.006569
   26  C  2 YY    0.066986   0.050541   0.140757   0.132184   0.162460
   27  C  2 ZZ    0.013037  -0.017055  -0.008087  -0.121797  -0.169028
   28  C  2 XY   -0.061187  -0.002693   0.057331  -0.030938   0.023242
   29  C  2 XZ   -0.098095  -0.091027   0.028225   0.194165  -0.392362
   30  C  2 YZ    0.085561   0.053680   0.012733  -0.075711  -0.518216
   31  O  3  S   -0.015027   0.002672   0.001659   0.008210  -0.002824
   32  O  3  S    0.082903  -0.030601  -0.028931  -0.170589   0.044255
   33  O  3  X    0.385350   0.055732  -0.430067   0.037130  -0.023489
   34  O  3  Y    0.026695   0.135853   0.687856  -0.093741  -0.020771
   35  O  3  Z    0.333004  -0.829638   0.131186   0.104852   0.125362
   36  O  3  S   -0.148805  -0.033838   0.006907   0.465718  -0.001346
   37  O  3  X   -0.553093  -0.093716   0.797406  -0.309885   0.015704
   38  O  3  Y   -0.199725  -0.188434  -1.295791   0.317120   0.022945
   39  O  3  Z   -0.371034   1.183411  -0.247343  -0.251798   0.106746
   40  O  3 XX    0.018212   0.023633   0.088146   0.063218   0.032773
   41  O  3 YY   -0.028514  -0.012376  -0.091055   0.074756   0.023254
   42  O  3 ZZ    0.010302  -0.011257   0.002909  -0.137975  -0.056028
   43  O  3 XY   -0.011048  -0.007764  -0.054916  -0.015055  -0.082486
   44  O  3 XZ   -0.010791   0.026029  -0.011695  -0.025649   0.483425
   45  O  3 YZ    0.022768   0.039987  -0.021367  -0.050315   0.145681
   46  H  4  S    0.476415   0.202359   0.208608   0.058137  -0.055144
   47  H  4  S   -0.209100  -0.036236   0.759009  -0.350997  -0.087343
   48  H  5  S    0.645384   0.125213  -0.028525  -0.350858  -0.164772
   49  H  5  S   -0.519743   0.184927  -0.053782  -0.559849  -0.199102
   50  H  6  S   -0.127348   0.022872  -0.094544  -0.495797  -0.092030
   51  H  6  S    0.169743  -0.356692  -0.017604  -0.518877   0.024727
   52  H  7  S   -0.592353  -0.392844  -0.060393  -0.235210   0.021465
   53  H  7  S    0.271873   0.176245  -0.016041  -0.293417  -0.079041

                     36         37         38         39         40
                    1.6069     1.6184     1.7368     1.7643     1.8186
                     A          A          A          A          A   
    1  C  1  S    0.025604  -0.001080  -0.034802   0.034073   0.012417
    2  C  1  S    0.494870  -0.189447  -0.713293   0.145122  -0.249246
    3  C  1  X    0.109985  -0.115502  -0.126644  -0.100661  -0.187776
    4  C  1  Y   -0.007133   0.000305   0.120316   0.044388  -0.020528
    5  C  1  Z   -0.007672   0.021861   0.013484  -0.046854   0.016152
    6  C  1  S   -1.256354   0.070061   1.793607  -1.149869   0.029382
    7  C  1  X   -0.084642   0.166532   0.111512  -0.388586   0.310442
    8  C  1  Y   -0.036183   0.730580  -0.734080  -0.326592   0.288990
    9  C  1  Z    0.621570  -0.544853  -0.188580   0.836454   0.013969
   10  C  1 XX   -0.256430   0.198333  -0.164309   0.213925   0.418104
   11  C  1 YY    0.142039  -0.132659  -0.320744  -0.226073  -0.080836
   12  C  1 ZZ    0.114391  -0.065674   0.485053   0.012148  -0.337268
   13  C  1 XY   -0.147476  -0.103702  -0.635449   0.000376   0.320175
   14  C  1 XZ   -0.134975   0.092487  -0.055711   0.140826   0.025756
   15  C  1 YZ    0.160288  -0.157870  -0.103880  -0.214673  -0.008793
   16  C  2  S   -0.014294  -0.011416   0.026854  -0.010274   0.016731
   17  C  2  S    0.094166  -0.298516   0.140502  -0.312426  -0.067185
   18  C  2  X   -0.115966   0.004865   0.114199   0.060276  -0.092610
   19  C  2  Y    0.008839  -0.019556   0.032731  -0.022749   0.078560
   20  C  2  Z    0.042615  -0.032819   0.002299  -0.051858   0.010499
   21  C  2  S   -1.365362  -0.967481  -0.743845   1.296076  -0.584623
   22  C  2  X   -1.008566  -1.378893   0.734141  -0.358143  -0.665288
   23  C  2  Y   -0.332161  -1.107201   0.951287   0.529236  -0.246202
   24  C  2  Z   -0.247785   0.081295   0.154812  -0.275712  -0.032286
   25  C  2 XX   -0.078298   0.048630   0.261139   0.105505   0.103344
   26  C  2 YY    0.012353   0.084806  -0.309034   0.106949  -0.252695
   27  C  2 ZZ    0.065945  -0.133436   0.047895  -0.212453   0.149352
   28  C  2 XY   -0.094333  -0.295561  -0.009996  -0.219712  -0.242297
   29  C  2 XZ    0.213614  -0.249628  -0.031207   0.259335  -0.023998
   30  C  2 YZ   -0.317118   0.301936  -0.041821  -0.077697  -0.068542
   31  O  3  S    0.031667   0.017096   0.003252  -0.008474  -0.009743
   32  O  3  S   -1.224022  -1.083712   0.240939   0.284846  -0.164981
   33  O  3  X    0.149399  -0.029098   0.011723  -0.101812  -0.229211
   34  O  3  Y    0.070612   0.061692   0.141243   0.013820   0.079934
   35  O  3  Z   -0.018949   0.036689   0.025721  -0.079893   0.015145
   36  O  3  S    2.635545   2.817424  -0.917422  -0.622942   0.920690
   37  O  3  X   -0.828987  -0.717945   0.249969   0.306260  -0.031009
   38  O  3  Y   -0.546393  -0.494561  -0.061587  -0.009290  -0.316275
   39  O  3  Z    0.012196  -0.126399  -0.025196   0.135913  -0.042584
   40  O  3 XX   -0.108449  -0.069375  -0.185099   0.023265  -0.507313
   41  O  3 YY   -0.073872   0.263151   0.097268   0.435877   0.061310
   42  O  3 ZZ    0.182321  -0.193776   0.087831  -0.459142   0.446003
   43  O  3 XY   -0.087608  -0.199371   0.158214  -0.131596   0.407425
   44  O  3 XZ    0.134644  -0.147037   0.020506   0.156235   0.085618
   45  O  3 YZ   -0.261659   0.279828   0.035035  -0.530806  -0.107668
   46  H  4  S    0.165063  -0.162150   0.551862  -0.082731   0.249127
   47  H  4  S    0.061811  -0.319960   0.338459   0.037408  -0.096886
   48  H  5  S    0.223665  -0.204168  -0.067047   0.312454   0.078111
   49  H  5  S    0.265767  -0.347169   0.008017   0.290282  -0.179081
   50  H  6  S    0.262810  -0.105761  -0.264772   0.184108   0.082364
   51  H  6  S    0.307193  -0.094446  -0.326095   0.201026   0.078446
   52  H  7  S   -0.046068   0.188890  -0.194302  -0.124502   0.050866
   53  H  7  S   -0.015975   0.233671  -0.288596  -0.322017   0.065585

                     41         42         43         44         45
                    1.9338     1.9586     2.0689     2.1381     2.2967
                     A          A          A          A          A   
    1  C  1  S   -0.044693  -0.072548  -0.007771  -0.042784  -0.005411
    2  C  1  S   -0.370273  -0.429752   0.088448  -0.174997  -0.089237
    3  C  1  X    0.042779   0.081011   0.036154   0.055680   0.012280
    4  C  1  Y    0.008227  -0.123385  -0.032949   0.035823  -0.039460
    5  C  1  Z   -0.045200  -0.015691  -0.019855   0.017362  -0.070896
    6  C  1  S    1.611521   2.483588  -0.065871   1.121759   0.326519
    7  C  1  X    0.534831   0.609205  -0.270173   0.255491   0.121967
    8  C  1  Y    0.578427  -0.057656   0.156192   0.073402   0.175313
    9  C  1  Z   -1.038714  -0.310492  -0.356875  -0.001129  -0.373847
   10  C  1 XX   -0.108385   0.117919  -0.317987  -0.196110   0.088614
   11  C  1 YY    0.388756  -0.650209   0.029567   0.306718  -0.090319
   12  C  1 ZZ   -0.280370   0.532290   0.288420  -0.110609   0.001705
   13  C  1 XY   -0.232231   0.215598   0.358377   0.082195  -0.164758
   14  C  1 XZ    0.363691   0.111016   0.090424   0.150096   0.942676
   15  C  1 YZ   -0.138874  -0.253609   0.227077  -0.811146   0.416553
   16  C  2  S    0.008632   0.030743   0.009020   0.013645   0.012685
   17  C  2  S    0.150249   0.422627   0.286755   0.291893   0.020931
   18  C  2  X    0.063222  -0.169994  -0.275376  -0.128748   0.023473
   19  C  2  Y    0.020513  -0.061775   0.142437   0.096730  -0.021999
   20  C  2  Z   -0.071488  -0.018040   0.042755  -0.079222  -0.067715
   21  C  2  S   -1.032131  -2.176240  -0.437338  -1.112980  -0.226058
   22  C  2  X    0.390672   0.566876  -0.186791   0.276016   0.003661
   23  C  2  Y   -0.595209  -1.491341   0.220902  -0.343430  -0.141984
   24  C  2  Z    0.238172  -0.137226   0.230961  -0.247542   0.001199
   25  C  2 XX    0.039927  -0.443857  -0.181429  -0.089811  -0.084220
   26  C  2 YY   -0.117153   0.247029  -0.422562  -0.082254   0.052763
   27  C  2 ZZ    0.077226   0.196828   0.603991   0.172065   0.031458
   28  C  2 XY    0.241198  -0.081463   0.064885   0.130714  -0.134367
   29  C  2 XZ   -0.256015  -0.071947  -0.148901   0.184962   0.208666
   30  C  2 YZ    0.364579   0.103765   0.076627  -0.407341  -0.369680
   31  O  3  S    0.009557  -0.012761  -0.007377   0.000588  -0.006049
   32  O  3  S   -0.211538  -0.223975  -0.014317  -0.149584   0.060691
   33  O  3  X    0.126121  -0.061943  -0.125183   0.015590  -0.071093
   34  O  3  Y    0.049089  -0.234236  -0.010544   0.024936  -0.051877
   35  O  3  Z    0.026958  -0.022322   0.035793  -0.056416  -0.011074
   36  O  3  S    0.369067   1.247951   0.305712   0.457078   0.094704
   37  O  3  X   -0.216018  -0.556425   0.021240  -0.173406  -0.010602
   38  O  3  Y    0.026969   0.209145  -0.171013  -0.086347   0.037585
   39  O  3  Z   -0.075786   0.013356  -0.122567   0.173670   0.030849
   40  O  3 XX    0.049608   0.039526  -0.174178  -0.072803   0.027091
   41  O  3 YY   -0.132412  -0.288069   0.574114   0.132051  -0.069784
   42  O  3 ZZ    0.082803   0.248543  -0.399936  -0.059248   0.042693
   43  O  3 XY    0.030060   0.017645  -0.120024   0.051286  -0.016461
   44  O  3 XZ    0.236286   0.063614   0.176701  -0.406736  -0.201268
   45  O  3 YZ   -0.524484  -0.193153   0.046540   0.092812   0.137529
   46  H  4  S    0.013595  -0.331451   0.390947   0.172854   0.004159
   47  H  4  S   -0.115849  -0.318670   0.105935  -0.072403  -0.027348
   48  H  5  S   -0.650638  -0.110611  -0.034995  -0.634701   0.090610
   49  H  5  S   -0.467488  -0.227698  -0.123104   0.076878  -0.282672
   50  H  6  S   -0.306187  -0.552653  -0.317022   0.059871  -0.568771
   51  H  6  S   -0.221514  -0.108906  -0.027772  -0.147965   0.134917
   52  H  7  S    0.396301  -0.403174   0.021206  -0.304959   0.586534
   53  H  7  S    0.284755   0.013721   0.106888   0.066411  -0.067052

                     46         47         48         49         50
                    2.3411     2.5266     2.5939     2.8585     2.9481
                     A          A          A          A          A   
    1  C  1  S    0.034953   0.041083  -0.005736   0.027997  -0.011006
    2  C  1  S    0.276129   0.045790  -0.057596  -0.132068   0.075556
    3  C  1  X   -0.112635  -0.260868  -0.023071  -0.233194   0.094754
    4  C  1  Y    0.020256   0.070553   0.009863   0.148950  -0.054946
    5  C  1  Z   -0.001608   0.005417   0.033371   0.032731  -0.009407
    6  C  1  S   -1.454794  -1.245915   0.160238  -0.148598   0.072943
    7  C  1  X   -0.773844  -0.783270  -0.002611  -0.182023   0.178291
    8  C  1  Y    0.282706   0.199315   0.080746   0.237453   0.064401
    9  C  1  Z    0.014613  -0.044308  -0.103291  -0.067787   0.015453
   10  C  1 XX   -0.360864  -0.791745  -0.107207  -0.253336   0.081102
   11  C  1 YY   -0.049431   0.529855   0.143506  -0.025720   0.002261
   12  C  1 ZZ    0.410295   0.261890  -0.036300   0.279056  -0.083362
   13  C  1 XY    0.371853   0.067054  -0.025277   0.507107  -0.183021
   14  C  1 XZ    0.216715   0.015590   0.153274   0.108207  -0.035272
   15  C  1 YZ    0.029087  -0.020306  -0.233672  -0.077761   0.020723
   16  C  2  S   -0.080601  -0.024927   0.001050  -0.043455  -0.029591
   17  C  2  S   -0.230764  -0.004628   0.041155  -0.310941  -1.335144
   18  C  2  X   -0.202273  -0.240950  -0.030858  -0.370474  -1.067664
   19  C  2  Y    0.165554   0.057003  -0.020725  -0.164042  -0.685979
   20  C  2  Z    0.022649  -0.023597   0.234060  -0.015890  -0.076431
   21  C  2  S    1.610165   1.453423  -0.059302   0.116554  -1.716939
   22  C  2  X   -0.485316  -0.673124  -0.011309  -0.328945  -0.688570
   23  C  2  Y    0.691536   0.719314  -0.073156  -0.572065  -0.555286
   24  C  2  Z    0.112142   0.108625   0.265185  -0.044727  -0.068635
   25  C  2 XX    0.399847  -0.120089  -0.013727   0.919293  -0.661958
   26  C  2 YY    0.349301   0.366008  -0.067119  -0.807225   0.210214
   27  C  2 ZZ   -0.749148  -0.245919   0.080845  -0.112069   0.451744
   28  C  2 XY    0.442852  -0.846309  -0.201423  -0.507120  -0.440211
   29  C  2 XZ    0.077928  -0.242389   0.852644  -0.087463  -0.040668
   30  C  2 YZ    0.127251   0.073107   0.445132  -0.097038  -0.032370
   31  O  3  S    0.028019  -0.021045  -0.003088  -0.009803  -0.061536
   32  O  3  S   -0.335477   0.567562   0.051168  -0.331993  -0.685514
   33  O  3  X    0.320303  -0.342837  -0.042438  -0.010026  -0.245029
   34  O  3  Y    0.249737  -0.163774  -0.021448   0.044838  -0.172180
   35  O  3  Z    0.029640  -0.017094  -0.013144   0.008285  -0.019746
   36  O  3  S   -0.282134  -0.664092   0.009622   1.003579   3.099877
   37  O  3  X    0.106817   0.473107   0.013154  -0.655474  -1.492674
   38  O  3  Y   -0.310385  -0.005026   0.063500   0.068048  -1.000648
   39  O  3  Z   -0.049979   0.046807  -0.450010   0.008680  -0.110888
   40  O  3 XX   -0.335903  -0.178491  -0.000831   0.833859   0.690231
   41  O  3 YY    0.295708   0.038506  -0.128374  -0.665317   0.019293
   42  O  3 ZZ    0.040195   0.139985   0.129205  -0.168543  -0.709524
   43  O  3 XY    0.358954   0.134073  -0.083770  -0.072436   1.174587
   44  O  3 XZ    0.047590  -0.085177   0.806118  -0.023726   0.133010
   45  O  3 YZ    0.063575  -0.093356   0.535332  -0.072603   0.095989
   46  H  4  S   -0.161426  -0.244716  -0.026121   0.252687  -0.022031
   47  H  4  S    0.182146   0.313889   0.010258  -0.429755   0.002147
   48  H  5  S    0.059849  -0.190836  -0.183595  -0.051668   0.010988
   49  H  5  S   -0.036329   0.092957  -0.003749  -0.075489   0.000445
   50  H  6  S   -0.177856   0.025606  -0.007182  -0.130910   0.036169
   51  H  6  S    0.098599  -0.118285  -0.047204   0.008083   0.032895
   52  H  7  S    0.010184   0.022024  -0.016582  -0.089835   0.029887
   53  H  7  S    0.046560  -0.013112   0.014384   0.063366   0.027461
 ...... END OF RHF CALCULATION ......
 STEP CPU TIME =     5.12 TOTAL CPU TIME =          5.2 (      0.1 MIN)
 TOTAL WALL CLOCK TIME=          5.3 SECONDS, CPU UTILIZATION IS    98.87%

     ---------------------------------------------------------------------
     PROPERTIES FOR THE B3LYP    DFT FUNCTIONAL (RHF  TYPE) DENSITY MATRIX
     ---------------------------------------------------------------------

          -----------------
          ENERGY COMPONENTS
          -----------------

         WAVEFUNCTION NORMALIZATION =       1.0000000000

                ONE ELECTRON ENERGY =    -345.6327068019
                TWO ELECTRON ENERGY =     122.4657801197
           NUCLEAR REPULSION ENERGY =      69.4717846488
                                      ------------------
                       TOTAL ENERGY =    -153.6951420334

 ELECTRON-ELECTRON POTENTIAL ENERGY =     122.4657801197
  NUCLEUS-ELECTRON POTENTIAL ENERGY =    -498.4578503046
   NUCLEUS-NUCLEUS POTENTIAL ENERGY =      69.4717846488
                                      ------------------
             TOTAL POTENTIAL ENERGY =    -306.5202855360
               TOTAL KINETIC ENERGY =     152.8251435026
                 VIRIAL RATIO (V/T) =       2.0056927709

          ---------------------------------------
          MULLIKEN AND LOWDIN POPULATION ANALYSES
          ---------------------------------------

     ATOMIC MULLIKEN POPULATION IN EACH MOLECULAR ORBITAL

                      1          2          3          4          5

                  2.000000   2.000000   2.000000   2.000000   2.000000

    1            -0.000043   0.001221   1.995356   0.021421   1.137522
    2             0.002321   2.000619   0.001701   0.526123   0.383855
    3             1.997687  -0.002793   0.000004   1.452603   0.075895
    4             0.000032   0.000891   0.000021  -0.000694   0.018510
    5             0.000004   0.000025   0.000945  -0.000016   0.128082
    6            -0.000000   0.000019   0.001148   0.000118   0.151680
    7            -0.000001   0.000017   0.000826   0.000446   0.104456

                      6          7          8          9         10

                  2.000000   2.000000   2.000000   2.000000   2.000000

    1             0.366114   0.911587   0.452275   0.286599   0.189461
    2             0.816888   0.197393   0.669170   0.426731   0.577477
    3             0.259660   0.176980   0.525358   1.169667   1.052328
    4             0.328163   0.022996   0.197867   0.020192   0.017324
    5             0.133490   0.169653   0.000149   0.004414   0.098341
    6             0.087047   0.075839   0.104266   0.000833   0.005985
    7             0.008638   0.445553   0.050915   0.091566   0.059082

                     11         12

                  2.000000   2.000000

    1             0.942283   0.227878
    2             0.071674   0.090954
    3             0.256585   1.382539
    4             0.034921   0.259992
    5             0.265483   0.014958
    6             0.399801   0.007436
    7             0.029252   0.016243

               ----- POPULATIONS IN EACH AO -----
                             MULLIKEN      LOWDIN
              1  C  1  S      1.99654     1.98006
              2  C  1  S      0.67134     0.36316
              3  C  1  X      0.70500     0.63439
              4  C  1  Y      0.74025     0.67230
              5  C  1  Z      0.70991     0.63415
              6  C  1  S      0.62108     0.33290
              7  C  1  X      0.30294     0.41202
              8  C  1  Y      0.38145     0.50900
              9  C  1  Z      0.36994     0.48753
             10  C  1 XX      0.00479     0.14693
             11  C  1 YY      0.00623     0.14656
             12  C  1 ZZ      0.00515     0.15835
             13  C  1 XY      0.00859     0.00955
             14  C  1 XZ      0.00846     0.01608
             15  C  1 YZ      0.00000     0.01300
             16  C  2  S      1.99655     1.97464
             17  C  2  S      0.70877     0.36645
             18  C  2  X      0.74283     0.64893
             19  C  2  Y      0.74519     0.64851
             20  C  2  Z      0.45903     0.41179
             21  C  2  S      0.45410     0.30909
             22  C  2  X      0.10224     0.28245
             23  C  2  Y      0.19109     0.37375
             24  C  2  Z      0.27952     0.33138
             25  C  2 XX      0.00492     0.21612
             26  C  2 YY      0.04043     0.19461
             27  C  2 ZZ      0.02339     0.10589
             28  C  2 XY      0.01284     0.04794
             29  C  2 XZ      0.00402     0.02474
             30  C  2 YZ      0.00000     0.00715
             31  O  3  S      1.99729     1.97772
             32  O  3  S      0.92846     0.72051
             33  O  3  X      0.99947     0.93760
             34  O  3  Y      1.08431     1.03605
             35  O  3  Z      0.77310     0.72202
             36  O  3  S      0.93178     0.46998
             37  O  3  X      0.49832     0.57408
             38  O  3  Y      0.59351     0.65713
             39  O  3  Z      0.51230     0.55062
             40  O  3 XX      0.00234     0.18366
             41  O  3 YY      0.00726     0.17475
             42  O  3 ZZ      0.00724     0.17367
             43  O  3 XY      0.00800     0.01580
             44  O  3 XZ      0.00312     0.01053
             45  O  3 YZ      0.00000     0.00416
             46  H  4  S      0.53454     0.50195
             47  H  4  S      0.36567     0.38902
             48  H  5  S      0.51111     0.46770
             49  H  5  S      0.30442     0.34060
             50  H  6  S      0.51657     0.48263
             51  H  6  S      0.31760     0.34327
             52  H  7  S      0.50995     0.46160
             53  H  7  S      0.29704     0.34551

          ----- MULLIKEN ATOMIC OVERLAP POPULATIONS -----
          (OFF-DIAGONAL ELEMENTS NEED TO BE MULTIPLIED BY 2)

             1           2           3           4           5

    1    5.3889815
    2    0.3120735   4.5465686
    3   -0.0783720   0.6180569   7.8644155
    4   -0.1262938   0.3451393  -0.0620442   0.7302880
    5    0.3473292  -0.0199331   0.0006977   0.0068026   0.5758448
    6    0.3270075  -0.0156373   0.0030154   0.0003426  -0.0930211
    7    0.3609481  -0.0213618   0.0007434   0.0059799  -0.0021907

             6           7

    6    0.6378069
    7   -0.0253449   0.4882202

          TOTAL MULLIKEN AND LOWDIN ATOMIC POPULATIONS
       ATOM         MULL.POP.    CHARGE          LOW.POP.     CHARGE
    1 C             6.531674   -0.531674         6.515989   -0.515989
    2 C             5.764906    0.235094         5.943460    0.056540
    3 O             8.346513   -0.346513         8.208271   -0.208271
    4 H             0.900215    0.099785         0.890972    0.109028
    5 H             0.815529    0.184471         0.808306    0.191694
    6 H             0.834169    0.165831         0.825893    0.174107
    7 H             0.806994    0.193006         0.807109    0.192891

          MULLIKEN SPHERICAL HARMONIC POPULATIONS
       ATOM           S       P       D      F      G      H      I    TOTAL
    1 C             3.29    3.21    0.03   0.00   0.00   0.00   0.00    6.53
    2 C             3.16    2.52    0.09   0.00   0.00   0.00   0.00    5.76
    3 O             3.86    4.46    0.03   0.00   0.00   0.00   0.00    8.35
    4 H             0.90    0.00    0.00   0.00   0.00   0.00   0.00    0.90
    5 H             0.82    0.00    0.00   0.00   0.00   0.00   0.00    0.82
    6 H             0.83    0.00    0.00   0.00   0.00   0.00   0.00    0.83
    7 H             0.81    0.00    0.00   0.00   0.00   0.00   0.00    0.81

          -------------------------------
          BOND ORDER AND VALENCE ANALYSIS     BOND ORDER THRESHOLD=0.050
          -------------------------------

                   BOND                       BOND                       BOND
  ATOM PAIR DIST  ORDER      ATOM PAIR DIST  ORDER      ATOM PAIR DIST  ORDER
    1   2  1.509  0.972        1   5  1.093  0.941        1   6  1.098  0.922
    1   7  1.098  0.931        2   3  1.211  2.027        2   4  1.115  0.886

                       TOTAL       BONDED        FREE
      ATOM            VALENCE     VALENCE     VALENCE
    1 C                 3.768       3.768      -0.000
    2 C                 3.885       3.885      -0.000
    3 O                 2.113       2.113       0.000
    4 H                 0.926       0.926       0.000
    5 H                 0.925       0.925       0.000
    6 H                 0.905       0.905       0.000
    7 H                 0.938       0.938      -0.000

          ---------------------
          ELECTROSTATIC MOMENTS
          ---------------------

 POINT   1           X           Y           Z (BOHR)    CHARGE
                -0.000000   -0.000000   -0.000000        0.00 (A.U.)
         DX          DY          DZ         /D/  (DEBYE)
    -2.580262   -1.026186   -0.446252    2.812463
 ...... END OF PROPERTY EVALUATION ......
 STEP CPU TIME =     0.01 TOTAL CPU TIME =          5.3 (      0.1 MIN)
 TOTAL WALL CLOCK TIME=          5.3 SECONDS, CPU UTILIZATION IS    99.06%
                580000  WORDS OF DYNAMIC MEMORY USED
 EXECUTION OF GAMESS TERMINATED NORMALLY Thu Oct 17 12:45:37 2019
 DDI: 263640 bytes (0.3 MB / 0 MWords) used by master data server.

 ----------------------------------------
 CPU timing information for all processes
 ========================================
 0: 5.132 + 0.132 = 5.264
 ----------------------------------------
 ddikick.x: exited gracefully.
----- accounting info -----
Files used on the master node crcfe01.crc.nd.edu were:
-rw-r--r-- 1 cdrisko campus      489 Oct 17 12:45 /afs/crc.nd.edu/user/c/cdrisko/acetaldehyde.F05
-rw-r--r-- 1 cdrisko campus    45118 Oct 17 12:45 /afs/crc.nd.edu/user/c/cdrisko/acetaldehyde.F07
-rw-r--r-- 1 cdrisko campus 11881056 Oct 17 12:45 /afs/crc.nd.edu/user/c/cdrisko/acetaldehyde.F08
-rw-r--r-- 1 cdrisko campus  1799600 Oct 17 12:45 /afs/crc.nd.edu/user/c/cdrisko/acetaldehyde.F10
Thu Oct 17 12:45:40 EDT 2019
0.371u 0.502s 0:09.02 9.6%	0+0k 0+16io 0pf+0w
