----- GAMESS execution script 'rungms' -----
This job is running on host crcfe02.crc.nd.edu
under operating system Linux at Thu Oct 17 16:53:12 EDT 2019
Available scratch disk space (Kbyte units) at beginning of the job is
Filesystem      1K-blocks  Used  Available Use% Mounted on
AFS            2147483647     0 2147483647   0% /afs
GAMESS temporary binary files will be written to /afs/crc.nd.edu/user/c/cdrisko
GAMESS supplementary output files will be written to /afs/crc.nd.edu/user/c/cdrisko/scr
Copying input file TS_MP2.inp to your run's scratch directory...

 Distributed Data Interface kickoff program.
 Initiating 1 compute processes on 1 nodes to run the following command:
 /afs/crc.nd.edu/x86_64_linux/g/gamess/nov-2017/gamess/gamess.00.x TS_MP2 

          ******************************************************
          *         GAMESS VERSION = 11 NOV 2017 (R3)         *
          *             FROM IOWA STATE UNIVERSITY             *
          * M.W.SCHMIDT, K.K.BALDRIDGE, J.A.BOATZ, S.T.ELBERT, *
          *   M.S.GORDON, J.H.JENSEN, S.KOSEKI, N.MATSUNAGA,   *
          *          K.A.NGUYEN, S.J.SU, T.L.WINDUS,           *
          *       TOGETHER WITH M.DUPUIS, J.A.MONTGOMERY       *
          *         J.COMPUT.CHEM.  14, 1347-1363(1993)        *
          **************** 64 BIT INTEL VERSION ****************

  SINCE 1993, STUDENTS AND POSTDOCS WORKING AT IOWA STATE UNIVERSITY
  AND ALSO IN THEIR VARIOUS JOBS AFTER LEAVING ISU HAVE MADE IMPORTANT
  CONTRIBUTIONS TO THE CODE:
     IVANA ADAMOVIC, CHRISTINE AIKENS, YURI ALEXEEV, POOJA ARORA,
     ANDREY ASADCHEV, ROB BELL, PRADIPTA BANDYOPADHYAY, JONATHAN BENTZ,
     BRETT BODE, KURT BRORSEN, CALEB CARLIN, GALINA CHABAN, WEI CHEN,
     CHEOL HO CHOI, PAUL DAY, ALBERT DEFUSCO, NUWAN DESILVA, TIM DUDLEY,
     DMITRI FEDOROV, ALEX FINDLATER, GRAHAM FLETCHER, MARK FREITAG,
     KURT GLAESEMANN, ANASTASIA GUININA,
     DAN KEMP, GRANT MERRILL, NORIYUKI MINEZAWA, JONATHAN MULLIN,
     TAKESHI NAGATA, SEAN NEDD, HEATHER NETZLOFF, BOSILJKA NJEGIC, RYAN OLSON,
     MIKE PAK, BUU PHAM,
     SPENCER PRUITT, LUKE ROSKOP, JIM SHOEMAKER, LYUDMILA SLIPCHENKO,
     TONY SMITH, SAROM SOK LEANG, JIE SONG, TETSUYA TAKETSUGU, SIMON WEBB,
     PENG XU, SOOHAENG YOO, FEDERICO ZAHARIEV

  ADDITIONAL CODE HAS BEEN PROVIDED BY COLLABORATORS IN OTHER GROUPS:
     IOWA STATE UNIVERSITY:
          JOE IVANIC, AARON WEST, LAIMUTIS BYTAUTAS, KLAUS RUEDENBERG
     UNIVERSITY OF TOKYO: KIMIHIKO HIRAO, TAKAHITO NAKAJIMA,
          TAKAO TSUNEDA, MUNEAKI KAMIYA, SUSUMU YANAGISAWA,
          KIYOSHI YAGI, MAHITO CHIBA, SEIKEN TOKURA, NAOAKI KAWAKAMI
     UNIVERSITY OF AARHUS: FRANK JENSEN
     UNIVERSITY OF IOWA: VISVALDAS KAIRYS, HUI LI
     NATIONAL INST. OF STANDARDS AND TECHNOLOGY: WALT STEVENS, DAVID GARMER
     UNIVERSITY OF PISA: BENEDETTA MENNUCCI, JACOPO TOMASI
     UNIVERSITY OF MEMPHIS: HENRY KURTZ, PRAKASHAN KORAMBATH
     UNIVERSITY OF ALBERTA: TOBY ZENG, MARIUSZ KLOBUKOWSKI
     UNIVERSITY OF NEW ENGLAND: MARK SPACKMAN
     MIE UNIVERSITY: HIROAKI UMEDA
     NAT. INST. OF ADVANCED INDUSTRIAL SCIENCE AND TECHNOLOGY: KAZUO KITAURA
     MICHIGAN STATE UNIVERSITY:
          KAROL KOWALSKI, MARTA WLOCH, JEFFREY GOUR, JESSE LUTZ,
          WEI LI, PIOTR PIECUCH
     UNIVERSITY OF SILESIA: MONIKA MUSIAL, STANISLAW KUCHARSKI
     FACULTES UNIVERSITAIRES NOTRE-DAME DE LA PAIX:
          OLIVIER QUINET, BENOIT CHAMPAGNE
     UNIVERSITY OF CALIFORNIA - SANTA BARBARA: BERNARD KIRTMAN
     INSTITUTE FOR MOLECULAR SCIENCE:
          KAZUYA ISHIMURA, MICHIO KATOUDA, AND SHIGERU NAGASE
     UNIVERSITY OF NOTRE DAME: ANNA POMOGAEVA, DAN CHIPMAN
     KYUSHU UNIVERSITY:
          HARUYUKI NAKANO,
          FENG LONG GU, JACEK KORCHOWIEC, MARCIN MAKOWSKI, AND YURIKO AOKI,
          HIROTOSHI MORI AND EISAKU MIYOSHI
     PENNSYLVANIA STATE UNIVERSITY:
          TZVETELIN IORDANOV, CHET SWALINA, JONATHAN SKONE,
          SHARON HAMMES-SCHIFFER
     WASEDA UNIVERSITY:
          MASATO KOBAYASHI, TOMOKO AKAMA, TSUGUKI TOUMA,
          TAKESHI YOSHIKAWA, YASUHIRO IKABATA, JUNJI SEINO,
          YUYA NAKAJIMA, HIROMI NAKAI
     NANJING UNIVERSITY: SHUHUA LI
     UNIVERSITY OF NEBRASKA:
          PEIFENG SU, DEJUN SI, NANDUN THELLAMUREGE, YALI WANG, HUI LI
     UNIVERSITY OF ZURICH: ROBERTO PEVERATI, KIM BALDRIDGE
     N. COPERNICUS UNIVERSITY AND JACKSON STATE UNIVERSITY:
          MARIA BARYSZ
     UNIVERSITY OF COPENHAGEN: Jimmy Kromann, CASPER STEINMANN
     TOKYO INSTITUTE OF TECHNOLOGY: HIROYA NAKATA
     NAGOYA UNIVERSITY: YOSHIO NISHIMOTO, STEPHAN IRLE
     MOSCOW STATE UNIVERSITY: VLADIMIR MIRONOV

 EXECUTION OF GAMESS BEGUN Thu Oct 17 16:53:13 2019

            ECHO OF THE FIRST FEW INPUT CARDS -
 INPUT CARD> $CONTRL SCFTYP=RHF MPLEVL=2 RUNTYP=ENERGY                                      
 INPUT CARD>       ICHARG=0 MULT=1 COORD=CART $END                                          
 INPUT CARD> $BASIS GBASIS=N31 NGAUSS=6 NDFUNC=1 $END                                       
 INPUT CARD> $DATA                                                                          
 INPUT CARD>C2H4O                                                                           
 INPUT CARD>C1 1                                                                            
 INPUT CARD>C 6 0.00000000 0.00000000 0.00000000                                            
 INPUT CARD>C 6 -1.19623400 -0.74718700 -0.06885300                                         
 INPUT CARD>O 8 -2.22057700 0.02757400 -0.02037800                                          
 INPUT CARD>H 1 -1.35817500 -1.82898300 -0.11048900                                         
 INPUT CARD>H 1 0.92323400 -0.42836600 0.38862200                                           
 INPUT CARD>H 1 0.15706400 0.62147700 -0.88686600                                           
 INPUT CARD>H 1 -1.25031000 0.82764100 0.27272900                                           
 INPUT CARD> $END                                                                           
    1000000 WORDS OF MEMORY AVAILABLE


                    * * * WARNING * * *
 OLD KEYWORD COORD=CART SELECTED, AUTOMATICALLY CHANGED TO COORD=PRINAXIS.
 YOUR MOLECULE'S COORDINATES WILL BE CHANGED TO PRINCIPAL AXES BY
   A) TRANSLATION TO THE CENTER OF MASS, THEN
   B) ROTATION TO HAVE A DIAGONAL MOMENT OF INERTIA TENSOR.

 HOWEVER, NOTHING ELSE IN YOUR INPUT WILL BE ROTATED IN THE SAME WAY,
 SO IF YOU HAVE A $VEC, $VIB, $GRAD, $HESS, EFP PARTICLE COORDINATES,
 OR ANYTHING ELSE THAT DEPENDS ON THE INITIAL ORIENTATION, THAT DATA
 WILL NOT BE USED CORRECTLY IN THIS RUN.

 THE PURPOSE OF COORD=PRINAXIS IS TO BE USED ONCE, ONLY AT THE VERY
 BEGINNING OF A SERIES OF COMPUTATIONS, PERHAPS TO FIND THE SYMMETRY
 UNIQUE ATOMS FROM AN ARBITRARY INITIAL ORIENTATION.

 AFTER THE FIRST RUN, YOU SHOULD USE ONLY COORD=UNIQUE, TO ENSURE THAT
 THE COORDINATES WHICH YOU READ IN ARE THE COORDINATES THAT ARE USED.


     BASIS OPTIONS
     -------------
     GBASIS=N31          IGAUSS=       6      POLAR=POPN31  
     NDFUNC=       1     NFFUNC=       0     DIFFSP=       F
     NPFUNC=       0      DIFFS=       F     BASNAM=        


     RUN TITLE
     ---------
 C2H4O                                                                           

 THE POINT GROUP OF THE MOLECULE IS C1      
 THE ORDER OF THE PRINCIPAL AXIS IS     1

 THE MOMENTS OF INERTIA ARE (AMU-ANGSTROM**2)
 IXX=    10.411   IYY=    41.367   IZZ=    49.688

 ATOM      ATOMIC                      COORDINATES (BOHR)
           CHARGE         X                   Y                   Z
 C           6.0    -2.2067822061       -0.4008883787        0.0639897845
 C           6.0     0.0537720288        1.0110907015       -0.0661235117
 O           8.0     1.9894998683       -0.4529949568        0.0254810255
 H           1.0     0.3597957921        3.0553887673       -0.1448041861
 H           1.0    -3.9514416422        0.4086056989        0.7983788264
 H           1.0    -2.5035898947       -1.5753097078       -1.6119439207
 H           1.0     0.1559613554       -1.9649026632        0.5793729435

          INTERNUCLEAR DISTANCES (ANGS.)
          ------------------------------

                1 C          2 C          3 O          4 H          5 H     

   1 C       0.0000000    1.4120924 *  2.2208417 *  2.2807950 *  1.0894428 *
   2 C       1.4120924 *  0.0000000    1.2852560 *  1.0946420 *  2.1915918 *
   3 O       2.2208417 *  1.2852560 *  0.0000000    2.0490635 *  3.2029221  
   4 H       2.2807950 *  1.0946420 *  2.0490635 *  0.0000000    2.7231722 *
   5 H       1.0894428 *  2.1915918 *  3.2029221    2.7231722 *  0.0000000  
   6 H       1.0942733 *  2.0913636 *  2.5993651 *  2.9838674 *  1.8210042 *
   7 H       1.5240229 *  1.6123541 *  1.2912928 *  2.6862878 *  2.5130217 *

                6 H          7 H     

   1 C       1.0942733 *  1.5240229 *
   2 C       2.0913636 *  1.6123541 *
   3 O       2.5993651 *  1.2912928 *
   4 H       2.9838674 *  2.6862878 *
   5 H       1.8210042 *  2.5130217 *
   6 H       0.0000000    1.8351746 *
   7 H       1.8351746 *  0.0000000  

  * ... LESS THAN  3.000


     ATOMIC BASIS SET
     ----------------
 THE CONTRACTED PRIMITIVE FUNCTIONS HAVE BEEN UNNORMALIZED
 THE CONTRACTED BASIS FUNCTIONS ARE NOW NORMALIZED TO UNITY

  SHELL TYPE  PRIMITIVE        EXPONENT          CONTRACTION COEFFICIENT(S)

 C         

      1   S       1          3047.5248800    0.001834737132
      1   S       2           457.3695180    0.014037322813
      1   S       3           103.9486850    0.068842622264
      1   S       4            29.2101553    0.232184443216
      1   S       5             9.2866630    0.467941348435
      1   S       6             3.1639270    0.362311985337

      2   L       7             7.8682723   -0.119332419775    0.068999066591
      2   L       8             1.8812885   -0.160854151696    0.316423960957
      2   L       9             0.5442493    1.143456437840    0.744308290898

      3   L      10             0.1687145    1.000000000000    1.000000000000

      4   D      11             0.8000000    1.000000000000

 C         

      5   S      12          3047.5248800    0.001834737132
      5   S      13           457.3695180    0.014037322813
      5   S      14           103.9486850    0.068842622264
      5   S      15            29.2101553    0.232184443216
      5   S      16             9.2866630    0.467941348435
      5   S      17             3.1639270    0.362311985337

      6   L      18             7.8682723   -0.119332419775    0.068999066591
      6   L      19             1.8812885   -0.160854151696    0.316423960957
      6   L      20             0.5442493    1.143456437840    0.744308290898

      7   L      21             0.1687145    1.000000000000    1.000000000000

      8   D      22             0.8000000    1.000000000000

 O         

      9   S      23          5484.6716600    0.001831074430
      9   S      24           825.2349460    0.013950172200
      9   S      25           188.0469580    0.068445078098
      9   S      26            52.9645000    0.232714335992
      9   S      27            16.8975704    0.470192897984
      9   S      28             5.7996353    0.358520852987

     10   L      29            15.5396162   -0.110777549525    0.070874268231
     10   L      30             3.5999336   -0.148026262701    0.339752839147
     10   L      31             1.0137618    1.130767015354    0.727158577316

     11   L      32             0.2700058    1.000000000000    1.000000000000

     12   D      33             0.8000000    1.000000000000

 H         

     13   S      34            18.7311370    0.033494604338
     13   S      35             2.8253944    0.234726953484
     13   S      36             0.6401217    0.813757326146

     14   S      37             0.1612778    1.000000000000

 H         

     15   S      38            18.7311370    0.033494604338
     15   S      39             2.8253944    0.234726953484
     15   S      40             0.6401217    0.813757326146

     16   S      41             0.1612778    1.000000000000

 H         

     17   S      42            18.7311370    0.033494604338
     17   S      43             2.8253944    0.234726953484
     17   S      44             0.6401217    0.813757326146

     18   S      45             0.1612778    1.000000000000

 H         

     19   S      46            18.7311370    0.033494604338
     19   S      47             2.8253944    0.234726953484
     19   S      48             0.6401217    0.813757326146

     20   S      49             0.1612778    1.000000000000

 TOTAL NUMBER OF BASIS SET SHELLS             =   20
 NUMBER OF CARTESIAN GAUSSIAN BASIS FUNCTIONS =   53
 NUMBER OF ELECTRONS                          =   24
 CHARGE OF MOLECULE                           =    0
 SPIN MULTIPLICITY                            =    1
 NUMBER OF OCCUPIED ORBITALS (ALPHA)          =   12
 NUMBER OF OCCUPIED ORBITALS (BETA )          =   12
 TOTAL NUMBER OF ATOMS                        =    7
 THE NUCLEAR REPULSION ENERGY IS       71.4722684821

     $CONTRL OPTIONS
     ---------------
 SCFTYP=RHF          RUNTYP=ENERGY       EXETYP=RUN     
 MPLEVL=       2     CITYP =NONE         CCTYP =NONE         VBTYP =NONE    
 DFTTYP=NONE         TDDFT =NONE    
 MULT  =       1     ICHARG=       0     NZVAR =       0     COORD =PRINAXIS
 PP    =NONE         RELWFN=NONE         LOCAL =NONE         NUMGRD=       F
 ISPHER=      -1     NOSYM =       0     MAXIT =      30     UNITS =ANGS    
 PLTORB=       F     MOLPLT=       F     AIMPAC=       F     FRIEND=        
 NPRINT=       7     IREST =       0     GEOM  =INPUT   
 NORMF =       0     NORMP =       0     ITOL  =      20     ICUT  =       9
 INTTYP=BEST         GRDTYP=BEST         QMTTOL= 1.0E-06

     $SYSTEM OPTIONS
     ---------------
  REPLICATED MEMORY=     1000000 WORDS (ON EVERY NODE).
 DISTRIBUTED MEMDDI=           0 MILLION WORDS IN AGGREGATE,
 MEMDDI DISTRIBUTED OVER   1 PROCESSORS IS           0 WORDS/PROCESSOR.
 TOTAL MEMORY REQUESTED ON EACH PROCESSOR=     1000000 WORDS.
 TIMLIM=      525600.00 MINUTES, OR     365.0 DAYS.
 PARALL= F  BALTYP=  DLB     KDIAG=    0  COREFL= F
 MXSEQ2=     300 MXSEQ3=     150  mem10=         0

          ----------------
          PROPERTIES INPUT
          ----------------

     MOMENTS            FIELD           POTENTIAL          DENSITY
 IEMOM =       1   IEFLD =       0   IEPOT =       0   IEDEN =       0
 WHERE =COMASS     WHERE =NUCLEI     WHERE =NUCLEI     WHERE =NUCLEI  
 OUTPUT=BOTH       OUTPUT=BOTH       OUTPUT=BOTH       OUTPUT=BOTH    
 IEMINT=       0   IEFINT=       0                     IEDINT=       0
                                                       MORB  =       0
          EXTRAPOLATION IN EFFECT
          SOSCF IN EFFECT
 ORBITAL PRINTING OPTION: NPREO=     1    53     2     1

     -------------------------------
     INTEGRAL TRANSFORMATION OPTIONS
     -------------------------------
     NWORD  =            0
     CUTOFF = 1.0E-09     MPTRAN =       0
     DIRTRF =       F     AOINTS =DUP     

          ----------------------
          INTEGRAL INPUT OPTIONS
          ----------------------
 NOPK  =       1 NORDER=       0 SCHWRZ=       T

          -----------------------
          MP2 CONTROL INFORMATION
          -----------------------
          NACORE =        3  NBCORE =        3
          LMOMP2 =        F  AOINTS = DUP     
          METHOD =        2  NWORD  =               0
          MP2PRP =        F  OSPT   = NONE    
          CUTOFF = 1.00E-09  CPHFBS = BASISAO 
          CODE   = IMS     

          NUMBER OF CORE -A-  ORBITALS =     3
          NUMBER OF CORE -B-  ORBITALS =     3
          NUMBER OF OCC. -A-  ORBITALS =    12
          NUMBER OF OCC. -B-  ORBITALS =    12
          NUMBER OF MOLECULAR ORBITALS =    53
          NUMBER OF   BASIS  FUNCTIONS =    53


     ------------------------------------------
     THE POINT GROUP IS C1 , NAXIS= 1, ORDER= 1
     ------------------------------------------

     DIMENSIONS OF THE SYMMETRY SUBSPACES ARE
 A   =   53

 ..... DONE SETTING UP THE RUN .....
 STEP CPU TIME =     0.01 TOTAL CPU TIME =          0.0 (      0.0 MIN)
 TOTAL WALL CLOCK TIME=          0.0 SECONDS, CPU UTILIZATION IS   100.00%

          ********************
          1 ELECTRON INTEGRALS
          ********************
 ...... END OF ONE-ELECTRON INTEGRALS ......
 STEP CPU TIME =     0.00 TOTAL CPU TIME =          0.0 (      0.0 MIN)
 TOTAL WALL CLOCK TIME=          0.0 SECONDS, CPU UTILIZATION IS    50.00%

          -------------
          GUESS OPTIONS
          -------------
          GUESS =HUCKEL            NORB  =       0          NORDER=       0
          MIX   =       F          PRTMO =       F          PUNMO =       F
          TOLZ  = 1.0E-08          TOLE  = 1.0E-05
          SYMDEN=       F          PURIFY=       F

 INITIAL GUESS ORBITALS GENERATED BY HUCKEL   ROUTINE.
 HUCKEL GUESS REQUIRES     27154 WORDS.

 SYMMETRIES FOR INITIAL GUESS ORBITALS FOLLOW.   BOTH SET(S).
    12 ORBITALS ARE OCCUPIED (    3 CORE ORBITALS).
     4=A        5=A        6=A        7=A        8=A        9=A       10=A   
    11=A       12=A       13=A       14=A       15=A       16=A       17=A   
    18=A       19=A       20=A       21=A       22=A   
 ...... END OF INITIAL ORBITAL SELECTION ......
 STEP CPU TIME =     0.00 TOTAL CPU TIME =          0.0 (      0.0 MIN)
 TOTAL WALL CLOCK TIME=          0.0 SECONDS, CPU UTILIZATION IS    50.00%

                    ----------------------
                    AO INTEGRAL TECHNOLOGY
                    ----------------------
     S,P,L SHELL ROTATED AXIS INTEGRALS, REPROGRAMMED BY
        KAZUYA ISHIMURA (IMS) AND JOSE SIERRA (SYNSTAR).
     S,P,D,L SHELL ROTATED AXIS INTEGRALS PROGRAMMED BY
        KAZUYA ISHIMURA (INSTITUTE FOR MOLECULAR SCIENCE).
     S,P,D,F,G SHELL TO TOTAL QUARTET ANGULAR MOMENTUM SUM 5,
        ERIC PROGRAM BY GRAHAM FLETCHER (ELORET AND NASA ADVANCED
        SUPERCOMPUTING DIVISION, AMES RESEARCH CENTER).
     S,P,D,F,G,L SHELL GENERAL RYS QUADRATURE PROGRAMMED BY
        MICHEL DUPUIS (PACIFIC NORTHWEST NATIONAL LABORATORY).

          --------------------
          2 ELECTRON INTEGRALS
          --------------------

 THE -PK- OPTION IS OFF, THE INTEGRALS ARE NOT IN SUPERMATRIX FORM.
 STORING   15000 INTEGRALS/RECORD ON DISK, USING 12 BYTES/INTEGRAL.
 TWO ELECTRON INTEGRAL EVALUATION REQUIRES   90606 WORDS OF MEMORY.
 SCHWARZ INEQUALITY OVERHEAD:      1431 INTEGRALS, T=        0.00
 II,JST,KST,LST =  1  1  1  1 NREC =         1 INTLOC =    1
 II,JST,KST,LST =  2  1  1  1 NREC =         1 INTLOC =    2
 II,JST,KST,LST =  3  1  1  1 NREC =         1 INTLOC =   34
 II,JST,KST,LST =  4  1  1  1 NREC =         1 INTLOC =  214
 II,JST,KST,LST =  5  1  1  1 NREC =         1 INTLOC = 1189
 II,JST,KST,LST =  6  1  1  1 NREC =         1 INTLOC = 3242
 II,JST,KST,LST =  7  1  1  1 NREC =         2 INTLOC =  994
 II,JST,KST,LST =  8  1  1  1 NREC =         3 INTLOC = 8253
 II,JST,KST,LST =  9  1  1  1 NREC =         7 INTLOC = 6197
 II,JST,KST,LST = 10  1  1  1 NREC =         8 INTLOC = 4206
 II,JST,KST,LST = 11  1  1  1 NREC =        13 INTLOC = 2997
 II,JST,KST,LST = 12  1  1  1 NREC =        20 INTLOC = 2191
 II,JST,KST,LST = 13  1  1  1 NREC =        34 INTLOC =14901
 II,JST,KST,LST = 14  1  1  1 NREC =        38 INTLOC = 3000
 II,JST,KST,LST = 15  1  1  1 NREC =        41 INTLOC = 9717
 II,JST,KST,LST = 16  1  1  1 NREC =        45 INTLOC = 1828
 II,JST,KST,LST = 17  1  1  1 NREC =        49 INTLOC =  280
 II,JST,KST,LST = 18  1  1  1 NREC =        53 INTLOC = 1582
 II,JST,KST,LST = 19  1  1  1 NREC =        57 INTLOC = 7630
 II,JST,KST,LST = 20  1  1  1 NREC =        62 INTLOC = 2574
 SCHWARZ INEQUALITY TEST SKIPPED         517 INTEGRAL BLOCKS.
 TOTAL NUMBER OF NONZERO TWO-ELECTRON INTEGRALS =              991828
         67 INTEGRAL RECORDS WERE STORED ON DISK FILE  8.
  ...... END OF TWO-ELECTRON INTEGRALS .....
 STEP CPU TIME =     0.11 TOTAL CPU TIME =          0.1 (      0.0 MIN)
 TOTAL WALL CLOCK TIME=          0.1 SECONDS, CPU UTILIZATION IS    92.31%

          --------------------------
                 RHF SCF CALCULATION
          --------------------------

     NUCLEAR ENERGY =        71.4722684821
     MAXIT =   30     NPUNCH=    2
     EXTRAP=T  DAMP=F  SHIFT=F  RSTRCT=F  DIIS=F  DEM=F  SOSCF=T
     DENSITY MATRIX CONV=  1.00E-06
     SOSCF WILL OPTIMIZE     492 ORBITAL ROTATIONS, SOGTOL=   0.250
     MEMORY REQUIRED FOR RHF ITERS=     52373 WORDS.

 ITER EX DEM     TOTAL ENERGY        E CHANGE  DENSITY CHANGE     ORB. GRAD
   1  0  0     -152.2615071168  -152.2615071168   0.365560275   0.000000000
          ---------------START SECOND ORDER SCF---------------
   2  1  0     -152.7250839119    -0.4635767951   0.132932332   0.050775170
   3  2  0     -152.7554345453    -0.0303506334   0.044247445   0.025365045
   4  3  0     -152.7674329704    -0.0119984250   0.014612455   0.005800553
   5  4  0     -152.7680422568    -0.0006092864   0.005341451   0.003870022
   6  5  0     -152.7682483853    -0.0002061285   0.002553835   0.001413837
   7  6  0     -152.7682827842    -0.0000343988   0.001444001   0.000521471
   8  7  0     -152.7682908084    -0.0000080242   0.000840227   0.000250379
   9  8  0     -152.7682924414    -0.0000016331   0.000346586   0.000117371
  10  9  0     -152.7682926733    -0.0000002318   0.000104936   0.000027294
  11 10  0     -152.7682926971    -0.0000000238   0.000020941   0.000007583
  12 11  0     -152.7682926997    -0.0000000026   0.000008900   0.000002705
  13 12  0     -152.7682927000    -0.0000000003   0.000003209   0.000001074
  14 13  0     -152.7682927000    -0.0000000000   0.000000949   0.000000326
  15 14  0     -152.7682927000    -0.0000000000   0.000000327   0.000000096

          -----------------
          DENSITY CONVERGED
          -----------------
     TIME TO FORM FOCK OPERATORS=       0.3 SECONDS (       0.0 SEC/ITER)
     TIME TO SOLVE SCF EQUATIONS=       0.0 SECONDS (       0.0 SEC/ITER)

 FINAL RHF ENERGY IS     -152.7682927000 AFTER  15 ITERATIONS

          ------------
          EIGENVECTORS
          ------------

                      1          2          3          4          5
                  -20.5943   -11.3613   -11.2104    -1.4145    -1.0063
                     A          A          A          A          A   
    1  C  1  S   -0.000002   0.003292   0.995629  -0.025842  -0.162971
    2  C  1  S    0.000005   0.000047   0.028005   0.046692   0.292988
    3  C  1  X   -0.000068  -0.000185   0.000357   0.038229   0.072426
    4  C  1  Y    0.000011  -0.000136   0.000425   0.008552   0.057441
    5  C  1  Z   -0.000003  -0.000032  -0.000543  -0.001930  -0.027203
    6  C  1  S   -0.000111   0.002396  -0.012444   0.040578   0.291088
    7  C  1  X   -0.000004   0.000700  -0.001193   0.016784   0.033110
    8  C  1  Y   -0.000157   0.001296  -0.000491  -0.005665  -0.002450
    9  C  1  Z   -0.000006   0.000251   0.001119  -0.000724  -0.018328
   10  C  1 XX   -0.000074  -0.000376  -0.001688   0.006220   0.015029
   11  C  1 YY   -0.000005  -0.000144  -0.002117  -0.000261   0.001937
   12  C  1 ZZ   -0.000026  -0.000079  -0.002102  -0.001291  -0.001737
   13  C  1 XY   -0.000006  -0.000079   0.000099   0.003475   0.004524
   14  C  1 XZ    0.000002  -0.000007  -0.000055  -0.000122  -0.002723
   15  C  1 YZ    0.000000  -0.000007   0.000103   0.000401   0.008660
   16  C  2  S   -0.000000   0.995788  -0.003707  -0.102211  -0.105939
   17  C  2  S    0.000494   0.026319  -0.000045   0.194336   0.222161
   18  C  2  X    0.000151   0.000907   0.000082   0.104972  -0.196580
   19  C  2  Y   -0.000102  -0.000718   0.000120  -0.101919  -0.026163
   20  C  2  Z   -0.000002   0.000209  -0.000006   0.006271   0.002105
   21  C  2  S   -0.000018  -0.008254   0.003628   0.046531   0.149246
   22  C  2  X   -0.000375   0.001268  -0.001703  -0.004789  -0.035309
   23  C  2  Y    0.000078  -0.000620  -0.000257   0.023557   0.003153
   24  C  2  Z   -0.000009  -0.000181  -0.000225  -0.001406   0.003367
   25  C  2 XX   -0.000269  -0.001209  -0.000490   0.013466   0.002195
   26  C  2 YY   -0.000217  -0.001226  -0.000337   0.006834   0.009095
   27  C  2 ZZ   -0.000062  -0.002502  -0.000083  -0.015595  -0.008187
   28  C  2 XY    0.000231  -0.000230  -0.000138  -0.021942   0.022102
   29  C  2 XZ   -0.000014   0.000049   0.000072   0.001319  -0.001704
   30  C  2 YZ    0.000023  -0.000056   0.000010  -0.001560  -0.002286
   31  O  3  S    0.994703  -0.000198   0.000029  -0.193057   0.080949
   32  O  3  S    0.020944   0.000462  -0.000017   0.424411  -0.185020
   33  O  3  X   -0.001218  -0.000145  -0.000026  -0.111470  -0.067989
   34  O  3  Y    0.000491   0.000075  -0.000051   0.051402  -0.001242
   35  O  3  Z   -0.000138  -0.000012  -0.000012   0.002948  -0.000330
   36  O  3  S    0.004189  -0.001240  -0.000220   0.420639  -0.228675
   37  O  3  X    0.000277   0.001220  -0.000033  -0.068675  -0.027799
   38  O  3  Y   -0.000086  -0.000630   0.000473   0.013767   0.003275
   39  O  3  Z    0.000071   0.000025  -0.000056   0.003777  -0.001564
   40  O  3 XX   -0.003845  -0.000304   0.000216   0.017598   0.005491
   41  O  3 YY   -0.003948  -0.000088   0.000062   0.004414  -0.003856
   42  O  3 ZZ   -0.003980   0.000400   0.000023  -0.005137  -0.001892
   43  O  3 XY   -0.000048   0.000318  -0.000072  -0.004329  -0.003568
   44  O  3 XZ   -0.000052   0.000018   0.000028  -0.001657   0.001169
   45  O  3 YZ   -0.000035   0.000052   0.000028  -0.002367   0.000930
   46  H  4  S   -0.000010  -0.000230  -0.000124   0.025868   0.059060
   47  H  4  S   -0.000045   0.002129  -0.000264  -0.009982   0.013609
   48  H  5  S    0.000024  -0.000132  -0.000167   0.005359   0.090041
   49  H  5  S    0.000019  -0.000169   0.001780   0.002047   0.031169
   50  H  6  S   -0.000004  -0.000047   0.000037   0.008925   0.097147
   51  H  6  S   -0.000030   0.000508   0.002500   0.000447   0.011932
   52  H  7  S    0.000202   0.000185   0.000160   0.059490   0.038716
   53  H  7  S   -0.000310   0.000432   0.001413  -0.006905   0.001011

                      6          7          8          9         10
                   -0.8235    -0.7047    -0.6266    -0.5936    -0.5394
                     A          A          A          A          A   
    1  C  1  S    0.072198  -0.059848  -0.022517  -0.018462   0.007331
    2  C  1  S   -0.125511   0.117589   0.033228   0.038857  -0.023762
    3  C  1  X    0.030477  -0.252385  -0.137617  -0.161449  -0.046439
    4  C  1  Y    0.075070   0.011435  -0.140318   0.078961  -0.276354
    5  C  1  Z    0.023076  -0.019016  -0.121838   0.220049  -0.145139
    6  C  1  S   -0.177447   0.138105   0.088152   0.042197   0.022810
    7  C  1  X   -0.008754  -0.114921  -0.030627  -0.105059   0.021973
    8  C  1  Y    0.020813   0.034768  -0.064379   0.048398  -0.160387
    9  C  1  Z    0.010628  -0.010064  -0.068129   0.125521  -0.087756
   10  C  1 XX   -0.004849  -0.000932  -0.003062   0.015338  -0.016355
   11  C  1 YY    0.001590   0.003522  -0.004904  -0.003155   0.002194
   12  C  1 ZZ   -0.003375   0.008442   0.012650  -0.010513   0.016768
   13  C  1 XY    0.009451  -0.010558  -0.007560  -0.014092  -0.006145
   14  C  1 XZ   -0.000206  -0.006933  -0.002146   0.000149   0.011798
   15  C  1 YZ   -0.009112   0.011278   0.011851   0.000803   0.013086
   16  C  2  S   -0.122585   0.042717   0.011138   0.009813   0.015100
   17  C  2  S    0.263892  -0.096378  -0.016529  -0.017571  -0.040441
   18  C  2  X    0.106340   0.012150   0.297690   0.132960   0.147778
   19  C  2  Y    0.228748   0.235597  -0.155477  -0.072906   0.208942
   20  C  2  Z   -0.009356  -0.034074  -0.089084   0.206981   0.093070
   21  C  2  S    0.270420  -0.038841  -0.075005  -0.031114  -0.047724
   22  C  2  X    0.009384   0.032498   0.086406   0.029164   0.062892
   23  C  2  Y    0.084477   0.069679  -0.057881  -0.040249   0.111252
   24  C  2  Z   -0.003145  -0.013245  -0.041106   0.113797   0.070221
   25  C  2 XX   -0.000044   0.007160   0.015454   0.009548  -0.021950
   26  C  2 YY    0.017680  -0.007571  -0.013196  -0.010705   0.026042
   27  C  2 ZZ   -0.010714   0.005364  -0.004828   0.000375   0.001973
   28  C  2 XY    0.001493   0.006413  -0.023979  -0.013535   0.003615
   29  C  2 XZ   -0.000124  -0.000370  -0.001036   0.009101   0.018849
   30  C  2 YZ    0.000401   0.005513   0.009774  -0.017410  -0.010294
   31  O  3  S    0.042556  -0.062692   0.032813   0.014191   0.014982
   32  O  3  S   -0.090448   0.154758  -0.063290  -0.026984  -0.031249
   33  O  3  X   -0.021583   0.347738  -0.194895  -0.135403  -0.061524
   34  O  3  Y    0.223925   0.025099   0.334901   0.155090  -0.089361
   35  O  3  Z   -0.028670  -0.054938  -0.173712   0.314341   0.314021
   36  O  3  S   -0.159862   0.206883  -0.178337  -0.080125  -0.061590
   37  O  3  X    0.002629   0.222764  -0.097376  -0.079257  -0.050484
   38  O  3  Y    0.122779   0.023693   0.212446   0.106102  -0.070441
   39  O  3  Z   -0.016202  -0.037943  -0.120686   0.225536   0.231102
   40  O  3 XX   -0.004294  -0.026067   0.008618   0.007161   0.002221
   41  O  3 YY    0.008165   0.010338   0.005196   0.003724   0.006304
   42  O  3 ZZ    0.002766   0.011161   0.000733  -0.001511  -0.000033
   43  O  3 XY   -0.020465   0.001168  -0.025619  -0.011785   0.006929
   44  O  3 XZ    0.003062   0.003553   0.014030  -0.022306  -0.020071
   45  O  3 YZ    0.001117  -0.000140  -0.003185   0.009731   0.006999
   46  H  4  S    0.220814   0.076162  -0.085418  -0.055268   0.143998
   47  H  4  S    0.093147   0.046653  -0.058290  -0.036494   0.117810
   48  H  5  S   -0.052459   0.168332   0.033638   0.175542  -0.089608
   49  H  5  S   -0.027284   0.089761   0.034430   0.109665  -0.054781
   50  H  6  S   -0.088049   0.082942   0.141266  -0.105091   0.187859
   51  H  6  S   -0.037620   0.056016   0.094769  -0.081891   0.146901
   52  H  7  S   -0.095031  -0.093428  -0.071144  -0.003240   0.096639
   53  H  7  S   -0.050418  -0.005305  -0.081127  -0.006860   0.101207

                     11         12         13         14         15
                   -0.4823    -0.3433     0.1119     0.2322     0.2609
                     A          A          A          A          A   
    1  C  1  S   -0.026316  -0.037095   0.015048   0.075707  -0.010941
    2  C  1  S    0.046875   0.051804  -0.001915  -0.108797  -0.008462
    3  C  1  X    0.224478   0.142078  -0.033588  -0.003464   0.107705
    4  C  1  Y    0.012816  -0.255331   0.042464   0.196010   0.035360
    5  C  1  Z   -0.120326   0.297230  -0.056158  -0.113232  -0.107941
    6  C  1  S    0.103106   0.231415  -0.263991  -0.757734   0.070091
    7  C  1  X    0.099297   0.176141  -0.060445   0.141359   0.381740
    8  C  1  Y    0.008470  -0.242861   0.105963   0.541892   0.151818
    9  C  1  Z   -0.072507   0.276183  -0.040410  -0.175315  -0.412163
   10  C  1 XX   -0.006789   0.006775  -0.005268  -0.001816   0.008716
   11  C  1 YY   -0.000489   0.000817   0.002096   0.012526  -0.006460
   12  C  1 ZZ    0.004274  -0.008514   0.008129  -0.000540  -0.005638
   13  C  1 XY    0.020241  -0.012077   0.012848  -0.014244  -0.012349
   14  C  1 XZ    0.006332   0.013179   0.020391   0.006463  -0.000784
   15  C  1 YZ    0.001554   0.005189   0.022142  -0.009368  -0.000356
   16  C  2  S   -0.011581   0.013998  -0.008621   0.000208   0.096773
   17  C  2  S    0.028331  -0.036286   0.010418  -0.015925  -0.134758
   18  C  2  X   -0.146465   0.056353  -0.019650   0.040435  -0.006784
   19  C  2  Y   -0.139121   0.043284   0.017166   0.080925  -0.257448
   20  C  2  Z    0.104593   0.115642   0.435205   0.095466   0.061571
   21  C  2  S    0.066450  -0.065473   0.098452   0.008979  -1.698337
   22  C  2  X   -0.019242   0.094911  -0.079858   0.190978   0.039412
   23  C  2  Y   -0.085987   0.025318  -0.037573   0.471030  -0.897448
   24  C  2  Z    0.079931   0.093033   0.650253   0.130027   0.208196
   25  C  2 XX    0.025178  -0.007449  -0.001691   0.008040   0.006326
   26  C  2 YY   -0.032595   0.007863   0.000534  -0.016489   0.009273
   27  C  2 ZZ    0.002026   0.002240  -0.000371   0.003204  -0.004303
   28  C  2 XY    0.014650   0.017646  -0.008025  -0.002156   0.004465
   29  C  2 XZ    0.014901  -0.026116  -0.010580   0.004385   0.004147
   30  C  2 YZ   -0.005769  -0.004581   0.015474   0.006396   0.002803
   31  O  3  S   -0.015003   0.020647  -0.021160   0.042745   0.000869
   32  O  3  S    0.048534  -0.029955   0.030304  -0.074581  -0.010341
   33  O  3  X    0.311280   0.186901  -0.090577   0.077701   0.023575
   34  O  3  Y    0.294222   0.123110  -0.119034   0.178988   0.088904
   35  O  3  Z    0.210761  -0.237760  -0.250702  -0.094063  -0.034197
   36  O  3  S    0.015031  -0.178027   0.188882  -0.401591  -0.025834
   37  O  3  X    0.266876   0.183342  -0.125370   0.149507   0.069953
   38  O  3  Y    0.234235   0.118094  -0.159662   0.254201   0.180029
   39  O  3  Z    0.168295  -0.224915  -0.337101  -0.160575  -0.058941
   40  O  3 XX   -0.018340  -0.006599  -0.001469  -0.002582   0.000391
   41  O  3 YY    0.007428   0.012033  -0.009700   0.021253  -0.001940
   42  O  3 ZZ    0.009107   0.008068  -0.007859   0.010159  -0.009295
   43  O  3 XY   -0.017781  -0.004366  -0.000231   0.003313   0.006840
   44  O  3 XZ   -0.012814   0.009192  -0.000082  -0.000753  -0.000550
   45  O  3 YZ    0.010054  -0.002386   0.008129   0.000673   0.001103
   46  H  4  S   -0.124513   0.032074   0.003517  -0.068037   0.028494
   47  H  4  S   -0.118981   0.049568   0.013864  -0.619486   1.988244
   48  H  5  S   -0.141885  -0.041796  -0.046308   0.025905   0.027931
   49  H  5  S   -0.150751  -0.018513  -0.121764   0.419228   0.581139
   50  H  6  S    0.067918  -0.042886   0.116440  -0.020684  -0.011009
   51  H  6  S    0.038530  -0.046139   0.439488   0.503387  -0.347026
   52  H  7  S   -0.111368   0.105778  -0.105521   0.187686   0.069254
   53  H  7  S   -0.131777   0.177702  -0.405578   1.330637  -0.036258

                     16         17         18         19         20
                    0.2929     0.3324     0.4016     0.4896     0.7187
                     A          A          A          A          A   
    1  C  1  S   -0.109697   0.014936  -0.026019   0.086337  -0.006334
    2  C  1  S    0.069938  -0.043348   0.031465   0.036036  -0.254271
    3  C  1  X   -0.167691   0.123666   0.023544  -0.064677  -0.273719
    4  C  1  Y    0.047733  -0.191208   0.069597   0.007865  -0.436013
    5  C  1  Z   -0.164675  -0.206984   0.015395  -0.075491  -0.263432
    6  C  1  S    2.227934   0.027360   0.859502  -2.619426  -0.305585
    7  C  1  X   -0.503415   1.004126   0.275534  -2.732440  -0.157221
    8  C  1  Y    0.117007  -1.049784   0.782511  -0.865894   0.488261
    9  C  1  Z   -0.661608  -1.076159   0.094870  -0.030466   0.434126
   10  C  1 XX   -0.002735   0.014821   0.016125   0.006731  -0.094773
   11  C  1 YY   -0.004613  -0.008010  -0.021830  -0.008067  -0.023004
   12  C  1 ZZ   -0.010163  -0.001507   0.009240  -0.005671   0.039543
   13  C  1 XY   -0.009352   0.002345   0.000838   0.021286   0.012918
   14  C  1 XZ    0.008098  -0.003709  -0.008314   0.007433  -0.002721
   15  C  1 YZ    0.000148   0.004814   0.006413  -0.021428   0.004866
   16  C  2  S    0.023494  -0.045907  -0.037262  -0.093779  -0.062212
   17  C  2  S    0.014067   0.105381  -0.018264   0.049638  -0.458029
   18  C  2  X    0.057015   0.002338   0.169802  -0.194342   0.310605
   19  C  2  Y    0.078112   0.072435  -0.064010  -0.260002  -0.090318
   20  C  2  Z    0.073079   0.034646   0.023765   0.029830  -0.350663
   21  C  2  S   -0.413906   0.399639   0.844014   3.245426   1.373974
   22  C  2  X    0.341876   0.043802   2.124771  -1.054399  -0.403738
   23  C  2  Y    0.306773   0.735671  -0.820765  -2.241729  -0.569801
   24  C  2  Z    0.248991   0.371325  -0.009974   0.227363   0.274190
   25  C  2 XX    0.017487  -0.018345   0.004777   0.019353  -0.082525
   26  C  2 YY    0.004002   0.016831   0.006048   0.002937  -0.112907
   27  C  2 ZZ   -0.003352  -0.001126   0.008280   0.006618   0.038683
   28  C  2 XY    0.000864   0.016445   0.012346  -0.007478  -0.060453
   29  C  2 XZ    0.006128   0.008501   0.000093   0.007838   0.005367
   30  C  2 YZ    0.002078   0.010949   0.001361   0.003049   0.023328
   31  O  3  S    0.008890  -0.001612   0.089051   0.053997   0.027566
   32  O  3  S   -0.001049  -0.051408  -0.047138  -0.007394  -0.077923
   33  O  3  X   -0.019398   0.070633   0.077412   0.074182  -0.030539
   34  O  3  Y    0.037749  -0.056647  -0.210622   0.009363  -0.067025
   35  O  3  Z   -0.094268  -0.026199   0.030989  -0.039086  -0.023095
   36  O  3  S   -0.116217   0.271196  -1.846068  -1.273189  -0.474106
   37  O  3  X   -0.034189  -0.042527   0.574331   0.677255   0.380191
   38  O  3  Y    0.043545  -0.131402  -0.758704  -0.006257  -0.100190
   39  O  3  Z   -0.127293  -0.071245   0.081357  -0.043461  -0.006427
   40  O  3 XX    0.005301  -0.005178   0.017094   0.004052  -0.039599
   41  O  3 YY    0.013915  -0.017773   0.032425   0.019178  -0.015310
   42  O  3 ZZ    0.002664  -0.021106   0.058204   0.048040   0.027023
   43  O  3 XY    0.004555   0.001588   0.034911   0.000137  -0.036025
   44  O  3 XZ   -0.002893   0.004018  -0.002589   0.000428   0.020469
   45  O  3 YZ   -0.002174   0.002647   0.003870   0.003504  -0.012743
   46  H  4  S    0.017997   0.035034  -0.002327  -0.076383  -0.369575
   47  H  4  S   -0.214919  -0.940897  -0.034322   1.093891   0.327072
   48  H  5  S    0.002705   0.023851   0.092940  -0.032305  -0.206663
   49  H  5  S   -1.254924   1.933169  -0.186406  -0.700404  -0.140477
   50  H  6  S   -0.022282  -0.003543   0.005735  -0.106100   0.218881
   51  H  6  S   -1.586426  -1.421419   0.286227  -0.305654  -0.113074
   52  H  7  S    0.091437   0.028571  -0.021963  -0.077918  -0.224374
   53  H  7  S    0.494085  -0.496952  -0.385986   0.727193   0.238753

                     21         22         23         24         25
                    0.7513     0.8066     0.8233     0.8678     0.9311
                     A          A          A          A          A   
    1  C  1  S    0.000392  -0.021375   0.012383  -0.046936  -0.050480
    2  C  1  S    0.140621   0.155850  -0.243580  -0.088367  -0.379870
    3  C  1  X    0.164815   0.350432  -0.192113   0.521899   0.318857
    4  C  1  Y    0.393904   0.191520   0.083870  -0.304469   0.408620
    5  C  1  Z   -0.280021  -0.363243  -0.291863   0.585721  -0.320378
    6  C  1  S    0.316081   0.530333   0.587699   1.214554   0.317313
    7  C  1  X    0.162369  -0.137631   0.264414  -0.694538  -1.084449
    8  C  1  Y   -0.133382   0.166435  -0.104500   0.389874  -0.488367
    9  C  1  Z    0.226711   0.637867   0.463057  -0.970277   0.445996
   10  C  1 XX   -0.012548  -0.075844  -0.040374  -0.034080  -0.087740
   11  C  1 YY    0.016878   0.021718   0.025977   0.020650  -0.065989
   12  C  1 ZZ    0.011988   0.036709  -0.018385  -0.026847  -0.000800
   13  C  1 XY    0.031166   0.064221   0.055101   0.019286  -0.087573
   14  C  1 XZ   -0.040618   0.023894   0.008579   0.046976   0.054884
   15  C  1 YZ   -0.007044   0.011442   0.000222  -0.058800  -0.071450
   16  C  2  S    0.045361   0.040817   0.008814   0.029059  -0.006574
   17  C  2  S    0.203299   0.136669  -0.634123  -0.372420  -0.441280
   18  C  2  X   -0.185312   0.113232  -0.746558  -0.154314   0.544252
   19  C  2  Y   -0.068746  -0.229082   0.302099  -0.019641   0.237527
   20  C  2  Z   -0.840317   0.497374   0.186053  -0.209078   0.025610
   21  C  2  S   -0.758839  -0.496765   0.791468   0.363611   1.291656
   22  C  2  X    0.572344   0.493603   0.930670   0.715020  -0.745652
   23  C  2  Y    0.598577   1.058840  -0.133515   0.777641  -1.019572
   24  C  2  Z    0.852339  -0.848561  -0.333872   0.419370  -0.057837
   25  C  2 XX    0.081777   0.086762   0.010189   0.028293   0.000816
   26  C  2 YY    0.026660  -0.041886  -0.068045  -0.033971  -0.028633
   27  C  2 ZZ   -0.029068  -0.012327  -0.032501  -0.038666  -0.022556
   28  C  2 XY    0.018115   0.022496  -0.113224  -0.000765   0.119599
   29  C  2 XZ    0.002297  -0.000612   0.012754  -0.017809   0.008119
   30  C  2 YZ    0.032909  -0.012645  -0.004207  -0.015152  -0.014636
   31  O  3  S   -0.011423   0.001883  -0.023229  -0.011921   0.010899
   32  O  3  S    0.111666   0.092343   0.103551   0.020199  -0.024349
   33  O  3  X   -0.100862  -0.206899  -0.219250  -0.185930   0.222969
   34  O  3  Y   -0.024738  -0.115810   0.070826  -0.057772  -0.096180
   35  O  3  Z   -0.034434   0.026027   0.002889  -0.030473  -0.035494
   36  O  3  S   -0.026443  -0.161340  -0.349033  -0.062592  -0.043371
   37  O  3  X   -0.132513   0.038508  -0.136023  -0.141217  -0.065196
   38  O  3  Y   -0.022574  -0.100323   0.023019  -0.046571   0.008443
   39  O  3  Z   -0.096545   0.070051   0.046816  -0.041136   0.068902
   40  O  3 XX    0.015081  -0.016076  -0.037028  -0.042716   0.040694
   41  O  3 YY    0.022058   0.039920  -0.020416   0.007943   0.059459
   42  O  3 ZZ    0.026548   0.029199   0.061574   0.004517  -0.014726
   43  O  3 XY    0.013473  -0.061909   0.135813   0.030195   0.001903
   44  O  3 XZ    0.049778  -0.021858  -0.035566   0.020796  -0.026840
   45  O  3 YZ   -0.033983   0.017593   0.004381  -0.004168  -0.017553
   46  H  4  S    0.121698  -0.092719  -0.221385  -0.221589  -0.000905
   47  H  4  S   -0.257652  -0.462033  -0.080267  -0.549470   0.383086
   48  H  5  S   -0.048572  -0.297090  -0.097177  -0.374719  -0.347067
   49  H  5  S    0.081783   0.090867   0.134449  -0.134754  -0.501458
   50  H  6  S    0.075700   0.139311   0.085076  -0.283909  -0.256068
   51  H  6  S    0.224149  -0.092606  -0.027477  -0.349673   0.007268
   52  H  7  S   -0.117333  -0.543858   0.247047  -0.031730   0.502606
   53  H  7  S    0.143704   1.009951  -0.656320   0.334474  -0.984982

                     26         27         28         29         30
                    0.9908     1.0704     1.0863     1.1334     1.1879
                     A          A          A          A          A   
    1  C  1  S    0.005278   0.039703  -0.021998  -0.002968   0.034570
    2  C  1  S   -0.339051  -0.340629   0.074711  -0.062648  -0.467233
    3  C  1  X   -0.342844   0.301429   0.003359  -0.179646   0.281795
    4  C  1  Y    0.291073  -0.547044  -0.134378   0.397070   0.334254
    5  C  1  Z    0.110926  -0.287902  -0.253742   0.345936   0.407349
    6  C  1  S    2.156915   1.381015  -0.597245  -0.058510   0.042227
    7  C  1  X    1.917524  -0.777440  -0.228094   0.288516  -0.883577
    8  C  1  Y   -0.766323   1.559312  -0.046510  -0.797900  -0.706902
    9  C  1  Z   -0.554597   1.076554   0.199854  -0.473408  -0.626422
   10  C  1 XX    0.075867   0.102023   0.041802  -0.064290  -0.092741
   11  C  1 YY    0.012606  -0.079721  -0.057376   0.021644  -0.078694
   12  C  1 ZZ   -0.095411  -0.034387   0.008057   0.037237   0.062323
   13  C  1 XY    0.015564   0.025197  -0.066225   0.024706  -0.034964
   14  C  1 XZ   -0.026303   0.086940  -0.056609   0.066808   0.005989
   15  C  1 YZ   -0.019184   0.036794  -0.061314   0.053731   0.136245
   16  C  2  S   -0.034097   0.011127   0.028086   0.025295  -0.023744
   17  C  2  S   -0.070226   0.428356  -1.053794  -0.160435  -0.740535
   18  C  2  X   -0.061335  -0.256125  -0.014240   0.177410   0.038688
   19  C  2  Y   -0.841441  -0.429971  -0.362714  -0.238648  -0.007848
   20  C  2  Z    0.029850   0.033831   0.034231  -0.022462   0.005850
   21  C  2  S   -0.723050  -1.032726   2.312398   0.884119   2.080735
   22  C  2  X    0.659550   0.831166  -0.126181  -0.298160  -0.446624
   23  C  2  Y    3.576322   0.712912   0.273288   0.081546  -0.522005
   24  C  2  Z    0.024299  -0.492673   0.060165   0.089547  -0.024992
   25  C  2 XX   -0.112772  -0.072358  -0.134049   0.083682  -0.089958
   26  C  2 YY   -0.086647   0.145792   0.105286   0.081383  -0.058996
   27  C  2 ZZ    0.036293  -0.017272  -0.113110  -0.078016   0.019228
   28  C  2 XY    0.048907   0.035895  -0.019173  -0.121377   0.040036
   29  C  2 XZ    0.018186  -0.068017   0.066107  -0.048213  -0.067140
   30  C  2 YZ    0.022159  -0.089136   0.039915  -0.052209  -0.024786
   31  O  3  S    0.000371   0.005199  -0.007546  -0.004329   0.012221
   32  O  3  S   -0.134751  -0.082678   0.067712  -0.569950   0.353334
   33  O  3  X    0.207049   0.145464  -0.115945  -0.391539   0.166413
   34  O  3  Y   -0.247856   0.031212   0.148727   0.278293  -0.069837
   35  O  3  Z    0.029495  -0.177554   0.043367   0.048900  -0.274484
   36  O  3  S    1.105705   0.253023  -0.372879   0.968893  -1.055511
   37  O  3  X   -0.551736  -0.261797   0.194313   0.707602  -0.086823
   38  O  3  Y   -0.031661  -0.040103  -0.133052  -0.466792   0.158955
   39  O  3  Z   -0.048901   0.237399  -0.072165  -0.015993   0.332416
   40  O  3 XX    0.108611   0.085319   0.022736  -0.169780   0.092762
   41  O  3 YY   -0.011569  -0.022900  -0.092555  -0.237295   0.088843
   42  O  3 ZZ   -0.091090  -0.073709   0.064452  -0.218283   0.192782
   43  O  3 XY   -0.025000   0.030949   0.021443   0.065473  -0.024543
   44  O  3 XZ    0.004613  -0.053013   0.013979  -0.009611   0.019940
   45  O  3 YZ    0.004445  -0.071555   0.042792  -0.016652  -0.006382
   46  H  4  S   -0.299813   0.331992   0.765474   0.269727   0.172531
   47  H  4  S   -1.850493  -0.645683  -1.363984  -0.410300  -0.222298
   48  H  5  S    0.088195  -0.038871   0.145888  -0.357346   0.338499
   49  H  5  S    0.662478  -1.217411  -0.267185   0.745734  -0.370441
   50  H  6  S   -0.167168   0.328722  -0.449568   0.411508   0.737587
   51  H  6  S   -0.257664   0.619261   0.451860  -0.784901  -1.440389
   52  H  7  S    0.224671   0.476809  -0.284297   0.320025  -0.280746
   53  H  7  S   -0.499823   0.092445   0.165282  -0.726592   0.431282

                     31         32         33         34         35
                    1.2211     1.2567     1.2681     1.4376     1.6916
                     A          A          A          A          A   
    1  C  1  S   -0.022210  -0.017513  -0.056709  -0.041395  -0.002697
    2  C  1  S    0.330400   0.119562  -1.564988  -0.911146  -0.190302
    3  C  1  X   -0.600292  -0.194729  -0.136098  -0.026419   0.000212
    4  C  1  Y    0.072259   0.021053   0.023063   0.010632  -0.016058
    5  C  1  Z    0.211230  -0.050200   0.118396   0.022757   0.036201
    6  C  1  S   -0.629778  -0.230131   4.297018   3.566923   0.975752
    7  C  1  X    0.482329   0.680039   0.876302   1.141351   0.260453
    8  C  1  Y    0.265428  -0.107627   0.556488   0.323643   0.126621
    9  C  1  Z   -0.236077   0.080613  -0.528402  -0.175155   0.222731
   10  C  1 XX   -0.027657  -0.005755  -0.137604  -0.101528  -0.027549
   11  C  1 YY   -0.012727   0.019839  -0.103217  -0.023527   0.009507
   12  C  1 ZZ    0.094201  -0.003569  -0.063505  -0.007039  -0.005703
   13  C  1 XY    0.125379   0.000621   0.009625   0.042378   0.083740
   14  C  1 XZ    0.138978  -0.014165  -0.002449  -0.098526  -0.242961
   15  C  1 YZ   -0.035354  -0.086130  -0.092912  -0.098507   0.021809
   16  C  2  S   -0.008337   0.009993   0.019804   0.025645  -0.006743
   17  C  2  S    0.069006   0.176005   0.721261   0.286819   0.151652
   18  C  2  X   -0.151255   0.040806  -0.106333  -0.102827  -0.139652
   19  C  2  Y   -0.076310   0.062228   0.123609  -0.079560   0.060882
   20  C  2  Z    0.000426   0.086922   0.001419   0.026870   0.090232
   21  C  2  S   -0.268775  -0.549397  -3.102489  -1.163864  -2.656536
   22  C  2  X    0.495972  -0.048896   0.913210   1.880281  -0.747633
   23  C  2  Y   -0.451465  -0.116287  -0.207270   0.938357   1.038979
   24  C  2  Z   -0.044420  -0.394668   0.163934  -0.050695  -0.234916
   25  C  2 XX   -0.072006   0.012017  -0.073896   0.146730  -0.009083
   26  C  2 YY   -0.020588   0.040286   0.129359  -0.098615  -0.004151
   27  C  2 ZZ    0.043354  -0.009267   0.037754   0.004939  -0.043138
   28  C  2 XY    0.040642  -0.047100  -0.071600  -0.106798   0.192003
   29  C  2 XZ   -0.059504   0.018112   0.066805   0.123328   0.082484
   30  C  2 YZ   -0.037171   0.021758   0.024453   0.096862   0.338270
   31  O  3  S    0.023420  -0.003095   0.006414   0.016707  -0.088502
   32  O  3  S    0.383321  -0.059990   0.117325   0.275229  -1.403203
   33  O  3  X    0.364626  -0.235809  -0.196453   0.203221   0.307384
   34  O  3  Y   -0.013657  -0.180852  -0.309349   0.736682  -0.107354
   35  O  3  Z   -0.033174  -0.871425   0.168999  -0.178340  -0.035491
   36  O  3  S   -1.147535   0.204530  -0.207928  -0.782425   4.151905
   37  O  3  X   -0.287335   0.338099   0.337873  -0.247207  -1.386969
   38  O  3  Y    0.072570   0.195947   0.458411  -1.552966   0.687323
   39  O  3  Z    0.070256   1.096256  -0.242758   0.293386   0.111275
   40  O  3 XX    0.150065  -0.001509   0.128827  -0.008944  -0.549363
   41  O  3 YY    0.115215  -0.057159  -0.048862   0.156385  -0.325656
   42  O  3 ZZ    0.178232  -0.034010   0.009506   0.052726  -0.244404
   43  O  3 XY   -0.020646   0.007165  -0.003642  -0.067748   0.075561
   44  O  3 XZ    0.012792   0.029568   0.014255   0.044754   0.198508
   45  O  3 YZ   -0.009540  -0.009233   0.051479   0.069577   0.096559
   46  H  4  S    0.401086  -0.013795   0.249514  -0.085525   0.151651
   47  H  4  S    0.005921   0.190561   0.500020  -0.350046  -0.088159
   48  H  5  S   -0.871487  -0.039648  -0.088361  -0.011446  -0.135748
   49  H  5  S    1.157007   0.463113  -0.393102  -0.106555  -0.166692
   50  H  6  S    0.034860  -0.271690  -0.113210  -0.153596   0.103100
   51  H  6  S   -0.046154   0.390852  -0.800607  -0.282808   0.002186
   52  H  7  S   -0.171668   0.001419  -0.267643  -0.103536  -0.256561
   53  H  7  S    0.351777  -0.275217   0.111047  -0.881941  -0.155417

                     36         37         38         39         40
                    1.7281     1.8291     2.0189     2.0940     2.1038
                     A          A          A          A          A   
    1  C  1  S   -0.018095  -0.026218  -0.009047  -0.011183  -0.000470
    2  C  1  S   -0.218358  -0.452957   0.084225  -0.345981   0.295377
    3  C  1  X   -0.009167  -0.061875   0.019848  -0.195065   0.226676
    4  C  1  Y    0.003480   0.108361   0.164757   0.023352   0.188395
    5  C  1  Z   -0.101853  -0.125139  -0.032854   0.030754   0.049588
    6  C  1  S    0.711415   1.917681   0.572762   0.776270   0.658202
    7  C  1  X    0.167902   1.241385   0.458354   1.004368   0.262312
    8  C  1  Y   -0.024727  -0.269341  -0.170831  -0.523312   0.120650
    9  C  1  Z   -0.118131  -0.279039   0.055481  -0.508878   0.047293
   10  C  1 XX    0.025447   0.083413   0.367795   0.169627   0.000982
   11  C  1 YY    0.098008   0.245619  -0.546585  -0.604029  -0.084550
   12  C  1 ZZ   -0.139054  -0.343639   0.175677   0.374032   0.178447
   13  C  1 XY   -0.061529  -0.161743  -0.123049   0.160116  -0.217904
   14  C  1 XZ    0.120285   0.353316   0.226998   0.042687  -0.139909
   15  C  1 YZ    0.148734   0.019032  -0.021515  -0.217325  -0.201909
   16  C  2  S    0.003585   0.004105   0.002381   0.011697   0.017528
   17  C  2  S    0.004615   0.124394   0.031028  -0.009721   0.337231
   18  C  2  X    0.021735  -0.112345  -0.061530  -0.069735  -0.098374
   19  C  2  Y    0.023520   0.081289   0.176709  -0.004626   0.029122
   20  C  2  Z    0.148238  -0.123219  -0.026333   0.017247   0.052780
   21  C  2  S    0.095704  -2.235717  -0.641118  -1.056818  -1.176499
   22  C  2  X    0.367960   0.135445   0.101432  -0.460193   0.565741
   23  C  2  Y   -0.023024   1.221620   1.232585   0.759420   1.324433
   24  C  2  Z   -0.061829   0.076585  -0.115242   0.202806  -0.081943
   25  C  2 XX    0.004021  -0.036403  -0.298601   0.044638  -0.354822
   26  C  2 YY    0.050027  -0.048712   0.394035  -0.142878   0.266402
   27  C  2 ZZ   -0.045297   0.065698  -0.084356   0.098956   0.140543
   28  C  2 XY   -0.089038  -0.020106   0.099145   0.216024  -0.147991
   29  C  2 XZ   -0.526077  -0.223094  -0.004449  -0.188311   0.076419
   30  C  2 YZ    0.351930  -0.475424  -0.080203  -0.106131   0.160222
   31  O  3  S    0.012584  -0.058237  -0.028635  -0.027059  -0.016942
   32  O  3  S    0.221697  -0.790868  -0.166473  -0.288488  -0.193635
   33  O  3  X   -0.033924   0.177472  -0.000859  -0.143823   0.110087
   34  O  3  Y    0.065031   0.085833   0.190451   0.044291   0.120717
   35  O  3  Z    0.086288  -0.062718  -0.018163   0.016386   0.011267
   36  O  3  S   -0.633187   2.503076   0.961848   1.322665   0.841129
   37  O  3  X    0.188783  -0.877821  -0.401512  -0.215951  -0.471387
   38  O  3  Y   -0.219651  -0.006374  -0.135919   0.160174  -0.143944
   39  O  3  Z    0.152703   0.074915   0.038603  -0.047353  -0.019576
   40  O  3 XX    0.098871  -0.370881   0.143035  -0.371216   0.107113
   41  O  3 YY    0.008591  -0.337267  -0.031169   0.249616  -0.639938
   42  O  3 ZZ    0.051983   0.042941  -0.273977  -0.048579   0.383317
   43  O  3 XY    0.005541  -0.114496   0.189223  -0.008832  -0.128733
   44  O  3 XZ    0.410961  -0.072849   0.285142  -0.198613  -0.220401
   45  O  3 YZ   -0.294947   0.030985   0.343364  -0.497109  -0.335683
   46  H  4  S   -0.052710  -0.022609  -0.607505   0.060645  -0.399845
   47  H  4  S   -0.014462  -0.221667  -0.325613  -0.190292  -0.361296
   48  H  5  S    0.013752   0.139639  -0.101248   0.226694  -0.169627
   49  H  5  S   -0.047877   0.265488   0.159124   0.419873   0.095073
   50  H  6  S   -0.228018  -0.255198   0.025487  -0.161086   0.117342
   51  H  6  S   -0.087379  -0.143275  -0.026012  -0.299131   0.093947
   52  H  7  S   -0.000180  -0.405584  -0.261744  -0.176288   0.017393
   53  H  7  S   -0.138552  -0.572948   0.031457  -0.302207   0.059669

                     41         42         43         44         45
                    2.2119     2.3587     2.3796     2.4466     2.5211
                     A          A          A          A          A   
    1  C  1  S   -0.037323   0.026804  -0.044947   0.006637   0.017277
    2  C  1  S   -0.326757  -0.030322  -0.358171   0.059328   0.183857
    3  C  1  X   -0.159626  -0.189550  -0.076676   0.085693   0.016883
    4  C  1  Y    0.033522  -0.048094  -0.018961  -0.051073  -0.004979
    5  C  1  Z    0.040387   0.101042  -0.027102  -0.054611  -0.024353
    6  C  1  S    0.849332  -1.176039   1.671654  -0.066198  -0.854274
    7  C  1  X    0.044308  -0.293157   0.600350   0.289057  -0.583181
    8  C  1  Y    0.024369   0.041936   0.138862  -0.107352  -0.291827
    9  C  1  Z   -0.198444   0.326489  -0.291377  -0.306576  -0.086425
   10  C  1 XX    0.093987   0.421861   0.255953  -0.349918  -0.165590
   11  C  1 YY    0.104987  -0.060066  -0.367910   0.027398  -0.209587
   12  C  1 ZZ   -0.298563  -0.405381   0.042386   0.290694   0.471335
   13  C  1 XY    0.041968   0.004517   0.273028   0.602306  -0.344039
   14  C  1 XZ   -0.389712   0.236172  -0.251593  -0.090397  -0.132109
   15  C  1 YZ    0.351412  -0.363639   0.569337  -0.343970   0.173289
   16  C  2  S   -0.028286  -0.053459   0.020904  -0.024443  -0.056315
   17  C  2  S   -0.220851  -0.390340   0.158262  -0.167612  -0.046222
   18  C  2  X    0.101646   0.088351   0.060863   0.244667  -0.289556
   19  C  2  Y    0.225855   0.115172   0.057490   0.081127  -0.117667
   20  C  2  Z   -0.026269   0.019067  -0.049563   0.034558   0.010534
   21  C  2  S    0.250931   1.701794  -0.993182   0.286824   0.891668
   22  C  2  X    0.247348  -0.271329   0.406837   0.120297  -0.146040
   23  C  2  Y   -0.209307  -0.925202   0.722078   0.257223  -0.477497
   24  C  2  Z    0.072811  -0.101186   0.010184   0.230249   0.093773
   25  C  2 XX    0.001005   0.317357  -0.003744   0.230203   0.216974
   26  C  2 YY    0.362018   0.198806  -0.061245  -0.002272   0.138055
   27  C  2 ZZ   -0.454600  -0.730172  -0.041477  -0.353950  -0.476507
   28  C  2 XY    0.094279   0.034015   0.142969  -0.108490  -0.626607
   29  C  2 XZ   -0.048796   0.229859  -0.143137  -0.226253  -0.086060
   30  C  2 YZ   -0.141753   0.183717  -0.054114  -0.346466  -0.144943
   31  O  3  S   -0.003152   0.009566  -0.004336   0.012472   0.005968
   32  O  3  S   -0.053106   0.218771   0.231984  -0.163543  -0.338259
   33  O  3  X    0.138840   0.033929  -0.173949   0.214111   0.322091
   34  O  3  Y    0.096325  -0.136778   0.012970  -0.040721  -0.300350
   35  O  3  Z   -0.057196   0.027117  -0.013964   0.038279   0.020237
   36  O  3  S   -0.138411  -0.975423  -0.082238   0.025550   0.118383
   37  O  3  X   -0.161047   0.367444   0.135834  -0.200809  -0.097232
   38  O  3  Y   -0.240748   0.040042   0.008242  -0.150856   0.296970
   39  O  3  Z    0.090893  -0.018825   0.026105  -0.098415  -0.023963
   40  O  3 XX    0.228671  -0.137558  -0.103935   0.353270  -0.289797
   41  O  3 YY    0.040027  -0.050494  -0.311168  -0.440115   0.238586
   42  O  3 ZZ   -0.332711   0.200827   0.495509   0.050244  -0.197274
   43  O  3 XY    0.211039  -0.321616  -0.380819   0.117966  -0.273074
   44  O  3 XZ   -0.324413   0.025609  -0.007197   0.204862   0.029506
   45  O  3 YZ   -0.319492  -0.070286   0.272954   0.046669   0.034150
   46  H  4  S   -0.333517  -0.149200  -0.084486  -0.144857   0.063045
   47  H  4  S    0.150190   0.209507  -0.234158  -0.154583   0.070645
   48  H  5  S   -0.331121  -0.012838  -0.217342   0.531593  -0.110652
   49  H  5  S   -0.002762   0.010498   0.050964   0.031172   0.010397
   50  H  6  S   -0.136423   0.557518  -0.429330  -0.074785  -0.200571
   51  H  6  S   -0.268332  -0.013326  -0.116182  -0.051980   0.007520
   52  H  7  S   -0.479696   0.098028   0.355028  -0.035412   0.072552
   53  H  7  S   -0.003717   0.039219  -0.121077  -0.024706   0.015038

                     46         47         48         49         50
                    2.6979     2.8267     3.0033     3.1629     3.2310
                     A          A          A          A          A   
    1  C  1  S   -0.011579  -0.013238   0.073640   0.007516   0.010233
    2  C  1  S   -0.087299  -0.040054  -0.082910  -0.033265   0.151533
    3  C  1  X    0.071288   0.039110  -0.480568  -0.106588  -0.009058
    4  C  1  Y   -0.002765   0.001279  -0.298488  -0.166272   0.016635
    5  C  1  Z   -0.029521   0.003944   0.012160   0.024773  -0.020791
    6  C  1  S    0.680462   0.450886  -2.105119   0.198938  -0.432539
    7  C  1  X    0.647602   0.184937  -1.074436   0.023604  -0.158764
    8  C  1  Y   -0.214048  -0.007628  -0.498266  -0.091776  -0.020082
    9  C  1  Z   -0.082380  -0.073092   0.017811   0.075265   0.041793
   10  C  1 XX   -0.208959  -0.016767  -0.753243   0.199479  -0.340176
   11  C  1 YY   -0.018897  -0.033147   0.247079  -0.343326   0.220879
   12  C  1 ZZ    0.242331   0.044338   0.552680   0.059378   0.064288
   13  C  1 XY    0.322374   0.091951  -0.618689  -0.495522   0.193035
   14  C  1 XZ    0.716103   0.204294   0.107684  -0.023204   0.042772
   15  C  1 YZ    0.395798   0.373520   0.085247   0.036011  -0.040631
   16  C  2  S   -0.001534   0.005195  -0.071594  -0.009420   0.001658
   17  C  2  S    0.016408   0.029099   0.328262  -0.328424  -0.866493
   18  C  2  X    0.059963  -0.005588  -0.277253  -0.544268  -0.846713
   19  C  2  Y    0.011672   0.023449  -0.379319   0.283341   0.579129
   20  C  2  Z   -0.166767   0.124861   0.035892  -0.019016  -0.037416
   21  C  2  S   -0.662388  -0.389516   2.432476  -0.679136  -1.043609
   22  C  2  X    0.161831   0.124663  -0.778121  -0.223105  -0.771501
   23  C  2  Y    0.641584   0.281050  -0.977478   0.753445   0.243070
   24  C  2  Z   -0.218136   0.196330   0.103623  -0.085413  -0.018789
   25  C  2 XX    0.089089   0.016654   0.332263   0.691913  -0.689784
   26  C  2 YY    0.040155  -0.097146   0.205593  -0.875967   0.339121
   27  C  2 ZZ   -0.158541   0.064895  -0.606035   0.145469   0.321339
   28  C  2 XY   -0.116192  -0.014878   0.820952   0.401337   0.685043
   29  C  2 XZ    0.157571   0.836532  -0.029395  -0.054436  -0.033225
   30  C  2 YZ    0.547147  -0.366746  -0.078653   0.080099   0.011434
   31  O  3  S    0.004263  -0.001174   0.016898  -0.021012  -0.056389
   32  O  3  S   -0.297226  -0.075194   0.442200  -0.554927  -0.560391
   33  O  3  X    0.131928   0.023319  -0.167841   0.003698  -0.169300
   34  O  3  Y   -0.002507  -0.011199   0.083377   0.031431   0.118738
   35  O  3  Z   -0.051636   0.022834   0.006588  -0.015670  -0.000418
   36  O  3  S    0.641566   0.223928  -1.164691   1.647285   2.301011
   37  O  3  X   -0.323490  -0.102206   0.566380  -0.981494  -1.035057
   38  O  3  Y   -0.087608  -0.014902  -0.166973   0.156806   1.025587
   39  O  3  Z    0.241299  -0.358852  -0.037140   0.040052  -0.082835
   40  O  3 XX    0.127079   0.039011  -0.086947   0.887194   0.330441
   41  O  3 YY   -0.111896  -0.113695  -0.014923  -0.502076   0.257571
   42  O  3 ZZ   -0.050945   0.054841   0.301608  -0.372903  -0.610881
   43  O  3 XY    0.082725   0.017543   0.107318  -0.218529  -1.106057
   44  O  3 XZ   -0.464871   0.645323   0.042811  -0.040887   0.075403
   45  O  3 YZ    0.052809  -0.576635   0.023649  -0.002981  -0.057652
   46  H  4  S   -0.066558   0.025632  -0.249045   0.318623  -0.148878
   47  H  4  S   -0.207308  -0.097592   0.280187  -0.403595   0.169677
   48  H  5  S    0.443492   0.039059   0.103109  -0.214963   0.180165
   49  H  5  S    0.075051  -0.010857  -0.111217   0.037016  -0.119860
   50  H  6  S   -0.471444  -0.249506  -0.121400   0.053981  -0.013919
   51  H  6  S    0.078992   0.041910   0.051813  -0.016584   0.094560
   52  H  7  S   -0.182150   0.017021   0.162549  -0.295874   0.021783
   53  H  7  S   -0.218249  -0.062081   0.086098   0.032020   0.146946

                     51         52         53
                    4.1884     4.4931     4.6991
                     A          A          A   
    1  C  1  S    0.053302  -0.254304  -0.407205
    2  C  1  S   -0.354023   1.593095   2.485873
    3  C  1  X    0.037444   0.124381  -0.214317
    4  C  1  Y    0.048753   0.096462  -0.130883
    5  C  1  Z   -0.026760   0.015319   0.034189
    6  C  1  S    0.482958   0.889390   2.166540
    7  C  1  X    0.512130   0.098990   0.246432
    8  C  1  Y   -0.206136  -0.187978   0.111666
    9  C  1  Z    0.027041  -0.128272  -0.145227
   10  C  1 XX    0.192606  -0.847270  -1.796648
   11  C  1 YY    0.149388  -0.924421  -1.631037
   12  C  1 ZZ    0.274224  -0.992363  -1.545221
   13  C  1 XY    0.027312   0.112910  -0.166326
   14  C  1 XZ    0.045445   0.014742   0.026866
   15  C  1 YZ    0.008571  -0.022863   0.015069
   16  C  2  S    0.025359  -0.398222   0.247965
   17  C  2  S   -0.233425   2.532631  -1.533655
   18  C  2  X    0.021798  -0.171459  -0.069495
   19  C  2  Y    0.000419   0.133517  -0.229997
   20  C  2  Z   -0.014994  -0.015611   0.017919
   21  C  2  S   -2.198449   0.506722  -1.278866
   22  C  2  X   -0.645612  -0.185939   0.356694
   23  C  2  Y    1.164134   0.326706  -0.037907
   24  C  2  Z   -0.068293   0.020713   0.025887
   25  C  2 XX    0.229711  -1.650679   1.322110
   26  C  2 YY    0.059879  -1.642636   1.122718
   27  C  2 ZZ    0.229748  -1.459507   0.890321
   28  C  2 XY   -0.089782   0.118546   0.088234
   29  C  2 XZ    0.003999  -0.018915  -0.020123
   30  C  2 YZ    0.018795   0.011037  -0.020765
   31  O  3  S   -0.529175  -0.081098  -0.019800
   32  O  3  S   -0.202286  -0.074130   0.057820
   33  O  3  X    0.243621  -0.093129   0.093653
   34  O  3  Y   -0.096051   0.102922  -0.048683
   35  O  3  Z   -0.014221  -0.009556   0.003552
   36  O  3  S    5.712200   1.055756   0.050962
   37  O  3  X   -1.117032  -0.409581   0.177612
   38  O  3  Y    0.419207   0.189018  -0.195700
   39  O  3  Z    0.040518   0.002472   0.017720
   40  O  3 XX   -1.583177  -0.052026  -0.254004
   41  O  3 YY   -1.768217  -0.149809  -0.150696
   42  O  3 ZZ   -1.851210  -0.349262   0.006016
   43  O  3 XY   -0.052511  -0.198820   0.142767
   44  O  3 XZ   -0.030800  -0.000263  -0.011712
   45  O  3 YZ   -0.030350  -0.026242   0.006940
   46  H  4  S    0.064778   0.195382  -0.090472
   47  H  4  S   -0.214237  -0.396809   0.289382
   48  H  5  S    0.040410   0.133392   0.125917
   49  H  5  S    0.128604  -0.163024  -0.328828
   50  H  6  S   -0.084428   0.075340   0.064296
   51  H  6  S    0.085528  -0.337647  -0.395554
   52  H  7  S   -0.124274  -0.076284   0.011440
   53  H  7  S   -0.465336  -0.229695  -0.239420
 ...... END OF RHF CALCULATION ......
 STEP CPU TIME =     0.28 TOTAL CPU TIME =          0.4 (      0.0 MIN)
 TOTAL WALL CLOCK TIME=          0.4 SECONDS, CPU UTILIZATION IS    93.02%

     ----------------------------------------------------------------
     PROPERTY VALUES FOR THE RHF   SELF-CONSISTENT FIELD WAVEFUNCTION
     ----------------------------------------------------------------

          -----------------
          ENERGY COMPONENTS
          -----------------

         WAVEFUNCTION NORMALIZATION =       1.0000000000

                ONE ELECTRON ENERGY =    -349.0806088820
                TWO ELECTRON ENERGY =     124.8400476999
           NUCLEAR REPULSION ENERGY =      71.4722684821
                                      ------------------
                       TOTAL ENERGY =    -152.7682927000

 ELECTRON-ELECTRON POTENTIAL ENERGY =     124.8400476999
  NUCLEUS-ELECTRON POTENTIAL ENERGY =    -501.4532489805
   NUCLEUS-NUCLEUS POTENTIAL ENERGY =      71.4722684821
                                      ------------------
             TOTAL POTENTIAL ENERGY =    -305.1409327986
               TOTAL KINETIC ENERGY =     152.3726400986
                 VIRIAL RATIO (V/T) =       2.0025966118

          ---------------------------------------
          MULLIKEN AND LOWDIN POPULATION ANALYSES
          ---------------------------------------

     ATOMIC MULLIKEN POPULATION IN EACH MOLECULAR ORBITAL

                      1          2          3          4          5

                  2.000000   2.000000   2.000000   2.000000   2.000000

    1            -0.000002   0.000607   1.998194   0.061002   0.972694
    2            -0.000079   1.999537   0.000826   0.374612   0.597517
    3             2.000109  -0.000599  -0.000001   1.538079   0.232814
    4            -0.000001   0.000402  -0.000006  -0.000453   0.029013
    5             0.000000  -0.000005   0.000340   0.000524   0.083223
    6            -0.000000   0.000018   0.000495   0.000883   0.074092
    7            -0.000027   0.000040   0.000151   0.025353   0.010647

                      6          7          8          9         10

                  2.000000   2.000000   2.000000   2.000000   2.000000

    1             0.220321   0.539780   0.326623   0.542462   0.565473
    2             0.853081   0.270903   0.483145   0.378090   0.312930
    3             0.369976   0.798779   0.905445   0.732600   0.550707
    4             0.374901   0.046968   0.057236   0.022215   0.143263
    5             0.026227   0.232797   0.010952   0.232106   0.054276
    6             0.068353   0.062952   0.161223   0.091635   0.272584
    7             0.087140   0.047822   0.055376   0.000892   0.100766

                     11         12

                  2.000000   2.000000

    1             0.282998   1.268647
    2             0.216096   0.144793
    3             1.108775   0.399093
    4             0.105173   0.008457
    5             0.166269   0.008581
    6             0.024500   0.010752
    7             0.096188   0.159677

               ----- POPULATIONS IN EACH AO -----
                             MULLIKEN      LOWDIN
              1  C  1  S      1.99650     1.98078
              2  C  1  S      0.61500     0.35376
              3  C  1  X      0.70148     0.63499
              4  C  1  Y      0.65113     0.61121
              5  C  1  Z      0.68121     0.63352
              6  C  1  S      0.72102     0.36047
              7  C  1  X      0.34993     0.42359
              8  C  1  Y      0.45341     0.54654
              9  C  1  Z      0.54759     0.60454
             10  C  1 XX      0.02919     0.17747
             11  C  1 YY      0.00215     0.14146
             12  C  1 ZZ      0.00553     0.14445
             13  C  1 XY      0.01371     0.02260
             14  C  1 XZ      0.00493     0.00805
             15  C  1 YZ      0.00601     0.00845
             16  C  2  S      1.99681     1.97787
             17  C  2  S      0.71148     0.37088
             18  C  2  X      0.74461     0.65846
             19  C  2  Y      0.74643     0.66275
             20  C  2  Z      0.32521     0.28824
             21  C  2  S      0.43157     0.30334
             22  C  2  X      0.12344     0.28553
             23  C  2  Y      0.19592     0.37646
             24  C  2  Z      0.24832     0.31108
             25  C  2 XX      0.02920     0.19916
             26  C  2 YY      0.04551     0.20312
             27  C  2 ZZ     -0.02370     0.10222
             28  C  2 XY      0.03113     0.05620
             29  C  2 XZ      0.01832     0.03629
             30  C  2 YZ      0.00721     0.01139
             31  O  3  S      1.99562     1.97770
             32  O  3  S      0.91058     0.72755
             33  O  3  X      0.97437     0.93002
             34  O  3  Y      0.89136     0.84858
             35  O  3  Z      0.95482     0.92130
             36  O  3  S      0.97895     0.47345
             37  O  3  X      0.59243     0.62419
             38  O  3  Y      0.58185     0.63845
             39  O  3  Z      0.70851     0.71341
             40  O  3 XX      0.01625     0.18563
             41  O  3 YY      0.00929     0.18429
             42  O  3 ZZ     -0.00194     0.17445
             43  O  3 XY      0.01386     0.02024
             44  O  3 XZ      0.00752     0.00896
             45  O  3 YZ      0.00232     0.00265
             46  H  4  S      0.52677     0.48944
             47  H  4  S      0.26040     0.34395
             48  H  5  S      0.51370     0.47353
             49  H  5  S      0.30159     0.35821
             50  H  6  S      0.49639     0.46046
             51  H  6  S      0.27110     0.34197
             52  H  7  S      0.32043     0.28866
             53  H  7  S      0.26359     0.31803

          ----- MULLIKEN ATOMIC OVERLAP POPULATIONS -----
          (OFF-DIAGONAL ELEMENTS NEED TO BE MULTIPLIED BY 2)

             1           2           3           4           5

    1    5.6186865
    2    0.4440826   4.6205627
    3   -0.1972098   0.3597935   8.4343278
    4   -0.0396011   0.3739088  -0.0384134   0.4766371
    5    0.3761805  -0.0279288   0.0040015   0.0017259   0.4762794
    6    0.3791468  -0.0379684  -0.0040429   0.0013595  -0.0178490
    7    0.1975130  -0.1009977   0.0773203   0.0115519   0.0028813

             6           7

    6    0.4516495
    7   -0.0048089   0.4005654

          TOTAL MULLIKEN AND LOWDIN ATOMIC POPULATIONS
       ATOM         MULL.POP.    CHARGE          LOW.POP.     CHARGE
    1 C             6.778799   -0.778799         6.651873   -0.651873
    2 C             5.631453    0.368547         5.842993    0.157007
    3 O             8.635777   -0.635777         8.430870   -0.430870
    4 H             0.787169    0.212831         0.833396    0.166604
    5 H             0.815291    0.184709         0.831743    0.168257
    6 H             0.767487    0.232513         0.802432    0.197568
    7 H             0.584025    0.415975         0.606693    0.393307

          -------------------------------
          BOND ORDER AND VALENCE ANALYSIS     BOND ORDER THRESHOLD=0.050
          -------------------------------

                   BOND                       BOND                       BOND
  ATOM PAIR DIST  ORDER      ATOM PAIR DIST  ORDER      ATOM PAIR DIST  ORDER
    1   2  1.412  1.256        1   5  1.089  0.944        1   6  1.094  0.903
    1   7  1.524  0.446        2   3  1.285  1.389        2   4  1.095  0.912
    3   7  1.291  0.349

                       TOTAL       BONDED        FREE
      ATOM            VALENCE     VALENCE     VALENCE
    1 C                 3.583       3.583      -0.000
    2 C                 3.564       3.564      -0.000
    3 O                 1.804       1.804      -0.000
    4 H                 0.920       0.920       0.000
    5 H                 0.946       0.946       0.000
    6 H                 0.915       0.915       0.000
    7 H                 0.818       0.818       0.000

          ---------------------
          ELECTROSTATIC MOMENTS
          ---------------------

 POINT   1           X           Y           Z (BOHR)    CHARGE
                -0.000000    0.000000    0.000000       -0.00 (A.U.)
         DX          DY          DZ         /D/  (DEBYE)
    -1.269306    1.338803   -0.416123    1.891214
 ...... END OF PROPERTY EVALUATION ......
 STEP CPU TIME =     0.00 TOTAL CPU TIME =          0.4 (      0.0 MIN)
 TOTAL WALL CLOCK TIME=          0.4 SECONDS, CPU UTILIZATION IS    90.91%

 --------------------------   -----------------------------
 RHF-MP2 ENERGY CALCULATION   PROGRAM WRITTEN BY K.ISHIMURA
 --------------------------   -----------------------------
 NUMBER OF OCCUPIED ORBITALS            =   12
 NUMBER OF CORRELATED OCCUPIED ORBITALS =    9
 NUMBER OF VIRTUAL ORBITALS             =   41
 NUMBER OF BASIS FUNCTIONS              =   53
 NUMBER OF BASIS SHELLS                 =   20
 AO-TRANSFORMED INTEGRAL THRESHOLD      = 1.00E-09
 HALF-TRANSFORMED INTEGRAL THRESHOLD    = 3.06E-11
 TOTAL DISK REQUIRED (ALL PROCESSORS)=              0 MBYTES
                  DISK SPACE PER CORE=              0 MBYTES, USING P=    1
 MEMORY REQUIRED FOR TRANSFORMATION OF 1ST THREE INDICES=       53041
 MEMORY REQUIRED FOR    4TH INDEX TRANSF. AND MP2 ENERGY=      109571
 BEGINNING MP2 INTEGRAL TRANSFORMATION...
 BEGINNING    1ST SHELL LOOP...

 RESULTS OF MOLLER-PLESSET 2ND ORDER CORRECTION ARE
               E(0)=      -152.7682927000
               E(1)=         0.0
               E(2)=        -0.4572035712
             E(MP2)=      -153.2254962713
 SPIN-COMPONENT-SCALED MP2 RESULTS ARE
              E(2S)=        -0.3376821113
              E(2T)=        -0.1195214599
             E(2ST)=        -0.4450590202 = 6/5 * E(2S) + 1/3 * E(2T)
            SCS-MP2=      -153.2133517202
 ..... DONE WITH MP2 ENERGY .....
 STEP CPU TIME =     0.46 TOTAL CPU TIME =          0.9 (      0.0 MIN)
 TOTAL WALL CLOCK TIME=          0.9 SECONDS, CPU UTILIZATION IS    95.56%
                580000  WORDS OF DYNAMIC MEMORY USED
 EXECUTION OF GAMESS TERMINATED NORMALLY Thu Oct 17 16:53:14 2019
 DDI: 263640 bytes (0.3 MB / 0 MWords) used by master data server.

 ----------------------------------------
 CPU timing information for all processes
 ========================================
 0: 0.670 + 0.197 = 0.867
 ----------------------------------------
 ddikick.x: exited gracefully.
----- accounting info -----
Files used on the master node crcfe02.crc.nd.edu were:
-rw-r--r-- 1 cdrisko campus      419 Oct 17 16:53 /afs/crc.nd.edu/user/c/cdrisko/TS_MP2.F05
-rw-r--r-- 1 cdrisko campus    47277 Oct 17 16:53 /afs/crc.nd.edu/user/c/cdrisko/TS_MP2.F07
-rw-r--r-- 1 cdrisko campus 12061072 Oct 17 16:53 /afs/crc.nd.edu/user/c/cdrisko/TS_MP2.F08
-rw-r--r-- 1 cdrisko campus  1537840 Oct 17 16:53 /afs/crc.nd.edu/user/c/cdrisko/TS_MP2.F10
Thu Oct 17 16:53:17 EDT 2019
0.409u 0.206s 0:04.56 13.1%	0+0k 0+120io 0pf+0w
