----- GAMESS execution script 'rungms' -----
This job is running on host crcfe02.crc.nd.edu
under operating system Linux at Thu Oct 17 15:23:01 EDT 2019
Available scratch disk space (Kbyte units) at beginning of the job is
Filesystem      1K-blocks  Used  Available Use% Mounted on
AFS            2147483647     0 2147483647   0% /afs
GAMESS temporary binary files will be written to /afs/crc.nd.edu/user/c/cdrisko
GAMESS supplementary output files will be written to /afs/crc.nd.edu/user/c/cdrisko/scr
Copying input file TS_opt.inp to your run's scratch directory...

 Distributed Data Interface kickoff program.
 Initiating 1 compute processes on 1 nodes to run the following command:
 /afs/crc.nd.edu/x86_64_linux/g/gamess/nov-2017/gamess/gamess.00.x TS_opt 

          ******************************************************
          *         GAMESS VERSION = 11 NOV 2017 (R3)         *
          *             FROM IOWA STATE UNIVERSITY             *
          * M.W.SCHMIDT, K.K.BALDRIDGE, J.A.BOATZ, S.T.ELBERT, *
          *   M.S.GORDON, J.H.JENSEN, S.KOSEKI, N.MATSUNAGA,   *
          *          K.A.NGUYEN, S.J.SU, T.L.WINDUS,           *
          *       TOGETHER WITH M.DUPUIS, J.A.MONTGOMERY       *
          *         J.COMPUT.CHEM.  14, 1347-1363(1993)        *
          **************** 64 BIT INTEL VERSION ****************

  SINCE 1993, STUDENTS AND POSTDOCS WORKING AT IOWA STATE UNIVERSITY
  AND ALSO IN THEIR VARIOUS JOBS AFTER LEAVING ISU HAVE MADE IMPORTANT
  CONTRIBUTIONS TO THE CODE:
     IVANA ADAMOVIC, CHRISTINE AIKENS, YURI ALEXEEV, POOJA ARORA,
     ANDREY ASADCHEV, ROB BELL, PRADIPTA BANDYOPADHYAY, JONATHAN BENTZ,
     BRETT BODE, KURT BRORSEN, CALEB CARLIN, GALINA CHABAN, WEI CHEN,
     CHEOL HO CHOI, PAUL DAY, ALBERT DEFUSCO, NUWAN DESILVA, TIM DUDLEY,
     DMITRI FEDOROV, ALEX FINDLATER, GRAHAM FLETCHER, MARK FREITAG,
     KURT GLAESEMANN, ANASTASIA GUININA,
     DAN KEMP, GRANT MERRILL, NORIYUKI MINEZAWA, JONATHAN MULLIN,
     TAKESHI NAGATA, SEAN NEDD, HEATHER NETZLOFF, BOSILJKA NJEGIC, RYAN OLSON,
     MIKE PAK, BUU PHAM,
     SPENCER PRUITT, LUKE ROSKOP, JIM SHOEMAKER, LYUDMILA SLIPCHENKO,
     TONY SMITH, SAROM SOK LEANG, JIE SONG, TETSUYA TAKETSUGU, SIMON WEBB,
     PENG XU, SOOHAENG YOO, FEDERICO ZAHARIEV

  ADDITIONAL CODE HAS BEEN PROVIDED BY COLLABORATORS IN OTHER GROUPS:
     IOWA STATE UNIVERSITY:
          JOE IVANIC, AARON WEST, LAIMUTIS BYTAUTAS, KLAUS RUEDENBERG
     UNIVERSITY OF TOKYO: KIMIHIKO HIRAO, TAKAHITO NAKAJIMA,
          TAKAO TSUNEDA, MUNEAKI KAMIYA, SUSUMU YANAGISAWA,
          KIYOSHI YAGI, MAHITO CHIBA, SEIKEN TOKURA, NAOAKI KAWAKAMI
     UNIVERSITY OF AARHUS: FRANK JENSEN
     UNIVERSITY OF IOWA: VISVALDAS KAIRYS, HUI LI
     NATIONAL INST. OF STANDARDS AND TECHNOLOGY: WALT STEVENS, DAVID GARMER
     UNIVERSITY OF PISA: BENEDETTA MENNUCCI, JACOPO TOMASI
     UNIVERSITY OF MEMPHIS: HENRY KURTZ, PRAKASHAN KORAMBATH
     UNIVERSITY OF ALBERTA: TOBY ZENG, MARIUSZ KLOBUKOWSKI
     UNIVERSITY OF NEW ENGLAND: MARK SPACKMAN
     MIE UNIVERSITY: HIROAKI UMEDA
     NAT. INST. OF ADVANCED INDUSTRIAL SCIENCE AND TECHNOLOGY: KAZUO KITAURA
     MICHIGAN STATE UNIVERSITY:
          KAROL KOWALSKI, MARTA WLOCH, JEFFREY GOUR, JESSE LUTZ,
          WEI LI, PIOTR PIECUCH
     UNIVERSITY OF SILESIA: MONIKA MUSIAL, STANISLAW KUCHARSKI
     FACULTES UNIVERSITAIRES NOTRE-DAME DE LA PAIX:
          OLIVIER QUINET, BENOIT CHAMPAGNE
     UNIVERSITY OF CALIFORNIA - SANTA BARBARA: BERNARD KIRTMAN
     INSTITUTE FOR MOLECULAR SCIENCE:
          KAZUYA ISHIMURA, MICHIO KATOUDA, AND SHIGERU NAGASE
     UNIVERSITY OF NOTRE DAME: ANNA POMOGAEVA, DAN CHIPMAN
     KYUSHU UNIVERSITY:
          HARUYUKI NAKANO,
          FENG LONG GU, JACEK KORCHOWIEC, MARCIN MAKOWSKI, AND YURIKO AOKI,
          HIROTOSHI MORI AND EISAKU MIYOSHI
     PENNSYLVANIA STATE UNIVERSITY:
          TZVETELIN IORDANOV, CHET SWALINA, JONATHAN SKONE,
          SHARON HAMMES-SCHIFFER
     WASEDA UNIVERSITY:
          MASATO KOBAYASHI, TOMOKO AKAMA, TSUGUKI TOUMA,
          TAKESHI YOSHIKAWA, YASUHIRO IKABATA, JUNJI SEINO,
          YUYA NAKAJIMA, HIROMI NAKAI
     NANJING UNIVERSITY: SHUHUA LI
     UNIVERSITY OF NEBRASKA:
          PEIFENG SU, DEJUN SI, NANDUN THELLAMUREGE, YALI WANG, HUI LI
     UNIVERSITY OF ZURICH: ROBERTO PEVERATI, KIM BALDRIDGE
     N. COPERNICUS UNIVERSITY AND JACKSON STATE UNIVERSITY:
          MARIA BARYSZ
     UNIVERSITY OF COPENHAGEN: Jimmy Kromann, CASPER STEINMANN
     TOKYO INSTITUTE OF TECHNOLOGY: HIROYA NAKATA
     NAGOYA UNIVERSITY: YOSHIO NISHIMOTO, STEPHAN IRLE
     MOSCOW STATE UNIVERSITY: VLADIMIR MIRONOV

 EXECUTION OF GAMESS BEGUN Thu Oct 17 15:23:01 2019

            ECHO OF THE FIRST FEW INPUT CARDS -
 INPUT CARD> $CONTRL SCFTYP= RHF RUNTYP=SADPOINT DFTTYP=B3LYP                               
 INPUT CARD>       ICHARG=0 MULT=1 COORD=CART $END                                          
 INPUT CARD> $BASIS GBASIS=N31 NGAUSS=6 NDFUNC=1 $END                                       
 INPUT CARD> $STATPT HESS=CALC NSTEP=100 $END                                               
 INPUT CARD> $FORCE METHOD=SEMINUM $END                                                     
 INPUT CARD> $DATA                                                                          
 INPUT CARD>C2H4O                                                                           
 INPUT CARD>C1 1                                                                            
 INPUT CARD>C 6 0.00000000 0.00000000 0.00000000                                            
 INPUT CARD>C 6 -1.29085602 0.54193240 0.00001049                                           
 INPUT CARD>O 8 -2.36184357 -0.14062579 -0.00000470                                         
 INPUT CARD>H 1 -1.32975640 1.65583381 0.00003173                                           
 INPUT CARD>H 1 -1.01036981 -1.08131030 -0.24478743                                         
 INPUT CARD>H 1 0.60846530 0.48702538 -0.77403214                                           
 INPUT CARD>H 1 0.49018242 0.20473425 0.96140699                                            
 INPUT CARD> $END                                                                           
    1000000 WORDS OF MEMORY AVAILABLE


                    * * * WARNING * * *
 OLD KEYWORD COORD=CART SELECTED, AUTOMATICALLY CHANGED TO COORD=PRINAXIS.
 YOUR MOLECULE'S COORDINATES WILL BE CHANGED TO PRINCIPAL AXES BY
   A) TRANSLATION TO THE CENTER OF MASS, THEN
   B) ROTATION TO HAVE A DIAGONAL MOMENT OF INERTIA TENSOR.

 HOWEVER, NOTHING ELSE IN YOUR INPUT WILL BE ROTATED IN THE SAME WAY,
 SO IF YOU HAVE A $VEC, $VIB, $GRAD, $HESS, EFP PARTICLE COORDINATES,
 OR ANYTHING ELSE THAT DEPENDS ON THE INITIAL ORIENTATION, THAT DATA
 WILL NOT BE USED CORRECTLY IN THIS RUN.

 THE PURPOSE OF COORD=PRINAXIS IS TO BE USED ONCE, ONLY AT THE VERY
 BEGINNING OF A SERIES OF COMPUTATIONS, PERHAPS TO FIND THE SYMMETRY
 UNIQUE ATOMS FROM AN ARBITRARY INITIAL ORIENTATION.

 AFTER THE FIRST RUN, YOU SHOULD USE ONLY COORD=UNIQUE, TO ENSURE THAT
 THE COORDINATES WHICH YOU READ IN ARE THE COORDINATES THAT ARE USED.


     BASIS OPTIONS
     -------------
     GBASIS=N31          IGAUSS=       6      POLAR=POPN31  
     NDFUNC=       1     NFFUNC=       0     DIFFSP=       F
     NPFUNC=       0      DIFFS=       F     BASNAM=        


     RUN TITLE
     ---------
 C2H4O                                                                           

 THE POINT GROUP OF THE MOLECULE IS C1      
 THE ORDER OF THE PRINCIPAL AXIS IS     1

 THE MOMENTS OF INERTIA ARE (AMU-ANGSTROM**2)
 IXX=     8.719   IYY=    46.973   IZZ=    52.505

 ATOM      ATOMIC                      COORDINATES (BOHR)
           CHARGE         X                   Y                   Z
 C           6.0     2.3136312781       -0.4237202554       -0.0013047740
 C           6.0    -0.0360461250        0.7921127535       -0.0085302636
 O           8.0    -2.1565264960       -0.3315946358        0.0162563736
 H           1.0     0.0589349776        2.8960069684       -0.0385925782
 H           1.0     0.2451498565       -2.3141619642       -0.4285160354
 H           1.0     3.5271661728        0.3809668076       -1.4806551825
 H           1.0     3.2755635484       -0.0865521654        1.8068675269

          INTERNUCLEAR DISTANCES (ANGS.)
          ------------------------------

                1 C          2 C          3 O          4 H          5 H     

   1 C       0.0000000    1.4000000 *  2.3660263 *  2.1236849 *  1.5000000 *
   2 C       1.4000000 *  0.0000000    1.2700000 *  1.1145805 *  1.6653875 *
   3 O       2.3660263 *  1.2700000 *  0.0000000    2.0718279 *  1.6647184 *
   4 H       2.1236849 *  1.1145805 *  2.0718279 *  0.0000000    2.7665686 *
   5 H       1.5000000 *  1.6653875 *  1.6647184 *  2.7665686 *  0.0000000  
   6 H       1.0984305 *  2.0517257 *  3.1330176    2.3920684 *  2.3152546 *
   7 H       1.0984072 *  2.0518489 *  3.0294617    2.5183545 *  2.3152694 *

                6 H          7 H     

   1 C       1.0984305 *  1.0984072 *
   2 C       2.0517257 *  2.0518489 *
   3 O       3.1330176    3.0294617  
   4 H       2.3920684 *  2.5183545 *
   5 H       2.3152546 *  2.3152694 *
   6 H       0.0000000    1.7622225 *
   7 H       1.7622225 *  0.0000000  

  * ... LESS THAN  3.000


     ATOMIC BASIS SET
     ----------------
 THE CONTRACTED PRIMITIVE FUNCTIONS HAVE BEEN UNNORMALIZED
 THE CONTRACTED BASIS FUNCTIONS ARE NOW NORMALIZED TO UNITY

  SHELL TYPE  PRIMITIVE        EXPONENT          CONTRACTION COEFFICIENT(S)

 C         

      1   S       1          3047.5248800    0.001834737132
      1   S       2           457.3695180    0.014037322813
      1   S       3           103.9486850    0.068842622264
      1   S       4            29.2101553    0.232184443216
      1   S       5             9.2866630    0.467941348435
      1   S       6             3.1639270    0.362311985337

      2   L       7             7.8682723   -0.119332419775    0.068999066591
      2   L       8             1.8812885   -0.160854151696    0.316423960957
      2   L       9             0.5442493    1.143456437840    0.744308290898

      3   L      10             0.1687145    1.000000000000    1.000000000000

      4   D      11             0.8000000    1.000000000000

 C         

      5   S      12          3047.5248800    0.001834737132
      5   S      13           457.3695180    0.014037322813
      5   S      14           103.9486850    0.068842622264
      5   S      15            29.2101553    0.232184443216
      5   S      16             9.2866630    0.467941348435
      5   S      17             3.1639270    0.362311985337

      6   L      18             7.8682723   -0.119332419775    0.068999066591
      6   L      19             1.8812885   -0.160854151696    0.316423960957
      6   L      20             0.5442493    1.143456437840    0.744308290898

      7   L      21             0.1687145    1.000000000000    1.000000000000

      8   D      22             0.8000000    1.000000000000

 O         

      9   S      23          5484.6716600    0.001831074430
      9   S      24           825.2349460    0.013950172200
      9   S      25           188.0469580    0.068445078098
      9   S      26            52.9645000    0.232714335992
      9   S      27            16.8975704    0.470192897984
      9   S      28             5.7996353    0.358520852987

     10   L      29            15.5396162   -0.110777549525    0.070874268231
     10   L      30             3.5999336   -0.148026262701    0.339752839147
     10   L      31             1.0137618    1.130767015354    0.727158577316

     11   L      32             0.2700058    1.000000000000    1.000000000000

     12   D      33             0.8000000    1.000000000000

 H         

     13   S      34            18.7311370    0.033494604338
     13   S      35             2.8253944    0.234726953484
     13   S      36             0.6401217    0.813757326146

     14   S      37             0.1612778    1.000000000000

 H         

     15   S      38            18.7311370    0.033494604338
     15   S      39             2.8253944    0.234726953484
     15   S      40             0.6401217    0.813757326146

     16   S      41             0.1612778    1.000000000000

 H         

     17   S      42            18.7311370    0.033494604338
     17   S      43             2.8253944    0.234726953484
     17   S      44             0.6401217    0.813757326146

     18   S      45             0.1612778    1.000000000000

 H         

     19   S      46            18.7311370    0.033494604338
     19   S      47             2.8253944    0.234726953484
     19   S      48             0.6401217    0.813757326146

     20   S      49             0.1612778    1.000000000000

 TOTAL NUMBER OF BASIS SET SHELLS             =   20
 NUMBER OF CARTESIAN GAUSSIAN BASIS FUNCTIONS =   53
 NUMBER OF ELECTRONS                          =   24
 CHARGE OF MOLECULE                           =    0
 SPIN MULTIPLICITY                            =    1
 NUMBER OF OCCUPIED ORBITALS (ALPHA)          =   12
 NUMBER OF OCCUPIED ORBITALS (BETA )          =   12
 TOTAL NUMBER OF ATOMS                        =    7
 THE NUCLEAR REPULSION ENERGY IS       70.3013789826

     LEBEDEV GRID-BASED DFT OPTIONS
     ------------------------------
     DFTTYP=B3LYP   
     NRAD  =      96     NLEB  =     302
     NRAD0 =      24     NLEB0 =     110
     SWOFF =    5.00E-03 (PURE SCF -> DFT)
     SWITCH=    3.00E-04 (COARSE -> TIGHT GRID)
     THRESH=    0.00E+00 GTHRE=    1.00E+00

 GRIMME'S EMPIRICAL DISPERSION CORRECTION= F

     $CONTRL OPTIONS
     ---------------
 SCFTYP=RHF          RUNTYP=SADPOINT     EXETYP=RUN     
 MPLEVL=       0     CITYP =NONE         CCTYP =NONE         VBTYP =NONE    
 DFTTYP=B3LYP        TDDFT =NONE    
 MULT  =       1     ICHARG=       0     NZVAR =       0     COORD =PRINAXIS
 PP    =NONE         RELWFN=NONE         LOCAL =NONE         NUMGRD=       F
 ISPHER=      -1     NOSYM =       0     MAXIT =      30     UNITS =ANGS    
 PLTORB=       F     MOLPLT=       F     AIMPAC=       F     FRIEND=        
 NPRINT=       7     IREST =       0     GEOM  =INPUT   
 NORMF =       0     NORMP =       0     ITOL  =      20     ICUT  =       9
 INTTYP=BEST         GRDTYP=BEST         QMTTOL= 1.0E-06

     $SYSTEM OPTIONS
     ---------------
  REPLICATED MEMORY=     1000000 WORDS (ON EVERY NODE).
 DISTRIBUTED MEMDDI=           0 MILLION WORDS IN AGGREGATE,
 MEMDDI DISTRIBUTED OVER   1 PROCESSORS IS           0 WORDS/PROCESSOR.
 TOTAL MEMORY REQUESTED ON EACH PROCESSOR=     1000000 WORDS.
 TIMLIM=      525600.00 MINUTES, OR     365.0 DAYS.
 PARALL= F  BALTYP=  DLB     KDIAG=    0  COREFL= F
 MXSEQ2=     300 MXSEQ3=     150  mem10=         0

          ----------------
          PROPERTIES INPUT
          ----------------

     MOMENTS            FIELD           POTENTIAL          DENSITY
 IEMOM =       1   IEFLD =       0   IEPOT =       0   IEDEN =       0
 WHERE =COMASS     WHERE =NUCLEI     WHERE =NUCLEI     WHERE =NUCLEI  
 OUTPUT=BOTH       OUTPUT=BOTH       OUTPUT=BOTH       OUTPUT=BOTH    
 IEMINT=       0   IEFINT=       0                     IEDINT=       0
                                                       MORB  =       0
          EXTRAPOLATION IN EFFECT
          DIIS IN EFFECT
 ORBITAL PRINTING OPTION: NPREO=     1    53     2     1

     -------------------------------
     INTEGRAL TRANSFORMATION OPTIONS
     -------------------------------
     NWORD  =            0
     CUTOFF = 1.0E-09     MPTRAN =       0
     DIRTRF =       F     AOINTS =DUP     

          ----------------------
          INTEGRAL INPUT OPTIONS
          ----------------------
 NOPK  =       1 NORDER=       0 SCHWRZ=       T

     ------------------------------------------
     THE POINT GROUP IS C1 , NAXIS= 1, ORDER= 1
     ------------------------------------------

     DIMENSIONS OF THE SYMMETRY SUBSPACES ARE
 A   =   53

 ..... DONE SETTING UP THE RUN .....
 STEP CPU TIME =     0.01 TOTAL CPU TIME =          0.0 (      0.0 MIN)
 TOTAL WALL CLOCK TIME=          0.0 SECONDS, CPU UTILIZATION IS    50.00%


          -----------------------------
          STATIONARY POINT LOCATION RUN
          -----------------------------

 OBTAINING INITIAL HESSIAN, HESS=CALC    

     ---------------------------------
     HESSIAN MATRIX CONTROL PARAMETERS
     ---------------------------------
     METHOD=SEMINUM    NVIB  =       2   VIBSIZ= 0.01000
     RDHESS=       F   PURIFY=       F   PRTIFC=       F
     VIBANL=       F   DECOMP=       F   PROJCT=       F
     SCLFAC= 1.00000   PRTSCN=       F   NPRT  =       0
     PULCOR=       F   NPUN  =       0   REDOVB=       T
     HSSTYP=GENERAL 

               * * * EFFICIENCY NOTE * * *
 THIS CALCULATION CAN BE RUN WITH DIFFERENTIATION METHOD=ANALYTIC
 THIS MIGHT BE MORE ACCURATE AND/OR FASTER THAN YOUR CHOICE,
 BUT THE REQUESTED CALCULATION METHOD=SEMINUM  IS PROCEEDING.

1   ATOM  0
                                        -------------------
   COORD  0                             NUCLEAR COORDINATES
                                        -------------------
     VIB  0

                       ATOM             X              Y              Z

                 1  C                2.313631      -0.423720      -0.001305
                 2  C               -0.036046       0.792113      -0.008530
                 3  O               -2.156526      -0.331595       0.016256
                 4  H                0.058935       2.896007      -0.038593
                 5  H                0.245150      -2.314162      -0.428516
                 6  H                3.527166       0.380967      -1.480655
                 7  H                3.275564      -0.086552       1.806868

          ********************
          1 ELECTRON INTEGRALS
          ********************
 ...... END OF ONE-ELECTRON INTEGRALS ......
 STEP CPU TIME =     0.01 TOTAL CPU TIME =          0.0 (      0.0 MIN)
 TOTAL WALL CLOCK TIME=          0.0 SECONDS, CPU UTILIZATION IS   100.00%

          -------------
          GUESS OPTIONS
          -------------
          GUESS =HUCKEL            NORB  =       0          NORDER=       0
          MIX   =       F          PRTMO =       F          PUNMO =       F
          TOLZ  = 1.0E-08          TOLE  = 1.0E-05
          SYMDEN=       F          PURIFY=       F

 INITIAL GUESS ORBITALS GENERATED BY HUCKEL   ROUTINE.
 HUCKEL GUESS REQUIRES     27154 WORDS.

 SYMMETRIES FOR INITIAL GUESS ORBITALS FOLLOW.   BOTH SET(S).
    12 ORBITALS ARE OCCUPIED (    3 CORE ORBITALS).
     4=A        5=A        6=A        7=A        8=A        9=A       10=A   
    11=A       12=A       13=A       14=A       15=A       16=A       17=A   
    18=A       19=A       20=A       21=A       22=A   
 ...... END OF INITIAL ORBITAL SELECTION ......
 STEP CPU TIME =     0.00 TOTAL CPU TIME =          0.0 (      0.0 MIN)
 TOTAL WALL CLOCK TIME=          0.0 SECONDS, CPU UTILIZATION IS   100.00%

                    ----------------------
                    AO INTEGRAL TECHNOLOGY
                    ----------------------
     S,P,L SHELL ROTATED AXIS INTEGRALS, REPROGRAMMED BY
        KAZUYA ISHIMURA (IMS) AND JOSE SIERRA (SYNSTAR).
     S,P,D,L SHELL ROTATED AXIS INTEGRALS PROGRAMMED BY
        KAZUYA ISHIMURA (INSTITUTE FOR MOLECULAR SCIENCE).
     S,P,D,F,G SHELL TO TOTAL QUARTET ANGULAR MOMENTUM SUM 5,
        ERIC PROGRAM BY GRAHAM FLETCHER (ELORET AND NASA ADVANCED
        SUPERCOMPUTING DIVISION, AMES RESEARCH CENTER).
     S,P,D,F,G,L SHELL GENERAL RYS QUADRATURE PROGRAMMED BY
        MICHEL DUPUIS (PACIFIC NORTHWEST NATIONAL LABORATORY).

          --------------------
          2 ELECTRON INTEGRALS
          --------------------

 THE -PK- OPTION IS OFF, THE INTEGRALS ARE NOT IN SUPERMATRIX FORM.
 STORING   15000 INTEGRALS/RECORD ON DISK, USING 12 BYTES/INTEGRAL.
 TWO ELECTRON INTEGRAL EVALUATION REQUIRES   90606 WORDS OF MEMORY.
 SCHWARZ INEQUALITY OVERHEAD:      1430 INTEGRALS, T=        0.00
 II,JST,KST,LST =  1  1  1  1 NREC =         1 INTLOC =    1
 II,JST,KST,LST =  2  1  1  1 NREC =         1 INTLOC =    2
 II,JST,KST,LST =  3  1  1  1 NREC =         1 INTLOC =   34
 II,JST,KST,LST =  4  1  1  1 NREC =         1 INTLOC =  214
 II,JST,KST,LST =  5  1  1  1 NREC =         1 INTLOC = 1189
 II,JST,KST,LST =  6  1  1  1 NREC =         1 INTLOC = 3206
 II,JST,KST,LST =  7  1  1  1 NREC =         2 INTLOC =  952
 II,JST,KST,LST =  8  1  1  1 NREC =         3 INTLOC = 8199
 II,JST,KST,LST =  9  1  1  1 NREC =         7 INTLOC = 6107
 II,JST,KST,LST = 10  1  1  1 NREC =         8 INTLOC = 3344
 II,JST,KST,LST = 11  1  1  1 NREC =        13 INTLOC =  586
 II,JST,KST,LST = 12  1  1  1 NREC =        19 INTLOC =14189
 II,JST,KST,LST = 13  1  1  1 NREC =        34 INTLOC = 8789
 II,JST,KST,LST = 14  1  1  1 NREC =        37 INTLOC =11658
 II,JST,KST,LST = 15  1  1  1 NREC =        41 INTLOC = 3173
 II,JST,KST,LST = 16  1  1  1 NREC =        44 INTLOC =13032
 II,JST,KST,LST = 17  1  1  1 NREC =        48 INTLOC =11592
 II,JST,KST,LST = 18  1  1  1 NREC =        52 INTLOC =11076
 II,JST,KST,LST = 19  1  1  1 NREC =        57 INTLOC = 1864
 II,JST,KST,LST = 20  1  1  1 NREC =        61 INTLOC = 8933
 SCHWARZ INEQUALITY TEST SKIPPED         698 INTEGRAL BLOCKS.
 TOTAL NUMBER OF NONZERO TWO-ELECTRON INTEGRALS =              982753
         66 INTEGRAL RECORDS WERE STORED ON DISK FILE  8.
  ...... END OF TWO-ELECTRON INTEGRALS .....
 STEP CPU TIME =     0.10 TOTAL CPU TIME =          0.1 (      0.0 MIN)
 TOTAL WALL CLOCK TIME=          0.1 SECONDS, CPU UTILIZATION IS    92.31%

          --------------------------
             R-B3LYP SCF CALCULATION
          --------------------------

     NUCLEAR ENERGY =        70.3013789826
     MAXIT =   30     NPUNCH=    2
     EXTRAP=T  DAMP=F  SHIFT=F  RSTRCT=F  DIIS=T  DEM=F  SOSCF=F
         DENSITY MATRIX CONVERGENCE THRESHOLD=  1.00E-05
     COARSE -> FINE DFT GRID SWITCH THRESHOLD=  3.00E-04 (SWITCH IN $DFT)
                   HF -> DFT SWITCH THRESHOLD=  5.00E-03 (SWOFF IN $DFT)
     MEMORY REQUIRED FOR RHF ITERS=    307447 WORDS.

 DFT CODE IS SWITCHING FROM THE FINE GRID NRAD= 96,  NLEB=  302
                      TO THE COARSE GRID NRAD0= 24, NLEB0=  110

     EXCHANGE FUNCTIONAL   =B88&HFX   
     CORRELATION FUNCTIONAL=LYP88&VWN5
     DFT THRESHOLD         =.197E-07
     GRID CHANGE THRESHOLD =.300E-03
 FOR AN EULER-MACLAURIN QUADRATURE USING  96 RADIAL POINTS:
 SMALLEST GAUSSIAN PRIMITIVE EXPONENT=        0.1612777588 OF TYPE -S-
 ON ATOM NUMBER   4 HAS RADIAL NORMALIZATION=  1.000000
  LARGEST GAUSSIAN PRIMITIVE EXPONENT=     5484.6716600000 OF TYPE -S-
 ON ATOM NUMBER   3 HAS RADIAL NORMALIZATION=  1.000000
 DFT IS SWITCHED OFF, PERFORMING PURE SCF UNTIL SWOFF THRESHOLD IS REACHED.

 ITER EX DEM     TOTAL ENERGY        E CHANGE  DENSITY CHANGE    DIIS ERROR
   1  0  0     -152.2553002051  -152.2553002051   0.394699110   0.557923199
          * * *   INITIATING DIIS PROCEDURE   * * *
   2  1  0     -152.6904666871    -0.4351664820   0.190940968   0.153552551
   3  2  0     -152.7265880715    -0.0361213844   0.102307158   0.113776372
   4  3  0     -152.7746553535    -0.0480672820   0.015159472   0.010570285
   5  4  0     -152.7756642326    -0.0010088791   0.009408877   0.004633879
   6  5  0     -152.7758383574    -0.0001741247   0.002841363   0.001267717
 CONVERGED TO SWOFF, SO DFT CALCULATION IS NOW SWITCHED ON.
          * * *   INITIATING DIIS PROCEDURE   * * *
   7  6  0     -153.6111595474    -0.8353211901   0.120926689   0.078654861
   8  7  0     -153.6239778536    -0.0128183062   0.090549349   0.047944567
   9  8  0     -153.6146166251     0.0093612285   0.066759939   0.072698301
  10  9  0     -153.6303589995    -0.0157423743   0.008385248   0.009377205
  11 10  0     -153.6306921148    -0.0003331153   0.001539414   0.000853537
  12 11  0     -153.6306957402    -0.0000036254   0.000214955   0.000170297
 DFT CODE IS SWITCHING BACK TO THE FINE GRID
          * * *   INITIATING DIIS PROCEDURE   * * *
  13 12  0     -153.6305602189     0.0001355212   0.003309611   0.001296899
  14 13  0     -153.6305666671    -0.0000064482   0.002021857   0.000823265
  15 14  0     -153.6305632064     0.0000034607   0.001259698   0.001297802
  16 15  0     -153.6305689490    -0.0000057426   0.000099233   0.000104029
  17 16  0     -153.6305689885    -0.0000000395   0.000018544   0.000019454
  18 17  0     -153.6305689901    -0.0000000016   0.000010343   0.000005437
  19 18  0     -153.6305689902    -0.0000000001   0.000001964   0.000001398
  20 19  0     -153.6305689902    -0.0000000000   0.000000413   0.000000313

          -----------------
          DENSITY CONVERGED
          -----------------
     TIME TO FORM FOCK OPERATORS=       5.9 SECONDS (       0.3 SEC/ITER)
     TIME TO SOLVE SCF EQUATIONS=       0.1 SECONDS (       0.0 SEC/ITER)

 FINAL R-B3LYP ENERGY IS     -153.6305689902 AFTER  20 ITERATIONS
 DFT EXCHANGE + CORRELATION ENERGY =       -16.7367102859
 TOTAL ELECTRON NUMBER             =        23.9999913221

          ------------
          EIGENVECTORS
          ------------

                      1          2          3          4          5
                  -19.1699   -10.2905   -10.2002    -1.0422    -0.7719
                     A          A          A          A          A   
    1  C  1  S    0.000002   0.002740   0.992860  -0.024647  -0.168604
    2  C  1  S    0.000053  -0.000147   0.049906   0.045765   0.316920
    3  C  1  X    0.000001   0.000393  -0.000205  -0.036731  -0.070570
    4  C  1  Y    0.000071  -0.000186   0.000695   0.009302   0.090656
    5  C  1  Z    0.000020   0.000015   0.000088   0.000082   0.005592
    6  C  1  S   -0.000196   0.003665  -0.016750   0.019279   0.284568
    7  C  1  X   -0.000306  -0.001668   0.001442  -0.006573  -0.013932
    8  C  1  Y   -0.000570   0.001170  -0.002498  -0.006724   0.023621
    9  C  1  Z   -0.000100  -0.000079  -0.000167  -0.000139   0.000821
   10  C  1 XX   -0.000018  -0.000373  -0.009098   0.007689   0.004122
   11  C  1 YY    0.000002  -0.000207  -0.009377  -0.002000  -0.007543
   12  C  1 ZZ   -0.000017  -0.000060  -0.009243  -0.001582  -0.001776
   13  C  1 XY   -0.000009   0.000107  -0.000056  -0.002152  -0.001381
   14  C  1 XZ    0.000008  -0.000011   0.000006   0.000207   0.000757
   15  C  1 YZ    0.000009  -0.000010  -0.000020   0.000079  -0.001177
   16  C  2  S    0.000006   0.992818  -0.003059  -0.114355  -0.102217
   17  C  2  S    0.000547   0.048665  -0.000510   0.219692   0.207642
   18  C  2  X   -0.000155  -0.000598  -0.000216  -0.134038   0.219835
   19  C  2  Y   -0.000075  -0.000616   0.000126  -0.087817  -0.014078
   20  C  2  Z    0.000009  -0.000049  -0.000014   0.000617  -0.001980
   21  C  2  S   -0.002374  -0.010125   0.005110   0.084167   0.142201
   22  C  2  X    0.001957  -0.002723   0.003387   0.019542   0.037815
   23  C  2  Y    0.001166  -0.000155  -0.000195   0.012404   0.004566
   24  C  2  Z   -0.000017   0.000061   0.000075  -0.000921  -0.001303
   25  C  2 XX   -0.000412  -0.008595  -0.000432   0.012027  -0.003725
   26  C  2 YY   -0.000175  -0.009212  -0.000145  -0.004231   0.003199
   27  C  2 ZZ   -0.000035  -0.009686  -0.000089  -0.018516  -0.008610
   28  C  2 XY   -0.000240   0.000333   0.000129   0.018780  -0.016166
   29  C  2 XZ    0.000007  -0.000006   0.000015  -0.000412   0.000120
   30  C  2 YZ    0.000004  -0.000010  -0.000007   0.000263   0.000456
   31  O  3  S    0.992810  -0.000097  -0.000041  -0.193363   0.072104
   32  O  3  S    0.025756   0.000249  -0.000236   0.423797  -0.165803
   33  O  3  X    0.000859  -0.000093   0.000003   0.136820   0.019823
   34  O  3  Y    0.000411  -0.000048  -0.000067   0.061082  -0.017680
   35  O  3  Z    0.000014  -0.000002  -0.000012  -0.002248  -0.000683
   36  O  3  S    0.012442  -0.001484   0.001250   0.407895  -0.179100
   37  O  3  X    0.001088  -0.001280   0.000240   0.059919   0.015004
   38  O  3  Y    0.000447  -0.000842   0.000618   0.018543  -0.002942
   39  O  3  Z   -0.000047   0.000034   0.000040  -0.002072  -0.000247
   40  O  3 XX   -0.007715  -0.000353  -0.000002   0.008134   0.006775
   41  O  3 YY   -0.007896  -0.000015  -0.000094  -0.005846   0.000295
   42  O  3 ZZ   -0.008000   0.000366  -0.000170  -0.007869  -0.000642
   43  O  3 XY    0.000119  -0.000381   0.000088   0.007545   0.000540
   44  O  3 XZ   -0.000011   0.000019   0.000013  -0.000757  -0.000117
   45  O  3 YZ    0.000004   0.000004  -0.000020   0.000349   0.000014
   46  H  4  S    0.000021  -0.000278  -0.000231   0.027838   0.062700
   47  H  4  S   -0.000258   0.002014  -0.000220  -0.008337   0.012428
   48  H  5  S    0.000006   0.000036   0.000037   0.033769   0.052701
   49  H  5  S   -0.000486   0.000359   0.001333   0.002402   0.007718
   50  H  6  S    0.000032  -0.000127  -0.000064   0.007267   0.101962
   51  H  6  S    0.000060   0.000274   0.002747  -0.000499   0.017510
   52  H  7  S    0.000020  -0.000134  -0.000087   0.007506   0.101626
   53  H  7  S    0.000151   0.000407   0.002709   0.000187   0.018110

                      6          7          8          9         10
                   -0.5710    -0.5139    -0.4543    -0.4332    -0.3588
                     A          A          A          A          A   
    1  C  1  S    0.084641  -0.034826  -0.000718  -0.018366   0.000289
    2  C  1  S   -0.166618   0.069561   0.000877   0.035784  -0.001011
    3  C  1  X   -0.094292   0.306592   0.004359   0.210411  -0.004362
    4  C  1  Y    0.051683   0.081365  -0.044231  -0.063375   0.071509
    5  C  1  Z   -0.015950   0.029088   0.368514  -0.071531  -0.226389
    6  C  1  S   -0.207985   0.101891   0.007930   0.054111   0.001897
    7  C  1  X   -0.023615   0.107588  -0.002913   0.078671  -0.012125
    8  C  1  Y    0.005702   0.057695  -0.019981  -0.036447   0.027780
    9  C  1  Z   -0.005688   0.015856   0.154601  -0.035652  -0.095288
   10  C  1 XX    0.001569  -0.013304  -0.001544   0.001289   0.002722
   11  C  1 YY    0.010469  -0.000221  -0.005537  -0.007301   0.001988
   12  C  1 ZZ   -0.007029   0.015171   0.007294   0.008010  -0.005530
   13  C  1 XY   -0.015124   0.006266  -0.002306   0.013519   0.000503
   14  C  1 XZ   -0.001212  -0.001662   0.007773  -0.001318  -0.019103
   15  C  1 YZ    0.000585  -0.002558   0.018502  -0.005456  -0.009165
   16  C  2  S   -0.124189   0.044153  -0.008206  -0.004446  -0.003535
   17  C  2  S    0.269188  -0.098888   0.022791   0.023532   0.011219
   18  C  2  X   -0.041187  -0.068967  -0.069503  -0.348655   0.016921
   19  C  2  Y    0.253233   0.278729  -0.036985  -0.115181  -0.048562
   20  C  2  Z   -0.005122   0.021203   0.245097  -0.056991   0.233596
   21  C  2  S    0.278219  -0.088348   0.013927   0.000873  -0.007488
   22  C  2  X    0.021679  -0.036081  -0.021157  -0.091288   0.015277
   23  C  2  Y    0.097257   0.101888  -0.010034  -0.043259  -0.008083
   24  C  2  Z   -0.002328   0.009881   0.130807  -0.033622   0.151874
   25  C  2 XX   -0.014366   0.015286   0.000854   0.011072   0.003321
   26  C  2 YY    0.006880  -0.005661  -0.002583  -0.011315  -0.005567
   27  C  2 ZZ   -0.009724   0.005705  -0.001006  -0.004107  -0.000637
   28  C  2 XY    0.001123   0.003486   0.001499   0.012284   0.001737
   29  C  2 XZ   -0.000421   0.000069   0.003769  -0.000098  -0.029280
   30  C  2 YZ   -0.000655  -0.002843  -0.010762   0.002509  -0.010248
   31  O  3  S    0.059189  -0.056004   0.018672   0.066330  -0.001527
   32  O  3  S   -0.132801   0.129291  -0.035880  -0.124184   0.002762
   33  O  3  X    0.070404  -0.231098   0.095107   0.373540   0.033970
   34  O  3  Y    0.172054   0.097690   0.062982   0.272224   0.006864
   35  O  3  Z   -0.000103   0.021854   0.199419  -0.059754   0.477788
   36  O  3  S   -0.191937   0.201325  -0.089337  -0.330048   0.015739
   37  O  3  X    0.034154  -0.128495   0.045939   0.182974   0.024538
   38  O  3  Y    0.088038   0.057344   0.030962   0.145609   0.005150
   39  O  3  Z    0.000314   0.013430   0.114695  -0.034803   0.319396
   40  O  3 XX    0.003875  -0.022480   0.006701   0.022852   0.001903
   41  O  3 YY    0.008733   0.005860   0.002338   0.010828  -0.002269
   42  O  3 ZZ    0.000032   0.004102   0.000654   0.004297  -0.001643
   43  O  3 XY    0.014684   0.004933   0.003796   0.014462   0.001052
   44  O  3 XZ    0.000176   0.002270   0.014137  -0.003968   0.025762
   45  O  3 YZ   -0.000571  -0.000163   0.005154  -0.001796   0.010917
   46  H  4  S    0.220631   0.092228  -0.016028  -0.071224  -0.033467
   47  H  4  S    0.105683   0.062066  -0.015701  -0.058773  -0.036878
   48  H  5  S   -0.066657  -0.129335  -0.022311  -0.014817  -0.032735
   49  H  5  S   -0.052395  -0.060900  -0.028776  -0.039148  -0.048874
   50  H  6  S   -0.084053   0.136915  -0.170829   0.120712   0.142456
   51  H  6  S   -0.039506   0.086789  -0.129425   0.097515   0.152321
   52  H  7  S   -0.097795   0.132563   0.197398   0.040401  -0.149834
   53  H  7  S   -0.047928   0.081068   0.149855   0.036209  -0.155984

                     11         12         13         14         15
                   -0.2948    -0.2755    -0.0453     0.0295     0.1150
                     A          A          A          A          A   
    1  C  1  S    0.009810  -0.054077   0.000133   0.082853  -0.069445
    2  C  1  S   -0.023538   0.093595  -0.002352  -0.170477   0.084983
    3  C  1  X    0.161529  -0.139793  -0.002630   0.001011   0.237638
    4  C  1  Y   -0.286914  -0.288456   0.007166   0.328188   0.140375
    5  C  1  Z   -0.033933  -0.046794  -0.027111   0.041154  -0.020973
    6  C  1  S   -0.102627   0.344436   0.029394  -0.588589   1.292244
    7  C  1  X    0.096648  -0.143686   0.004268  -0.103046   0.597464
    8  C  1  Y   -0.195464  -0.211443   0.018146   0.521542   0.329967
    9  C  1  Z   -0.017132  -0.053817   0.035144   0.022523  -0.066511
   10  C  1 XX   -0.001793   0.001646   0.001382  -0.002706  -0.009017
   11  C  1 YY    0.003751  -0.006419   0.003439   0.022139   0.004643
   12  C  1 ZZ    0.003268  -0.005079  -0.004216  -0.001503  -0.008725
   13  C  1 XY    0.016517   0.006671   0.004414   0.020317  -0.000173
   14  C  1 XZ    0.000971   0.002669  -0.034462   0.005976   0.003904
   15  C  1 YZ    0.000257   0.000719   0.008961   0.005430   0.002653
   16  C  2  S    0.022579   0.014452   0.004867   0.030508  -0.044136
   17  C  2  S   -0.066492  -0.030379  -0.006358  -0.070505   0.113421
   18  C  2  X   -0.143671  -0.022001  -0.004568  -0.037055   0.000479
   19  C  2  Y    0.230735   0.024297   0.008437   0.022745   0.281768
   20  C  2  Z    0.027806   0.000553   0.524900  -0.028447   0.002850
   21  C  2  S   -0.016227  -0.060454  -0.052700  -0.348439   0.601070
   22  C  2  X   -0.020477  -0.144900  -0.012357  -0.103918   0.015836
   23  C  2  Y    0.039026   0.045710   0.028430   0.110098   0.709569
   24  C  2  Z    0.025478   0.005664   0.533316  -0.021938   0.026765
   25  C  2 XX   -0.029788   0.010364   0.001631   0.009707   0.011458
   26  C  2 YY    0.042974  -0.004395   0.001669  -0.006227  -0.003885
   27  C  2 ZZ    0.001050   0.001804  -0.001206   0.002938  -0.005145
   28  C  2 XY    0.007883  -0.027970  -0.000976   0.004715   0.005487
   29  C  2 XZ   -0.005085  -0.004469   0.021932  -0.001547  -0.000995
   30  C  2 YZ   -0.000784   0.000795   0.011702   0.002588   0.004161
   31  O  3  S    0.016756   0.009008   0.003321   0.020569   0.000840
   32  O  3  S   -0.040087  -0.007083  -0.008659  -0.056402  -0.006777
   33  O  3  X    0.102675  -0.305881  -0.016201  -0.049900   0.037098
   34  O  3  Y   -0.295127   0.400593   0.028720   0.203103  -0.021488
   35  O  3  Z    0.084681   0.062789  -0.404814   0.059903   0.016665
   36  O  3  S   -0.081908  -0.114562  -0.013687  -0.105935   0.070705
   37  O  3  X    0.067761  -0.240292  -0.013374  -0.051632   0.087252
   38  O  3  Y   -0.204885   0.273828   0.025566   0.186848  -0.065892
   39  O  3  Z    0.061753   0.047834  -0.404125   0.056078   0.007438
   40  O  3 XX    0.004147  -0.012373  -0.000516  -0.006917  -0.003172
   41  O  3 YY    0.003087   0.019426   0.001984   0.010630   0.003920
   42  O  3 ZZ    0.000064   0.007609  -0.000045  -0.001539  -0.000234
   43  O  3 XY   -0.011838   0.008088  -0.000602  -0.005537   0.002502
   44  O  3 XZ    0.003311   0.002770   0.001024  -0.001256  -0.001097
   45  O  3 YZ    0.002966   0.000985   0.003127   0.002962   0.001962
   46  H  4  S    0.200901  -0.023062  -0.001079  -0.054792  -0.038166
   47  H  4  S    0.277759  -0.038755   0.002028  -0.054067  -1.261068
   48  H  5  S    0.194384   0.127340   0.038863   0.283906   0.056513
   49  H  5  S    0.316856   0.106167   0.130502   1.023985   0.496670
   50  H  6  S    0.013447  -0.058563   0.107941   0.035235  -0.051341
   51  H  6  S    0.054582  -0.068634   0.229091   0.233077  -1.233706
   52  H  7  S    0.003086  -0.049372  -0.124517   0.057536  -0.022084
   53  H  7  S    0.032239  -0.044755  -0.285548   0.342161  -0.850259

                     16         17         18         19         20
                    0.1384     0.1625     0.2638     0.3111     0.5172
                     A          A          A          A          A   
    1  C  1  S    0.094669   0.017333   0.027935   0.091093   0.007568
    2  C  1  S   -0.097162  -0.019064   0.000732  -0.046110  -0.203017
    3  C  1  X   -0.062855  -0.012633  -0.086584   0.182170   0.593915
    4  C  1  Y   -0.108137  -0.051815  -0.063459   0.040853  -0.474351
    5  C  1  Z   -0.130629   0.415375  -0.004913   0.027781  -0.007704
    6  C  1  S   -1.701855  -0.267589  -1.425314  -2.198606  -0.604451
    7  C  1  X   -0.161987  -0.073696   0.271835   2.332301  -0.283174
    8  C  1  Y   -0.579795  -0.294214  -0.781374  -0.498664   0.261158
    9  C  1  Z   -0.431360   1.343157   0.031797   0.031758  -0.034067
   10  C  1 XX    0.003844   0.002229  -0.017575   0.040224   0.007766
   11  C  1 YY    0.000961   0.000062   0.032398  -0.000944  -0.019996
   12  C  1 ZZ    0.015455   0.001476  -0.011377  -0.028740   0.009557
   13  C  1 XY   -0.014934  -0.001557  -0.010617  -0.014016   0.046568
   14  C  1 XZ   -0.001498  -0.008039   0.003529   0.002915   0.003823
   15  C  1 YZ   -0.001460  -0.001953   0.003070   0.005774   0.000952
   16  C  2  S   -0.102660  -0.035812   0.042507  -0.088692  -0.080170
   17  C  2  S    0.112852   0.059706  -0.010569   0.136831  -0.021405
   18  C  2  X   -0.004647  -0.006751   0.218600   0.259877  -0.361371
   19  C  2  Y    0.201725   0.095807   0.134331  -0.351155  -0.008231
   20  C  2  Z    0.033671  -0.077145   0.003088   0.007150  -0.021740
   21  C  2  S    1.808930   0.569073  -0.671424   2.609189   0.405857
   22  C  2  X    0.201469   0.070138   2.302943   1.043888   1.278524
   23  C  2  Y    0.500692   0.295690   0.814516  -1.520468  -0.672555
   24  C  2  Z    0.138087  -0.437103  -0.016372   0.009391   0.037352
   25  C  2 XX   -0.024214  -0.006643   0.010113   0.006339  -0.143826
   26  C  2 YY   -0.014434   0.000569  -0.000957   0.001007   0.002063
   27  C  2 ZZ    0.009324   0.000835  -0.021171   0.007955   0.049884
   28  C  2 XY   -0.003735  -0.003249   0.016317   0.009290   0.013185
   29  C  2 XZ   -0.002996   0.011787  -0.001283   0.001301  -0.000279
   30  C  2 YZ    0.004960  -0.024602  -0.000105   0.002480   0.006196
   31  O  3  S    0.020535   0.007415  -0.108005   0.034319   0.005493
   32  O  3  S   -0.041219  -0.029643   0.114700  -0.052326  -0.122146
   33  O  3  X   -0.081640  -0.036743   0.165482  -0.139191  -0.291982
   34  O  3  Y   -0.108253  -0.020113   0.182562   0.091330   0.070977
   35  O  3  Z   -0.026340   0.042281  -0.002586   0.016179  -0.002305
   36  O  3  S   -0.203311  -0.012342   2.042320  -0.559910   0.479512
   37  O  3  X   -0.132983  -0.024340   0.759366  -0.458990  -0.009928
   38  O  3  Y   -0.177055  -0.051019   0.551829   0.181082   0.162519
   39  O  3  Z   -0.042913   0.120899  -0.004142   0.008009  -0.018379
   40  O  3 XX   -0.002119  -0.003850  -0.017195   0.000354   0.040288
   41  O  3 YY    0.002378  -0.001639  -0.043832  -0.001762  -0.040774
   42  O  3 ZZ    0.011586  -0.002337  -0.059697   0.019237  -0.039843
   43  O  3 XY    0.004657   0.000765   0.027891  -0.007180   0.036746
   44  O  3 XZ   -0.000321   0.005103  -0.000161  -0.000485  -0.004510
   45  O  3 YZ    0.001067  -0.005916   0.000266   0.001791   0.000676
   46  H  4  S   -0.089020  -0.022497   0.057224  -0.029003   0.019882
   47  H  4  S   -1.427738  -0.622716  -0.333380   0.735514   0.195757
   48  H  5  S   -0.059319  -0.000660  -0.001581  -0.021392   0.228960
   49  H  5  S   -0.070785   0.072269   0.293750   0.418939  -0.454795
   50  H  6  S    0.015938   0.068205  -0.081364  -0.101265   0.086504
   51  H  6  S    0.577926   1.549465   0.324455  -0.385701  -0.150738
   52  H  7  S    0.041149  -0.054206  -0.046472  -0.102184   0.082291
   53  H  7  S    1.281496  -1.346782   0.222128  -0.319578  -0.099485

                     21         22         23         24         25
                    0.5283     0.6044     0.6225     0.6302     0.6482
                     A          A          A          A          A   
    1  C  1  S    0.000562   0.008529  -0.015746  -0.008296  -0.036387
    2  C  1  S   -0.002049  -0.009815   0.156188   0.189533   0.035869
    3  C  1  X   -0.005436   0.053762  -0.449368  -0.580718  -0.007362
    4  C  1  Y    0.041530   0.194665  -0.839439   0.110464  -0.263939
    5  C  1  Z   -0.277862  -0.696904  -0.156174   0.022070  -0.242784
    6  C  1  S    0.022539  -0.063354   0.270698  -0.236015   0.166294
    7  C  1  X    0.001982  -0.152140   1.105105   0.825898  -0.008627
    8  C  1  Y   -0.092042  -0.374214   1.459060   0.076595   0.345192
    9  C  1  Z    0.572127   1.753511   0.277155  -0.088504   0.671899
   10  C  1 XX    0.008677   0.022969   0.057719   0.028751  -0.062861
   11  C  1 YY    0.010910   0.006336   0.027200  -0.024164   0.041664
   12  C  1 ZZ   -0.020215  -0.024207  -0.045718   0.004085  -0.010679
   13  C  1 XY    0.011817   0.027629   0.028283   0.077158  -0.045893
   14  C  1 XZ   -0.016098  -0.072132   0.014206   0.011074  -0.027056
   15  C  1 YZ   -0.044930  -0.067057   0.012927   0.011203  -0.018532
   16  C  2  S    0.003596   0.002773   0.024767   0.003620  -0.020203
   17  C  2  S    0.027393   0.084603   0.058140   0.694960  -0.074408
   18  C  2  X    0.020147   0.039430   0.258607  -0.727220  -0.364998
   19  C  2  Y    0.019568   0.087005   0.319318  -0.167937  -0.359110
   20  C  2  Z   -0.936109   0.426796   0.032990  -0.014072   0.070599
   21  C  2  S   -0.086650  -0.198479  -0.081663  -0.649331   0.184740
   22  C  2  X    0.019526   0.089808  -0.667542   0.693309   0.338764
   23  C  2  Y    0.023052  -0.176771  -0.928306   0.016679   1.198989
   24  C  2  Z    0.941925  -1.105713  -0.086679   0.070771  -0.283000
   25  C  2 XX    0.007244   0.001626   0.041099   0.011086  -0.001286
   26  C  2 YY    0.011056   0.037817   0.071510   0.121161  -0.129146
   27  C  2 ZZ   -0.006039  -0.014287  -0.034427  -0.011125   0.056943
   28  C  2 XY   -0.001510  -0.010215   0.005173  -0.143775   0.007526
   29  C  2 XZ    0.004503  -0.005107  -0.007450  -0.000050   0.001641
   30  C  2 YZ    0.011218  -0.047112   0.008582   0.009644  -0.018912
   31  O  3  S   -0.002305  -0.007285  -0.003413   0.022567   0.021317
   32  O  3  S   -0.017627  -0.005680   0.021629  -0.044429  -0.157402
   33  O  3  X   -0.008762  -0.067592   0.137979  -0.285358   0.074493
   34  O  3  Y    0.029036   0.050646   0.103572  -0.098397  -0.106084
   35  O  3  Z   -0.091252   0.026378   0.038355   0.023977   0.015938
   36  O  3  S    0.074136   0.145447  -0.443025   0.263476   0.286741
   37  O  3  X    0.032990   0.104715  -0.076445  -0.030123  -0.206361
   38  O  3  Y    0.003301   0.014165  -0.004467  -0.026800  -0.048304
   39  O  3  Z   -0.067640   0.169024  -0.006788  -0.021609   0.067510
   40  O  3 XX   -0.009126   0.005148  -0.062848   0.093298  -0.033052
   41  O  3 YY   -0.005807  -0.006708   0.018302   0.032625  -0.029735
   42  O  3 ZZ   -0.009123  -0.016257   0.008335  -0.056072  -0.027349
   43  O  3 XY   -0.005595  -0.009999  -0.028832   0.095641   0.064271
   44  O  3 XZ   -0.046353   0.038810   0.000396  -0.006501   0.014276
   45  O  3 YZ   -0.032067  -0.011842   0.005219   0.003126  -0.010198
   46  H  4  S    0.027567   0.147966   0.051382   0.298394  -0.480494
   47  H  4  S   -0.010904   0.059415   0.285532  -0.014548  -0.408311
   48  H  5  S    0.015214   0.137886   0.135035   0.041248  -0.632332
   49  H  5  S    0.046648  -0.299185   0.372131   0.353290   1.223814
   50  H  6  S    0.205575   0.374669  -0.095515   0.054794  -0.148355
   51  H  6  S    0.205445   0.353811  -0.381268  -0.330931   0.094692
   52  H  7  S   -0.222061  -0.255991  -0.098687   0.092833  -0.315573
   53  H  7  S   -0.241790  -0.300802  -0.380958  -0.197007  -0.221417

                     26         27         28         29         30
                    0.7343     0.8119     0.8345     0.8651     0.9263
                     A          A          A          A          A   
    1  C  1  S    0.047940   0.002475   0.008960  -0.027140  -0.033872
    2  C  1  S    0.098033  -0.356276  -0.011758  -0.334592   0.917724
    3  C  1  X    0.271384  -0.011869   0.095483  -0.248575   0.459447
    4  C  1  Y   -0.313132  -0.123054   0.082461   0.036904   0.147796
    5  C  1  Z   -0.021972  -0.006307  -0.737132  -0.184586   0.061752
    6  C  1  S    0.607739   1.930801   0.211722   0.513143  -1.249215
    7  C  1  X   -1.216266  -0.576699  -0.292440   0.718515  -1.095078
    8  C  1  Y    0.424528   0.294255  -0.100823  -0.167302  -0.181555
    9  C  1  Z    0.007271   0.090387   1.108228   0.379489  -0.123114
   10  C  1 XX    0.110778   0.084623  -0.005426  -0.026296   0.113709
   11  C  1 YY   -0.065156   0.037288  -0.016641   0.000711   0.135590
   12  C  1 ZZ    0.029957  -0.120998   0.032303  -0.037676  -0.119696
   13  C  1 XY   -0.053221   0.006474  -0.042928   0.089243  -0.012917
   14  C  1 XZ   -0.004896   0.010355   0.183269   0.047695   0.017887
   15  C  1 YZ   -0.019756   0.017893   0.050753   0.031371   0.042900
   16  C  2  S    0.017789  -0.037064  -0.006266   0.011413   0.032564
   17  C  2  S    0.515796   0.226411   0.346614  -1.303157   0.427935
   18  C  2  X    0.445453   0.257905   0.050132  -0.205601  -0.043984
   19  C  2  Y   -0.688785  -0.318644   0.054722  -0.545101  -0.174854
   20  C  2  Z   -0.002337  -0.008346   0.002377   0.008236   0.001311
   21  C  2  S   -1.595740  -1.539529  -0.814331   3.032548  -0.903866
   22  C  2  X   -0.881861  -0.613893  -0.154433   0.383551  -0.391511
   23  C  2  Y    1.932143   1.845342   0.018377   1.096096   0.562346
   24  C  2  Z    0.026165  -0.017514  -0.072946  -0.073533   0.013024
   25  C  2 XX   -0.068591  -0.134056   0.025831  -0.083951   0.086471
   26  C  2 YY    0.126721  -0.013869  -0.010097   0.051906   0.081922
   27  C  2 ZZ   -0.013516   0.049117   0.021796  -0.098625  -0.072601
   28  C  2 XY    0.030772  -0.099809  -0.000557   0.019110   0.017781
   29  C  2 XZ   -0.007582   0.005955  -0.090215  -0.014593   0.005803
   30  C  2 YZ   -0.001017   0.017093   0.049620   0.014838   0.004844
   31  O  3  S   -0.004500  -0.015934   0.000881  -0.003949  -0.001737
   32  O  3  S    0.035695   0.245264  -0.046669  -0.117902  -0.190492
   33  O  3  X    0.019516  -0.394646  -0.021615   0.077455   0.121659
   34  O  3  Y    0.064230  -0.415142  -0.017023   0.040650   0.051067
   35  O  3  Z    0.016488   0.079291  -0.239704  -0.034988   0.032360
   36  O  3  S    0.268131   0.275551   0.151768   0.105024   0.439181
   37  O  3  X    0.177870   0.977487   0.042098  -0.098501  -0.176078
   38  O  3  Y   -0.088309   0.280942   0.005487  -0.205494  -0.249117
   39  O  3  Z   -0.007998  -0.082940   0.216504   0.035551  -0.042614
   40  O  3 XX    0.068232   0.180292  -0.006115  -0.015281  -0.034914
   41  O  3 YY   -0.030568   0.116038  -0.000420  -0.077994  -0.056851
   42  O  3 ZZ   -0.017191   0.027533  -0.028172  -0.019572  -0.117911
   43  O  3 XY   -0.025072   0.016052   0.006097  -0.056870  -0.012808
   44  O  3 XZ    0.001033  -0.012129   0.022169   0.000769  -0.007420
   45  O  3 YZ    0.003507   0.007039   0.005400   0.003089   0.004636
   46  H  4  S    0.518108  -0.416974  -0.150342   0.504417   0.167251
   47  H  4  S   -1.331679  -0.578389   0.306935  -1.912132  -0.327479
   48  H  5  S   -0.301622   0.533496   0.041082   0.324881   0.407909
   49  H  5  S    0.862993  -0.225911  -0.006281  -0.368994  -0.430752
   50  H  6  S    0.294383  -0.048346  -0.636706  -0.246875  -0.625216
   51  H  6  S    0.233674  -0.086415   1.337896  -0.082964   1.242599
   52  H  7  S    0.291460  -0.141222   0.719169   0.020232  -0.618640
   53  H  7  S    0.210075  -0.053841  -1.269725  -0.723824   1.257938

                     31         32         33         34         35
                    0.9390     0.9777     1.0699     1.2317     1.3932
                     A          A          A          A          A   
    1  C  1  S    0.015942  -0.005495   0.038022  -0.105670  -0.012430
    2  C  1  S   -0.763625  -0.161935   0.371084  -1.740406  -0.151387
    3  C  1  X   -0.101451  -0.032816  -0.099073   0.084286   0.000944
    4  C  1  Y   -0.070696  -0.072829  -0.038673   0.032394   0.009820
    5  C  1  Z    0.028412   0.205619   0.037993   0.019278   0.201980
    6  C  1  S    2.048145   0.685664  -0.519706   6.478225   0.565608
    7  C  1  X   -0.388086  -0.078453  -0.181194  -1.607215  -0.197002
    8  C  1  Y   -0.018982   0.244088  -0.543096   1.317519   0.039582
    9  C  1  Z   -0.033587  -0.218640  -0.107740  -0.126260  -0.092900
   10  C  1 XX   -0.037711   0.016432   0.029858  -0.105510   0.001230
   11  C  1 YY    0.023600   0.019904   0.004332   0.065123   0.077413
   12  C  1 ZZ   -0.059845  -0.056796   0.050270  -0.188383  -0.095072
   13  C  1 XY    0.003119   0.016373  -0.040545  -0.010515   0.024062
   14  C  1 XZ   -0.005918  -0.034295  -0.004466  -0.023219   0.260517
   15  C  1 YZ   -0.006046  -0.044825  -0.029469   0.099092  -0.426255
   16  C  2  S    0.008698   0.003553  -0.009731   0.037994  -0.000627
   17  C  2  S    0.599762   0.133800  -0.144815   0.647695   0.033591
   18  C  2  X   -0.005216   0.021999   0.057040   0.118316   0.014802
   19  C  2  Y   -0.133289  -0.052128  -0.264536   0.081051   0.021750
   20  C  2  Z   -0.005546   0.111047   0.007127  -0.002981  -0.032059
   21  C  2  S   -1.382484  -0.534284   0.946633  -4.235650  -0.779219
   22  C  2  X   -0.098415  -0.200949  -0.136587  -2.496644   0.087518
   23  C  2  Y    0.686157   0.284724   1.546901   0.585581   0.232992
   24  C  2  Z    0.030010  -0.553608  -0.001407   0.021840   0.081074
   25  C  2 XX    0.095400   0.002469   0.118829   0.000038  -0.019945
   26  C  2 YY    0.048976   0.022249  -0.158584   0.097610   0.034939
   27  C  2 ZZ   -0.017863  -0.010219   0.012113  -0.037840  -0.019309
   28  C  2 XY    0.122898   0.004095  -0.049825   0.043667  -0.024589
   29  C  2 XZ    0.001415   0.040679  -0.007810   0.052777  -0.567173
   30  C  2 YZ    0.010533  -0.032435   0.009379  -0.048338   0.029066
   31  O  3  S   -0.015074  -0.003098  -0.006042   0.001346  -0.017110
   32  O  3  S   -0.484352  -0.053151  -0.054670  -0.110078  -0.318405
   33  O  3  X    0.511731   0.007038  -0.203555  -0.238981  -0.080547
   34  O  3  Y   -0.071346  -0.016968   0.701388   0.350524  -0.004859
   35  O  3  Z    0.103761  -0.902424   0.000364   0.065643  -0.039867
   36  O  3  S    1.280563   0.192186   0.290823   0.007751   0.904281
   37  O  3  X   -0.572106   0.050002   0.445295   0.483898   0.326532
   38  O  3  Y   -0.104323  -0.013242  -1.305156  -0.710455   0.084766
   39  O  3  Z   -0.136988   1.217165  -0.012058  -0.094355  -0.159949
   40  O  3 XX   -0.116114  -0.005532  -0.098180  -0.030076  -0.101992
   41  O  3 YY   -0.182058  -0.012040   0.066056   0.002618  -0.065207
   42  O  3 ZZ   -0.236625  -0.037098  -0.038827  -0.052108  -0.078762
   43  O  3 XY   -0.026226  -0.002848   0.068645   0.010013  -0.018725
   44  O  3 XZ   -0.008345  -0.034046  -0.006015   0.024468   0.254413
   45  O  3 YZ    0.005725  -0.023599   0.006285  -0.047056   0.247208
   46  H  4  S   -0.298175  -0.018084  -0.399424   0.264324   0.023116
   47  H  4  S    0.093668  -0.090537  -0.678202   0.100828  -0.019659
   48  H  5  S    0.552654   0.078691   0.343000  -0.314956  -0.066097
   49  H  5  S   -0.693775   0.017671  -0.507659  -0.526705  -0.080556
   50  H  6  S    0.292502   0.129758   0.243809  -0.457496   0.079659
   51  H  6  S   -0.485544  -0.493634   0.087152  -0.533549  -0.169347
   52  H  7  S    0.168356  -0.198370   0.188157  -0.362848  -0.193336
   53  H  7  S   -0.340213   0.329039   0.192949  -0.426145   0.130018

                     36         37         38         39         40
                    1.4395     1.5182     1.7169     1.7780     1.8006
                     A          A          A          A          A   
    1  C  1  S    0.015084  -0.008010  -0.008703  -0.024823   0.006586
    2  C  1  S    0.287359  -0.116487  -0.208123  -0.538651  -0.266666
    3  C  1  X   -0.033285   0.014077   0.189093   0.168162   0.193216
    4  C  1  Y    0.033876   0.028442   0.020065  -0.152621   0.002714
    5  C  1  Z    0.002377   0.024358   0.009010  -0.024469   0.026488
    6  C  1  S   -0.907417   0.406435  -0.135061   1.067662   0.099818
    7  C  1  X   -0.249995  -0.201645   0.027425   0.096637  -0.380218
    8  C  1  Y   -0.643432  -0.006550  -0.257411   0.582065  -0.210051
    9  C  1  Z   -0.165815   0.315614  -0.000480   0.159495  -0.025061
   10  C  1 XX   -0.036011  -0.021828   0.366783  -0.106516   0.444870
   11  C  1 YY    0.025914   0.068089  -0.436285  -0.296585  -0.161166
   12  C  1 ZZ    0.028678  -0.051942  -0.008073   0.332423  -0.272688
   13  C  1 XY   -0.095895   0.022878   0.138419  -0.495511   0.336627
   14  C  1 XZ   -0.077619   0.207472   0.015420  -0.122269   0.168072
   15  C  1 YZ    0.041923  -0.140469  -0.013742  -0.085052   0.039498
   16  C  2  S   -0.021476   0.002806  -0.014032   0.008273   0.010993
   17  C  2  S   -0.025238   0.032027  -0.340820  -0.001305   0.033750
   18  C  2  X    0.089866   0.009028  -0.021878  -0.057156   0.112773
   19  C  2  Y    0.008317   0.028738   0.130755  -0.097896  -0.049593
   20  C  2  Z    0.007393   0.181665   0.012686  -0.012912   0.024204
   21  C  2  S   -2.112951  -0.338426   0.728018  -0.333568  -0.660864
   22  C  2  X    1.990321  -0.154465   0.654291  -0.233773   0.618536
   23  C  2  Y    1.187313   0.003032   0.181705  -0.853809   0.288915
   24  C  2  Z    0.004868  -0.203113  -0.010265  -0.049764   0.020044
   25  C  2 XX   -0.077751  -0.006111  -0.068409   0.275472  -0.014866
   26  C  2 YY    0.050223   0.021790   0.326828  -0.380631  -0.140453
   27  C  2 ZZ   -0.016786  -0.006182  -0.266372   0.040693   0.147764
   28  C  2 XY   -0.168922   0.021194  -0.310780  -0.183244  -0.267097
   29  C  2 XZ    0.109968   0.057156   0.000577  -0.033703   0.016844
   30  C  2 YZ   -0.021818   0.739660   0.043595  -0.001612   0.057347
   31  O  3  S   -0.096124  -0.000517  -0.011964   0.010714  -0.026130
   32  O  3  S   -1.726358  -0.040801   0.053634   0.117304  -0.110805
   33  O  3  X   -0.301858  -0.026827   0.167352   0.073261   0.211970
   34  O  3  Y   -0.149676   0.029000   0.086711  -0.175059  -0.045069
   35  O  3  Z    0.023510   0.053204   0.012436  -0.011057   0.010087
   36  O  3  S    5.202521   0.064702   0.257982  -0.519631   0.924839
   37  O  3  X    1.627894   0.056123  -0.050773  -0.255848   0.087216
   38  O  3  Y    0.800101  -0.041520  -0.007040   0.227881   0.251504
   39  O  3  Z   -0.021714   0.099718  -0.016205   0.021670  -0.020351
   40  O  3 XX   -0.576135  -0.023137   0.054414  -0.228173  -0.471543
   41  O  3 YY   -0.355386  -0.029500   0.518997   0.367369  -0.024176
   42  O  3 ZZ   -0.353473   0.028433  -0.549109  -0.046016   0.381147
   43  O  3 XY   -0.138116   0.002526  -0.230156   0.226267   0.425633
   44  O  3 XZ   -0.040980  -0.453446  -0.007100  -0.103251   0.122943
   45  O  3 YZ   -0.050470   0.101193  -0.043015   0.216875  -0.290537
   46  H  4  S    0.002761   0.024816  -0.370262   0.581476   0.133707
   47  H  4  S   -0.216638   0.045102  -0.103082   0.190777  -0.078223
   48  H  5  S   -0.037633  -0.105032  -0.175064   0.192236  -0.036719
   49  H  5  S   -0.133111  -0.063896  -0.041211  -0.074775  -0.022103
   50  H  6  S    0.076264   0.100910  -0.063521  -0.145011   0.060477
   51  H  6  S    0.155037   0.115011  -0.057423  -0.214578   0.047247
   52  H  7  S    0.139311  -0.143183  -0.058243  -0.179987  -0.006317
   53  H  7  S    0.278510  -0.106510  -0.068984  -0.296487   0.057625

                     41         42         43         44         45
                    1.8145     1.9912     2.0533     2.0961     2.3036
                     A          A          A          A          A   
    1  C  1  S    0.003139  -0.055059   0.013958   0.001258  -0.022586
    2  C  1  S   -0.026658  -0.271047  -0.063077  -0.083403  -0.236675
    3  C  1  X    0.028280  -0.099117   0.123007   0.074704  -0.034491
    4  C  1  Y    0.065418   0.084816  -0.054150  -0.062710   0.015275
    5  C  1  Z   -0.070297  -0.008288  -0.072711   0.046124   0.017690
    6  C  1  S    0.063567   2.273150  -0.687148  -0.238102   1.075806
    7  C  1  X   -0.265434  -0.529176   0.126027  -0.086751  -0.622809
    8  C  1  Y   -0.238203   0.474390  -0.077342  -0.081085   0.237825
    9  C  1  Z    0.244026  -0.036936  -0.565982   0.430225  -0.008237
   10  C  1 XX    0.194161   0.154499   0.200787   0.147928   0.175100
   11  C  1 YY   -0.066006  -0.672640   0.212462  -0.107724   0.205373
   12  C  1 ZZ   -0.101160   0.496809  -0.449548  -0.111544  -0.439856
   13  C  1 XY    0.253523  -0.132230  -0.077992  -0.421845  -0.488308
   14  C  1 XZ   -0.225637  -0.088358  -0.141187   0.032442   0.403468
   15  C  1 YZ    0.368527  -0.313628  -0.539251   0.495987   0.074573
   16  C  2  S    0.006200   0.033906  -0.045510  -0.042288   0.054928
   17  C  2  S    0.047364   0.323621  -0.364181  -0.346717  -0.009538
   18  C  2  X    0.070329  -0.012212  -0.128810  -0.202840  -0.328819
   19  C  2  Y    0.019868   0.075448   0.091462   0.133033   0.135019
   20  C  2  Z   -0.086802   0.024166   0.052069  -0.064298   0.049675
   21  C  2  S   -0.408674  -1.930104   1.293149   0.892775  -0.942774
   22  C  2  X    0.242368  -0.624436   0.187363   0.134499  -0.275149
   23  C  2  Y    0.467129   1.340585  -0.512626  -0.070394   0.335783
   24  C  2  Z   -0.163336   0.046679   0.354534  -0.298235   0.068446
   25  C  2 XX   -0.125200  -0.340817   0.264656   0.237312  -0.204264
   26  C  2 YY    0.080148   0.289856   0.168111   0.223752  -0.161490
   27  C  2 ZZ    0.072726   0.047566  -0.595235  -0.668329   0.462993
   28  C  2 XY   -0.071441  -0.080379   0.023774  -0.010283  -0.518265
   29  C  2 XZ   -0.068788   0.014559   0.180545  -0.149284   0.104535
   30  C  2 YZ   -0.091020  -0.057238  -0.359406   0.322957  -0.220154
   31  O  3  S   -0.014424  -0.016337   0.008274   0.005526  -0.002407
   32  O  3  S   -0.098358  -0.052636   0.055031  -0.015418   0.281431
   33  O  3  X    0.071993   0.068727  -0.109878  -0.128941   0.259349
   34  O  3  Y    0.061164   0.158918  -0.086331  -0.061432   0.170862
   35  O  3  Z   -0.043231   0.010063   0.064841  -0.050603   0.012628
   36  O  3  S    0.613942   0.694058  -0.540882  -0.250889  -0.177884
   37  O  3  X    0.154470   0.359804  -0.186070  -0.034410  -0.084614
   38  O  3  Y   -0.003201  -0.241343   0.036967  -0.020396  -0.287378
   39  O  3  Z    0.072593  -0.036217  -0.180166   0.165094  -0.058345
   40  O  3 XX   -0.109955   0.121207  -0.018933   0.109357   0.287535
   41  O  3 YY   -0.091660  -0.522821  -0.128770  -0.347840  -0.232260
   42  O  3 ZZ    0.133246   0.377474   0.115720   0.188666   0.136130
   43  O  3 XY    0.077670  -0.013973   0.165602   0.096987  -0.384360
   44  O  3 XZ   -0.189736  -0.090366  -0.337397   0.312144  -0.134687
   45  O  3 YZ    0.791344  -0.044596   0.075568  -0.012181   0.052318
   46  H  4  S   -0.139100  -0.326609  -0.161076  -0.256430   0.116569
   47  H  4  S   -0.094057  -0.322840   0.087802  -0.054848  -0.080542
   48  H  5  S   -0.069095   0.172608  -0.116184  -0.059897  -0.012331
   49  H  5  S   -0.045473   0.048218  -0.011251   0.019058  -0.068497
   50  H  6  S   -0.004042  -0.462938  -0.177612   0.423049   0.333919
   51  H  6  S    0.195570  -0.112890  -0.072462   0.002152  -0.132677
   52  H  7  S    0.042912  -0.339770   0.555752  -0.091052  -0.006894
   53  H  7  S   -0.058672  -0.089358   0.026821  -0.110052  -0.010370

                     46         47         48         49         50
                    2.3393     2.5422     2.5616     2.8286     2.9095
                     A          A          A          A          A   
    1  C  1  S    0.008590  -0.000730   0.065267   0.012206  -0.034940
    2  C  1  S    0.079565   0.006961   0.064070  -0.156539   0.319402
    3  C  1  X    0.012826   0.005635   0.386381   0.252144  -0.259882
    4  C  1  Y   -0.022019  -0.001558  -0.129174  -0.176929   0.195010
    5  C  1  Z    0.064040  -0.057833  -0.002682   0.005329   0.001835
    6  C  1  S   -0.423466  -0.005510  -2.173179  -0.127805   0.242003
    7  C  1  X    0.165568   0.035236   1.193040   0.052613  -0.248746
    8  C  1  Y   -0.185661   0.026105  -0.268912  -0.200154   0.075355
    9  C  1  Z    0.158344  -0.093171   0.057449  -0.033843  -0.011720
   10  C  1 XX   -0.099831  -0.026734  -0.906255  -0.178506   0.044654
   11  C  1 YY   -0.211193  -0.004582   0.525933  -0.086937   0.084810
   12  C  1 ZZ    0.330998   0.026968   0.430938   0.188927  -0.279449
   13  C  1 XY    0.089937   0.013174   0.200528   0.451997  -0.487215
   14  C  1 XZ    0.897131   0.255731   0.009371  -0.013182   0.015283
   15  C  1 YZ    0.206314  -0.284226   0.016281  -0.017355   0.014047
   16  C  2  S   -0.029122   0.000234  -0.038817  -0.042685   0.049475
   17  C  2  S   -0.018612   0.021429   0.092392  -0.512163  -0.994400
   18  C  2  X    0.120085   0.010481   0.296032   0.916237   0.574470
   19  C  2  Y   -0.033941  -0.012636  -0.246671   0.304650   0.460259
   20  C  2  Z    0.112808  -0.140058   0.002363  -0.007453  -0.008883
   21  C  2  S    0.372735   0.002235   2.232244  -0.567587  -1.678800
   22  C  2  X    0.162841  -0.010558   0.812199   0.673146   0.441367
   23  C  2  Y   -0.051816  -0.021776  -1.043968   0.615979   0.263853
   24  C  2  Z    0.084227  -0.153490   0.003773  -0.004834  -0.000368
   25  C  2 XX    0.126556  -0.010597  -0.071646   0.311549  -1.007824
   26  C  2 YY    0.062458   0.032107   0.545990  -0.563493   0.672230
   27  C  2 ZZ   -0.268140  -0.018120  -0.385812   0.036749   0.583922
   28  C  2 XY    0.235115   0.005944  -0.764014  -0.796072  -0.066873
   29  C  2 XZ    0.135215   0.951835  -0.019892   0.019933   0.005795
   30  C  2 YZ   -0.463241   0.245713  -0.023773   0.017249  -0.008029
   31  O  3  S    0.003691  -0.000308  -0.000124  -0.016588  -0.045437
   32  O  3  S   -0.183688   0.014938   0.480124  -0.650884  -0.472046
   33  O  3  X   -0.142608   0.006701   0.262035   0.071627   0.168448
   34  O  3  Y   -0.075895   0.002268   0.061865   0.033700   0.098505
   35  O  3  Z    0.026458  -0.013632  -0.010394   0.002237  -0.004769
   36  O  3  S    0.184741  -0.026067  -0.924625   2.016606   2.045960
   37  O  3  X    0.094036  -0.012849  -0.565455   1.204273   0.990583
   38  O  3  Y    0.113822   0.009001   0.097744   0.312554   0.777972
   39  O  3  Z   -0.114083   0.374287   0.010856  -0.012867  -0.010693
   40  O  3 XX   -0.090503  -0.011288  -0.186460   1.094342   0.359378
   41  O  3 YY    0.059521   0.022181   0.110748  -0.510768   0.157840
   42  O  3 ZZ   -0.045570  -0.009769   0.214766  -0.411323  -0.505433
   43  O  3 XY    0.144118   0.022028   0.128583   0.357797   0.986369
   44  O  3 XZ   -0.292455   0.752292  -0.010804  -0.009588  -0.019723
   45  O  3 YZ    0.062639   0.471668  -0.020893   0.005710  -0.019125
   46  H  4  S   -0.082708  -0.008570  -0.255519   0.215336  -0.159930
   47  H  4  S    0.015422   0.012412   0.347041  -0.333370   0.202752
   48  H  5  S   -0.028700   0.010691   0.087702  -0.083623  -0.030288
   49  H  5  S    0.008496   0.010595   0.154551  -0.003322   0.111927
   50  H  6  S    0.425805  -0.033534   0.049607  -0.094965   0.104276
   51  H  6  S   -0.078632  -0.049474  -0.049690   0.008347  -0.017779
   52  H  7  S   -0.536933  -0.020038  -0.012189  -0.059047   0.072195
   53  H  7  S    0.162491   0.057168  -0.047804   0.034116   0.025249

                     51         52         53
                    3.7627     4.0939     4.2953
                     A          A          A   
    1  C  1  S   -0.009234  -0.314217  -0.383210
    2  C  1  S    0.097003   1.845886   2.187447
    3  C  1  X   -0.018184  -0.121800   0.261225
    4  C  1  Y    0.018149   0.033644  -0.179731
    5  C  1  Z    0.018803  -0.006523  -0.002794
    6  C  1  S    0.165669   1.263695   2.461988
    7  C  1  X   -0.373019   0.038282  -0.225441
    8  C  1  Y   -0.333775   0.087466   0.424159
    9  C  1  Z   -0.070978   0.022107   0.015083
   10  C  1 XX    0.024266  -1.049946  -1.724919
   11  C  1 YY   -0.129061  -1.121040  -1.518840
   12  C  1 ZZ   -0.019130  -1.230322  -1.412415
   13  C  1 XY    0.070457  -0.096322   0.195005
   14  C  1 XZ    0.013739   0.003616  -0.002283
   15  C  1 YZ    0.013380   0.004978  -0.003228
   16  C  2  S    0.007679  -0.370541   0.300417
   17  C  2  S   -0.234704   2.306039  -1.720266
   18  C  2  X    0.022806   0.187954   0.020761
   19  C  2  Y   -0.003490   0.086436  -0.226383
   20  C  2  Z    0.005934   0.000286   0.004868
   21  C  2  S   -2.100114   0.567784  -1.224679
   22  C  2  X    1.102552   0.086762  -0.837044
   23  C  2  Y    0.980472   0.131143  -0.212770
   24  C  2  Z   -0.011903  -0.010136  -0.001391
   25  C  2 XX    0.221863  -1.585833   1.663160
   26  C  2 YY    0.022603  -1.430695   1.176170
   27  C  2 ZZ    0.176479  -1.357089   1.038923
   28  C  2 XY    0.023657  -0.146717  -0.075604
   29  C  2 XZ    0.001819  -0.000757  -0.004826
   30  C  2 YZ    0.001063   0.003107  -0.001860
   31  O  3  S   -0.530921  -0.023231   0.053075
   32  O  3  S   -0.232016   0.006719   0.140659
   33  O  3  X   -0.243559   0.148764  -0.104245
   34  O  3  Y   -0.097139   0.086065  -0.055236
   35  O  3  Z    0.008569   0.001587   0.003334
   36  O  3  S    5.825067   0.344489  -1.025657
   37  O  3  X    1.195413   0.267404  -0.449795
   38  O  3  Y    0.449772   0.119647  -0.326273
   39  O  3  Z   -0.029881  -0.013394  -0.000853
   40  O  3 XX   -1.551256   0.141200  -0.089109
   41  O  3 YY   -1.811109  -0.007275   0.074815
   42  O  3 ZZ   -1.850054  -0.127504   0.273253
   43  O  3 XY    0.089198   0.173646  -0.230416
   44  O  3 XZ   -0.009828  -0.009274   0.001596
   45  O  3 YZ    0.005137   0.001717   0.007497
   46  H  4  S    0.056671   0.150310  -0.050364
   47  H  4  S   -0.189539  -0.316485   0.332799
   48  H  5  S   -0.042155  -0.024526   0.019487
   49  H  5  S   -0.233363  -0.176639  -0.167929
   50  H  6  S    0.008313   0.097998   0.050433
   51  H  6  S    0.068541  -0.362998  -0.401780
   52  H  7  S   -0.015502   0.104231   0.053788
   53  H  7  S    0.146452  -0.377102  -0.387507
 ...... END OF RHF CALCULATION ......
 STEP CPU TIME =     6.10 TOTAL CPU TIME =          6.2 (      0.1 MIN)
 TOTAL WALL CLOCK TIME=          6.3 SECONDS, CPU UTILIZATION IS    99.20%

     ---------------------------------------------------------------------
     PROPERTIES FOR THE B3LYP    DFT FUNCTIONAL (RHF  TYPE) DENSITY MATRIX
     ---------------------------------------------------------------------

          -----------------
          ENERGY COMPONENTS
          -----------------

         WAVEFUNCTION NORMALIZATION =       1.0000000000

                ONE ELECTRON ENERGY =    -347.1034120026
                TWO ELECTRON ENERGY =     123.1714640298
           NUCLEAR REPULSION ENERGY =      70.3013789826
                                      ------------------
                       TOTAL ENERGY =    -153.6305689902

 ELECTRON-ELECTRON POTENTIAL ENERGY =     123.1714640298
  NUCLEUS-ELECTRON POTENTIAL ENERGY =    -499.3404371570
   NUCLEUS-NUCLEUS POTENTIAL ENERGY =      70.3013789826
                                      ------------------
             TOTAL POTENTIAL ENERGY =    -305.8675941447
               TOTAL KINETIC ENERGY =     152.2370251544
                 VIRIAL RATIO (V/T) =       2.0091537774

          ---------------------------------------
          MULLIKEN AND LOWDIN POPULATION ANALYSES
          ---------------------------------------

     ATOMIC MULLIKEN POPULATION IN EACH MOLECULAR ORBITAL

                      1          2          3          4          5

                  2.000000   2.000000   2.000000   2.000000   2.000000

    1             0.000008   0.000950   1.997369   0.036168   1.009529
    2            -0.000694   1.999351   0.001415   0.466143   0.603973
    3             2.000716  -0.000729   0.000007   1.484249   0.158440
    4            -0.000006   0.000372  -0.000007   0.001026   0.033773
    5            -0.000026   0.000030   0.000148   0.011603   0.022617
    6             0.000000   0.000010   0.000538   0.000314   0.086120
    7             0.000000   0.000016   0.000529   0.000496   0.085549

                      6          7          8          9         10

                  2.000000   2.000000   2.000000   2.000000   2.000000

    1             0.302807   0.617598   0.764478   0.282412   0.253441
    2             0.817761   0.428514   0.410433   0.431089   0.307444
    3             0.310004   0.454082   0.279224   1.108656   1.099364
    4             0.382963   0.074121   0.002559   0.040939   0.008582
    5             0.052891   0.123776   0.006985   0.006547   0.014062
    6             0.056186   0.157295   0.230121   0.116189   0.149556
    7             0.077388   0.144615   0.306200   0.014168   0.167551

                     11         12

                  2.000000   2.000000

    1             0.489888   0.746809
    2             0.240639   0.046429
    3             0.463686   1.044652
    4             0.321889   0.004394
    5             0.469153   0.121903
    6             0.010175   0.021607
    7             0.004570   0.014206

               ----- POPULATIONS IN EACH AO -----
                             MULLIKEN      LOWDIN
              1  C  1  S      1.99188     1.97864
              2  C  1  S      0.67121     0.36721
              3  C  1  X      0.71913     0.64121
              4  C  1  Y      0.66589     0.62208
              5  C  1  Z      0.70327     0.62254
              6  C  1  S      0.70189     0.36213
              7  C  1  X      0.25466     0.39145
              8  C  1  Y      0.44802     0.55027
              9  C  1  Z      0.32815     0.47121
             10  C  1 XX      0.00500     0.16450
             11  C  1 YY     -0.01669     0.12603
             12  C  1 ZZ      0.00658     0.16318
             13  C  1 XY      0.01052     0.01743
             14  C  1 XZ      0.00730     0.01611
             15  C  1 YZ      0.00464     0.00646
             16  C  2  S      1.99200     1.97545
             17  C  2  S      0.73773     0.37611
             18  C  2  X      0.76199     0.66424
             19  C  2  Y      0.75621     0.66360
             20  C  2  Z      0.42095     0.37545
             21  C  2  S      0.44268     0.29848
             22  C  2  X      0.09148     0.27702
             23  C  2  Y      0.22169     0.38904
             24  C  2  Z      0.27806     0.32709
             25  C  2 XX      0.01289     0.21598
             26  C  2 YY      0.01980     0.18304
             27  C  2 ZZ     -0.02787     0.10480
             28  C  2 XY      0.02741     0.05880
             29  C  2 XZ      0.01430     0.02837
             30  C  2 YZ      0.00318     0.00489
             31  O  3  S      1.99277     1.97676
             32  O  3  S      0.92417     0.73777
             33  O  3  X      0.97377     0.91244
             34  O  3  Y      1.03585     0.98818
             35  O  3  Z      0.81101     0.76400
             36  O  3  S      1.02883     0.48720
             37  O  3  X      0.49238     0.57879
             38  O  3  Y      0.59329     0.67192
             39  O  3  Z      0.55199     0.58603
             40  O  3 XX      0.00014     0.18433
             41  O  3 YY     -0.00962     0.17599
             42  O  3 ZZ     -0.00995     0.17597
             43  O  3 XY      0.00806     0.01475
             44  O  3 XZ      0.00797     0.00976
             45  O  3 YZ      0.00168     0.00223
             46  H  4  S      0.53012     0.49945
             47  H  4  S      0.34048     0.37923
             48  H  5  S      0.38129     0.35111
             49  H  5  S      0.44840     0.43199
             50  H  6  S      0.51394     0.46822
             51  H  6  S      0.31417     0.35039
             52  H  7  S      0.50992     0.46416
             53  H  7  S      0.30537     0.34654

          ----- MULLIKEN ATOMIC OVERLAP POPULATIONS -----
          (OFF-DIAGONAL ELEMENTS NEED TO BE MULTIPLIED BY 2)

             1           2           3           4           5

    1    5.5215469
    2    0.3201277   4.6946192
    3   -0.1285771   0.4951241   8.0748681
    4   -0.1169548   0.3517249  -0.0516101   0.6585247
    5    0.2134001  -0.0573119   0.0104764   0.0206620   0.6440683
    6    0.3389295  -0.0231200   0.0022948   0.0038241  -0.0025748
    7    0.3529852  -0.0286675  -0.0002250   0.0044335   0.0009702

             6           7

    6    0.5445461
    7   -0.0357873   0.5215787

          TOTAL MULLIKEN AND LOWDIN ATOMIC POPULATIONS
       ATOM         MULL.POP.    CHARGE          LOW.POP.     CHARGE
    1 C             6.501457   -0.501457         6.500437   -0.500437
    2 C             5.752497    0.247503         5.942346    0.057654
    3 O             8.402351   -0.402351         8.266126   -0.266126
    4 H             0.870604    0.129396         0.878681    0.121319
    5 H             0.829690    0.170310         0.783107    0.216893
    6 H             0.828112    0.171888         0.818608    0.181392
    7 H             0.815288    0.184712         0.810694    0.189306

          -------------------------------
          BOND ORDER AND VALENCE ANALYSIS     BOND ORDER THRESHOLD=0.050
          -------------------------------

                   BOND                       BOND                       BOND
  ATOM PAIR DIST  ORDER      ATOM PAIR DIST  ORDER      ATOM PAIR DIST  ORDER
    1   2  1.400  1.056        1   3  2.366  0.055        1   5  1.500  0.772
    1   6  1.098  0.906        1   7  1.098  0.905        2   3  1.270  1.814
    2   4  1.115  0.899        3   5  1.665  0.126

                       TOTAL       BONDED        FREE
      ATOM            VALENCE     VALENCE     VALENCE
    1 C                 3.666       3.666      -0.000
    2 C                 3.797       3.797      -0.000
    3 O                 2.072       2.072       0.000
    4 H                 0.928       0.928      -0.000
    5 H                 0.954       0.954      -0.000
    6 H                 0.933       0.933      -0.000
    7 H                 0.932       0.932      -0.000

          ---------------------
          ELECTROSTATIC MOMENTS
          ---------------------

 POINT   1           X           Y           Z (BOHR)    CHARGE
                 0.000000   -0.000000   -0.000000       -0.00 (A.U.)
         DX          DY          DZ         /D/  (DEBYE)
     2.044676    1.423283    0.055562    2.491891
 ...... END OF PROPERTY EVALUATION ......
 STEP CPU TIME =     0.00 TOTAL CPU TIME =          6.2 (      0.1 MIN)
 TOTAL WALL CLOCK TIME=          6.3 SECONDS, CPU UTILIZATION IS    99.20%

 BEGINNING ONE ELECTRON GRADIENT...
 ..... END OF 1-ELECTRON GRADIENT ......
 STEP CPU TIME =     0.01 TOTAL CPU TIME =          6.2 (      0.1 MIN)
 TOTAL WALL CLOCK TIME=          6.3 SECONDS, CPU UTILIZATION IS    99.20%

          ----------------------
          GRADIENT OF THE ENERGY
          ----------------------
 MEMORY FOR GRID POINT CONTRIBUTIONS TO THE DFT GRADIENT=    269593 WORDS.
 STEP CPU TIME =     1.16 TOTAL CPU TIME =          7.4 (      0.1 MIN)
 TOTAL WALL CLOCK TIME=          7.5 SECONDS, CPU UTILIZATION IS    99.19%

 THE MINIMUM MEMORY REQUIRED FOR THIS RUN IS      88877 WORDS.
 USING     991233 WORDS FOR 2E- DERIVATIVE INTEGRAL CONTRIBUTIONS.
 THE COARSE/FINE SCHWARZ SCREENINGS SKIPPED          698/         844 BLOCKS.
 THE NUMBER OF GRADIENT INTEGRAL BLOCKS COMPUTED WAS     20424
 ...... END OF 2-ELECTRON GRADIENT ......
 STEP CPU TIME =     0.19 TOTAL CPU TIME =          7.6 (      0.1 MIN)
 TOTAL WALL CLOCK TIME=          7.6 SECONDS, CPU UTILIZATION IS    99.21%
 THE VIB 0 GRADIENT RMS = 3.40430146E-02

 THE VIB 0 GEOMETRY GRADIENT IS

 UNITS ARE HARTREE/BOHR    E'X               E'Y               E'Z 
    1 C                0.025867348       0.057801168       0.014054381
    2 C                0.084782469      -0.053254703      -0.007451736
    3 O               -0.053016509      -0.030106335       0.003334710
    4 H                0.015153713       0.000426965      -0.001507910
    5 H               -0.074706200      -0.001544412      -0.010766501
    6 H                0.000475529       0.011905028       0.004740721
    7 H                0.001443650       0.014772289      -0.002403665
  $VIB   
          IVIB=   0 IATOM=   0 ICOORD=   0 E=     -153.6305689902
  2.586734767E-02 5.780116782E-02 1.405438148E-02 8.478246872E-02-5.325470254E-02
 -7.451735808E-03-5.301650938E-02-3.010633548E-02 3.334709894E-03 1.515371334E-02
  4.269649117E-04-1.507910312E-03-7.470620004E-02-1.544412226E-03-1.076650100E-02
  4.755292293E-04 1.190502829E-02 4.740720628E-03 1.443650460E-03 1.477228923E-02
 -2.403664880E-03
  2.044676462E+00 1.423282526E+00 5.556168150E-02
1   ATOM  1
                                        -------------------
   COORD  1                             NUCLEAR COORDINATES
                                        -------------------
     VIB  1

                       ATOM             X              Y              Z

                 1  C                2.323631      -0.423720      -0.001305
                 2  C               -0.036046       0.792113      -0.008530
                 3  O               -2.156526      -0.331595       0.016256
                 4  H                0.058935       2.896007      -0.038593
                 5  H                0.245150      -2.314162      -0.428516
                 6  H                3.527166       0.380967      -1.480655
                 7  H                3.275564      -0.086552       1.806868
 ...... END OF ONE-ELECTRON INTEGRALS ......
 STEP CPU TIME =     0.01 TOTAL CPU TIME =          7.6 (      0.1 MIN)
 TOTAL WALL CLOCK TIME=          7.6 SECONDS, CPU UTILIZATION IS    99.35%
 TOTAL NUMBER OF NONZERO TWO-ELECTRON INTEGRALS =              982442
         66 INTEGRAL RECORDS WERE STORED ON DISK FILE  8.
  ...... END OF TWO-ELECTRON INTEGRALS .....
 STEP CPU TIME =     0.08 TOTAL CPU TIME =          7.7 (      0.1 MIN)
 TOTAL WALL CLOCK TIME=          7.7 SECONDS, CPU UTILIZATION IS    99.22%

          --------------------------
             R-B3LYP SCF CALCULATION
          --------------------------
         DENSITY MATRIX CONVERGENCE THRESHOLD=  1.00E-05
     COARSE -> FINE DFT GRID SWITCH THRESHOLD=  3.00E-04 (SWITCH IN $DFT)
[...]
    1  C  1  S    0.029444   0.041359   0.015793   0.067431  -0.031842
    2  C  1  S   -0.057591  -0.068389  -0.012752  -0.133669   0.027032
    3  C  1  X    0.213782   0.156635   0.045673  -0.006522  -0.107729
    4  C  1  Y   -0.067037   0.326191   0.073064   0.281659   0.031122
    5  C  1  Z   -0.144731   0.216926   0.072331   0.110476   0.141286
    6  C  1  S   -0.145024  -0.242240  -0.221194  -0.526749   0.391364
    7  C  1  X    0.084443   0.153702   0.058433  -0.188312  -0.318530
    8  C  1  Y   -0.058185   0.272153   0.098105   0.519188   0.116348
    9  C  1  Z   -0.063819   0.179117   0.039024   0.149732   0.429063
   10  C  1 XX    0.003675  -0.003303  -0.000109  -0.000769   0.005867
   11  C  1 YY    0.004426   0.001297  -0.005085   0.017081  -0.009434
   12  C  1 ZZ   -0.001444   0.006972   0.009462  -0.003199  -0.005483
   13  C  1 XY    0.015780  -0.007436  -0.010014   0.018973   0.014431
   14  C  1 XZ   -0.008325  -0.005100   0.025159   0.002237  -0.006241
   15  C  1 YZ   -0.002529   0.008009  -0.013543   0.001751  -0.002103
   16  C  2  S    0.012819  -0.013332  -0.008697   0.017271   0.105394
   17  C  2  S   -0.029796   0.033574   0.016129  -0.040474  -0.178192
   18  C  2  X   -0.175596   0.053876  -0.030028  -0.063715   0.039468
   19  C  2  Y    0.143537   0.000637  -0.087842   0.038107  -0.306177
   20  C  2  Z    0.087465   0.125403  -0.498077  -0.124831  -0.000244
   21  C  2  S   -0.062188   0.051578   0.082143  -0.242442  -1.670827
   22  C  2  X    0.000060   0.110550   0.033618  -0.241622   0.015509
   23  C  2  Y    0.064578   0.011652  -0.124510   0.278905  -0.768557
   24  C  2  Z    0.053502   0.075132  -0.519909  -0.168983  -0.008359
   25  C  2 XX   -0.025328   0.001983  -0.005285   0.013257   0.010672
   26  C  2 YY    0.028300  -0.001143  -0.005263  -0.014933   0.013875
   27  C  2 ZZ    0.003419  -0.006041   0.007050   0.003967  -0.004991
   28  C  2 XY    0.001704   0.021567   0.005683   0.004869  -0.005271
   29  C  2 XZ   -0.009314   0.018119  -0.006971   0.002387   0.004293
   30  C  2 YZ   -0.011045  -0.001127  -0.017280  -0.002977  -0.007002
   31  O  3  S    0.026205  -0.017408  -0.021479   0.042486  -0.008284
   32  O  3  S   -0.062246   0.029314   0.039067  -0.089022   0.005317
   33  O  3  X    0.378909   0.210363   0.158945  -0.109969  -0.014921
   34  O  3  Y   -0.205026  -0.188839  -0.060587   0.244364   0.084241
   35  O  3  Z    0.206308  -0.274487   0.306557   0.083720   0.013748
   36  O  3  S   -0.082466   0.157455   0.178571  -0.349552   0.090373
   37  O  3  X    0.276305   0.183819   0.168922  -0.150289  -0.027716
   38  O  3  Y   -0.138171  -0.152249  -0.058240   0.271801   0.140495
   39  O  3  Z    0.146431  -0.229628   0.315313   0.118564   0.011157
   40  O  3 XX    0.021897   0.006651  -0.000567  -0.002983   0.003273
   41  O  3 YY   -0.000941  -0.011913  -0.013273   0.019188  -0.009658
   42  O  3 ZZ   -0.008905  -0.005041  -0.003676   0.007739  -0.011476
   43  O  3 XY   -0.009059  -0.003007   0.001847  -0.009844  -0.007435
   44  O  3 XZ    0.006895  -0.009207   0.000453   0.001741  -0.000548
   45  O  3 YZ    0.008055  -0.001562  -0.008088  -0.001112  -0.001372
   46  H  4  S    0.137768  -0.020299   0.003030  -0.068372   0.099994
   47  H  4  S    0.157647  -0.034610   0.002553  -0.329699   1.850389
   48  H  5  S    0.142439  -0.093874  -0.128344   0.259527   0.047564
   49  H  5  S    0.170114  -0.155893  -0.343940   1.197961  -0.202709
   50  H  6  S    0.135202   0.048198  -0.053690   0.048246   0.036607
   51  H  6  S    0.168332   0.042207  -0.106167   0.388129   0.437302
   52  H  7  S   -0.063398   0.039029   0.130923  -0.016361  -0.024872
   53  H  7  S   -0.039201   0.044832   0.348203   0.317345  -0.524798

                     16         17         18         19         20
                    0.1476     0.1863     0.2429     0.3239     0.5190
                     A          A          A          A          A   
    1  C  1  S    0.117774  -0.019009   0.028255  -0.088513  -0.003736
    2  C  1  S   -0.142584   0.048208  -0.047898   0.022049  -0.192283
    3  C  1  X   -0.229577   0.088773   0.021474  -0.165132   0.325277
    4  C  1  Y   -0.092813   0.194264  -0.101537  -0.009479  -0.282902
    5  C  1  Z   -0.145926  -0.328451   0.047800  -0.063485   0.309868
    6  C  1  S   -2.107235   0.067272  -0.761112   2.404288  -0.255881
    7  C  1  X   -0.523831   0.560121   0.186735  -2.613572  -0.120119
    8  C  1  Y   -0.203664   0.754986  -0.721974   0.547574   0.429525
    9  C  1  Z   -0.457300  -1.208888   0.283044   0.189356  -0.507403
   10  C  1 XX    0.004826  -0.015472  -0.011030  -0.026622  -0.074921
   11  C  1 YY    0.002897   0.009874   0.026872   0.001352  -0.014944
   12  C  1 ZZ    0.012566  -0.000125  -0.011105   0.019039   0.039053
   13  C  1 XY   -0.009440   0.000573  -0.006838   0.019907  -0.017038
   14  C  1 XZ   -0.005832   0.006964   0.007955  -0.006930   0.012299
   15  C  1 YZ    0.000539   0.001642  -0.002295  -0.023249   0.008901
   16  C  2  S   -0.017587   0.059926   0.040019   0.094851  -0.046781
   17  C  2  S   -0.017099  -0.136761  -0.009604  -0.083350  -0.280118
   18  C  2  X    0.075956   0.038577   0.249703  -0.258119  -0.245887
   19  C  2  Y   -0.095402  -0.055108   0.153115   0.313877  -0.044732
   20  C  2  Z    0.076149   0.062665  -0.029389  -0.000134   0.589594
   21  C  2  S    0.289114  -0.634476  -0.805652  -2.936626   0.727578
   22  C  2  X    0.309808   0.195284   1.779662  -1.246782   0.363303
   23  C  2  Y   -0.270657  -0.397349   1.001587   1.915780  -0.374357
   24  C  2  Z    0.194507   0.396772  -0.430923  -0.123068  -0.496434
   25  C  2 XX   -0.019469   0.015380  -0.005518   0.000356  -0.068785
   26  C  2 YY   -0.003267  -0.007076   0.003961   0.004229  -0.087663
   27  C  2 ZZ    0.004967  -0.000872  -0.013182  -0.008729   0.046513
   28  C  2 XY   -0.001453   0.020423   0.023069  -0.014585   0.046818
   29  C  2 XZ   -0.003249  -0.019130  -0.005624  -0.005932   0.007542
   30  C  2 YZ    0.002808   0.011636  -0.005963  -0.000049   0.000400
   31  O  3  S   -0.003914  -0.009800  -0.094654  -0.050842   0.023786
   32  O  3  S   -0.004932   0.054720   0.095928   0.036493  -0.080462
   33  O  3  X   -0.038323   0.086037   0.088046   0.097699   0.017533
   34  O  3  Y   -0.052693   0.088793   0.266153  -0.028828  -0.065145
   35  O  3  Z   -0.075840  -0.055916  -0.037401  -0.049298   0.063252
   36  O  3  S    0.038382  -0.040814   1.751722   1.082235  -0.267455
   37  O  3  X   -0.062809   0.014838   0.500023   0.596720  -0.273527
   38  O  3  Y   -0.051294   0.150593   0.720247   0.013708  -0.054907
   39  O  3  Z   -0.068982  -0.090012  -0.147849  -0.101638   0.084751
   40  O  3 XX   -0.003165  -0.000535  -0.024398  -0.007440  -0.029868
   41  O  3 YY   -0.011979   0.010048  -0.031916  -0.012830   0.004106
   42  O  3 ZZ   -0.001482   0.010740  -0.054149  -0.040307   0.005876
   43  O  3 XY    0.005425  -0.001203   0.023790  -0.003601   0.045260
   44  O  3 XZ    0.002984  -0.001594  -0.007294  -0.002790   0.021891
   45  O  3 YZ   -0.000195   0.004119  -0.004760  -0.004534   0.019418
   46  H  4  S   -0.014588  -0.007792   0.020673   0.079594  -0.323945
   47  H  4  S    0.316974   0.841928  -0.109796  -1.067685   0.312871
   48  H  5  S   -0.092900  -0.016881   0.039251   0.059438  -0.213683
   49  H  5  S   -0.369636   0.425932   0.253950  -0.713809   0.301500
   50  H  6  S    0.037320  -0.069309  -0.091400   0.029885  -0.192767
   51  H  6  S    1.245429  -1.721935   0.379446   0.767034  -0.095848
   52  H  7  S    0.061653   0.035576  -0.005368   0.115400   0.197947
   53  H  7  S    1.497924   1.322981  -0.314831   0.231096   0.046401

                     21         22
                    0.5337     0.5834
                     A          A   
    1  C  1  S    0.001779   0.028750
    2  C  1  S    0.153671  -0.212604
    3  C  1  X   -0.273445   0.443829
    4  C  1  Y    0.523760  -0.217790
    5  C  1  Z    0.157647  -0.138672
    6  C  1  S    0.229414   0.124353
    7  C  1  X    0.083468  -0.521128
    8  C  1  Y   -0.380591   0.114856
    9  C  1  Z   -0.050776   0.243935
   10  C  1 XX   -0.003099   0.038029
   11  C  1 YY    0.010728  -0.000768
   12  C  1 ZZ    0.005953  -0.019283
   13  C  1 XY   -0.031210  -0.007248
   14  C  1 XZ   -0.020095  -0.020299
   15  C  1 YZ    0.004569  -0.016122
   16  C  2  S    0.049104  -0.020949
   17  C  2  S    0.161447  -0.386061
   18  C  2  X    0.322994   0.659341
   19  C  2  Y    0.180700   0.432980
   20  C  2  Z    0.660265   0.058799
   21  C  2  S   -0.454528   0.486036
   22  C  2  X   -0.706017  -0.591005
   23  C  2  Y    0.177821  -0.905035
   24  C  2  Z   -0.806985  -0.130814
   25  C  2 XX    0.091181  -0.065607
   26  C  2 YY    0.026068   0.004490
   27  C  2 ZZ   -0.028874   0.006296
   28  C  2 XY   -0.025470   0.090328
   29  C  2 XZ   -0.008358  -0.007040
   30  C  2 YZ   -0.039374  -0.017914
   31  O  3  S   -0.014732  -0.013002
   32  O  3  S    0.125208   0.003702
   33  O  3  X    0.127797   0.036394
   34  O  3  Y    0.013419   0.156741
   35  O  3  Z    0.040257  -0.023554
   36  O  3  S   -0.080770  -0.243387
   37  O  3  X    0.136323   0.061070
   38  O  3  Y   -0.000175  -0.005911
   39  O  3  Z    0.074900   0.015216
   40  O  3 XX    0.023519   0.003585
   41  O  3 YY    0.027644  -0.059264
   42  O  3 ZZ    0.006889   0.012060
   43  O  3 XY   -0.016409  -0.114707
   44  O  3 XZ    0.036558   0.022386
   45  O  3 YZ    0.027574   0.038373
   46  H  4  S    0.194448  -0.095237
   47  H  4  S   -0.288407   0.308830
   48  H  5  S   -0.049218   0.451109
   49  H  5  S    0.009110  -1.039802
   50  H  6  S   -0.024561   0.180812
   51  H  6  S    0.068149   0.114741
   52  H  7  S    0.047837   0.032156
   53  H  7  S    0.126728   0.077361

     ---------------------------------------------------------------------
     PROPERTIES FOR THE B3LYP    DFT FUNCTIONAL (RHF  TYPE) DENSITY MATRIX
     ---------------------------------------------------------------------

          -----------------
          ENERGY COMPONENTS
          -----------------

         WAVEFUNCTION NORMALIZATION =       1.0000000000

                ONE ELECTRON ENERGY =    -349.4721731012
                TWO ELECTRON ENERGY =     124.3742264580
           NUCLEAR REPULSION ENERGY =      71.4722684262
                                      ------------------
                       TOTAL ENERGY =    -153.6256782169

 ELECTRON-ELECTRON POTENTIAL ENERGY =     124.3742264580
  NUCLEUS-ELECTRON POTENTIAL ENERGY =    -501.8133606564
   NUCLEUS-NUCLEUS POTENTIAL ENERGY =      71.4722684262
                                      ------------------
             TOTAL POTENTIAL ENERGY =    -305.9668657721
               TOTAL KINETIC ENERGY =     152.3411875552
                 VIRIAL RATIO (V/T) =       2.0084316703

          ---------------------------------------
          MULLIKEN AND LOWDIN POPULATION ANALYSES
          ---------------------------------------

     ATOMIC MULLIKEN POPULATION IN EACH MOLECULAR ORBITAL

                      1          2          3          4          5

                  2.000000   2.000000   2.000000   2.000000   2.000000

    1             0.000038   0.000757   1.997922   0.067081   0.970724
    2            -0.000607   1.999434   0.001048   0.403794   0.586168
    3             2.000679  -0.000620  -0.000002   1.499387   0.226159
    4            -0.000006   0.000371  -0.000003  -0.001648   0.029072
    5            -0.000104   0.000042   0.000169   0.029760   0.014106
    6             0.000000  -0.000003   0.000334   0.000811   0.089650
    7            -0.000000   0.000019   0.000532   0.000816   0.084121

                      6          7          8          9         10

                  2.000000   2.000000   2.000000   2.000000   2.000000

    1             0.197382   0.654366   0.362155   0.449275   0.472258
    2             0.863675   0.253642   0.478470   0.458318   0.350902
    3             0.346960   0.629190   0.852564   0.693982   0.619798
    4             0.398056   0.030088   0.044710   0.074921   0.124027
    5             0.108940   0.063614   0.055587   0.013265   0.124872
    6             0.018826   0.279898   0.003277   0.225298   0.064691
    7             0.066159   0.089202   0.203237   0.084941   0.243453

                     11         12

                  2.000000   2.000000

    1             0.292485   1.152054
    2             0.214143   0.132690
    3             1.035434   0.570497
    4             0.132753   0.003704
    5             0.150325   0.120315
    6             0.155560   0.012288
    7             0.019300   0.008451

               ----- POPULATIONS IN EACH AO -----
                             MULLIKEN      LOWDIN
              1  C  1  S      1.99175     1.97888
              2  C  1  S      0.67106     0.36766
              3  C  1  X      0.72048     0.64408
              4  C  1  Y      0.67943     0.63656
              5  C  1  Z      0.69702     0.62983
              6  C  1  S      0.67954     0.35548
              7  C  1  X      0.29300     0.40261
              8  C  1  Y      0.46299     0.56506
              9  C  1  Z      0.40607     0.52007
             10  C  1 XX      0.00976     0.17178
             11  C  1 YY     -0.01479     0.12949
             12  C  1 ZZ      0.00201     0.15642
             13  C  1 XY      0.00907     0.01712
             14  C  1 XZ      0.00583     0.01297
             15  C  1 YZ      0.00326     0.00499
             16  C  2  S      1.99192     1.97591
             17  C  2  S      0.74058     0.37602
             18  C  2  X      0.75759     0.66267
             19  C  2  Y      0.73894     0.64571
             20  C  2  Z      0.44440     0.39558
             21  C  2  S      0.45146     0.30754
             22  C  2  X      0.14265     0.29821
             23  C  2  Y      0.15283     0.36404
             24  C  2  Z      0.27228     0.33203
             25  C  2 XX      0.00498     0.18849
             26  C  2 YY      0.02143     0.19137
             27  C  2 ZZ     -0.02568     0.10867
             28  C  2 XY      0.02836     0.05577
             29  C  2 XZ      0.01322     0.02718
             30  C  2 YZ      0.00672     0.01165
             31  O  3  S      1.99269     1.97650
             32  O  3  S      0.91704     0.73557
             33  O  3  X      0.98235     0.93242
             34  O  3  Y      0.91593     0.86061
             35  O  3  Z      0.95334     0.91264
             36  O  3  S      1.02758     0.47970
             37  O  3  X      0.55871     0.61106
             38  O  3  Y      0.49837     0.59648
             39  O  3  Z      0.62106     0.64929
             40  O  3 XX      0.00190     0.18048
             41  O  3 YY     -0.00239     0.18246
             42  O  3 ZZ     -0.01264     0.17207
             43  O  3 XY      0.01117     0.01939
             44  O  3 XZ      0.00616     0.00910
             45  O  3 YZ      0.00275     0.00439
             46  H  4  S      0.52996     0.48696
             47  H  4  S      0.30609     0.35511
             48  H  5  S      0.37433     0.32884
             49  H  5  S      0.30656     0.33372
             50  H  6  S      0.52060     0.47359
             51  H  6  S      0.33003     0.36082
             52  H  7  S      0.50667     0.46256
             53  H  7  S      0.29357     0.34241

          ----- MULLIKEN ATOMIC OVERLAP POPULATIONS -----
          (OFF-DIAGONAL ELEMENTS NEED TO BE MULTIPLIED BY 2)

             1           2           3           4           5

    1    5.5101375
    2    0.4809205   4.6800692
    3   -0.1826770   0.3644233   8.2543315
    4   -0.0570961   0.3560980  -0.0440173   0.5608405
    5    0.1558226  -0.0897066   0.0840117   0.0160206   0.5136634
    6    0.3489812  -0.0194368   0.0050586   0.0017425   0.0014768
    7    0.3604080  -0.0306903  -0.0071013   0.0024576  -0.0003983

             6           7

    6    0.5400505
    7   -0.0272442   0.5028003

          TOTAL MULLIKEN AND LOWDIN ATOMIC POPULATIONS
       ATOM         MULL.POP.    CHARGE          LOW.POP.     CHARGE
    1 C             6.616497   -0.616497         6.593007   -0.593007
    2 C             5.741677    0.258323         5.940836    0.059164
    3 O             8.474030   -0.474030         8.322149   -0.322149
    4 H             0.836046    0.163954         0.842069    0.157931
    5 H             0.680890    0.319110         0.662562    0.337438
    6 H             0.850629    0.149371         0.834408    0.165592
    7 H             0.800232    0.199768         0.804968    0.195032

          -------------------------------
          BOND ORDER AND VALENCE ANALYSIS     BOND ORDER THRESHOLD=0.050
          -------------------------------

                   BOND                       BOND                       BOND
  ATOM PAIR DIST  ORDER      ATOM PAIR DIST  ORDER      ATOM PAIR DIST  ORDER
    1   2  1.412  1.323        1   3  2.221  0.115        1   5  1.524  0.430
    1   6  1.089  0.931        1   7  1.094  0.890        2   3  1.285  1.457
    2   4  1.095  0.912        3   5  1.291  0.402

                       TOTAL       BONDED        FREE
      ATOM            VALENCE     VALENCE     VALENCE
    1 C                 3.679       3.679       0.000
    2 C                 3.732       3.732       0.000
    3 O                 2.019       2.019      -0.000
    4 H                 0.929       0.929       0.000
    5 H                 0.882       0.882       0.000
    6 H                 0.949       0.949       0.000
    7 H                 0.925       0.925       0.000

          ---------------------
          ELECTROSTATIC MOMENTS
          ---------------------

 POINT   1           X           Y           Z (BOHR)    CHARGE
                 0.166458    0.036495    0.042844        0.00 (A.U.)
         DX          DY          DZ         /D/  (DEBYE)
     0.978465    1.165880    0.045589    1.522744
 ...... END OF PROPERTY EVALUATION ......
 STEP CPU TIME =     0.03 TOTAL CPU TIME =        399.7 (      6.7 MIN)
 TOTAL WALL CLOCK TIME=        406.3 SECONDS, CPU UTILIZATION IS    98.38%
  $VIB   
          IVIB=   0 IATOM=   0 ICOORD=   0 E=     -153.6256782169
 -1.781661007E-05-6.214258346E-05 1.831151753E-05-2.200208642E-05 4.773799582E-05
 -2.286669717E-06-1.316379315E-05 1.720827660E-06 8.430175319E-06-4.715122668E-06
 -1.166937173E-05-3.813195396E-06 3.080641590E-05 1.449347817E-05-2.553701391E-05
  1.122284921E-06 1.629886353E-06-6.391427393E-07 2.576891149E-05 8.229767185E-06
  5.534328918E-06
  9.784648131E-01 1.165880420E+00 4.558914574E-02
 ......END OF GEOMETRY SEARCH......
 STEP CPU TIME =     0.00 TOTAL CPU TIME =        399.7 (      6.7 MIN)
 TOTAL WALL CLOCK TIME=        406.4 SECONDS, CPU UTILIZATION IS    98.37%
                995455  WORDS OF DYNAMIC MEMORY USED
 EXECUTION OF GAMESS TERMINATED NORMALLY Thu Oct 17 15:29:48 2019
 DDI: 263640 bytes (0.3 MB / 0 MWords) used by master data server.

 ----------------------------------------
 CPU timing information for all processes
 ========================================
 0: 393.860 + 5.888 = 399.748
 ----------------------------------------
 ddikick.x: exited gracefully.
----- accounting info -----
Files used on the master node crcfe02.crc.nd.edu were:
-rw-r--r-- 1 cdrisko campus      486 Oct 17 15:23 /afs/crc.nd.edu/user/c/cdrisko/TS_opt.F05
-rw-r--r-- 1 cdrisko campus   340849 Oct 17 15:29 /afs/crc.nd.edu/user/c/cdrisko/TS_opt.F07
-rw-r--r-- 1 cdrisko campus 12061072 Oct 17 15:29 /afs/crc.nd.edu/user/c/cdrisko/TS_opt.F08
-rw-r--r-- 1 cdrisko campus  1963200 Oct 17 15:29 /afs/crc.nd.edu/user/c/cdrisko/TS_opt.F10
-rw-r--r-- 1 cdrisko campus  2039576 Oct 17 15:29 /afs/crc.nd.edu/user/c/cdrisko/TS_opt.F22
Thu Oct 17 15:29:51 EDT 2019
0.376u 0.212s 6:49.96 0.1%	0+0k 0+696io 0pf+0w
