----- GAMESS execution script 'rungms' -----
This job is running on host crcfe02.crc.nd.edu
under operating system Linux at Sun Sep 29 10:47:04 EDT 2019
Available scratch disk space (Kbyte units) at beginning of the job is
Filesystem      1K-blocks  Used  Available Use% Mounted on
AFS            2147483647     0 2147483647   0% /afs
GAMESS temporary binary files will be written to /afs/crc.nd.edu/user/c/cdrisko
GAMESS supplementary output files will be written to /afs/crc.nd.edu/user/c/cdrisko/scr
Copying input file SO2.inp to your run's scratch directory...

 Distributed Data Interface kickoff program.
 Initiating 1 compute processes on 1 nodes to run the following command:
 /afs/crc.nd.edu/x86_64_linux/g/gamess/nov-2017/gamess/gamess.00.x SO2 

          ******************************************************
          *         GAMESS VERSION = 11 NOV 2017 (R3)         *
          *             FROM IOWA STATE UNIVERSITY             *
          * M.W.SCHMIDT, K.K.BALDRIDGE, J.A.BOATZ, S.T.ELBERT, *
          *   M.S.GORDON, J.H.JENSEN, S.KOSEKI, N.MATSUNAGA,   *
          *          K.A.NGUYEN, S.J.SU, T.L.WINDUS,           *
          *       TOGETHER WITH M.DUPUIS, J.A.MONTGOMERY       *
          *         J.COMPUT.CHEM.  14, 1347-1363(1993)        *
          **************** 64 BIT INTEL VERSION ****************

  SINCE 1993, STUDENTS AND POSTDOCS WORKING AT IOWA STATE UNIVERSITY
  AND ALSO IN THEIR VARIOUS JOBS AFTER LEAVING ISU HAVE MADE IMPORTANT
  CONTRIBUTIONS TO THE CODE:
     IVANA ADAMOVIC, CHRISTINE AIKENS, YURI ALEXEEV, POOJA ARORA,
     ANDREY ASADCHEV, ROB BELL, PRADIPTA BANDYOPADHYAY, JONATHAN BENTZ,
     BRETT BODE, KURT BRORSEN, CALEB CARLIN, GALINA CHABAN, WEI CHEN,
     CHEOL HO CHOI, PAUL DAY, ALBERT DEFUSCO, NUWAN DESILVA, TIM DUDLEY,
     DMITRI FEDOROV, ALEX FINDLATER, GRAHAM FLETCHER, MARK FREITAG,
     KURT GLAESEMANN, ANASTASIA GUININA,
     DAN KEMP, GRANT MERRILL, NORIYUKI MINEZAWA, JONATHAN MULLIN,
     TAKESHI NAGATA, SEAN NEDD, HEATHER NETZLOFF, BOSILJKA NJEGIC, RYAN OLSON,
     MIKE PAK, BUU PHAM,
     SPENCER PRUITT, LUKE ROSKOP, JIM SHOEMAKER, LYUDMILA SLIPCHENKO,
     TONY SMITH, SAROM SOK LEANG, JIE SONG, TETSUYA TAKETSUGU, SIMON WEBB,
     PENG XU, SOOHAENG YOO, FEDERICO ZAHARIEV

  ADDITIONAL CODE HAS BEEN PROVIDED BY COLLABORATORS IN OTHER GROUPS:
     IOWA STATE UNIVERSITY:
          JOE IVANIC, AARON WEST, LAIMUTIS BYTAUTAS, KLAUS RUEDENBERG
     UNIVERSITY OF TOKYO: KIMIHIKO HIRAO, TAKAHITO NAKAJIMA,
          TAKAO TSUNEDA, MUNEAKI KAMIYA, SUSUMU YANAGISAWA,
          KIYOSHI YAGI, MAHITO CHIBA, SEIKEN TOKURA, NAOAKI KAWAKAMI
     UNIVERSITY OF AARHUS: FRANK JENSEN
     UNIVERSITY OF IOWA: VISVALDAS KAIRYS, HUI LI
     NATIONAL INST. OF STANDARDS AND TECHNOLOGY: WALT STEVENS, DAVID GARMER
     UNIVERSITY OF PISA: BENEDETTA MENNUCCI, JACOPO TOMASI
     UNIVERSITY OF MEMPHIS: HENRY KURTZ, PRAKASHAN KORAMBATH
     UNIVERSITY OF ALBERTA: TOBY ZENG, MARIUSZ KLOBUKOWSKI
     UNIVERSITY OF NEW ENGLAND: MARK SPACKMAN
     MIE UNIVERSITY: HIROAKI UMEDA
     NAT. INST. OF ADVANCED INDUSTRIAL SCIENCE AND TECHNOLOGY: KAZUO KITAURA
     MICHIGAN STATE UNIVERSITY:
          KAROL KOWALSKI, MARTA WLOCH, JEFFREY GOUR, JESSE LUTZ,
          WEI LI, PIOTR PIECUCH
     UNIVERSITY OF SILESIA: MONIKA MUSIAL, STANISLAW KUCHARSKI
     FACULTES UNIVERSITAIRES NOTRE-DAME DE LA PAIX:
          OLIVIER QUINET, BENOIT CHAMPAGNE
     UNIVERSITY OF CALIFORNIA - SANTA BARBARA: BERNARD KIRTMAN
     INSTITUTE FOR MOLECULAR SCIENCE:
          KAZUYA ISHIMURA, MICHIO KATOUDA, AND SHIGERU NAGASE
     UNIVERSITY OF NOTRE DAME: ANNA POMOGAEVA, DAN CHIPMAN
     KYUSHU UNIVERSITY:
          HARUYUKI NAKANO,
          FENG LONG GU, JACEK KORCHOWIEC, MARCIN MAKOWSKI, AND YURIKO AOKI,
          HIROTOSHI MORI AND EISAKU MIYOSHI
     PENNSYLVANIA STATE UNIVERSITY:
          TZVETELIN IORDANOV, CHET SWALINA, JONATHAN SKONE,
          SHARON HAMMES-SCHIFFER
     WASEDA UNIVERSITY:
          MASATO KOBAYASHI, TOMOKO AKAMA, TSUGUKI TOUMA,
          TAKESHI YOSHIKAWA, YASUHIRO IKABATA, JUNJI SEINO,
          YUYA NAKAJIMA, HIROMI NAKAI
     NANJING UNIVERSITY: SHUHUA LI
     UNIVERSITY OF NEBRASKA:
          PEIFENG SU, DEJUN SI, NANDUN THELLAMUREGE, YALI WANG, HUI LI
     UNIVERSITY OF ZURICH: ROBERTO PEVERATI, KIM BALDRIDGE
     N. COPERNICUS UNIVERSITY AND JACKSON STATE UNIVERSITY:
          MARIA BARYSZ
     UNIVERSITY OF COPENHAGEN: Jimmy Kromann, CASPER STEINMANN
     TOKYO INSTITUTE OF TECHNOLOGY: HIROYA NAKATA
     NAGOYA UNIVERSITY: YOSHIO NISHIMOTO, STEPHAN IRLE
     MOSCOW STATE UNIVERSITY: VLADIMIR MIRONOV

 EXECUTION OF GAMESS BEGUN Sun Sep 29 10:47:04 2019

            ECHO OF THE FIRST FEW INPUT CARDS -
 INPUT CARD> $BASIS GBASIS=PCSEG-1 $END                                                     
 INPUT CARD> $CONTRL COORD=ZMT ISPHER=1 RUNTYP=ENERGY DFTTYP=PBE MULT=1 $END                
 INPUT CARD>                                                                                
 INPUT CARD> $DATA                                                                          
 INPUT CARD>Title SO2 single-point calculation template with Z-Matrix                       
 INPUT CARD>C1                                                                              
 INPUT CARD>S                                                                               
 INPUT CARD>O 1 1.45                                                                        
 INPUT CARD>O 1 1.45 2 110                                                                  
 INPUT CARD> $END                                                                           
    1000000 WORDS OF MEMORY AVAILABLE

     BASIS OPTIONS
     -------------
     GBASIS=PCSEG-1      IGAUSS=       0      POLAR=NONE    
     NDFUNC=       0     NFFUNC=       0     DIFFSP=       F
     NPFUNC=       0      DIFFS=       F     BASNAM=        


     RUN TITLE
     ---------
 Title SO2 single-point calculation template with Z-Matrix                       

 THE POINT GROUP OF THE MOLECULE IS C1      
 THE ORDER OF THE PRINCIPAL AXIS IS     0

 YOUR FULLY SUBSTITUTED Z-MATRIX IS
 S   
 O      1   1.4500000
 O      1   1.4500000  2  110.0000

 THE MOMENTS OF INERTIA ARE (AMU-ANGSTROM**2)
 IXX=    11.061   IYY=    45.131   IZZ=    56.192

 ATOM      ATOMIC                      COORDINATES (BOHR)
           CHARGE         X                   Y                   Z
 S          16.0     0.0000000000       -0.7860472405        0.0000000000
 O           8.0     2.2445607137        0.7856110912        0.0000000000
 O           8.0    -2.2445607137        0.7856110912        0.0000000000

          INTERNUCLEAR DISTANCES (ANGS.)
          ------------------------------

                1 S          2 O          3 O     

   1 S       0.0000000    1.4500000 *  1.4500000 *
   2 O       1.4500000 *  0.0000000    2.3755409 *
   3 O       1.4500000 *  2.3755409 *  0.0000000  

  * ... LESS THAN  3.000


     ATOMIC BASIS SET
     ----------------
 THE CONTRACTED PRIMITIVE FUNCTIONS HAVE BEEN UNNORMALIZED
 THE CONTRACTED BASIS FUNCTIONS ARE NOW NORMALIZED TO UNITY

  SHELL TYPE  PRIMITIVE        EXPONENT          CONTRACTION COEFFICIENT(S)

 S         

      1   S       1         49299.4000000    0.000677492991
      1   S       2          7395.8400000    0.005232317766
      1   S       3          1683.3000000    0.026769459077
      1   S       4           476.1440000    0.102869580705
      1   S       5           154.3290000    0.286438127414
      1   S       6            55.0288000    0.454278639081
      1   S       7            20.5029000    0.271743121997

      2   S       8            45.9596000   -0.088421914560
      2   S       9             4.9274000    0.564350486135
      2   S      10             1.9179900    0.505415953466

      3   S      11             0.3684980    1.000000000000

      4   S      12             0.1291650    1.000000000000

      5   P      13           451.6620000    0.003707705453
      5   P      14           106.0980000    0.029219352245
      5   P      15            33.6996000    0.124444551509
      5   P      16            12.3054000    0.321808587656
      5   P      17             4.7141200    0.462822172957
      5   P      18             1.7810500    0.266513371364

      6   P      19             0.8722350    0.349265132972
      6   P      20             0.3102780    0.717115018770

      7   P      21             0.1001940    1.000000000000

      8   D      22             0.5500000    1.000000000000

 O         

      9   S      23          2288.6400000    0.005451138222
      9   S      24           344.4160000    0.040718922842
      9   S      25            78.2538000    0.181369420873
      9   S      26            21.7195000    0.465536820246
      9   S      27             6.5590700    0.451211321214

     10   S      28            10.4656000   -0.150211201174
     10   S      29             0.9643510    1.052867983385

     11   S      30             0.2851270    1.000000000000

     12   P      31            17.0590000    0.068749256972
     12   P      32             3.6899900    0.351671941499
     12   P      33             0.9929960    0.724532099722

     13   P      34             0.2449240    1.000000000000

     14   D      35             1.0000000    1.000000000000

 O         

     15   S      36          2288.6400000    0.005451138222
     15   S      37           344.4160000    0.040718922842
     15   S      38            78.2538000    0.181369420873
     15   S      39            21.7195000    0.465536820246
     15   S      40             6.5590700    0.451211321214

     16   S      41            10.4656000   -0.150211201174
     16   S      42             0.9643510    1.052867983385

     17   S      43             0.2851270    1.000000000000

     18   P      44            17.0590000    0.068749256972
     18   P      45             3.6899900    0.351671941499
     18   P      46             0.9929960    0.724532099722

     19   P      47             0.2449240    1.000000000000

     20   D      48             1.0000000    1.000000000000

 TOTAL NUMBER OF BASIS SET SHELLS             =   20
 NUMBER OF CARTESIAN GAUSSIAN BASIS FUNCTIONS =   49
 NOTE: THIS RUN WILL RESTRICT THE MO VARIATION SPACE TO SPHERICAL HARMONICS.
 THE NUMBER OF ORBITALS KEPT IN THE VARIATIONAL SPACE WILL BE PRINTED LATER.
 NUMBER OF ELECTRONS                          =   32
 CHARGE OF MOLECULE                           =    0
 SPIN MULTIPLICITY                            =    1
 NUMBER OF OCCUPIED ORBITALS (ALPHA)          =   16
 NUMBER OF OCCUPIED ORBITALS (BETA )          =   16
 TOTAL NUMBER OF ATOMS                        =    3
 THE NUCLEAR REPULSION ENERGY IS      107.6838429295

     LEBEDEV GRID-BASED DFT OPTIONS
     ------------------------------
     DFTTYP=PBE     
     NRAD  =      96     NLEB  =     302
     NRAD0 =      24     NLEB0 =     110
     SWOFF =    5.00E-03 (PURE SCF -> DFT)
     SWITCH=    3.00E-04 (COARSE -> TIGHT GRID)
     THRESH=    0.00E+00 GTHRE=    1.00E+00

 GRIMME'S EMPIRICAL DISPERSION CORRECTION= F

     $CONTRL OPTIONS
     ---------------
 SCFTYP=RHF          RUNTYP=ENERGY       EXETYP=RUN     
 MPLEVL=       0     CITYP =NONE         CCTYP =NONE         VBTYP =NONE    
 DFTTYP=PBE          TDDFT =NONE    
 MULT  =       1     ICHARG=       0     NZVAR =       0     COORD =ZMT     
 PP    =NONE         RELWFN=NONE         LOCAL =NONE         NUMGRD=       F
 ISPHER=       1     NOSYM =       0     MAXIT =      30     UNITS =ANGS    
 PLTORB=       F     MOLPLT=       F     AIMPAC=       F     FRIEND=        
 NPRINT=       7     IREST =       0     GEOM  =INPUT   
 NORMF =       0     NORMP =       0     ITOL  =      20     ICUT  =       9
 INTTYP=BEST         GRDTYP=BEST         QMTTOL= 1.0E-06

     $SYSTEM OPTIONS
     ---------------
  REPLICATED MEMORY=     1000000 WORDS (ON EVERY NODE).
 DISTRIBUTED MEMDDI=           0 MILLION WORDS IN AGGREGATE,
 MEMDDI DISTRIBUTED OVER   1 PROCESSORS IS           0 WORDS/PROCESSOR.
 TOTAL MEMORY REQUESTED ON EACH PROCESSOR=     1000000 WORDS.
 TIMLIM=      525600.00 MINUTES, OR     365.0 DAYS.
 PARALL= F  BALTYP=  DLB     KDIAG=    0  COREFL= F
 MXSEQ2=     300 MXSEQ3=     150  mem10=         0

          ----------------
          PROPERTIES INPUT
          ----------------

     MOMENTS            FIELD           POTENTIAL          DENSITY
 IEMOM =       1   IEFLD =       0   IEPOT =       0   IEDEN =       0
 WHERE =COMASS     WHERE =NUCLEI     WHERE =NUCLEI     WHERE =NUCLEI  
 OUTPUT=BOTH       OUTPUT=BOTH       OUTPUT=BOTH       OUTPUT=BOTH    
 IEMINT=       0   IEFINT=       0                     IEDINT=       0
                                                       MORB  =       0
          EXTRAPOLATION IN EFFECT
          DIIS IN EFFECT
 ORBITAL PRINTING OPTION: NPREO=     1    49     2     1

     -------------------------------
     INTEGRAL TRANSFORMATION OPTIONS
     -------------------------------
     NWORD  =            0
     CUTOFF = 1.0E-09     MPTRAN =       0
     DIRTRF =       F     AOINTS =DUP     

          ----------------------
          INTEGRAL INPUT OPTIONS
          ----------------------
 NOPK  =       1 NORDER=       0 SCHWRZ=       F

   --- ENCODED Z MATRIX ---
 COORD  TYPE   I   J   K   L   M   N
    1      1    2   1
    2      1    3   1
    3      2    3   1   2

 THE DETERMINANT OF THE G MATRIX IS 10**(    -4)

 THE DETERMINANT OF THE G MATRIX IS 10**(    -4)
 * * * WARNING * * *
 YOUR B MATRIX HAS A SMALL DETERMINANT.
 THIS SUGGESTS YOU MAY HAVE BADLY CHOSEN COORDINATES.

     ------------------------------------------
     THE POINT GROUP IS C1 , NAXIS= 0, ORDER= 1
     ------------------------------------------

 -- VARIATIONAL SPACE WILL BE RESTRICTED TO PURE SPHERICAL HARMONICS ONLY --
 AFTER EXCLUDING CONTAMINANT COMBINATIONS FROM THE CARTESIAN GAUSSIAN BASIS
 SET, THE NUMBER OF SPHERICAL HARMONICS KEPT IN THE VARIATION SPACE IS   46

     DIMENSIONS OF THE SYMMETRY SUBSPACES ARE
 A   =   46

 ..... DONE SETTING UP THE RUN .....
 STEP CPU TIME =     0.04 TOTAL CPU TIME =          0.0 (      0.0 MIN)
 TOTAL WALL CLOCK TIME=          0.0 SECONDS, CPU UTILIZATION IS   100.00%

          ********************
          1 ELECTRON INTEGRALS
          ********************
 ...... END OF ONE-ELECTRON INTEGRALS ......
 STEP CPU TIME =     0.00 TOTAL CPU TIME =          0.0 (      0.0 MIN)
 TOTAL WALL CLOCK TIME=          0.0 SECONDS, CPU UTILIZATION IS    80.00%

          -------------
          GUESS OPTIONS
          -------------
          GUESS =HUCKEL            NORB  =       0          NORDER=       0
          MIX   =       F          PRTMO =       F          PUNMO =       F
          TOLZ  = 1.0E-08          TOLE  = 1.0E-05
          SYMDEN=       F          PURIFY=       F

 INITIAL GUESS ORBITALS GENERATED BY HUCKEL   ROUTINE.
 HUCKEL GUESS REQUIRES     21634 WORDS.

 STATISTICS FOR GENERATION OF SYMMETRY ORBITAL -Q- MATRIX
 NUMBER OF CARTESIAN ATOMIC ORBITALS=         49
 NUMBER OF SPHERICAL CONTAMINANTS DROPPED=     3
 NUMBER OF LINEARLY DEPENDENT MOS DROPPED=     0
 TOTAL NUMBER OF MOS IN VARIATION SPACE=      46

 SYMMETRIES FOR INITIAL GUESS ORBITALS FOLLOW.   BOTH SET(S).
    16 ORBITALS ARE OCCUPIED (    7 CORE ORBITALS).
     8=A        9=A       10=A       11=A       12=A       13=A       14=A   
    15=A       16=A       17=A       18=A       19=A       20=A       21=A   
    22=A       23=A       24=A       25=A       26=A   
 ...... END OF INITIAL ORBITAL SELECTION ......
 STEP CPU TIME =     0.00 TOTAL CPU TIME =          0.0 (      0.0 MIN)
 TOTAL WALL CLOCK TIME=          0.0 SECONDS, CPU UTILIZATION IS    80.00%

                    ----------------------
                    AO INTEGRAL TECHNOLOGY
                    ----------------------
     S,P,L SHELL ROTATED AXIS INTEGRALS, REPROGRAMMED BY
        KAZUYA ISHIMURA (IMS) AND JOSE SIERRA (SYNSTAR).
     S,P,D,L SHELL ROTATED AXIS INTEGRALS PROGRAMMED BY
        KAZUYA ISHIMURA (INSTITUTE FOR MOLECULAR SCIENCE).
     S,P,D,F,G SHELL TO TOTAL QUARTET ANGULAR MOMENTUM SUM 5,
        ERIC PROGRAM BY GRAHAM FLETCHER (ELORET AND NASA ADVANCED
        SUPERCOMPUTING DIVISION, AMES RESEARCH CENTER).
     S,P,D,F,G,L SHELL GENERAL RYS QUADRATURE PROGRAMMED BY
        MICHEL DUPUIS (PACIFIC NORTHWEST NATIONAL LABORATORY).

          --------------------
          2 ELECTRON INTEGRALS
          --------------------

 THE -PK- OPTION IS OFF, THE INTEGRALS ARE NOT IN SUPERMATRIX FORM.
 STORING   15000 INTEGRALS/RECORD ON DISK, USING 12 BYTES/INTEGRAL.
 TWO ELECTRON INTEGRAL EVALUATION REQUIRES   90606 WORDS OF MEMORY.
 II,JST,KST,LST =  1  1  1  1 NREC =         1 INTLOC =    1
 II,JST,KST,LST =  2  1  1  1 NREC =         1 INTLOC =    2
 II,JST,KST,LST =  3  1  1  1 NREC =         1 INTLOC =    7
 II,JST,KST,LST =  4  1  1  1 NREC =         1 INTLOC =   22
 II,JST,KST,LST =  5  1  1  1 NREC =         1 INTLOC =   56
 II,JST,KST,LST =  6  1  1  1 NREC =         1 INTLOC =  125
 II,JST,KST,LST =  7  1  1  1 NREC =         1 INTLOC =  329
 II,JST,KST,LST =  8  1  1  1 NREC =         1 INTLOC =  776
 II,JST,KST,LST =  9  1  1  1 NREC =         1 INTLOC = 2864
 II,JST,KST,LST = 10  1  1  1 NREC =         1 INTLOC = 4986
 II,JST,KST,LST = 11  1  1  1 NREC =         1 INTLOC = 7652
 II,JST,KST,LST = 12  1  1  1 NREC =         1 INTLOC =10770
 II,JST,KST,LST = 13  1  1  1 NREC =         2 INTLOC = 6699
 II,JST,KST,LST = 14  1  1  1 NREC =         3 INTLOC = 6971
 II,JST,KST,LST = 15  1  1  1 NREC =         6 INTLOC = 9003
 II,JST,KST,LST = 16  1  1  1 NREC =         7 INTLOC = 2096
 II,JST,KST,LST = 17  1  1  1 NREC =         7 INTLOC =14157
 II,JST,KST,LST = 18  1  1  1 NREC =         8 INTLOC =12663
 II,JST,KST,LST = 19  1  1  1 NREC =        11 INTLOC = 9249
 II,JST,KST,LST = 20  1  1  1 NREC =        15 INTLOC = 1753
 TOTAL NUMBER OF NONZERO TWO-ELECTRON INTEGRALS =              347121
         24 INTEGRAL RECORDS WERE STORED ON DISK FILE  8.
  ...... END OF TWO-ELECTRON INTEGRALS .....
 STEP CPU TIME =     0.11 TOTAL CPU TIME =          0.2 (      0.0 MIN)
 TOTAL WALL CLOCK TIME=          0.2 SECONDS, CPU UTILIZATION IS    93.75%

          --------------------------
               R-PBE SCF CALCULATION
          --------------------------

     NUCLEAR ENERGY =       107.6838429295
     MAXIT =   30     NPUNCH=    2
     EXTRAP=T  DAMP=F  SHIFT=F  RSTRCT=F  DIIS=T  DEM=F  SOSCF=F
         DENSITY MATRIX CONVERGENCE THRESHOLD=  1.00E-05
     COARSE -> FINE DFT GRID SWITCH THRESHOLD=  3.00E-04 (SWITCH IN $DFT)
                   HF -> DFT SWITCH THRESHOLD=  5.00E-03 (SWOFF IN $DFT)
     MEMORY REQUIRED FOR RHF ITERS=    183108 WORDS.

 DFT CODE IS SWITCHING FROM THE FINE GRID NRAD= 96,  NLEB=  302
                      TO THE COARSE GRID NRAD0= 24, NLEB0=  110

     EXCHANGE FUNCTIONAL   =PBE       
     CORRELATION FUNCTIONAL=PBE       
     DFT THRESHOLD         =.460E-07
     GRID CHANGE THRESHOLD =.300E-03
 FOR AN EULER-MACLAURIN QUADRATURE USING  96 RADIAL POINTS:
 SMALLEST GAUSSIAN PRIMITIVE EXPONENT=        0.1001940000 OF TYPE -P-
 ON ATOM NUMBER   1 HAS RADIAL NORMALIZATION=  1.000000
  LARGEST GAUSSIAN PRIMITIVE EXPONENT=    49299.4000000000 OF TYPE -S-
 ON ATOM NUMBER   1 HAS RADIAL NORMALIZATION=  1.000000
 DFT IS SWITCHED OFF, PERFORMING PURE SCF UNTIL SWOFF THRESHOLD IS REACHED.

 ITER EX DEM     TOTAL ENERGY        E CHANGE  DENSITY CHANGE    DIIS ERROR
   1  0  0     -546.0936503452  -546.0936503452   0.595983398   0.990717615
          * * *   INITIATING DIIS PROCEDURE   * * *
   2  1  0     -546.8979679868    -0.8043176416   0.421051451   0.242959488
   3  2  0     -546.9883909637    -0.0904229770   0.158875408   0.164956145
   4  3  0     -547.1002912746    -0.1119003109   0.021276925   0.011852222
   5  4  0     -547.1008910823    -0.0005998077   0.007643534   0.002890382
   6  5  0     -547.1009514046    -0.0000603222   0.001747946   0.000706132
 CONVERGED TO SWOFF, SO DFT CALCULATION IS NOW SWITCHED ON.
          * * *   INITIATING DIIS PROCEDURE   * * *
   7  6  0     -548.2314122665    -1.1304608620   0.319632354   0.097274787
   8  7  0     -548.2422305421    -0.0108182756   0.269489976   0.080541139
   9  8  0     -548.2394637548     0.0027667873   0.103603323   0.080614976
  10  9  0     -548.2650789595    -0.0256152046   0.021405285   0.010160921
  11 10  0     -548.2654780512    -0.0003990918   0.001003031   0.000780811
  12 11  0     -548.2654795847    -0.0000015335   0.000315435   0.000247388
  13 12  0     -548.2654797334    -0.0000001487   0.000049498   0.000022086
 DFT CODE IS SWITCHING BACK TO THE FINE GRID
          * * *   INITIATING DIIS PROCEDURE   * * *
  14 13  0     -548.2407423110     0.0247374225   0.012622422   0.009548927
  15 14  0     -548.2409733883    -0.0002310773   0.004475447   0.002455216
  16 15  0     -548.2409584747     0.0000149136   0.004554890   0.003070905
  17 16  0     -548.2409881301    -0.0000296554   0.001486715   0.000823595
  18 17  0     -548.2409880549     0.0000000753   0.000938822   0.001016719
  19 18  0     -548.2409909026    -0.0000028478   0.000189103   0.000076197
  20 19  0     -548.2409909393    -0.0000000367   0.000016267   0.000006481
  21 20  0     -548.2409909394    -0.0000000001   0.000002400   0.000001731
  22 21  0     -548.2409909394    -0.0000000000   0.000000105   0.000000098

          -----------------
          DENSITY CONVERGED
          -----------------
     TIME TO FORM FOCK OPERATORS=       2.5 SECONDS (       0.1 SEC/ITER)
     TIME TO SOLVE SCF EQUATIONS=       0.0 SECONDS (       0.0 SEC/ITER)

 FINAL R-PBE ENERGY IS     -548.2409909394 AFTER  22 ITERATIONS
 DFT EXCHANGE + CORRELATION ENERGY =       -42.5439381482
 TOTAL ELECTRON NUMBER             =        31.9999494428

          ------------
          EIGENVECTORS
          ------------

                      1          2          3          4          5
                  -88.2215   -18.7930   -18.7930    -7.8403    -5.8661
                     A          A          A          A          A   
    1  S  1  S    0.997749  -0.000001  -0.000034  -0.308354  -0.000000
    2  S  1  S    0.008332   0.000004   0.000164   1.031527   0.000000
    3  S  1  S   -0.003343   0.000005   0.000195   0.028374  -0.000000
    4  S  1  S    0.000586   0.000207   0.008773  -0.005680  -0.000000
    5  S  1  X   -0.000000  -0.000098   0.000002  -0.000000   0.994389
    6  S  1  Y    0.000181  -0.000003  -0.000111   0.010853  -0.000001
    7  S  1  Z    0.000000   0.000000   0.000000   0.000000   0.000000
    8  S  1  X    0.000000  -0.001167   0.000027  -0.000000   0.017854
    9  S  1  Y   -0.000638   0.000042   0.001780   0.001432  -0.000000
   10  S  1  Z    0.000000   0.000000   0.000000   0.000000   0.000000
   11  S  1  X    0.000000  -0.003309   0.000078   0.000000  -0.002579
   12  S  1  Y   -0.000036   0.000086   0.003639  -0.000232  -0.000000
   13  S  1  Z    0.000000   0.000000   0.000000   0.000000   0.000000
   14  S  1 XX   -0.000283   0.000002   0.000100   0.000656  -0.000000
   15  S  1 YY    0.000012   0.000007   0.000283  -0.000205  -0.000000
   16  S  1 ZZ    0.000272  -0.000009  -0.000383  -0.000451   0.000000
   17  S  1 XY    0.000000   0.000545  -0.000013  -0.000000   0.001575
   18  S  1 XZ    0.000000   0.000000   0.000000   0.000000   0.000000
   19  S  1 YZ    0.000000   0.000000   0.000000   0.000000   0.000000
   20  O  2  S   -0.000023  -0.685524   0.718664  -0.000158  -0.000498
   21  O  2  S   -0.000169  -0.023234   0.024742  -0.000179   0.000212
   22  O  2  S    0.000673   0.010322  -0.013308  -0.000396  -0.001076
   23  O  2  X   -0.000097   0.000999  -0.000849   0.000044  -0.000646
   24  O  2  Y   -0.000059   0.000735  -0.000549   0.000017  -0.000475
   25  O  2  Z    0.000000   0.000000   0.000000   0.000000   0.000000
   26  O  2  X   -0.000496  -0.001525   0.002829   0.000810   0.000913
   27  O  2  Y   -0.000366  -0.001537   0.001258   0.000660   0.000811
   28  O  2  Z    0.000000   0.000000   0.000000   0.000000   0.000000
   29  O  2 XX    0.000155   0.000053  -0.000187   0.000198   0.000489
   30  O  2 YY    0.000005   0.000078   0.000089  -0.000029   0.000069
   31  O  2 ZZ   -0.000160  -0.000131   0.000097  -0.000169  -0.000558
   32  O  2 XY    0.000259   0.000046  -0.000244   0.000277   0.000907
   33  O  2 XZ    0.000000   0.000000   0.000000   0.000000   0.000000
   34  O  2 YZ    0.000000   0.000000   0.000000   0.000000   0.000000
   35  O  3  S   -0.000023   0.718628   0.685562  -0.000158   0.000498
   36  O  3  S   -0.000169   0.024374   0.023620  -0.000179  -0.000212
   37  O  3  S    0.000673  -0.010938  -0.012807  -0.000396   0.001076
   38  O  3  X    0.000097   0.001038   0.000801  -0.000044  -0.000646
   39  O  3  Y   -0.000059  -0.000760  -0.000514   0.000017   0.000475
   40  O  3  Z    0.000000   0.000000   0.000000   0.000000   0.000000
   41  O  3  X    0.000496  -0.001656  -0.002754  -0.000810   0.000913
   42  O  3  Y   -0.000366   0.001595   0.001184   0.000660  -0.000811
   43  O  3  Z    0.000000   0.000000   0.000000   0.000000   0.000000
   44  O  3 XX    0.000155  -0.000062  -0.000184   0.000198  -0.000489
   45  O  3 YY    0.000005  -0.000073   0.000093  -0.000029  -0.000069
   46  O  3 ZZ   -0.000160   0.000135   0.000091  -0.000169   0.000558
   47  O  3 XY   -0.000259   0.000058   0.000242  -0.000277   0.000907
   48  O  3 XZ    0.000000   0.000000   0.000000   0.000000   0.000000
   49  O  3 YZ    0.000000   0.000000   0.000000   0.000000   0.000000

                      6          7          8          9         10
                   -5.8652    -5.8597    -1.0631    -0.9607    -0.5818
                     A          A          A          A          A   
    1  S  1  S    0.000000   0.003448   0.052000  -0.000000   0.065608
    2  S  1  S    0.000000  -0.011896  -0.318110   0.000000  -0.420664
    3  S  1  S    0.000000   0.000027   0.441875  -0.000001   0.653699
    4  S  1  S    0.000000   0.001677   0.059341   0.000005   0.236500
    5  S  1  X    0.000000   0.000001  -0.000000   0.136610   0.000000
    6  S  1  Y    0.000000   0.994686  -0.073885  -0.000000   0.066178
    7  S  1  Z    0.994880   0.000000   0.000000   0.000000   0.000000
    8  S  1  X    0.000000   0.000000   0.000001  -0.306956  -0.000001
    9  S  1  Y    0.000000   0.016603   0.157088   0.000001  -0.159847
   10  S  1  Z    0.016199   0.000000   0.000000   0.000000   0.000000
   11  S  1  X    0.000000  -0.000000   0.000002   0.011533  -0.000001
   12  S  1  Y    0.000000  -0.002445  -0.019299   0.000002  -0.057335
   13  S  1  Z   -0.003073   0.000000   0.000000   0.000000   0.000000
   14  S  1 XX    0.000000  -0.000292   0.038934   0.000001  -0.006986
   15  S  1 YY    0.000000   0.001001   0.000455   0.000000  -0.015005
   16  S  1 ZZ    0.000000  -0.000709  -0.039389  -0.000001   0.021990
   17  S  1 XY    0.000000   0.000000   0.000001  -0.093585  -0.000000
   18  S  1 XZ   -0.000000   0.000000   0.000000   0.000000   0.000000
   19  S  1 YZ    0.000757   0.000000   0.000000   0.000000   0.000000
   20  O  2  S    0.000000  -0.000354  -0.133652   0.160977   0.109067
   21  O  2  S    0.000000   0.000322   0.271335  -0.332601  -0.232010
   22  O  2  S    0.000000  -0.000945   0.223738  -0.277045  -0.303174
   23  O  2  X    0.000000  -0.000568  -0.106139   0.086972  -0.105901
   24  O  2  Y    0.000000  -0.000405  -0.066510   0.073948  -0.119689
   25  O  2  Z   -0.000006   0.000000   0.000000   0.000000   0.000000
   26  O  2  X    0.000000   0.000833  -0.026248   0.011733  -0.050132
   27  O  2  Y    0.000000   0.000102  -0.016690   0.011722  -0.053244
   28  O  2  Z   -0.000267   0.000000   0.000000   0.000000   0.000000
   29  O  2 XX    0.000000   0.000388   0.007681  -0.002298   0.001654
   30  O  2 YY    0.000000   0.000048  -0.001830  -0.000565   0.003379
   31  O  2 ZZ    0.000000  -0.000436  -0.005851   0.002862  -0.005032
   32  O  2 XY    0.000000   0.000771   0.012294  -0.008603   0.007978
   33  O  2 XZ    0.000013   0.000000   0.000000   0.000000   0.000000
   34  O  2 YZ   -0.000018   0.000000   0.000000   0.000000   0.000000
   35  O  3  S    0.000000  -0.000354  -0.133652  -0.160977   0.109068
   36  O  3  S    0.000000   0.000322   0.271335   0.332602  -0.232010
   37  O  3  S    0.000000  -0.000945   0.223743   0.277036  -0.303176
   38  O  3  X    0.000000   0.000568   0.106140   0.086972   0.105901
   39  O  3  Y    0.000000  -0.000405  -0.066510  -0.073947  -0.119689
   40  O  3  Z   -0.000006   0.000000   0.000000   0.000000   0.000000
   41  O  3  X    0.000000  -0.000833   0.026249   0.011729   0.050133
   42  O  3  Y    0.000000   0.000102  -0.016692  -0.011721  -0.053244
   43  O  3  Z   -0.000267   0.000000   0.000000   0.000000   0.000000
   44  O  3 XX    0.000000   0.000388   0.007681   0.002298   0.001654
   45  O  3 YY    0.000000   0.000048  -0.001830   0.000565   0.003378
   46  O  3 ZZ    0.000000  -0.000436  -0.005851  -0.002862  -0.005032
   47  O  3 XY    0.000000  -0.000771  -0.012294  -0.008602  -0.007978
   48  O  3 XZ   -0.000013   0.000000   0.000000   0.000000   0.000000
   49  O  3 YZ   -0.000018   0.000000   0.000000   0.000000   0.000000

                     11         12         13         14         15
                   -0.4521    -0.4408    -0.4369    -0.3273    -0.2948
                     A          A          A          A          A   
    1  S  1  S    0.000000  -0.005808   0.000000   0.000000   0.019656
    2  S  1  S    0.000000   0.036018  -0.000000   0.000000  -0.127653
    3  S  1  S    0.000000  -0.022009   0.000000   0.000000   0.152324
    4  S  1  S    0.000000  -0.174053   0.000000   0.000000   0.420991
    5  S  1  X    0.000000  -0.000000  -0.177285   0.000000  -0.000001
    6  S  1  Y    0.000000  -0.196968   0.000000   0.000000   0.114340
    7  S  1  Z   -0.215701   0.000000   0.000000  -0.000000   0.000000
    8  S  1  X    0.000000   0.000001   0.482980   0.000000   0.000004
    9  S  1  Y    0.000000   0.524949  -0.000001   0.000000  -0.312314
   10  S  1  Z    0.576113   0.000000   0.000000   0.000001   0.000000
   11  S  1  X    0.000000   0.000001  -0.001027   0.000000   0.000016
   12  S  1  Y    0.000000   0.065649  -0.000000   0.000000  -0.034612
   13  S  1  Z    0.124086   0.000000   0.000000   0.000000   0.000000
   14  S  1 XX    0.000000  -0.052206  -0.000000   0.000000  -0.148764
   15  S  1 YY    0.000000   0.071128  -0.000000   0.000000   0.091038
   16  S  1 ZZ    0.000000  -0.018922   0.000000   0.000000   0.057726
   17  S  1 XY    0.000000   0.000000   0.049192   0.000000  -0.000015
   18  S  1 XZ   -0.000000   0.000000   0.000000   0.129882   0.000000
   19  S  1 YZ    0.058914   0.000000   0.000000  -0.000000   0.000000
   20  O  2  S    0.000000   0.043163   0.074778   0.000000   0.001012
   21  O  2  S    0.000000  -0.089959  -0.154829   0.000000  -0.004040
   22  O  2  S    0.000000  -0.146770  -0.273984   0.000000  -0.032629
   23  O  2  X    0.000000  -0.317013  -0.239243   0.000000   0.009614
   24  O  2  Y    0.000000   0.093663  -0.284392   0.000000   0.423434
   25  O  2  Z    0.303874   0.000000   0.000000   0.465946   0.000000
   26  O  2  X    0.000000  -0.175045  -0.105794   0.000000  -0.010580
   27  O  2  Y    0.000000   0.067660  -0.143476   0.000000   0.302207
   28  O  2  Z    0.176184   0.000000   0.000000   0.328332   0.000000
   29  O  2 XX    0.000000   0.019715   0.001203   0.000000   0.005006
   30  O  2 YY    0.000000  -0.013645   0.007479   0.000000  -0.009528
   31  O  2 ZZ    0.000000  -0.006070  -0.008682   0.000000   0.004522
   32  O  2 XY    0.000000   0.002449   0.013956   0.000000  -0.012210
   33  O  2 XZ   -0.019187   0.000000   0.000000  -0.017243   0.000000
   34  O  2 YZ   -0.012793   0.000000   0.000000  -0.014052   0.000000
   35  O  3  S    0.000000   0.043163  -0.074778   0.000000   0.001011
   36  O  3  S    0.000000  -0.089959   0.154827   0.000000  -0.004039
   37  O  3  S    0.000000  -0.146768   0.273985   0.000000  -0.032621
   38  O  3  X    0.000000   0.317013  -0.239243   0.000000  -0.009516
   39  O  3  Y    0.000000   0.093664   0.284392   0.000000   0.423503
   40  O  3  Z    0.303874   0.000000   0.000000  -0.465946   0.000000
   41  O  3  X    0.000000   0.175046  -0.105793   0.000000   0.010643
   42  O  3  Y    0.000000   0.067660   0.143476   0.000000   0.302258
   43  O  3  Z    0.176185   0.000000   0.000000  -0.328332   0.000000
   44  O  3 XX    0.000000   0.019715  -0.001203   0.000000   0.005011
   45  O  3 YY    0.000000  -0.013645  -0.007479   0.000000  -0.009533
   46  O  3 ZZ    0.000000  -0.006070   0.008682   0.000000   0.004522
   47  O  3 XY    0.000000  -0.002449   0.013956   0.000000   0.012211
   48  O  3 XZ    0.019187   0.000000   0.000000  -0.017243   0.000000
   49  O  3 YZ   -0.012793   0.000000   0.000000   0.014052   0.000000

                     16         17         18         19         20
                   -0.2939    -0.1634     0.0143     0.0390     0.2021
                     A          A          A          A          A   
    1  S  1  S   -0.000002   0.000000  -0.000001   0.025157   0.000000
    2  S  1  S    0.000016   0.000000   0.000004  -0.170335   0.000000
    3  S  1  S   -0.000020   0.000000  -0.000005   0.196775   0.000000
    4  S  1  S   -0.000048   0.000000  -0.000023   0.952176   0.000000
    5  S  1  X   -0.012349   0.000000  -0.163060  -0.000004   0.000000
    6  S  1  Y   -0.000014   0.000000   0.000003  -0.135057   0.000000
    7  S  1  Z    0.000000  -0.225482   0.000000   0.000000   0.246814
    8  S  1  X    0.029318   0.000000   0.504967   0.000015   0.000000
    9  S  1  Y    0.000040   0.000000  -0.000011   0.444455   0.000000
   10  S  1  Z    0.000000   0.675781   0.000000   0.000000  -0.970680
   11  S  1  X    0.129830   0.000000   0.980821   0.000016   0.000000
   12  S  1  Y    0.000007   0.000000  -0.000019   0.951269   0.000000
   13  S  1  Z    0.000000   0.348664   0.000000   0.000000   1.303297
   14  S  1 XX    0.000019   0.000000   0.000002  -0.132383   0.000000
   15  S  1 YY   -0.000012   0.000000   0.000002  -0.111087   0.000000
   16  S  1 ZZ   -0.000008   0.000000  -0.000004   0.243470   0.000000
   17  S  1 XY   -0.120557   0.000000  -0.236022  -0.000004   0.000000
   18  S  1 XZ    0.000000  -0.000000   0.000000   0.000000   0.000000
   19  S  1 YZ    0.000000  -0.089438   0.000000   0.000000  -0.100114
   20  O  2  S    0.003151   0.000000   0.050410   0.062943   0.000000
   21  O  2  S   -0.008945   0.000000  -0.097047  -0.118358   0.000000
   22  O  2  S   -0.030804   0.000000  -0.484656  -0.608681   0.000000
   23  O  2  X    0.389403   0.000000   0.016615   0.279910   0.000000
   24  O  2  Y   -0.276723   0.000000   0.280828   0.007486   0.000000
   25  O  2  Z    0.000000  -0.379213   0.000000   0.000000  -0.014638
   26  O  2  X    0.248570   0.000000   0.000860   0.370989   0.000000
   27  O  2  Y   -0.200803   0.000000   0.271042  -0.015071   0.000000
   28  O  2  Z    0.000000  -0.334158   0.000000   0.000000  -0.114736
   29  O  2 XX   -0.018973   0.000000   0.000990  -0.000918   0.000000
   30  O  2 YY    0.019224   0.000000   0.003710  -0.007131   0.000000
   31  O  2 ZZ   -0.000251   0.000000  -0.004701   0.008049   0.000000
   32  O  2 XY    0.004310   0.000000   0.003696  -0.000111   0.000000
   33  O  2 XZ    0.000000   0.003725   0.000000   0.000000   0.020359
   34  O  2 YZ    0.000000   0.000029   0.000000   0.000000   0.010859
   35  O  3  S   -0.003151   0.000000  -0.050412   0.062942   0.000000
   36  O  3  S    0.008947   0.000000   0.097047  -0.118358   0.000000
   37  O  3  S    0.030807   0.000000   0.484689  -0.608658   0.000000
   38  O  3  X    0.389405   0.000000   0.016624  -0.279911   0.000000
   39  O  3  Y    0.276617   0.000000  -0.280829   0.007473   0.000000
   40  O  3  Z    0.000000  -0.379213   0.000000   0.000000  -0.014638
   41  O  3  X    0.248564   0.000000   0.000880  -0.370984   0.000000
   42  O  3  Y    0.200728   0.000000  -0.271044  -0.015083   0.000000
   43  O  3  Z    0.000000  -0.334158   0.000000   0.000000  -0.114736
   44  O  3 XX    0.018972   0.000000  -0.000990  -0.000918   0.000000
   45  O  3 YY   -0.019221   0.000000  -0.003710  -0.007132   0.000000
   46  O  3 ZZ    0.000250   0.000000   0.004700   0.008050   0.000000
   47  O  3 XY    0.004307   0.000000   0.003696   0.000111   0.000000
   48  O  3 XZ    0.000000  -0.003725   0.000000   0.000000  -0.020359
   49  O  3 YZ    0.000000   0.000028   0.000000   0.000000   0.010859

                     21         22         23         24         25
                    0.2256     0.2840     0.2947     0.5293     0.5467
                     A          A          A          A          A   
    1  S  1  S   -0.039957  -0.057934  -0.000001   0.000000   0.000000
    2  S  1  S    0.293668   0.421944   0.000009   0.000000   0.000000
    3  S  1  S   -1.119133  -1.552255  -0.000033   0.000000   0.000000
    4  S  1  S    1.409405   1.777934   0.000030   0.000000   0.000000
    5  S  1  X   -0.000001  -0.000006   0.276402   0.000000   0.000000
    6  S  1  Y   -0.230780   0.159772   0.000003   0.000000   0.000000
    7  S  1  Z    0.000000   0.000000   0.000000   0.021622   0.000000
    8  S  1  X    0.000004   0.000025  -1.050147   0.000000   0.000000
    9  S  1  Y    0.913270  -0.580332  -0.000011   0.000000   0.000000
   10  S  1  Z    0.000000   0.000000   0.000000  -0.105531  -0.000000
   11  S  1  X   -0.000002  -0.000023   1.334261   0.000000   0.000000
   12  S  1  Y   -0.809706   0.932508   0.000015   0.000000   0.000000
   13  S  1  Z    0.000000   0.000000   0.000000   0.150610   0.000000
   14  S  1 XX   -0.130864   0.214306   0.000002   0.000000   0.000000
   15  S  1 YY    0.030310  -0.071866  -0.000002   0.000000   0.000000
   16  S  1 ZZ    0.100554  -0.142441   0.000000   0.000000   0.000000
   17  S  1 XY   -0.000000  -0.000002   0.315054   0.000000   0.000000
   18  S  1 XZ    0.000000   0.000000   0.000000  -0.000001   0.924548
   19  S  1 YZ    0.000000   0.000000   0.000000   0.929689   0.000001
   20  O  2  S    0.016482   0.009653   0.003633   0.000000   0.000000
   21  O  2  S   -0.053912   0.042255   0.054950   0.000000   0.000000
   22  O  2  S   -0.145062  -0.529424  -0.382958   0.000000   0.000000
   23  O  2  X    0.053115  -0.251517  -0.203605   0.000000   0.000000
   24  O  2  Y   -0.020418  -0.142546  -0.148650   0.000000   0.000000
   25  O  2  Z    0.000000   0.000000   0.000000  -0.285688  -0.325319
   26  O  2  X    0.111567   0.045143  -0.087308   0.000000   0.000000
   27  O  2  Y    0.107496  -0.021954  -0.015005   0.000000   0.000000
   28  O  2  Z    0.000000   0.000000   0.000000   0.056820   0.036986
   29  O  2 XX    0.011045  -0.040277  -0.004846   0.000000   0.000000
   30  O  2 YY   -0.017182   0.015643  -0.018216   0.000000   0.000000
   31  O  2 ZZ    0.006137   0.024634   0.023062   0.000000   0.000000
   32  O  2 XY   -0.011768  -0.031665  -0.038171   0.000000   0.000000
   33  O  2 XZ    0.000000   0.000000   0.000000  -0.045519  -0.031169
   34  O  2 YZ    0.000000   0.000000   0.000000   0.006255  -0.048976
   35  O  3  S    0.016482   0.009653  -0.003632   0.000000   0.000000
   36  O  3  S   -0.053913   0.042251  -0.054955   0.000000   0.000000
   37  O  3  S   -0.145060  -0.529424   0.382949   0.000000   0.000000
   38  O  3  X   -0.053115   0.251521  -0.203600   0.000000   0.000000
   39  O  3  Y   -0.020419  -0.142551   0.148645   0.000000   0.000000
   40  O  3  Z    0.000000   0.000000   0.000000  -0.285689   0.325318
   41  O  3  X   -0.111564  -0.045129  -0.087303   0.000000   0.000000
   42  O  3  Y    0.107495  -0.021960   0.015000   0.000000   0.000000
   43  O  3  Z    0.000000   0.000000   0.000000   0.056820  -0.036986
   44  O  3 XX    0.011045  -0.040277   0.004845   0.000000   0.000000
   45  O  3 YY   -0.017182   0.015642   0.018217   0.000000   0.000000
   46  O  3 ZZ    0.006138   0.024635  -0.023061   0.000000   0.000000
   47  O  3 XY    0.011768   0.031666  -0.038170   0.000000   0.000000
   48  O  3 XZ    0.000000   0.000000   0.000000   0.045519  -0.031169
   49  O  3 YZ    0.000000   0.000000   0.000000   0.006255   0.048976

                     26         27         28         29         30
                    0.5624     0.6387     0.6665     0.7855     0.7894
                     A          A          A          A          A   
    1  S  1  S    0.004379   0.021855  -0.000000   0.007212   0.000000
    2  S  1  S   -0.032857  -0.174424   0.000001  -0.057267   0.000000
    3  S  1  S    0.082986   0.726514  -0.000005   0.267621   0.000000
    4  S  1  S    0.304979   0.858528  -0.000016  -0.000514   0.000000
    5  S  1  X   -0.000000  -0.000002  -0.176858  -0.000000   0.000000
    6  S  1  Y   -0.012879  -0.124757   0.000001  -0.028772   0.000000
    7  S  1  Z    0.000000   0.000000   0.000000   0.000000  -0.000000
    8  S  1  X    0.000002   0.000011   1.023274   0.000001   0.000000
    9  S  1  Y    0.061228   0.703359  -0.000007   0.124760   0.000000
   10  S  1  Z    0.000000   0.000000   0.000000   0.000000   0.000000
   11  S  1  X    0.000001   0.000004   0.053437  -0.000000   0.000000
   12  S  1  Y    0.205886   0.107851  -0.000004  -0.544698   0.000000
   13  S  1  Z    0.000000   0.000000   0.000000   0.000000  -0.000001
   14  S  1 XX   -0.271829   0.585373  -0.000005   0.508094   0.000000
   15  S  1 YY    0.865835  -0.066992  -0.000000  -0.518677   0.000000
   16  S  1 ZZ   -0.594006  -0.518381   0.000005   0.010584   0.000000
   17  S  1 XY    0.000002   0.000007   0.571325   0.000000   0.000000
   18  S  1 XZ    0.000000   0.000000   0.000000   0.000000   0.419625
   19  S  1 YZ    0.000000   0.000000   0.000000   0.000000  -0.000001
   20  O  2  S    0.024286   0.063265   0.067423   0.005594   0.000000
   21  O  2  S   -0.092580  -0.160925  -0.188213   0.006048   0.000000
   22  O  2  S   -0.141644  -0.541966  -0.460472  -0.016223   0.000000
   23  O  2  X    0.175620  -0.314183  -0.158198   0.291444   0.000000
   24  O  2  Y   -0.304191   0.055478  -0.241313  -0.409395   0.000000
   25  O  2  Z    0.000000   0.000000   0.000000   0.000000   0.571519
   26  O  2  X    0.122549   0.902102   0.870567  -0.300395   0.000000
   27  O  2  Y    0.169623   0.442524   0.719944   0.810928   0.000000
   28  O  2  Z    0.000000   0.000000   0.000000   0.000000  -0.817757
   29  O  2 XX    0.044860  -0.005369   0.012388  -0.034998   0.000000
   30  O  2 YY   -0.025617   0.020221  -0.003636   0.048924   0.000000
   31  O  2 ZZ   -0.019243  -0.014852  -0.008751  -0.013927   0.000000
   32  O  2 XY   -0.033569   0.018147   0.017411   0.027014   0.000000
   33  O  2 XZ    0.000000   0.000000   0.000000   0.000000  -0.043074
   34  O  2 YZ    0.000000   0.000000   0.000000   0.000000  -0.032687
   35  O  3  S    0.024286   0.063264  -0.067424   0.005594   0.000000
   36  O  3  S   -0.092581  -0.160926   0.188217   0.006049   0.000000
   37  O  3  S   -0.141639  -0.541947   0.460488  -0.016223   0.000000
   38  O  3  X   -0.175622   0.314173  -0.158209  -0.291443   0.000000
   39  O  3  Y   -0.304190   0.055481   0.241317  -0.409394   0.000000
   40  O  3  Z    0.000000   0.000000   0.000000   0.000000  -0.571521
   41  O  3  X   -0.122543  -0.902074   0.870591   0.300395   0.000000
   42  O  3  Y    0.169621   0.442509  -0.719958   0.810927   0.000000
   43  O  3  Z    0.000000   0.000000   0.000000   0.000000   0.817760
   44  O  3 XX    0.044860  -0.005369  -0.012387  -0.034997   0.000000
   45  O  3 YY   -0.025617   0.020221   0.003636   0.048924   0.000000
   46  O  3 ZZ   -0.019243  -0.014852   0.008751  -0.013927   0.000000
   47  O  3 XY    0.033569  -0.018147   0.017411  -0.027014   0.000000
   48  O  3 XZ    0.000000   0.000000   0.000000   0.000000  -0.043074
   49  O  3 YZ    0.000000   0.000000   0.000000   0.000000   0.032687

                     31         32         33         34         35
                    0.8453     0.8991     0.9008     1.1168     1.4061
                     A          A          A          A          A   
    1  S  1  S    0.000000  -0.003388  -0.000001  -0.000000  -0.000000
    2  S  1  S    0.000000   0.005735   0.000001   0.000000   0.000001
    3  S  1  S    0.000000   0.441148   0.000071   0.000001  -0.000003
    4  S  1  S    0.000000  -0.294707  -0.000046  -0.000015  -0.000035
    5  S  1  X    0.000000   0.000007  -0.041171  -0.123769   0.044584
    6  S  1  Y    0.000000   0.065235   0.000010   0.000001   0.000001
    7  S  1  Z    0.003783   0.000000   0.000000   0.000000   0.000000
    8  S  1  X    0.000000  -0.000030   0.189718   0.401508  -0.501111
    9  S  1  Y    0.000000  -0.118172  -0.000019  -0.000004  -0.000010
   10  S  1  Z   -0.059727   0.000000   0.000000   0.000000   0.000000
   11  S  1  X    0.000000   0.000072  -0.467870   0.502305  -0.748817
   12  S  1  Y    0.000000  -0.131026  -0.000021  -0.000006  -0.000014
   13  S  1  Z   -0.636572   0.000000   0.000000   0.000000   0.000000
   14  S  1 XX    0.000000  -0.665305  -0.000106  -0.000003  -0.000002
   15  S  1 YY    0.000000  -0.008147  -0.000002  -0.000001  -0.000002
   16  S  1 ZZ    0.000000   0.673451   0.000108   0.000003   0.000004
   17  S  1 XY    0.000000  -0.000043   0.263606   0.976291  -0.057924
   18  S  1 XZ   -0.000000   0.000000   0.000000   0.000000   0.000000
   19  S  1 YZ   -0.389914   0.000000   0.000000   0.000000   0.000000
   20  O  2  S    0.000000  -0.033575   0.005890   0.027211   0.084356
   21  O  2  S    0.000000   0.212734   0.002513   0.027346  -1.251312
   22  O  2  S    0.000000   0.061145  -0.007669  -0.640327   1.834126
   23  O  2  X    0.000000  -0.427310  -0.315497   0.575994   0.072728
   24  O  2  Y    0.000000  -0.415616   0.532252   0.254293   0.081484
   25  O  2  Z   -0.583728   0.000000   0.000000   0.000000   0.000000
   26  O  2  X    0.000000   0.351977   0.685055  -0.271752  -0.386489
   27  O  2  Y    0.000000   0.323828  -0.647869   0.025924  -0.420791
   28  O  2  Z    0.940788   0.000000   0.000000   0.000000   0.000000
   29  O  2 XX    0.000000   0.022316   0.058235   0.018611  -0.074752
   30  O  2 YY    0.000000  -0.041631  -0.036275  -0.039536  -0.029126
   31  O  2 ZZ    0.000000   0.019316  -0.021959   0.020925   0.103878
   32  O  2 XY    0.000000   0.033364  -0.011452   0.042832  -0.087554
   33  O  2 XZ    0.044323   0.000000   0.000000   0.000000   0.000000
   34  O  2 YZ    0.023605   0.000000   0.000000   0.000000   0.000000
   35  O  3  S    0.000000  -0.033574  -0.005902  -0.027210  -0.084353
   36  O  3  S    0.000000   0.212745  -0.002435  -0.027366   1.251257
   37  O  3  S    0.000000   0.061130   0.007677   0.640362  -1.834034
   38  O  3  X    0.000000   0.427407  -0.315364   0.575997   0.072729
   39  O  3  Y    0.000000  -0.415445  -0.532383  -0.254296  -0.081484
   40  O  3  Z   -0.583727   0.000000   0.000000   0.000000   0.000000
   41  O  3  X    0.000000  -0.352191   0.684946  -0.271748  -0.386467
   42  O  3  Y    0.000000   0.323621   0.647971  -0.025926   0.420782
   43  O  3  Z    0.940786   0.000000   0.000000   0.000000   0.000000
   44  O  3 XX    0.000000   0.022334  -0.058228  -0.018611   0.074749
   45  O  3 YY    0.000000  -0.041643   0.036262   0.039536   0.029128
   46  O  3 ZZ    0.000000   0.019309   0.021966  -0.020925  -0.103877
   47  O  3 XY    0.000000  -0.033360  -0.011463   0.042832  -0.087549
   48  O  3 XZ   -0.044324   0.000000   0.000000   0.000000   0.000000
   49  O  3 YZ    0.023605   0.000000   0.000000   0.000000   0.000000

                     36         37         38         39         40
                    1.4987     2.0658     2.0701     2.0873     2.0916
                     A          A          A          A          A   
    1  S  1  S   -0.002200   0.000000   0.000000  -0.000000   0.000324
    2  S  1  S    0.027622   0.000000   0.000000   0.000000  -0.000605
    3  S  1  S    0.065783   0.000000   0.000000  -0.000001  -0.018025
    4  S  1  S   -2.119067   0.000000   0.000000  -0.000000  -0.093667
    5  S  1  X   -0.000000   0.000000   0.000000   0.001581  -0.000000
    6  S  1  Y    0.074541   0.000000   0.000000  -0.000000   0.000237
    7  S  1  Z    0.000000  -0.000001  -0.020100   0.000000   0.000000
    8  S  1  X    0.000009   0.000000   0.000000  -0.050380   0.000002
    9  S  1  Y   -0.525502   0.000000   0.000000  -0.000001  -0.021863
   10  S  1  Z    0.000000   0.000002   0.078360   0.000000   0.000000
   11  S  1  X    0.000006   0.000000   0.000000   0.013642  -0.000001
   12  S  1  Y   -0.860221   0.000000   0.000000  -0.000000  -0.049407
   13  S  1  Z    0.000000   0.000000   0.010873   0.000000   0.000000
   14  S  1 XX   -0.229324   0.000000   0.000000   0.000002   0.056397
   15  S  1 YY   -0.106206   0.000000   0.000000   0.000002   0.069391
   16  S  1 ZZ    0.335530   0.000000   0.000000  -0.000004  -0.125789
   17  S  1 XY   -0.000006   0.000000   0.000000   0.082860  -0.000003
   18  S  1 XZ    0.000000   0.032872  -0.000001   0.000000   0.000000
   19  S  1 YZ    0.000000  -0.000001  -0.025709   0.000000   0.000000
   20  O  2  S    0.066597   0.000000   0.000000   0.007529   0.007109
   21  O  2  S   -1.272868   0.000000   0.000000  -0.103680  -0.093250
   22  O  2  S    2.340218   0.000000   0.000000   0.109407   0.121353
   23  O  2  X   -0.036847   0.000000   0.000000   0.064153   0.041247
   24  O  2  Y   -0.060670   0.000000   0.000000   0.006866   0.008283
   25  O  2  Z    0.000000   0.022293   0.024960   0.000000   0.000000
   26  O  2  X   -0.586433   0.000000   0.000000  -0.099834  -0.064066
   27  O  2  Y   -0.195195   0.000000   0.000000  -0.010207  -0.006955
   28  O  2  Z    0.000000  -0.035509  -0.040752   0.000000   0.000000
   29  O  2 XX   -0.082029   0.000000   0.000000   0.215905  -0.210086
   30  O  2 YY    0.032859   0.000000   0.000000   0.400257  -0.405097
   31  O  2 ZZ    0.049171   0.000000   0.000000  -0.616161   0.615184
   32  O  2 XY   -0.129978   0.000000   0.000000  -0.325859   0.329636
   33  O  2 XZ    0.000000   0.537113  -0.236302   0.000000   0.000000
   34  O  2 YZ    0.000000  -0.460735   0.667431   0.000000   0.000000
   35  O  3  S    0.066600   0.000000   0.000000  -0.007529   0.007110
   36  O  3  S   -1.272918   0.000000   0.000000   0.103676  -0.093256
   37  O  3  S    2.340280   0.000000   0.000000  -0.109403   0.121359
   38  O  3  X    0.036835   0.000000   0.000000   0.064151  -0.041250
   39  O  3  Y   -0.060666   0.000000   0.000000  -0.006866   0.008284
   40  O  3  Z    0.000000  -0.022291   0.024961   0.000000   0.000000
   41  O  3  X    0.586458   0.000000   0.000000  -0.099831   0.064072
   42  O  3  Y   -0.195207   0.000000   0.000000   0.010207  -0.006955
   43  O  3  Z    0.000000   0.035507  -0.040754   0.000000   0.000000
   44  O  3 XX   -0.082034   0.000000   0.000000  -0.215916  -0.210074
   45  O  3 YY    0.032857   0.000000   0.000000  -0.400281  -0.405073
   46  O  3 ZZ    0.049177   0.000000   0.000000   0.616197   0.615147
   47  O  3 XY    0.129981   0.000000   0.000000  -0.325879  -0.329618
   48  O  3 XZ    0.000000   0.537126   0.236273   0.000000   0.000000
   49  O  3 YZ    0.000000   0.460770   0.667407   0.000000   0.000000

                     41         42         43         44         45
                    2.1164     2.2719     2.2813     2.4695     2.7535
                     A          A          A          A          A   
    1  S  1  S   -0.000000   0.000000   0.000000  -0.000504  -0.038696
    2  S  1  S    0.000000   0.000000   0.000000   0.003263   0.337376
    3  S  1  S   -0.000001   0.000000   0.000000  -0.029090  -1.165595
    4  S  1  S    0.000002   0.000000   0.000000   0.133440  -0.906980
    5  S  1  X   -0.039902   0.000000   0.000000   0.000000   0.000000
    6  S  1  Y   -0.000000   0.000000   0.000000  -0.067461   0.147408
    7  S  1  Z    0.000000   0.075283  -0.000001   0.000000   0.000000
    8  S  1  X    0.156925   0.000000   0.000000  -0.000001  -0.000000
    9  S  1  Y    0.000000   0.000000   0.000000   0.270978  -0.944120
   10  S  1  Z    0.000000  -0.292349   0.000003   0.000000   0.000000
   11  S  1  X    0.044127   0.000000   0.000000   0.000000  -0.000002
   12  S  1  Y    0.000001   0.000000   0.000000   0.145584  -0.146215
   13  S  1  Z    0.000000  -0.080873   0.000001   0.000000   0.000000
   14  S  1 XX   -0.000000   0.000000   0.000000  -0.486044  -0.445072
   15  S  1 YY    0.000000   0.000000   0.000000   0.505370   0.010017
   16  S  1 ZZ   -0.000000   0.000000   0.000000  -0.019326   0.435055
   17  S  1 XY   -0.200054   0.000000   0.000000  -0.000000  -0.000001
   18  S  1 XZ    0.000000   0.000005   0.477187   0.000000   0.000000
   19  S  1 YZ    0.000000  -0.357634   0.000004   0.000000   0.000000
   20  O  2  S   -0.002059   0.000000   0.000000  -0.002789  -0.000115
   21  O  2  S    0.026318   0.000000   0.000000   0.071300  -0.535643
   22  O  2  S   -0.027101   0.000000   0.000000  -0.142932   1.342758
   23  O  2  X    0.038188   0.000000   0.000000  -0.015922  -0.028586
   24  O  2  Y   -0.081774   0.000000   0.000000   0.006650  -0.011964
   25  O  2  Z    0.000000  -0.053205   0.040209   0.000000   0.000000
   26  O  2  X   -0.099401   0.000000   0.000000   0.131870  -0.640911
   27  O  2  Y    0.126525   0.000000   0.000000  -0.160821  -0.444273
   28  O  2  Z    0.000000   0.184279  -0.157147   0.000000   0.000000
   29  O  2 XX    0.579255   0.000000   0.000000  -0.626665   0.408487
   30  O  2 YY   -0.592068   0.000000   0.000000   0.629632   0.013356
   31  O  2 ZZ    0.012813   0.000000   0.000000  -0.002967  -0.421843
   32  O  2 XY   -0.244500   0.000000   0.000000   0.260258   0.678267
   33  O  2 XZ    0.000000  -0.696481   0.491223   0.000000   0.000000
   34  O  2 YZ    0.000000  -0.256277   0.559100   0.000000   0.000000
   35  O  3  S    0.002059   0.000000   0.000000  -0.002789  -0.000115
   36  O  3  S   -0.026317   0.000000   0.000000   0.071300  -0.535645
   37  O  3  S    0.027098   0.000000   0.000000  -0.142933   1.342757
   38  O  3  X    0.038188   0.000000   0.000000   0.015922   0.028584
   39  O  3  Y    0.081774   0.000000   0.000000   0.006650  -0.011964
   40  O  3  Z    0.000000  -0.053206  -0.040208   0.000000   0.000000
   41  O  3  X   -0.099402   0.000000   0.000000  -0.131871   0.640913
   42  O  3  Y   -0.126525   0.000000   0.000000  -0.160821  -0.444272
   43  O  3  Z    0.000000   0.184282   0.157143   0.000000   0.000000
   44  O  3 XX   -0.579255   0.000000   0.000000  -0.626665   0.408487
   45  O  3 YY    0.592069   0.000000   0.000000   0.629632   0.013356
   46  O  3 ZZ   -0.012814   0.000000   0.000000  -0.002966  -0.421843
   47  O  3 XY   -0.244500   0.000000   0.000000  -0.260257  -0.678266
   48  O  3 XZ    0.000000   0.696491   0.491208   0.000000   0.000000
   49  O  3 YZ    0.000000  -0.256289  -0.559095   0.000000   0.000000

                     46
                    2.8869
                     A   
    1  S  1  S    0.000000
    2  S  1  S   -0.000000
    3  S  1  S    0.000001
    4  S  1  S   -0.000004
    5  S  1  X   -0.240118
    6  S  1  Y    0.000000
    7  S  1  Z    0.000000
    8  S  1  X    1.491315
    9  S  1  Y   -0.000001
   10  S  1  Z    0.000000
   11  S  1  X    0.145398
   12  S  1  Y   -0.000002
   13  S  1  Z    0.000000
   14  S  1 XX   -0.000001
   15  S  1 YY    0.000000
   16  S  1 ZZ    0.000001
   17  S  1 XY    0.795371
   18  S  1 XZ    0.000000
   19  S  1 YZ    0.000000
   20  O  2  S    0.009070
   21  O  2  S    0.466633
   22  O  2  S   -1.319798
   23  O  2  X    0.075453
   24  O  2  Y    0.066787
   25  O  2  Z    0.000000
   26  O  2  X    0.704554
   27  O  2  Y    0.479740
   28  O  2  Z    0.000000
   29  O  2 XX   -0.452858
   30  O  2 YY    0.031761
   31  O  2 ZZ    0.421097
   32  O  2 XY   -0.719797
   33  O  2 XZ    0.000000
   34  O  2 YZ    0.000000
   35  O  3  S   -0.009070
   36  O  3  S   -0.466634
   37  O  3  S    1.319803
   38  O  3  X    0.075453
   39  O  3  Y   -0.066787
   40  O  3  Z    0.000000
   41  O  3  X    0.704556
   42  O  3  Y   -0.479741
   43  O  3  Z    0.000000
   44  O  3 XX    0.452857
   45  O  3 YY   -0.031760
   46  O  3 ZZ   -0.421097
   47  O  3 XY   -0.719798
   48  O  3 XZ    0.000000
   49  O  3 YZ    0.000000
 ...... END OF RHF CALCULATION ......
 STEP CPU TIME =     2.55 TOTAL CPU TIME =          2.7 (      0.0 MIN)
 TOTAL WALL CLOCK TIME=          2.8 SECONDS, CPU UTILIZATION IS    98.18%

     ---------------------------------------------------------------------
     PROPERTIES FOR THE PBE      DFT FUNCTIONAL (RHF  TYPE) DENSITY MATRIX
     ---------------------------------------------------------------------

          -----------------
          ENERGY COMPONENTS
          -----------------

         WAVEFUNCTION NORMALIZATION =       1.0000000000

                ONE ELECTRON ENERGY =    -969.4619191379
                TWO ELECTRON ENERGY =     313.5370852690
           NUCLEAR REPULSION ENERGY =     107.6838429295
                                      ------------------
                       TOTAL ENERGY =    -548.2409909394

 ELECTRON-ELECTRON POTENTIAL ENERGY =     313.5370852690
  NUCLEUS-ELECTRON POTENTIAL ENERGY =   -1517.1172923519
   NUCLEUS-NUCLEUS POTENTIAL ENERGY =     107.6838429295
                                      ------------------
             TOTAL POTENTIAL ENERGY =   -1095.8963641534
               TOTAL KINETIC ENERGY =     547.6553732139
                 VIRIAL RATIO (V/T) =       2.0010693180

          ---------------------------------------
          MULLIKEN AND LOWDIN POPULATION ANALYSES
          ---------------------------------------

     ATOMIC MULLIKEN POPULATION IN EACH MOLECULAR ORBITAL

                      1          2          3          4          5

                  2.000000   2.000000   2.000000   2.000000   2.000000

    1             1.999914   0.000614   0.001612   2.000891   2.000232
    2             0.000043   0.952595   1.046292  -0.000445  -0.000116
    3             0.000043   1.046791   0.952096  -0.000445  -0.000116

                      6          7          8          9         10

                  2.000000   2.000000   2.000000   2.000000   2.000000

    1             2.000036   2.000123   0.734676   0.449226   1.037205
    2            -0.000018  -0.000062   0.632657   0.775393   0.481396
    3            -0.000018  -0.000062   0.632667   0.775381   0.481399

                     11         12         13         14         15

                  2.000000   2.000000   2.000000   2.000000   2.000000

    1             1.042597   0.813475   0.433412   0.102622   0.591616
    2             0.478701   0.593261   0.783294   0.948690   0.704059
    3             0.478703   0.593263   0.783293   0.948688   0.704325

                     16

                  2.000000

    1             0.166568
    2             0.916852
    3             0.916580

               ----- POPULATIONS IN EACH AO -----
                             MULLIKEN      LOWDIN
              1  S  1  S      1.99980     1.99923
              2  S  1  S      1.99192     1.88191
              3  S  1  S      1.29275     0.64285
              4  S  1  S      0.57069     0.48037
              5  S  1  X      1.99407     1.95824
              6  S  1  Y      1.99516     1.96682
              7  S  1  Z      1.99377     1.96018
              8  S  1  X      0.83292     0.67666
              9  S  1  Y      1.04427     0.94443
             10  S  1  Z      0.86070     0.75775
             11  S  1  X      0.06707     0.20430
             12  S  1  Y      0.09252     0.25064
             13  S  1  Z      0.16812     0.27705
             14  S  1 XX      0.03896     0.32986
             15  S  1 YY      0.15343     0.31160
             16  S  1 ZZ      0.15600     0.27566
             17  S  1 XY      0.10262     0.17546
             18  S  1 XZ      0.02004     0.12384
             19  S  1 YZ      0.00000     0.01936
             20  O  2  S      1.99545     1.97255
             21  O  2  S      0.94493     0.68496
             22  O  2  S      0.90331     0.51728
             23  O  2  X      0.97230     0.93386
             24  O  2  Y      1.02920     1.00039
             25  O  2  Z      0.86016     0.82281
             26  O  2  X      0.45466     0.57347
             27  O  2  Y      0.57038     0.65107
             28  O  2  Z      0.55984     0.59777
             29  O  2 XX      0.00226     0.20572
             30  O  2 YY      0.00613     0.19813
             31  O  2 ZZ      0.00660     0.19962
             32  O  2 XY      0.00484     0.01395
             33  O  2 XZ      0.00253     0.00696
             34  O  2 YZ      0.00000     0.00337
             35  O  3  S      1.99545     1.97255
             36  O  3  S      0.94493     0.68496
             37  O  3  S      0.90331     0.51728
             38  O  3  X      0.97230     0.93386
             39  O  3  Y      1.02920     1.00039
             40  O  3  Z      0.86016     0.82281
             41  O  3  X      0.45466     0.57347
             42  O  3  Y      0.57038     0.65107
             43  O  3  Z      0.55984     0.59777
             44  O  3 XX      0.00226     0.20572
             45  O  3 YY      0.00613     0.19813
             46  O  3 ZZ      0.00660     0.19962
             47  O  3 XY      0.00484     0.01395
             48  O  3 XZ      0.00253     0.00696
             49  O  3 YZ      0.00000     0.00337

          ----- MULLIKEN ATOMIC OVERLAP POPULATIONS -----
          (OFF-DIAGONAL ELEMENTS NEED TO BE MULTIPLIED BY 2)

             1           2           3

    1   14.5955123
    2    0.3896494   7.9854458
    3    0.3896563  -0.0625028   7.9854362

          TOTAL MULLIKEN AND LOWDIN ATOMIC POPULATIONS
       ATOM         MULL.POP.    CHARGE          LOW.POP.     CHARGE
    1 S            15.374818    0.625182        15.236198    0.763802
    2 O             8.312592   -0.312592         8.381902   -0.381902
    3 O             8.312590   -0.312590         8.381901   -0.381901

          MULLIKEN SPHERICAL HARMONIC POPULATIONS
       ATOM           S       P       D      F      G      H      I    TOTAL
    1 S             5.86    9.05    0.47   0.00   0.00   0.00   0.00   15.37
    2 O             3.84    4.45    0.02   0.00   0.00   0.00   0.00    8.31
    3 O             3.84    4.45    0.02   0.00   0.00   0.00   0.00    8.31

          -------------------------------
          BOND ORDER AND VALENCE ANALYSIS     BOND ORDER THRESHOLD=0.050
          -------------------------------

                   BOND                       BOND                       BOND
  ATOM PAIR DIST  ORDER      ATOM PAIR DIST  ORDER      ATOM PAIR DIST  ORDER
    1   2  1.450  1.885        1   3  1.450  1.885        2   3  2.376  0.250

                       TOTAL       BONDED        FREE
      ATOM            VALENCE     VALENCE     VALENCE
    1 S                 3.771       3.771      -0.000
    2 O                 2.135       2.135       0.000
    3 O                 2.135       2.135      -0.000

          ---------------------
          ELECTROSTATIC MOMENTS
          ---------------------

 POINT   1           X           Y           Z (BOHR)    CHARGE
                 0.000000    0.000000    0.000000       -0.00 (A.U.)
         DX          DY          DZ         /D/  (DEBYE)
    -0.000005   -2.081034    0.000000    2.081034
 ...... END OF PROPERTY EVALUATION ......
 STEP CPU TIME =     0.02 TOTAL CPU TIME =          2.7 (      0.0 MIN)
 TOTAL WALL CLOCK TIME=          2.8 SECONDS, CPU UTILIZATION IS    98.55%
                580000  WORDS OF DYNAMIC MEMORY USED
 EXECUTION OF GAMESS TERMINATED NORMALLY Sun Sep 29 10:47:07 2019
 DDI: 263640 bytes (0.3 MB / 0 MWords) used by master data server.

 ----------------------------------------
 CPU timing information for all processes
 ========================================
 0: 2.642 + 0.81 = 2.723
 ----------------------------------------
 ddikick.x: exited gracefully.
----- accounting info -----
Files used on the master node crcfe02.crc.nd.edu were:
-rw-r--r-- 1 cdrisko campus     208 Sep 29 10:47 /afs/crc.nd.edu/user/c/cdrisko/SO2.F05
-rw-r--r-- 1 cdrisko campus   37566 Sep 29 10:47 /afs/crc.nd.edu/user/c/cdrisko/SO2.F07
-rw-r--r-- 1 cdrisko campus 4320384 Sep 29 10:47 /afs/crc.nd.edu/user/c/cdrisko/SO2.F08
-rw-r--r-- 1 cdrisko campus 1766880 Sep 29 10:47 /afs/crc.nd.edu/user/c/cdrisko/SO2.F10
Sun Sep 29 10:47:10 EDT 2019
0.438u 0.239s 0:06.40 10.3%	0+0k 0+24io 0pf+0w
