----- GAMESS execution script 'rungms' -----
This job is running on host crcfe02.crc.nd.edu
under operating system Linux at Sun Sep 29 16:44:24 EDT 2019
Available scratch disk space (Kbyte units) at beginning of the job is
Filesystem      1K-blocks  Used  Available Use% Mounted on
AFS            2147483647     0 2147483647   0% /afs
GAMESS temporary binary files will be written to /afs/crc.nd.edu/user/c/cdrisko
GAMESS supplementary output files will be written to /afs/crc.nd.edu/user/c/cdrisko/scr
Copying input file CO2_opt.inp to your run's scratch directory...

 Distributed Data Interface kickoff program.
 Initiating 1 compute processes on 1 nodes to run the following command:
 /afs/crc.nd.edu/x86_64_linux/g/gamess/nov-2017/gamess/gamess.00.x CO2_opt 

          ******************************************************
          *         GAMESS VERSION = 11 NOV 2017 (R3)         *
          *             FROM IOWA STATE UNIVERSITY             *
          * M.W.SCHMIDT, K.K.BALDRIDGE, J.A.BOATZ, S.T.ELBERT, *
          *   M.S.GORDON, J.H.JENSEN, S.KOSEKI, N.MATSUNAGA,   *
          *          K.A.NGUYEN, S.J.SU, T.L.WINDUS,           *
          *       TOGETHER WITH M.DUPUIS, J.A.MONTGOMERY       *
          *         J.COMPUT.CHEM.  14, 1347-1363(1993)        *
          **************** 64 BIT INTEL VERSION ****************

  SINCE 1993, STUDENTS AND POSTDOCS WORKING AT IOWA STATE UNIVERSITY
  AND ALSO IN THEIR VARIOUS JOBS AFTER LEAVING ISU HAVE MADE IMPORTANT
  CONTRIBUTIONS TO THE CODE:
     IVANA ADAMOVIC, CHRISTINE AIKENS, YURI ALEXEEV, POOJA ARORA,
     ANDREY ASADCHEV, ROB BELL, PRADIPTA BANDYOPADHYAY, JONATHAN BENTZ,
     BRETT BODE, KURT BRORSEN, CALEB CARLIN, GALINA CHABAN, WEI CHEN,
     CHEOL HO CHOI, PAUL DAY, ALBERT DEFUSCO, NUWAN DESILVA, TIM DUDLEY,
     DMITRI FEDOROV, ALEX FINDLATER, GRAHAM FLETCHER, MARK FREITAG,
     KURT GLAESEMANN, ANASTASIA GUININA,
     DAN KEMP, GRANT MERRILL, NORIYUKI MINEZAWA, JONATHAN MULLIN,
     TAKESHI NAGATA, SEAN NEDD, HEATHER NETZLOFF, BOSILJKA NJEGIC, RYAN OLSON,
     MIKE PAK, BUU PHAM,
     SPENCER PRUITT, LUKE ROSKOP, JIM SHOEMAKER, LYUDMILA SLIPCHENKO,
     TONY SMITH, SAROM SOK LEANG, JIE SONG, TETSUYA TAKETSUGU, SIMON WEBB,
     PENG XU, SOOHAENG YOO, FEDERICO ZAHARIEV

  ADDITIONAL CODE HAS BEEN PROVIDED BY COLLABORATORS IN OTHER GROUPS:
     IOWA STATE UNIVERSITY:
          JOE IVANIC, AARON WEST, LAIMUTIS BYTAUTAS, KLAUS RUEDENBERG
     UNIVERSITY OF TOKYO: KIMIHIKO HIRAO, TAKAHITO NAKAJIMA,
          TAKAO TSUNEDA, MUNEAKI KAMIYA, SUSUMU YANAGISAWA,
          KIYOSHI YAGI, MAHITO CHIBA, SEIKEN TOKURA, NAOAKI KAWAKAMI
     UNIVERSITY OF AARHUS: FRANK JENSEN
     UNIVERSITY OF IOWA: VISVALDAS KAIRYS, HUI LI
     NATIONAL INST. OF STANDARDS AND TECHNOLOGY: WALT STEVENS, DAVID GARMER
     UNIVERSITY OF PISA: BENEDETTA MENNUCCI, JACOPO TOMASI
     UNIVERSITY OF MEMPHIS: HENRY KURTZ, PRAKASHAN KORAMBATH
     UNIVERSITY OF ALBERTA: TOBY ZENG, MARIUSZ KLOBUKOWSKI
     UNIVERSITY OF NEW ENGLAND: MARK SPACKMAN
     MIE UNIVERSITY: HIROAKI UMEDA
     NAT. INST. OF ADVANCED INDUSTRIAL SCIENCE AND TECHNOLOGY: KAZUO KITAURA
     MICHIGAN STATE UNIVERSITY:
          KAROL KOWALSKI, MARTA WLOCH, JEFFREY GOUR, JESSE LUTZ,
          WEI LI, PIOTR PIECUCH
     UNIVERSITY OF SILESIA: MONIKA MUSIAL, STANISLAW KUCHARSKI
     FACULTES UNIVERSITAIRES NOTRE-DAME DE LA PAIX:
          OLIVIER QUINET, BENOIT CHAMPAGNE
     UNIVERSITY OF CALIFORNIA - SANTA BARBARA: BERNARD KIRTMAN
     INSTITUTE FOR MOLECULAR SCIENCE:
          KAZUYA ISHIMURA, MICHIO KATOUDA, AND SHIGERU NAGASE
     UNIVERSITY OF NOTRE DAME: ANNA POMOGAEVA, DAN CHIPMAN
     KYUSHU UNIVERSITY:
          HARUYUKI NAKANO,
          FENG LONG GU, JACEK KORCHOWIEC, MARCIN MAKOWSKI, AND YURIKO AOKI,
          HIROTOSHI MORI AND EISAKU MIYOSHI
     PENNSYLVANIA STATE UNIVERSITY:
          TZVETELIN IORDANOV, CHET SWALINA, JONATHAN SKONE,
          SHARON HAMMES-SCHIFFER
     WASEDA UNIVERSITY:
          MASATO KOBAYASHI, TOMOKO AKAMA, TSUGUKI TOUMA,
          TAKESHI YOSHIKAWA, YASUHIRO IKABATA, JUNJI SEINO,
          YUYA NAKAJIMA, HIROMI NAKAI
     NANJING UNIVERSITY: SHUHUA LI
     UNIVERSITY OF NEBRASKA:
          PEIFENG SU, DEJUN SI, NANDUN THELLAMUREGE, YALI WANG, HUI LI
     UNIVERSITY OF ZURICH: ROBERTO PEVERATI, KIM BALDRIDGE
     N. COPERNICUS UNIVERSITY AND JACKSON STATE UNIVERSITY:
          MARIA BARYSZ
     UNIVERSITY OF COPENHAGEN: Jimmy Kromann, CASPER STEINMANN
     TOKYO INSTITUTE OF TECHNOLOGY: HIROYA NAKATA
     NAGOYA UNIVERSITY: YOSHIO NISHIMOTO, STEPHAN IRLE
     MOSCOW STATE UNIVERSITY: VLADIMIR MIRONOV

 EXECUTION OF GAMESS BEGUN Sun Sep 29 16:44:24 2019

            ECHO OF THE FIRST FEW INPUT CARDS -
 INPUT CARD>!   File created by the GAMESS Input Deck Generator Plugin for Avogadro         
 INPUT CARD> $BASIS GBASIS=PCSEG-1 $END                                                     
 INPUT CARD> $CONTRL RUNTYP=OPTIMIZE DFTTYP=PBE ISPHER=1 MULT=1 $END                        
 INPUT CARD>                                                                                
 INPUT CARD> $DATA                                                                          
 INPUT CARD>Title                                                                           
 INPUT CARD>C1                                                                              
 INPUT CARD>C     6.0    -0.98864     2.41193     0.00106                                   
 INPUT CARD>O     8.0     0.49420     2.38807     0.10884                                   
 INPUT CARD>O     8.0    -2.43756     2.41127    -0.12043                                   
 INPUT CARD> $END                                                                           
    1000000 WORDS OF MEMORY AVAILABLE

     BASIS OPTIONS
     -------------
     GBASIS=PCSEG-1      IGAUSS=       0      POLAR=NONE    
     NDFUNC=       0     NFFUNC=       0     DIFFSP=       F
     NPFUNC=       0      DIFFS=       F     BASNAM=        


     RUN TITLE
     ---------
 Title                                                                           

 THE POINT GROUP OF THE MOLECULE IS C1      
 THE ORDER OF THE PRINCIPAL AXIS IS     0

 ATOM      ATOMIC                      COORDINATES (BOHR)
           CHARGE         X                   Y                   Z
 C           6.0    -1.8682587005        4.5578868016        0.0020031095
 O           8.0     0.9339025831        4.5127979395        0.2056777765
 O           8.0    -4.6063204786        4.5566395824       -0.2275797007

          INTERNUCLEAR DISTANCES (ANGS.)
          ------------------------------

                1 C          2 O          3 O     

   1 C       0.0000000    1.4869433 *  1.4540046 *
   2 O       1.4869433 *  0.0000000    2.9408026 *
   3 O       1.4540046 *  2.9408026 *  0.0000000  

  * ... LESS THAN  3.000


     ATOMIC BASIS SET
     ----------------
 THE CONTRACTED PRIMITIVE FUNCTIONS HAVE BEEN UNNORMALIZED
 THE CONTRACTED BASIS FUNCTIONS ARE NOW NORMALIZED TO UNITY

  SHELL TYPE  PRIMITIVE        EXPONENT          CONTRACTION COEFFICIENT(S)

 C         

      1   S       1          1243.2000000    0.005630097702
      1   S       2           187.1450000    0.041950603854
      1   S       3            42.5126000    0.184664360492
      1   S       4            11.7393000    0.466557421368
      1   S       5             3.5054800    0.448234778316

      2   S       6             5.3908900   -0.148114817444
      2   S       7             0.4933410    1.051981714281

      3   S       8             0.1497410    1.000000000000

      4   P       9             9.1805600    0.063992052045
      4   P      10             1.9365800    0.333521296407
      4   P      11             0.5262960    0.741161730513

      5   P      12             0.1363190    1.000000000000

      6   D      13             0.8000000    1.000000000000

 O         

      7   S      14          2288.6400000    0.005451138222
      7   S      15           344.4160000    0.040718922842
      7   S      16            78.2538000    0.181369420873
      7   S      17            21.7195000    0.465536820246
      7   S      18             6.5590700    0.451211321214

      8   S      19            10.4656000   -0.150211201174
      8   S      20             0.9643510    1.052867983385

      9   S      21             0.2851270    1.000000000000

     10   P      22            17.0590000    0.068749256972
     10   P      23             3.6899900    0.351671941499
     10   P      24             0.9929960    0.724532099722

     11   P      25             0.2449240    1.000000000000

     12   D      26             1.0000000    1.000000000000

 O         

     13   S      27          2288.6400000    0.005451138222
     13   S      28           344.4160000    0.040718922842
     13   S      29            78.2538000    0.181369420873
     13   S      30            21.7195000    0.465536820246
     13   S      31             6.5590700    0.451211321214

     14   S      32            10.4656000   -0.150211201174
     14   S      33             0.9643510    1.052867983385

     15   S      34             0.2851270    1.000000000000

     16   P      35            17.0590000    0.068749256972
     16   P      36             3.6899900    0.351671941499
     16   P      37             0.9929960    0.724532099722

     17   P      38             0.2449240    1.000000000000

     18   D      39             1.0000000    1.000000000000

 TOTAL NUMBER OF BASIS SET SHELLS             =   18
 NUMBER OF CARTESIAN GAUSSIAN BASIS FUNCTIONS =   45
 NOTE: THIS RUN WILL RESTRICT THE MO VARIATION SPACE TO SPHERICAL HARMONICS.
 THE NUMBER OF ORBITALS KEPT IN THE VARIATIONAL SPACE WILL BE PRINTED LATER.
 NUMBER OF ELECTRONS                          =   22
 CHARGE OF MOLECULE                           =    0
 SPIN MULTIPLICITY                            =    1
 NUMBER OF OCCUPIED ORBITALS (ALPHA)          =   11
 NUMBER OF OCCUPIED ORBITALS (BETA )          =   11
 TOTAL NUMBER OF ATOMS                        =    3
 THE NUCLEAR REPULSION ENERGY IS       46.0680710017

     LEBEDEV GRID-BASED DFT OPTIONS
     ------------------------------
     DFTTYP=PBE     
     NRAD  =      96     NLEB  =     302
     NRAD0 =      24     NLEB0 =     110
     SWOFF =    5.00E-03 (PURE SCF -> DFT)
     SWITCH=    3.00E-04 (COARSE -> TIGHT GRID)
     THRESH=    0.00E+00 GTHRE=    1.00E+00

 GRIMME'S EMPIRICAL DISPERSION CORRECTION= F

     $CONTRL OPTIONS
     ---------------
 SCFTYP=RHF          RUNTYP=OPTIMIZE     EXETYP=RUN     
 MPLEVL=       0     CITYP =NONE         CCTYP =NONE         VBTYP =NONE    
 DFTTYP=PBE          TDDFT =NONE    
 MULT  =       1     ICHARG=       0     NZVAR =       0     COORD =UNIQUE  
 PP    =NONE         RELWFN=NONE         LOCAL =NONE         NUMGRD=       F
 ISPHER=       1     NOSYM =       0     MAXIT =      30     UNITS =ANGS    
 PLTORB=       F     MOLPLT=       F     AIMPAC=       F     FRIEND=        
 NPRINT=       7     IREST =       0     GEOM  =INPUT   
 NORMF =       0     NORMP =       0     ITOL  =      20     ICUT  =       9
 INTTYP=BEST         GRDTYP=BEST         QMTTOL= 1.0E-06

     $SYSTEM OPTIONS
     ---------------
  REPLICATED MEMORY=     1000000 WORDS (ON EVERY NODE).
 DISTRIBUTED MEMDDI=           0 MILLION WORDS IN AGGREGATE,
 MEMDDI DISTRIBUTED OVER   1 PROCESSORS IS           0 WORDS/PROCESSOR.
 TOTAL MEMORY REQUESTED ON EACH PROCESSOR=     1000000 WORDS.
 TIMLIM=      525600.00 MINUTES, OR     365.0 DAYS.
 PARALL= F  BALTYP=  DLB     KDIAG=    0  COREFL= F
 MXSEQ2=     300 MXSEQ3=     150  mem10=         0

          ----------------
          PROPERTIES INPUT
          ----------------

     MOMENTS            FIELD           POTENTIAL          DENSITY
 IEMOM =       1   IEFLD =       0   IEPOT =       0   IEDEN =       0
 WHERE =COMASS     WHERE =NUCLEI     WHERE =NUCLEI     WHERE =NUCLEI  
 OUTPUT=BOTH       OUTPUT=BOTH       OUTPUT=BOTH       OUTPUT=BOTH    
 IEMINT=       0   IEFINT=       0                     IEDINT=       0
                                                       MORB  =       0
          EXTRAPOLATION IN EFFECT
          DIIS IN EFFECT
 ORBITAL PRINTING OPTION: NPREO=     1    45     2     1

     -------------------------------
     INTEGRAL TRANSFORMATION OPTIONS
     -------------------------------
     NWORD  =            0
     CUTOFF = 1.0E-09     MPTRAN =       0
     DIRTRF =       F     AOINTS =DUP     

          ----------------------
          INTEGRAL INPUT OPTIONS
          ----------------------
 NOPK  =       1 NORDER=       0 SCHWRZ=       F

     ------------------------------------------
     THE POINT GROUP IS C1 , NAXIS= 0, ORDER= 1
     ------------------------------------------

 -- VARIATIONAL SPACE WILL BE RESTRICTED TO PURE SPHERICAL HARMONICS ONLY --
 AFTER EXCLUDING CONTAMINANT COMBINATIONS FROM THE CARTESIAN GAUSSIAN BASIS
 SET, THE NUMBER OF SPHERICAL HARMONICS KEPT IN THE VARIATION SPACE IS   42

     DIMENSIONS OF THE SYMMETRY SUBSPACES ARE
 A   =   42

 ..... DONE SETTING UP THE RUN .....
 STEP CPU TIME =     0.02 TOTAL CPU TIME =          0.0 (      0.0 MIN)
 TOTAL WALL CLOCK TIME=          0.0 SECONDS, CPU UTILIZATION IS    66.67%


          -----------------------------
          STATIONARY POINT LOCATION RUN
          -----------------------------

 OBTAINING INITIAL HESSIAN, HESS=GUESS   
 CARTESIAN COORDINATE OPTIMIZATION USING BADGER'S RULE FORCE CONSTANT GUESS

          PARAMETERS CONTROLLING GEOMETRY SEARCH ARE
          METHOD =QA                  UPHESS =BFGS    
          NNEG   =         0          NFRZ   =         0
          NSTEP  =        50          IFOLOW =         1
          HESS   =GUESS               RESTAR =         F
          IHREP  =         0          HSSEND =         F
          NPRT   =         0          NPUN   =         0
          OPTTOL = 1.000E-04          RMIN   = 1.500E-03
          RMAX   = 1.000E-01          RLIM   = 7.000E-02
          DXMAX  = 3.000E-01          PURIFY =         F
          MOVIE  =         F          TRUPD  =         T
          TRMAX  = 5.000E-01          TRMIN  = 5.000E-02
          ITBMAT =         5          STPT   =         F
          STSTEP = 1.000E-02          PROJCT=          T

 BEGINNING GEOMETRY SEARCH POINT NSERCH=   0 ...

 COORDINATES OF ALL ATOMS ARE (ANGS)
   ATOM   CHARGE       X              Y              Z
 ------------------------------------------------------------
 C           6.0  -0.9886400000   2.4119300000   0.0010600000
 O           8.0   0.4942000000   2.3880700000   0.1088400000
 O           8.0  -2.4375600000   2.4112700000  -0.1204300000

          ********************
          1 ELECTRON INTEGRALS
          ********************
 ...... END OF ONE-ELECTRON INTEGRALS ......
 STEP CPU TIME =     0.00 TOTAL CPU TIME =          0.0 (      0.0 MIN)
 TOTAL WALL CLOCK TIME=          0.0 SECONDS, CPU UTILIZATION IS    66.67%

          -------------
          GUESS OPTIONS
          -------------
          GUESS =HUCKEL            NORB  =       0          NORDER=       0
          MIX   =       F          PRTMO =       F          PUNMO =       F
          TOLZ  = 1.0E-08          TOLE  = 1.0E-05
          SYMDEN=       F          PURIFY=       F

 INITIAL GUESS ORBITALS GENERATED BY HUCKEL   ROUTINE.
 HUCKEL GUESS REQUIRES     18234 WORDS.

 STATISTICS FOR GENERATION OF SYMMETRY ORBITAL -Q- MATRIX
 NUMBER OF CARTESIAN ATOMIC ORBITALS=         45
 NUMBER OF SPHERICAL CONTAMINANTS DROPPED=     3
 NUMBER OF LINEARLY DEPENDENT MOS DROPPED=     0
 TOTAL NUMBER OF MOS IN VARIATION SPACE=      42

 SYMMETRIES FOR INITIAL GUESS ORBITALS FOLLOW.   BOTH SET(S).
    11 ORBITALS ARE OCCUPIED (    3 CORE ORBITALS).
     4=A        5=A        6=A        7=A        8=A        9=A       10=A   
    11=A       12=A       13=A       14=A       15=A       16=A       17=A   
    18=A       19=A       20=A       21=A   
 ...... END OF INITIAL ORBITAL SELECTION ......
 STEP CPU TIME =     0.01 TOTAL CPU TIME =          0.0 (      0.0 MIN)
 TOTAL WALL CLOCK TIME=          0.0 SECONDS, CPU UTILIZATION IS    75.00%

                    ----------------------
                    AO INTEGRAL TECHNOLOGY
                    ----------------------
     S,P,L SHELL ROTATED AXIS INTEGRALS, REPROGRAMMED BY
        KAZUYA ISHIMURA (IMS) AND JOSE SIERRA (SYNSTAR).
     S,P,D,L SHELL ROTATED AXIS INTEGRALS PROGRAMMED BY
        KAZUYA ISHIMURA (INSTITUTE FOR MOLECULAR SCIENCE).
     S,P,D,F,G SHELL TO TOTAL QUARTET ANGULAR MOMENTUM SUM 5,
        ERIC PROGRAM BY GRAHAM FLETCHER (ELORET AND NASA ADVANCED
        SUPERCOMPUTING DIVISION, AMES RESEARCH CENTER).
     S,P,D,F,G,L SHELL GENERAL RYS QUADRATURE PROGRAMMED BY
        MICHEL DUPUIS (PACIFIC NORTHWEST NATIONAL LABORATORY).

          --------------------
          2 ELECTRON INTEGRALS
          --------------------

 THE -PK- OPTION IS OFF, THE INTEGRALS ARE NOT IN SUPERMATRIX FORM.
 STORING   15000 INTEGRALS/RECORD ON DISK, USING 12 BYTES/INTEGRAL.
 TWO ELECTRON INTEGRAL EVALUATION REQUIRES   90567 WORDS OF MEMORY.
 II,JST,KST,LST =  1  1  1  1 NREC =         1 INTLOC =    1
 II,JST,KST,LST =  2  1  1  1 NREC =         1 INTLOC =    2
 II,JST,KST,LST =  3  1  1  1 NREC =         1 INTLOC =    7
 II,JST,KST,LST =  4  1  1  1 NREC =         1 INTLOC =   22
 II,JST,KST,LST =  5  1  1  1 NREC =         1 INTLOC =   67
 II,JST,KST,LST =  6  1  1  1 NREC =         1 INTLOC =  214
 II,JST,KST,LST =  7  1  1  1 NREC =         1 INTLOC = 1189
 II,JST,KST,LST =  8  1  1  1 NREC =         1 INTLOC = 3125
 II,JST,KST,LST =  9  1  1  1 NREC =         1 INTLOC = 5574
 II,JST,KST,LST = 10  1  1  1 NREC =         1 INTLOC = 8484
 II,JST,KST,LST = 11  1  1  1 NREC =         2 INTLOC = 5347
 II,JST,KST,LST = 12  1  1  1 NREC =         3 INTLOC = 7980
 II,JST,KST,LST = 13  1  1  1 NREC =         7 INTLOC = 5770
 II,JST,KST,LST = 14  1  1  1 NREC =         7 INTLOC =14530
 II,JST,KST,LST = 15  1  1  1 NREC =         8 INTLOC =12560
 II,JST,KST,LST = 16  1  1  1 NREC =         9 INTLOC =14849
 II,JST,KST,LST = 17  1  1  1 NREC =        13 INTLOC = 4745
 II,JST,KST,LST = 18  1  1  1 NREC =        18 INTLOC = 6608
 TOTAL NUMBER OF NONZERO TWO-ELECTRON INTEGRALS =              442671
         30 INTEGRAL RECORDS WERE STORED ON DISK FILE  8.
  ...... END OF TWO-ELECTRON INTEGRALS .....
 STEP CPU TIME =     0.07 TOTAL CPU TIME =          0.1 (      0.0 MIN)
 TOTAL WALL CLOCK TIME=          0.1 SECONDS, CPU UTILIZATION IS    90.91%

          --------------------------
               R-PBE SCF CALCULATION
          --------------------------

     NUCLEAR ENERGY =        46.0680710017
     MAXIT =   30     NPUNCH=    2
     EXTRAP=T  DAMP=F  SHIFT=F  RSTRCT=F  DIIS=T  DEM=F  SOSCF=F
         DENSITY MATRIX CONVERGENCE THRESHOLD=  1.00E-05
     COARSE -> FINE DFT GRID SWITCH THRESHOLD=  3.00E-04 (SWITCH IN $DFT)
                   HF -> DFT SWITCH THRESHOLD=  5.00E-03 (SWOFF IN $DFT)
     MEMORY REQUIRED FOR RHF ITERS=    180183 WORDS.

 DFT CODE IS SWITCHING FROM THE FINE GRID NRAD= 96,  NLEB=  302
                      TO THE COARSE GRID NRAD0= 24, NLEB0=  110

     EXCHANGE FUNCTIONAL   =PBE       
     CORRELATION FUNCTIONAL=PBE       
     DFT THRESHOLD         =.460E-07
     GRID CHANGE THRESHOLD =.300E-03
 FOR AN EULER-MACLAURIN QUADRATURE USING  96 RADIAL POINTS:
 SMALLEST GAUSSIAN PRIMITIVE EXPONENT=        0.1363190000 OF TYPE -P-
 ON ATOM NUMBER   1 HAS RADIAL NORMALIZATION=  1.000000
  LARGEST GAUSSIAN PRIMITIVE EXPONENT=     2288.6400000000 OF TYPE -S-
 ON ATOM NUMBER   2 HAS RADIAL NORMALIZATION=  1.000000
 DFT IS SWITCHED OFF, PERFORMING PURE SCF UNTIL SWOFF THRESHOLD IS REACHED.

 ITER EX DEM     TOTAL ENERGY        E CHANGE  DENSITY CHANGE    DIIS ERROR
   1  0  0     -186.7598066978  -186.7598066978   0.331615796   0.812316416
          * * *   INITIATING DIIS PROCEDURE   * * *
   2  1  0     -187.0928716235    -0.3330649258   0.308905635   0.360473834
   3  2  0     -187.0722688900     0.0206027335   0.170408369   0.352816113
   4  3  0     -187.3133609079    -0.2410920178   0.048918107   0.035786832
   5  4  0     -187.3192315823    -0.0058706744   0.021243370   0.016685275
   6  5  0     -187.3208303782    -0.0015987960   0.010244049   0.006535131
   7  6  0     -187.3210011409    -0.0001707627   0.002574162   0.002427604
 CONVERGED TO SWOFF, SO DFT CALCULATION IS NOW SWITCHED ON.
          * * *   INITIATING DIIS PROCEDURE   * * *
   8  7  0     -188.1365566163    -0.8155554754   0.373788761   0.098179886
   9  8  0     -187.9911561073     0.1454005090   0.230926962   0.354680698
  10  9  0     -188.1873132248    -0.1961571175   0.095698346   0.049561629
  11 10  0     -188.1726259745     0.0146872503   0.066732402   0.112355460
  12 11  0     -188.1891773491    -0.0165513747   0.030411551   0.050868432
  13 12  0     -188.1939690667    -0.0047917176   0.001031724   0.002366639
  14 13  0     -188.1939791354    -0.0000100687   0.000260512   0.000344107
 DFT CODE IS SWITCHING BACK TO THE FINE GRID
          * * *   INITIATING DIIS PROCEDURE   * * *
  15 14  0     -188.1946568664    -0.0006777310   0.001708090   0.003850095
  16 15  0     -188.1946730311    -0.0000161647   0.001786006   0.000523527
  17 16  0     -188.1946511498     0.0000218813   0.001803625   0.003669615
  18 17  0     -188.1946735892    -0.0000224394   0.000296275   0.000475608
  19 18  0     -188.1946738992    -0.0000003100   0.000150049   0.000306992
  20 19  0     -188.1946740421    -0.0000001430   0.000023485   0.000029482
  21 20  0     -188.1946740439    -0.0000000017   0.000002541   0.000006575
  22 21  0     -188.1946740439    -0.0000000001   0.000000243   0.000000470

          -----------------
          DENSITY CONVERGED
          -----------------
     TIME TO FORM FOCK OPERATORS=       2.0 SECONDS (       0.1 SEC/ITER)
     TIME TO SOLVE SCF EQUATIONS=       0.0 SECONDS (       0.0 SEC/ITER)

 FINAL R-PBE ENERGY IS     -188.1946740439 AFTER  22 ITERATIONS
 DFT EXCHANGE + CORRELATION ENERGY =       -21.9128801798
 TOTAL ELECTRON NUMBER             =        21.9999999938

          ------------
          EIGENVECTORS
          ------------

                      1          2          3          4          5
                  -18.8762   -18.8720   -10.1409    -0.9666    -0.9369
                     A          A          A          A          A   
    1  C  1  S    0.000071   0.000039   0.993579  -0.112087  -0.026050
    2  C  1  S    0.000209   0.000095   0.031372   0.237458   0.055725
    3  C  1  S    0.004318   0.004236  -0.006549   0.077960   0.021458
    4  C  1  X   -0.000951   0.000946  -0.000167  -0.055883   0.195231
    5  C  1  Y    0.000003  -0.000013  -0.000017  -0.000981  -0.001848
    6  C  1  Z   -0.000078   0.000070  -0.000025  -0.005330   0.015063
    7  C  1  X   -0.007929   0.007644  -0.000096   0.002255  -0.004217
    8  C  1  Y    0.000023  -0.000100  -0.000011   0.000061   0.000044
    9  C  1  Z   -0.000647   0.000571  -0.000016   0.000229  -0.000323
   10  C  1 XX   -0.000295  -0.000137   0.001861   0.030084   0.006830
   11  C  1 YY    0.000149   0.000069  -0.000939  -0.015185  -0.003425
   12  C  1 ZZ    0.000146   0.000067  -0.000922  -0.014899  -0.003405
   13  C  1 XY    0.000008  -0.000004  -0.000024  -0.000290  -0.000498
   14  C  1 XZ   -0.000037  -0.000023   0.000254   0.004172   0.000654
   15  C  1 YZ    0.000001  -0.000000  -0.000002  -0.000021  -0.000036
   16  O  2  S   -0.011935   0.993213   0.000118  -0.108252  -0.200905
   17  O  2  S   -0.001647   0.034032   0.000524   0.227129   0.420120
   18  O  2  S    0.004824  -0.018612  -0.001474   0.210655   0.414714
   19  O  2  X   -0.000099  -0.001435   0.000478  -0.063442  -0.100347
   20  O  2  Y   -0.000007   0.000026  -0.000008   0.000981   0.001680
   21  O  2  Z   -0.000013  -0.000103   0.000034  -0.004638  -0.007250
   22  O  2  X   -0.000920   0.004580   0.002311  -0.029590  -0.046285
   23  O  2  Y    0.000057  -0.000083  -0.000036   0.000371   0.000830
   24  O  2  Z   -0.000038   0.000327   0.000169  -0.002222  -0.003306
   25  O  2 XX    0.000051  -0.000309  -0.001571   0.007307   0.011922
   26  O  2 YY   -0.000025   0.000156   0.000791  -0.003681  -0.006002
   27  O  2 ZZ   -0.000026   0.000153   0.000780  -0.003626  -0.005920
   28  O  2 XY   -0.000009   0.000009   0.000046  -0.000201  -0.000408
   29  O  2 XZ    0.000001  -0.000039  -0.000197   0.000925   0.001454
   30  O  2 YZ   -0.000001   0.000001   0.000003  -0.000014  -0.000029
   31  O  3  S    0.993209   0.011877   0.000124  -0.190348   0.122546
   32  O  3  S    0.034173  -0.000808   0.000498   0.398710  -0.255851
   33  O  3  S   -0.019070   0.004367  -0.001766   0.377644  -0.257017
   34  O  3  X    0.001478   0.000140  -0.000591   0.110205  -0.060437
   35  O  3  Y    0.000004  -0.000009  -0.000001   0.000046  -0.000117
   36  O  3  Z    0.000126   0.000006  -0.000050   0.009238  -0.005128
   37  O  3  X   -0.004618   0.000701  -0.002482   0.048845  -0.026552
   38  O  3  Y   -0.000013   0.000043  -0.000000  -0.000025  -0.000142
   39  O  3  Z   -0.000394   0.000088  -0.000208   0.004064  -0.002314
   40  O  3 XX   -0.000273   0.000011  -0.001578   0.011782  -0.006963
   41  O  3 YY    0.000138  -0.000006   0.000798  -0.005955   0.003521
   42  O  3 ZZ    0.000135  -0.000005   0.000781  -0.005827   0.003441
   43  O  3 XY   -0.000000   0.000007  -0.000004   0.000037  -0.000074
   44  O  3 XZ   -0.000040   0.000007  -0.000232   0.001736  -0.001061
   45  O  3 YZ   -0.000000   0.000001  -0.000000   0.000003  -0.000006

                      6          7          8          9         10
                   -0.5600    -0.4586    -0.3929    -0.3929    -0.3245
                     A          A          A          A          A   
    1  C  1  S   -0.182578   0.005786  -0.000792   0.000067  -0.000003
    2  C  1  S    0.446125  -0.013265   0.001771  -0.000150   0.000007
    3  C  1  S    0.269241  -0.019547   0.003396  -0.000289   0.000014
    4  C  1  X   -0.004114  -0.383951  -0.017074  -0.026279  -0.001672
    5  C  1  Y    0.000251   0.002978   0.311790  -0.250435  -0.011692
    6  C  1  Z   -0.000174  -0.030064   0.249875   0.310691   0.019801
    7  C  1  X    0.002586   0.015766  -0.008644  -0.013004  -0.001017
    8  C  1  Y    0.000734  -0.000127   0.154381  -0.124007  -0.008315
    9  C  1  Z    0.000711   0.001232   0.123709   0.153846   0.014093
   10  C  1 XX    0.009119   0.000176   0.000602   0.000417  -0.004777
   11  C  1 YY   -0.004601  -0.000101  -0.000189   0.000215   0.000274
   12  C  1 ZZ   -0.004518  -0.000075  -0.000413  -0.000632   0.004502
   13  C  1 XY   -0.000124   0.000227  -0.003030   0.002453  -0.019624
   14  C  1 XZ    0.001240   0.000179  -0.002394  -0.002998   0.033060
   15  C  1 YZ   -0.000010   0.000016  -0.000490   0.000131  -0.001802
   16  O  2  S    0.092459  -0.062152  -0.000235   0.000020  -0.000004
   17  O  2  S   -0.201200   0.140478   0.000438  -0.000039   0.000018
   18  O  2  S   -0.264417   0.152656   0.001083  -0.000086  -0.000063
   19  O  2  X   -0.240532   0.394302  -0.008505  -0.022281  -0.035934
   20  O  2  Y    0.004167  -0.007843   0.258545  -0.207733  -0.259313
   21  O  2  Z   -0.017283   0.027650   0.207688   0.257689   0.439237
   22  O  2  X   -0.126949   0.234831  -0.004998  -0.013219  -0.024263
   23  O  2  Y    0.002043  -0.004962   0.153325  -0.123190  -0.175193
   24  O  2  Z   -0.009227   0.016271   0.123169   0.152815   0.296751
   25  O  2 XX    0.011432  -0.014033   0.000816   0.001903   0.001802
   26  O  2 YY   -0.005761   0.007065   0.000416  -0.000287  -0.000212
   27  O  2 ZZ   -0.005671   0.006969  -0.001232  -0.001616  -0.001590
   28  O  2 XY   -0.000292   0.000482  -0.012809   0.010268   0.007463
   29  O  2 XZ    0.001462  -0.001711  -0.010251  -0.012679  -0.012594
   30  O  2 YZ   -0.000022   0.000034  -0.000771   0.000951   0.000750
   31  O  3  S    0.097827   0.058973  -0.000251   0.000021   0.000002
   32  O  3  S   -0.212951  -0.133260   0.000482  -0.000040  -0.000015
   33  O  3  S   -0.280020  -0.142742   0.000998  -0.000090   0.000073
   34  O  3  X    0.261385   0.390893  -0.023848  -0.025623   0.032940
   35  O  3  Y    0.000436   0.001800   0.310866  -0.249697   0.231757
   36  O  3  Z    0.022131   0.033871   0.248565   0.309825  -0.392509
   37  O  3  X    0.137148   0.231312  -0.014346  -0.015354   0.022525
   38  O  3  Y    0.000080   0.001375   0.186318  -0.149655   0.158396
   39  O  3  Z    0.011511   0.020253   0.148973   0.185692  -0.268261
   40  O  3 XX    0.012171   0.013995  -0.001897  -0.002167   0.001595
   41  O  3 YY   -0.006149  -0.007077   0.000076  -0.000012   0.000011
   42  O  3 ZZ   -0.006022  -0.006918   0.001821   0.002179  -0.001606
   43  O  3 XY   -0.000016   0.000115   0.015112  -0.012139   0.006505
   44  O  3 XZ    0.001757   0.002110   0.011990   0.014957  -0.010939
   45  O  3 YZ   -0.000001   0.000010   0.001269  -0.001012   0.000537

                     11         12         13         14         15
                   -0.3245    -0.1556    -0.1538    -0.1486     0.1948
                     A          A          A          A          A   
    1  C  1  S   -0.000054  -0.073386   0.000004  -0.125871   0.000856
    2  C  1  S    0.000125   0.168089  -0.000006   0.289102   0.020126
    3  C  1  S    0.000181   0.446953  -0.000030   0.772932  -0.113560
    4  C  1  X   -0.001266  -0.009623  -0.043758   0.030974   0.727515
    5  C  1  Y    0.019873   0.452508  -0.353277  -0.267348  -0.005661
    6  C  1  Z    0.011628   0.304415   0.523775  -0.177717   0.056975
    7  C  1  X    0.002099  -0.010974  -0.029186   0.012598   1.436887
    8  C  1  Y    0.014107   0.299915  -0.235611  -0.181574  -0.010250
    9  C  1  Z    0.008503   0.201377   0.349321  -0.121406   0.113107
   10  C  1 XX   -0.002207  -0.033879  -0.000086  -0.058120   0.003058
   11  C  1 YY   -0.000455   0.017154  -0.000249   0.029288  -0.001621
   12  C  1 ZZ    0.002663   0.016725   0.000335   0.028832  -0.001438
   13  C  1 XY    0.033397   0.000976  -0.000425   0.000499   0.001430
   14  C  1 XZ    0.019505  -0.004235   0.000587  -0.008115   0.001414
   15  C  1 YZ    0.002450   0.000325   0.000082  -0.000112   0.000105
   16  O  2  S   -0.000061   0.023029  -0.000002   0.040887   0.089051
   17  O  2  S    0.000321  -0.055242   0.000002  -0.098007  -0.197868
   18  O  2  S   -0.001134  -0.131295   0.000013  -0.233779  -0.827227
   19  O  2  X   -0.009024   0.239273   0.024358   0.392441   0.270660
   20  O  2  Y    0.440579  -0.257189   0.196766   0.139983  -0.008345
   21  O  2  Z    0.259367  -0.153488  -0.291729   0.127189   0.016988
   22  O  2  X   -0.005843   0.201441   0.019038   0.334123   0.490470
   23  O  2  Y    0.297646  -0.200967   0.153823   0.109541  -0.010129
   24  O  2  Z    0.175243  -0.118724  -0.228061   0.101789   0.034138
   25  O  2 XX    0.000555  -0.000204   0.001098  -0.000902   0.013037
   26  O  2 YY    0.000372   0.000472  -0.000156   0.000224  -0.006543
   27  O  2 ZZ   -0.000927  -0.000268  -0.000942   0.000678  -0.006494
   28  O  2 XY   -0.012714  -0.006449   0.005105   0.004049  -0.000795
   29  O  2 XZ   -0.007454  -0.004396  -0.007539   0.002610   0.001354
   30  O  2 YZ   -0.000799  -0.000386   0.000500   0.000243  -0.000052
   31  O  3  S    0.000030   0.022433  -0.000001   0.039752  -0.095469
   32  O  3  S   -0.000274  -0.054326   0.000003  -0.096162   0.211353
   33  O  3  S    0.001336  -0.130435   0.000007  -0.232006   0.910039
   34  O  3  X    0.021766  -0.201918   0.024973  -0.380745   0.277543
   35  O  3  Y   -0.393888  -0.259648   0.201539   0.149992   0.003828
   36  O  3  Z   -0.230746  -0.192002  -0.298805   0.069349   0.025768
   37  O  3  X    0.015113  -0.172304   0.019703  -0.325302   0.532741
   38  O  3  Y   -0.269197  -0.204498   0.158995   0.118903   0.002275
   39  O  3  Z   -0.157679  -0.152329  -0.235727   0.053014   0.046044
   40  O  3 XX    0.000960  -0.001016  -0.001116   0.000035  -0.010798
   41  O  3 YY   -0.000017   0.000197  -0.000016   0.000180   0.005476
   42  O  3 ZZ   -0.000943   0.000819   0.001132  -0.000215   0.005323
   43  O  3 XY   -0.011054   0.006567  -0.005203  -0.004102  -0.000415
   44  O  3 XZ   -0.006434   0.004314   0.007658  -0.002781  -0.001849
   45  O  3 YZ   -0.000937   0.000565  -0.000427  -0.000353  -0.000036

                     16         17         18         19         20
                    0.3226     0.3539     0.3539     0.3879     0.7082
                     A          A          A          A          A   
    1  C  1  S   -0.002943   0.000718  -0.000049   0.120682   0.000000
    2  C  1  S    0.004876  -0.005619   0.000378  -1.475261  -0.000019
    3  C  1  S   -0.001341  -0.000164   0.000014   2.060184  -0.000006
    4  C  1  X   -0.752196   0.035228   0.057874   0.015880   0.000201
    5  C  1  Y    0.006394  -0.688579   0.533829   0.000759   0.001350
    6  C  1  Z   -0.058402  -0.532713  -0.686198   0.001843  -0.002014
    7  C  1  X    1.945073  -0.048564  -0.079069   0.050073   0.000647
    8  C  1  Y   -0.016233   0.942657  -0.730770  -0.007580   0.004892
    9  C  1  Z    0.151375   0.729244   0.939355  -0.000936  -0.007304
   10  C  1 XX   -0.006284  -0.001070  -0.000137   0.026017   0.006193
   11  C  1 YY    0.003220   0.000571  -0.000362  -0.013133  -0.000433
   12  C  1 ZZ    0.003064   0.000499   0.000499  -0.012884  -0.005760
   13  C  1 XY   -0.000861   0.001367  -0.001088  -0.000233   0.028663
   14  C  1 XZ   -0.001497   0.000950   0.001351   0.003618  -0.042582
   15  C  1 YZ   -0.000063   0.000498   0.000036  -0.000020   0.002603
   16  O  2  S    0.029098  -0.000212   0.000019   0.027311   0.000004
   17  O  2  S    0.010680   0.000075  -0.000011  -0.066043  -0.000023
   18  O  2  S   -0.927142   0.005180  -0.000463  -0.422161  -0.000003
   19  O  2  X   -0.273608   0.005447   0.008351  -0.169490  -0.044004
   20  O  2  Y    0.002516  -0.099852   0.077409   0.004058  -0.352775
   21  O  2  Z   -0.021134  -0.077221  -0.099506  -0.011427   0.526923
   22  O  2  X    0.291310   0.002092   0.008989   0.309046   0.049829
   23  O  2  Y   -0.006578  -0.103704   0.080426  -0.004549   0.399332
   24  O  2  Z    0.019910  -0.080502  -0.103367   0.022755  -0.596463
   25  O  2 XX   -0.052410  -0.000372  -0.001535  -0.059959  -0.000901
   26  O  2 YY    0.026402  -0.000453   0.000222   0.030202   0.000159
   27  O  2 ZZ    0.026009   0.000825   0.001313   0.029757   0.000742
   28  O  2 XY    0.001494   0.010236  -0.007925   0.001746  -0.004170
   29  O  2 XZ   -0.006599   0.007945   0.010137  -0.007522   0.006211
   30  O  2 YZ    0.000109   0.000632  -0.000736   0.000126  -0.000425
   31  O  3  S   -0.026533  -0.000161   0.000006   0.019828  -0.000006
   32  O  3  S   -0.021432  -0.000228   0.000020  -0.044343   0.000032
   33  O  3  S    0.940364   0.006179  -0.000304  -0.381091   0.000007
   34  O  3  X   -0.292580   0.004093   0.008173   0.189170   0.044446
   35  O  3  Y    0.002092  -0.096783   0.075031   0.001815   0.356594
   36  O  3  Z   -0.023017  -0.074947  -0.096443   0.017027  -0.532630
   37  O  3  X    0.261443   0.008746   0.008691  -0.263793  -0.050753
   38  O  3  Y    0.002297  -0.105534   0.081811   0.000322  -0.407494
   39  O  3  Z    0.023413  -0.081365  -0.105175  -0.021820   0.608661
   40  O  3 XX    0.054478   0.001901   0.001775  -0.062050  -0.000764
   41  O  3 YY   -0.027529  -0.000253   0.000008   0.031359  -0.000050
   42  O  3 ZZ   -0.026949  -0.001648  -0.001783   0.030691   0.000814
   43  O  3 XY    0.000076  -0.012498   0.009689  -0.000166  -0.003519
   44  O  3 XZ    0.007965  -0.009514  -0.012373  -0.009123   0.005211
   45  O  3 YZ    0.000006  -0.001037   0.000812  -0.000015  -0.000269

                     21         22         23         24         25
                    0.7082     0.7362     0.7850     0.8545     0.8546
                     A          A          A          A          A   
    1  C  1  S    0.000058   0.017964  -0.004596   0.000111  -0.000000
    2  C  1  S   -0.002945  -0.571633   0.051571  -0.007600  -0.000015
    3  C  1  S   -0.001843  -0.341955   0.009081   0.002394   0.000003
    4  C  1  X    0.008465   0.036662   0.372778  -0.002751  -0.004879
    5  C  1  Y   -0.002071   0.003188  -0.003284   0.058623  -0.039198
    6  C  1  Z   -0.000680   0.005213   0.028928   0.039120   0.058398
    7  C  1  X    0.013214  -0.021283  -0.234052   0.027015   0.050142
    8  C  1  Y   -0.007417   0.003810   0.001734  -0.602389   0.402980
    9  C  1  Z   -0.003862   0.000795  -0.018385  -0.402084  -0.600362
   10  C  1 XX    0.002380  -0.184694   0.014337  -0.003065  -0.000705
   11  C  1 YY    0.001067   0.093199  -0.007041   0.000669   0.001580
   12  C  1 ZZ   -0.003447   0.091495  -0.007296   0.002396  -0.000875
   13  C  1 XY   -0.043035   0.002269  -0.003865   0.004961  -0.003132
   14  C  1 XZ   -0.028622  -0.025277  -0.000541   0.002743   0.004876
   15  C  1 YZ   -0.003088   0.000170  -0.000284  -0.001413  -0.001011
   16  O  2  S    0.001420  -0.053255   0.025171   0.000491   0.000001
   17  O  2  S   -0.008246   0.284520  -0.148323  -0.005014  -0.000009
   18  O  2  S   -0.000850  -0.038570   0.147233   0.002048   0.000001
   19  O  2  X   -0.026620   0.457339  -0.632295   0.020758   0.043238
   20  O  2  Y    0.528674  -0.007472  -0.001502  -0.519530   0.347553
   21  O  2  Z    0.351723   0.033161  -0.053834  -0.346990  -0.517786
   22  O  2  X    0.036241  -0.840919   0.929796  -0.032489  -0.066496
   23  O  2  Y   -0.598584   0.013227   0.000222   0.798976  -0.534498
   24  O  2  Z   -0.397725  -0.061323   0.077824   0.533582   0.796298
   25  O  2 XX    0.000272  -0.032205   0.059662  -0.002630  -0.004602
   26  O  2 YY   -0.000507   0.016219  -0.030086  -0.000518   0.000717
   27  O  2 ZZ    0.000234   0.015986  -0.029576   0.003148   0.003886
   28  O  2 XY    0.006248   0.000994  -0.001134   0.031962  -0.021304
   29  O  2 XZ    0.004235  -0.004002   0.007893   0.021147   0.031628
   30  O  2 YZ    0.000336   0.000072  -0.000088   0.001839  -0.002121
   31  O  3  S   -0.001894  -0.056163  -0.015521   0.000496   0.000000
   32  O  3  S    0.010332   0.287428   0.083338  -0.005150  -0.000005
   33  O  3  S    0.001566  -0.026480  -0.107397   0.002414   0.000001
   34  O  3  X    0.016182  -0.563317  -0.528520   0.025332   0.042777
   35  O  3  Y   -0.534324   0.006382   0.010683  -0.513924   0.343779
   36  O  3  Z   -0.356377  -0.042746  -0.036948  -0.342845  -0.512164
   37  O  3  X   -0.008946   1.016513   0.775231  -0.038753  -0.066724
   38  O  3  Y    0.610635  -0.007981  -0.014034   0.801610  -0.536229
   39  O  3  Z    0.408072   0.079526   0.055298   0.534826   0.798876
   40  O  3 XX   -0.001432  -0.038138  -0.053066   0.002528   0.004842
   41  O  3 YY    0.000489   0.019271   0.026788   0.000298   0.000151
   42  O  3 ZZ    0.000943   0.018867   0.026278  -0.002826  -0.004993
   43  O  3 XY    0.005258  -0.000034   0.000477  -0.033576   0.022477
   44  O  3 XZ    0.003343  -0.005561  -0.007382  -0.022343  -0.033229
   45  O  3 YZ    0.000500  -0.000002   0.000040  -0.002979   0.001806

                     26         27         28         29         30
                    1.3599     1.3600     1.3881     1.4862     1.4862
                     A          A          A          A          A   
    1  C  1  S    0.000001  -0.000181   0.013437  -0.000001  -0.000003
    2  C  1  S   -0.000002   0.000641   0.003215   0.000011   0.000025
    3  C  1  S   -0.000102   0.010331  -1.656697   0.000133   0.000356
    4  C  1  X   -0.000510   0.002466   0.004907   0.000082  -0.000100
    5  C  1  Y   -0.004105   0.006055   0.002097   0.001375   0.000931
    6  C  1  Z    0.006073   0.004299   0.001824  -0.000928   0.001372
    7  C  1  X    0.000415   0.003216  -0.002203  -0.000172   0.000211
    8  C  1  Y    0.003380  -0.005146   0.016612  -0.002800  -0.001900
    9  C  1  Z   -0.004998  -0.003210   0.011021   0.001888  -0.002794
   10  C  1 XX   -0.095619  -0.051149  -0.199514  -0.005176  -0.001133
   11  C  1 YY    0.005819  -0.009022   0.100509   0.844566   0.002983
   12  C  1 ZZ    0.089799   0.060171   0.099005  -0.839390  -0.001850
   13  C  1 XY   -0.446159   0.663051   0.007242   0.007511  -0.076291
   14  C  1 XZ    0.656311   0.443305  -0.024089   0.076057   0.007424
   15  C  1 YZ   -0.040008   0.048664   0.000781  -0.002788   0.972228
   16  O  2  S    0.000006  -0.002009   0.075718  -0.000008  -0.000020
   17  O  2  S   -0.000088   0.021355  -1.194324   0.000104   0.000286
   18  O  2  S    0.000123  -0.024415   1.764629  -0.000148  -0.000410
   19  O  2  X   -0.002461  -0.010151   0.160929  -0.000078  -0.000022
   20  O  2  Y   -0.020038   0.029846   0.001046  -0.000791  -0.000535
   21  O  2  Z    0.029645   0.019327   0.014145   0.000532  -0.000796
   22  O  2  X    0.014543   0.018207  -0.755657   0.000291  -0.000028
   23  O  2  Y    0.118076  -0.175335   0.002124   0.003436   0.002327
   24  O  2  Z   -0.174681  -0.117000  -0.061677  -0.002313   0.003446
   25  O  2 XX    0.037453   0.015102  -0.145582  -0.000001  -0.000707
   26  O  2 YY   -0.005553   0.007344   0.073569   0.103911   0.000249
   27  O  2 ZZ   -0.031900  -0.022446   0.072013  -0.103909   0.000458
   28  O  2 XY    0.174564  -0.259839   0.000218   0.006481  -0.005628
   29  O  2 XZ   -0.257291  -0.174099  -0.020960   0.005650   0.006446
   30  O  2 YZ    0.017198  -0.015275   0.000092   0.000121   0.119986
   31  O  3  S    0.000004   0.000880   0.074019  -0.000008  -0.000021
   32  O  3  S   -0.000065  -0.004896  -1.186900   0.000113   0.000290
   33  O  3  S    0.000103   0.000785   1.782870  -0.000160  -0.000407
   34  O  3  X    0.001397  -0.005408  -0.148929  -0.000005   0.000130
   35  O  3  Y    0.011322  -0.016818   0.003359  -0.000622  -0.000422
   36  O  3  Z   -0.016749  -0.011821  -0.010175   0.000422  -0.000613
   37  O  3  X   -0.014375  -0.007708   0.755220   0.000110  -0.000459
   38  O  3  Y   -0.116650   0.173178  -0.007610   0.003245   0.002200
   39  O  3  Z    0.172569   0.116419   0.057945  -0.002196   0.003219
   40  O  3 XX    0.038803   0.027252  -0.138981  -0.001238   0.000661
   41  O  3 YY    0.000855  -0.000902   0.070230   0.117623   0.000398
   42  O  3 ZZ   -0.039658  -0.026350   0.068751  -0.116385  -0.001058
   43  O  3 XY    0.181372  -0.269134  -0.000051  -0.004384  -0.014305
   44  O  3 XZ   -0.266313  -0.179332  -0.020190   0.014235  -0.004335
   45  O  3 YZ    0.014751  -0.023470   0.000022  -0.000842   0.135102

                     31         32         33         34         35
                    1.7651     1.8042     2.0617     2.0617     2.0923
                     A          A          A          A          A   
    1  C  1  S   -0.005624   0.014946  -0.000001  -0.000004  -0.000001
    2  C  1  S    0.103655  -0.434229   0.000011   0.000056   0.000015
    3  C  1  S   -0.150789   0.330058   0.000006   0.000027   0.000012
    4  C  1  X    0.265537   0.046569  -0.000027   0.000022  -0.000687
    5  C  1  Y   -0.001919  -0.001045  -0.000304  -0.000299  -0.005712
    6  C  1  Z    0.020886   0.003185   0.000301  -0.000303   0.008220
    7  C  1  X    2.228539   0.616438  -0.000059  -0.000048  -0.001133
    8  C  1  Y   -0.016114  -0.009519  -0.000466  -0.000459  -0.009392
    9  C  1  Z    0.175306   0.045076   0.000460  -0.000471   0.013516
   10  C  1 XX   -0.222813   0.763026   0.000136  -0.000010   0.000986
   11  C  1 YY    0.112930  -0.384789  -0.024568  -0.004646  -0.178945
   12  C  1 ZZ    0.109883  -0.378237   0.024432   0.004657   0.177959
   13  C  1 XY   -0.007170  -0.012006  -0.000604   0.002210  -0.007873
   14  C  1 XZ   -0.037225   0.102675  -0.002204  -0.000610  -0.015518
   15  C  1 YZ   -0.000600  -0.000589   0.005371  -0.028290   0.080516
   16  O  2  S   -0.073474   0.022774  -0.000001  -0.000003  -0.000001
   17  O  2  S    1.385078   0.131675   0.000002   0.000017   0.000015
   18  O  2  S   -2.646089  -0.698988   0.000008   0.000022  -0.000018
   19  O  2  X   -0.151400   0.273488  -0.000025  -0.000022  -0.000394
   20  O  2  Y    0.005924  -0.004878  -0.000209  -0.000206  -0.003191
   21  O  2  Z   -0.008654   0.019556   0.000206  -0.000211   0.004592
   22  O  2  X    0.745620   0.050309   0.000035   0.000008   0.000840
   23  O  2  Y   -0.019978  -0.002097   0.000348   0.000343   0.006849
   24  O  2  Z    0.048815   0.002788  -0.000344   0.000349  -0.009856
   25  O  2 XX    0.114622   0.354019   0.002080   0.002079  -0.009841
   26  O  2 YY   -0.058030  -0.177546  -0.562420  -0.106880   0.596510
   27  O  2 ZZ   -0.056592  -0.176473   0.560340   0.104802  -0.586669
   28  O  2 XY    0.001540  -0.023267  -0.022448   0.042059  -0.004762
   29  O  2 XZ    0.017679   0.035643  -0.041986  -0.022339   0.096021
   30  O  2 YZ    0.000010  -0.001414   0.122214  -0.648225  -0.270965
   31  O  3  S    0.050044   0.058782  -0.000001  -0.000006  -0.000001
   32  O  3  S   -1.277011  -0.621137   0.000020   0.000092   0.000018
   33  O  3  S    2.726106   0.781552  -0.000033  -0.000147  -0.000023
   34  O  3  X    0.036224  -0.328386  -0.000004   0.000041  -0.000383
   35  O  3  Y   -0.002915  -0.002564  -0.000120  -0.000118  -0.003260
   36  O  3  Z    0.001060  -0.029163   0.000119  -0.000117   0.004691
   37  O  3  X    0.662406   0.345190   0.000011  -0.000087   0.000839
   38  O  3  Y    0.008077   0.003746   0.000300   0.000295   0.007104
   39  O  3  Z    0.060786   0.031364  -0.000298   0.000293  -0.010224
   40  O  3 XX   -0.263638   0.189930  -0.004374  -0.000925   0.003278
   41  O  3 YY    0.133276  -0.096521   0.637846   0.121459   0.521034
   42  O  3 ZZ    0.130361  -0.093409  -0.633472  -0.120534  -0.524312
   43  O  3 XY   -0.001557   0.012528   0.012047  -0.060957   0.052758
   44  O  3 XZ   -0.039340   0.036105   0.060732   0.011994   0.002538
   45  O  3 YZ   -0.000143   0.001209  -0.139711   0.733990  -0.231932

                     36         37         38         39         40
                    2.0923     2.1112     2.1113     2.4977     2.5273
                     A          A          A          A          A   
    1  C  1  S   -0.000096  -0.000001   0.001097  -0.000179   0.000000
    2  C  1  S    0.001133   0.000014  -0.012481  -0.049142  -0.000004
    3  C  1  S    0.000748   0.000013  -0.009764   0.006823   0.000002
    4  C  1  X    0.000445  -0.008068  -0.005116   0.757598   0.000920
    5  C  1  Y   -0.008168  -0.065320   0.096984  -0.007623   0.007206
    6  C  1  Z   -0.005641   0.096574   0.065169   0.058147  -0.010674
    7  C  1  X    0.000473  -0.014100  -0.006084   0.657619   0.000687
    8  C  1  Y   -0.013415  -0.114142   0.169400  -0.006527   0.005349
    9  C  1  Z   -0.009287   0.168758   0.114068   0.050535  -0.007923
   10  C  1 XX   -0.000654  -0.000246   0.014029   0.024119  -0.085367
   11  C  1 YY   -0.069405   0.023421  -0.016513  -0.017427   0.005003
   12  C  1 ZZ    0.070059  -0.023174   0.002485  -0.006692   0.080364
   13  C  1 XY    0.015577   0.000596   0.002530   0.100086  -0.397840
   14  C  1 XZ   -0.008017   0.002708   0.001324   0.071414   0.586070
   15  C  1 YZ   -0.206080  -0.010968  -0.026729   0.007384  -0.035596
   16  O  2  S   -0.000095  -0.000001   0.001050  -0.013154  -0.000000
   17  O  2  S    0.001111   0.000017  -0.012902   0.530565   0.000020
   18  O  2  S   -0.001297  -0.000022   0.015766  -1.089745  -0.000041
   19  O  2  X   -0.000495  -0.004700   0.005284  -0.061886  -0.001828
   20  O  2  Y   -0.004546  -0.037976   0.056218   0.005859  -0.014750
   21  O  2  Z   -0.003202   0.056146   0.038465  -0.001218   0.021852
   22  O  2  X    0.000644   0.010522  -0.007279   0.537066   0.010050
   23  O  2  Y    0.009767   0.085047  -0.126038  -0.032613   0.081037
   24  O  2  Z    0.006844  -0.125740  -0.085856   0.022864  -0.120059
   25  O  2 XX   -0.000681  -0.087682  -0.022212  -0.714913  -0.075926
   26  O  2 YY    0.234997  -0.036063  -0.004263   0.354467   0.011046
   27  O  2 ZZ   -0.234317   0.123746   0.026475   0.360446   0.064880
   28  O  2 XY   -0.096022  -0.412238   0.605259   0.119167  -0.353252
   29  O  2 XZ   -0.004573   0.599708   0.412749  -0.023081   0.521396
   30  O  2 YZ    0.683178  -0.017460   0.091787   0.007336  -0.034717
   31  O  3  S   -0.000104  -0.000001   0.001144   0.014483   0.000000
   32  O  3  S    0.001284   0.000016  -0.014649  -0.549245  -0.000020
   33  O  3  S   -0.001622  -0.000020   0.019044   1.124246   0.000042
   34  O  3  X    0.000948  -0.004743  -0.010648  -0.069273   0.001758
   35  O  3  Y   -0.004655  -0.038468   0.057065  -0.004767   0.014215
   36  O  3  Z   -0.003157   0.056876   0.037707  -0.009003  -0.021060
   37  O  3  X   -0.001631   0.010803   0.019361   0.551660  -0.011262
   38  O  3  Y    0.010146   0.087570  -0.129968   0.026757  -0.091158
   39  O  3  Z    0.006917  -0.129472  -0.086288   0.064139   0.135057
   40  O  3 XX   -0.007077   0.082834   0.066026   0.711116  -0.081793
   41  O  3 YY    0.204452  -0.045136   0.012822  -0.364395  -0.001450
   42  O  3 ZZ   -0.197376  -0.037698  -0.078849  -0.346721   0.083242
   43  O  3 XY   -0.002743   0.384026  -0.576555   0.106316  -0.381779
   44  O  3 XZ    0.051864  -0.570730  -0.378426   0.175517   0.561458
   45  O  3 YZ    0.603545   0.053326   0.003595   0.009185  -0.031217

                     41         42
                    2.5283     3.0717
                     A          A   
    1  C  1  S   -0.000064  -0.093725
    2  C  1  S    0.009679   0.488186
    3  C  1  S   -0.000455   1.147617
    4  C  1  X   -0.142866  -0.046901
    5  C  1  Y   -0.009465  -0.006207
    6  C  1  Z   -0.018324  -0.008106
    7  C  1  X   -0.123162   0.005108
    8  C  1  Y   -0.006867  -0.005702
    9  C  1  Z   -0.014924  -0.003420
   10  C  1 XX   -0.050589   1.050445
   11  C  1 YY   -0.005023  -0.529989
   12  C  1 ZZ    0.055611  -0.520457
   13  C  1 XY    0.583717  -0.014476
   14  C  1 XZ    0.388894   0.142709
   15  C  1 YZ    0.043051  -0.001085
   16  O  2  S    0.001919   0.016281
   17  O  2  S   -0.096633   0.420775
   18  O  2  S    0.203853  -1.060403
   19  O  2  X    0.007572   0.084288
   20  O  2  Y    0.021263  -0.001772
   21  O  2  Z    0.014985   0.005846
   22  O  2  X   -0.096219   0.653408
   23  O  2  Y   -0.116436  -0.010272
   24  O  2  Z   -0.086631   0.047654
   25  O  2 XX    0.106013  -0.761956
   26  O  2 YY   -0.083051   0.383579
   27  O  2 ZZ   -0.022962   0.378376
   28  O  2 XY    0.513355   0.026138
   29  O  2 XZ    0.363196  -0.092910
   30  O  2 YZ    0.030375   0.001837
   31  O  3  S   -0.002108   0.020383
   32  O  3  S    0.100377   0.404884
   33  O  3  S   -0.211843  -1.097317
   34  O  3  X    0.010449  -0.116553
   35  O  3  Y   -0.020611  -0.000586
   36  O  3  Z   -0.013039  -0.010132
   37  O  3  X   -0.111599  -0.673548
   38  O  3  Y    0.132856  -0.000138
   39  O  3  Z    0.080352  -0.056362
   40  O  3 XX   -0.193531  -0.793120
   41  O  3 YY    0.071037   0.401023
   42  O  3 ZZ    0.122494   0.392097
   43  O  3 XY    0.557296  -0.006191
   44  O  3 XZ    0.350845  -0.119371
   45  O  3 YZ    0.048192  -0.000534
 ...... END OF RHF CALCULATION ......
 STEP CPU TIME =     2.06 TOTAL CPU TIME =          2.2 (      0.0 MIN)
 TOTAL WALL CLOCK TIME=          2.2 SECONDS, CPU UTILIZATION IS    98.18%

     ---------------------------------------------------------------------
     PROPERTIES FOR THE PBE      DFT FUNCTIONAL (RHF  TYPE) DENSITY MATRIX
     ---------------------------------------------------------------------

          -----------------
          ENERGY COMPONENTS
          -----------------

         WAVEFUNCTION NORMALIZATION =       1.0000000000

                ONE ELECTRON ENERGY =    -348.3561913731
                TWO ELECTRON ENERGY =     114.0934463275
           NUCLEAR REPULSION ENERGY =      46.0680710017
                                      ------------------
                       TOTAL ENERGY =    -188.1946740439

 ELECTRON-ELECTRON POTENTIAL ENERGY =     114.0934463275
  NUCLEUS-ELECTRON POTENTIAL ENERGY =    -534.8389724639
   NUCLEUS-NUCLEUS POTENTIAL ENERGY =      46.0680710017
                                      ------------------
             TOTAL POTENTIAL ENERGY =    -374.6774551347
               TOTAL KINETIC ENERGY =     186.4827810908
                 VIRIAL RATIO (V/T) =       2.0091798982

          ---------------------------------------
          MULLIKEN AND LOWDIN POPULATION ANALYSES
          ---------------------------------------

     ATOMIC MULLIKEN POPULATION IN EACH MOLECULAR ORBITAL

                      1          2          3          4          5

                  2.000000   2.000000   2.000000   2.000000   2.000000

    1             0.001654   0.001532   2.001407   0.389155   0.215891
    2             0.000277   1.998168  -0.000647   0.400433   1.307950
    3             1.998069   0.000300  -0.000760   1.210412   0.476159

                      6          7          8          9         10

                  2.000000   2.000000   2.000000   2.000000   2.000000

    1             0.821372   0.426572   0.758830   0.758807   0.020768
    2             0.548638   0.804944   0.512043   0.512042   1.106482
    3             0.629991   0.768484   0.729127   0.729151   0.872750

                     11

                  2.000000

    1             0.020788
    2             1.106459
    3             0.872753

               ----- POPULATIONS IN EACH AO -----
                             MULLIKEN      LOWDIN
              1  C  1  S      1.99392     1.97261
              2  C  1  S      0.84676     0.44662
              3  C  1  S      0.36307     0.32470
              4  C  1  X      0.64248     0.57863
              5  C  1  Y      0.49130     0.44488
              6  C  1  Z      0.49222     0.44573
              7  C  1  X     -0.00457     0.24145
              8  C  1  Y      0.27026     0.32535
              9  C  1  Z      0.26860     0.32485
             10  C  1 XX      0.00435     0.23248
             11  C  1 YY      0.01249     0.13065
             12  C  1 ZZ      0.01790     0.13140
             13  C  1 XY      0.01788     0.03082
             14  C  1 XZ      0.00011     0.03074
             15  C  1 YZ      0.00000     0.00019
             16  O  2  S      1.99574     1.97287
             17  O  2  S      0.98091     0.71330
             18  O  2  S      0.97456     0.52762
             19  O  2  X      0.68228     0.62983
             20  O  2  Y      0.99822     0.95872
             21  O  2  Z      0.99703     0.95750
             22  O  2  X      0.42223     0.50577
             23  O  2  Y      0.61698     0.64592
             24  O  2  Z      0.61620     0.64544
             25  O  2 XX      0.00165     0.21135
             26  O  2 YY      0.00492     0.20154
             27  O  2 ZZ      0.00300     0.20155
             28  O  2 XY      0.00305     0.00346
             29  O  2 XZ      0.00002     0.00356
             30  O  2 YZ      0.00000     0.00002
             31  O  3  S      1.99570     1.97278
             32  O  3  S      0.97901     0.71037
             33  O  3  S      0.96777     0.52172
             34  O  3  X      0.71339     0.65917
             35  O  3  Y      0.98972     0.94934
             36  O  3  Z      0.98747     0.94705
             37  O  3  X      0.42358     0.50758
             38  O  3  Y      0.60870     0.63700
             39  O  3  Z      0.60726     0.63605
             40  O  3 XX      0.00173     0.21067
             41  O  3 YY      0.00516     0.20027
             42  O  3 ZZ      0.00343     0.20031
             43  O  3 XY      0.00350     0.00399
             44  O  3 XZ      0.00002     0.00413
             45  O  3 YZ      0.00000     0.00003

          ----- MULLIKEN ATOMIC OVERLAP POPULATIONS -----
          (OFF-DIAGONAL ELEMENTS NEED TO BE MULTIPLIED BY 2)

             1           2           3

    1    4.5547417
    2    0.4245972   7.8919086
    3    0.4374370  -0.0197174   7.8687161

          TOTAL MULLIKEN AND LOWDIN ATOMIC POPULATIONS
       ATOM         MULL.POP.    CHARGE          LOW.POP.     CHARGE
    1 C             5.416776    0.583224         5.661108    0.338892
    2 O             8.296788   -0.296788         8.178444   -0.178444
    3 O             8.286436   -0.286436         8.160447   -0.160447

          MULLIKEN SPHERICAL HARMONIC POPULATIONS
       ATOM           S       P       D      F      G      H      I    TOTAL
    1 C             3.20    2.16    0.05   0.00   0.00   0.00   0.00    5.42
    2 O             3.95    4.33    0.01   0.00   0.00   0.00   0.00    8.30
    3 O             3.94    4.33    0.01   0.00   0.00   0.00   0.00    8.29

          -------------------------------
          BOND ORDER AND VALENCE ANALYSIS     BOND ORDER THRESHOLD=0.050
          -------------------------------

                   BOND                       BOND                       BOND
  ATOM PAIR DIST  ORDER      ATOM PAIR DIST  ORDER      ATOM PAIR DIST  ORDER
    1   2  1.487  1.863        1   3  1.454  1.898        2   3  2.941  0.340

                       TOTAL       BONDED        FREE
      ATOM            VALENCE     VALENCE     VALENCE
    1 C                 3.761       3.761      -0.000
    2 O                 2.204       2.204       0.000
    3 O                 2.238       2.238       0.000

          ---------------------
          ELECTROSTATIC MOMENTS
          ---------------------

 POINT   1           X           Y           Z (BOHR)    CHARGE
                -1.844952    4.541039   -0.007417        0.00 (A.U.)
         DX          DY          DZ         /D/  (DEBYE)
    -0.096708    0.019175    0.004874    0.098711
 ...... END OF PROPERTY EVALUATION ......
 STEP CPU TIME =     0.00 TOTAL CPU TIME =          2.2 (      0.0 MIN)
 TOTAL WALL CLOCK TIME=          2.2 SECONDS, CPU UTILIZATION IS    97.74%

 BEGINNING ONE ELECTRON GRADIENT...
 ..... END OF 1-ELECTRON GRADIENT ......
 STEP CPU TIME =     0.00 TOTAL CPU TIME =          2.2 (      0.0 MIN)
 TOTAL WALL CLOCK TIME=          2.2 SECONDS, CPU UTILIZATION IS    97.74%

          ----------------------
          GRADIENT OF THE ENERGY
          ----------------------
 MEMORY FOR GRID POINT CONTRIBUTIONS TO THE DFT GRADIENT=    144181 WORDS.
 STEP CPU TIME =     0.34 TOTAL CPU TIME =          2.5 (      0.0 MIN)
 TOTAL WALL CLOCK TIME=          2.5 SECONDS, CPU UTILIZATION IS    98.04%

 THE MINIMUM MEMORY REQUIRED FOR THIS RUN IS      81329 WORDS.
 USING     995879 WORDS FOR 2E- DERIVATIVE INTEGRAL CONTRIBUTIONS.
 THE COARSE/FINE SCHWARZ SCREENINGS SKIPPED            0/           0 BLOCKS.
 THE NUMBER OF GRADIENT INTEGRAL BLOCKS COMPUTED WAS     13901
 ...... END OF 2-ELECTRON GRADIENT ......
 STEP CPU TIME =     0.08 TOTAL CPU TIME =          2.6 (      0.0 MIN)
 TOTAL WALL CLOCK TIME=          2.6 SECONDS, CPU UTILIZATION IS    97.73%

          NSERCH=  0     ENERGY=    -188.1946740

                                 -----------------------
                                 GRADIENT (HARTREE/BOHR)
                                 -----------------------
        ATOM     ZNUC       DE/DX         DE/DY         DE/DZ
 --------------------------------------------------------------
    1  C            6.0     0.0008049     0.0044275     0.0030545
    2  O            8.0     0.2191212    -0.0039219     0.0156595
    3  O            8.0    -0.2199261    -0.0005055    -0.0187140

          MAXIMUM GRADIENT = 0.2199261    RMS GRADIENT = 0.1038280

 NSERCH:   0  E=     -188.1946740439  GRAD. MAX=  0.2199261  R.M.S.=  0.1038280

          FORCE CONSTANT MATRIX NOT UPDATED --- TAKING FIRST STEP
          MIN SEARCH, CORRECT HESSIAN, TRYING PURE NR STEP
               NR STEP HAS LENGTH         = 173.877359
          TRIM/QA LAMBDA FOR NON-TS MODES =  -0.67457058
          TRIM/QA STEP HAS LENGTH         =   0.300000
          RADIUS OF STEP TAKEN=   0.30000  CURRENT TRUST RADIUS=   0.30000

 BEGINNING GEOMETRY SEARCH POINT NSERCH=   1 ...

 COORDINATES OF ALL ATOMS ARE (ANGS)
   ATOM   CHARGE       X              Y              Z
 ------------------------------------------------------------
 C           6.0  -0.9874170748   2.4093560133  -0.0005745122
 O           8.0   0.3817146457   2.3902325127   0.1009018787
 O           8.0  -2.3262975709   2.4116814740  -0.1108573665

          INTERNUCLEAR DISTANCES (ANGS.)
          ------------------------------

                1 C          2 O          3 O     

   1 C       0.0000000    1.3730203 *  1.3434168 *
   2 O       1.3730203 *  0.0000000    2.7163638 *
   3 O       1.3434168 *  2.7163638 *  0.0000000  

  * ... LESS THAN  3.000

 ...... END OF ONE-ELECTRON INTEGRALS ......
 STEP CPU TIME =     0.00 TOTAL CPU TIME =          2.6 (      0.0 MIN)
 TOTAL WALL CLOCK TIME=          2.6 SECONDS, CPU UTILIZATION IS    97.73%
 TOTAL NUMBER OF NONZERO TWO-ELECTRON INTEGRALS =              469052
         32 INTEGRAL RECORDS WERE STORED ON DISK FILE  8.
  ...... END OF TWO-ELECTRON INTEGRALS .....
 STEP CPU TIME =     0.10 TOTAL CPU TIME =          2.7 (      0.0 MIN)
 TOTAL WALL CLOCK TIME=          2.7 SECONDS, CPU UTILIZATION IS    98.17%

          --------------------------
               R-PBE SCF CALCULATION
          --------------------------
         DENSITY MATRIX CONVERGENCE THRESHOLD=  5.00E-04
     COARSE -> FINE DFT GRID SWITCH THRESHOLD=  1.50E-02 (SWITCH IN $DFT)
                   HF -> DFT SWITCH THRESHOLD=  5.00E-03 (SWOFF IN $DFT)

 DFT CODE IS SWITCHING FROM THE FINE GRID NRAD= 96,  NLEB=  302
                      TO THE COARSE GRID NRAD0= 24, NLEB0=  110

 ITER EX DEM     TOTAL ENERGY        E CHANGE  DENSITY CHANGE    DIIS ERROR
          * * *   INITIATING DIIS PROCEDURE   * * *
   1  0  0     -188.2705247143  -188.2705247143   0.072114065   0.052751021
   2  1  0     -188.2795343092    -0.0090095948   0.033595699   0.024136861
   3  2  0     -188.2782522125     0.0012820967   0.029248635   0.037563422
   4  3  0     -188.2806595646    -0.0024073522   0.011181182   0.017151501
 DFT CODE IS SWITCHING BACK TO THE FINE GRID
          * * *   INITIATING DIIS PROCEDURE   * * *
   5  4  0     -188.2845442817    -0.0038847170   0.004822385   0.004366211
   6  5  0     -188.2845208729     0.0000234088   0.005782749   0.003655979
   7  6  0     -188.2845163979     0.0000044749   0.003172144   0.004161167
   8  7  0     -188.2845528502    -0.0000364523   0.001592992   0.001857975
   9  8  0     -188.2845647880    -0.0000119378   0.000154087   0.000213027
  10  9  0     -188.2845648937    -0.0000001058   0.000021352   0.000022295
  11 10  0     -188.2845648951    -0.0000000013   0.000002108   0.000002279

          -----------------
          DENSITY CONVERGED
          -----------------
     TIME TO FORM FOCK OPERATORS=       1.8 SECONDS (       0.2 SEC/ITER)
     TIME TO SOLVE SCF EQUATIONS=       0.0 SECONDS (       0.0 SEC/ITER)

 FINAL R-PBE ENERGY IS     -188.2845648951 AFTER  11 ITERATIONS
 DFT EXCHANGE + CORRELATION ENERGY =       -22.0345721298
 TOTAL ELECTRON NUMBER             =        22.0000001158
 ...... END OF RHF CALCULATION ......
 STEP CPU TIME =     1.83 TOTAL CPU TIME =          4.5 (      0.1 MIN)
 TOTAL WALL CLOCK TIME=          4.6 SECONDS, CPU UTILIZATION IS    98.26%
 ..... END OF 1-ELECTRON GRADIENT ......
 STEP CPU TIME =     0.00 TOTAL CPU TIME =          4.5 (      0.1 MIN)
 TOTAL WALL CLOCK TIME=          4.6 SECONDS, CPU UTILIZATION IS    98.26%
 MEMORY FOR GRID POINT CONTRIBUTIONS TO THE DFT GRADIENT=    144181 WORDS.
 STEP CPU TIME =     0.33 TOTAL CPU TIME =          4.8 (      0.1 MIN)
 TOTAL WALL CLOCK TIME=          4.9 SECONDS, CPU UTILIZATION IS    98.37%
 ...... END OF 2-ELECTRON GRADIENT ......
 STEP CPU TIME =     0.08 TOTAL CPU TIME =          4.9 (      0.1 MIN)
 TOTAL WALL CLOCK TIME=          5.0 SECONDS, CPU UTILIZATION IS    98.20%

          NSERCH=  1     ENERGY=    -188.2845649

                                 -----------------------
                                 GRADIENT (HARTREE/BOHR)
                                 -----------------------
        ATOM     ZNUC       DE/DX         DE/DY         DE/DZ
 --------------------------------------------------------------
    1  C            6.0    -0.0096333     0.0033696     0.0014687
    2  O            8.0     0.2003826    -0.0032448     0.0145509
    3  O            8.0    -0.1907493    -0.0001247    -0.0160196

          MAXIMUM GRADIENT = 0.2003826    RMS GRADIENT = 0.0925705

 NSERCH:   1  E=     -188.2845648951  GRAD. MAX=  0.2003826  R.M.S.=  0.0925705

          HESSIAN UPDATED USING THE BFGS FORMULA
             ACTUAL ENERGY CHANGE WAS  -0.0898908511
          PREDICTED ENERGY CHANGE WAS  -0.0770744011 RATIO=  1.166
          MIN SEARCH, CORRECT HESSIAN, TRYING PURE NR STEP
               NR STEP HAS LENGTH         = 944.224603
          TRIM/QA LAMBDA FOR NON-TS MODES =  -0.54369723
          TRIM/QA STEP HAS LENGTH         =   0.424264
          RADIUS OF STEP TAKEN=   0.42426  CURRENT TRUST RADIUS=   0.42426

 BEGINNING GEOMETRY SEARCH POINT NSERCH=   2 ...

 COORDINATES OF ALL ATOMS ARE (ANGS)
   ATOM   CHARGE       X              Y              Z
 ------------------------------------------------------------
 C           6.0  -0.9780752639   2.4076154711  -0.0009684343
 O           8.0   0.2189909555   2.3923739019   0.0887525282
 O           8.0  -2.1729156915   2.4112806270  -0.0983140939

          INTERNUCLEAR DISTANCES (ANGS.)
          ------------------------------

                1 C          2 O          3 O     

   1 C       0.0000000    1.2005206 *  1.1988049 *
   2 O       1.2005206 *  0.0000000    2.3992851 *
   3 O       1.1988049 *  2.3992851 *  0.0000000  

  * ... LESS THAN  3.000

 ...... END OF ONE-ELECTRON INTEGRALS ......
 STEP CPU TIME =     0.00 TOTAL CPU TIME =          4.9 (      0.1 MIN)
 TOTAL WALL CLOCK TIME=          5.0 SECONDS, CPU UTILIZATION IS    98.20%
 TOTAL NUMBER OF NONZERO TWO-ELECTRON INTEGRALS =              491555
         33 INTEGRAL RECORDS WERE STORED ON DISK FILE  8.
  ...... END OF TWO-ELECTRON INTEGRALS .....
 STEP CPU TIME =     0.09 TOTAL CPU TIME =          5.0 (      0.1 MIN)
 TOTAL WALL CLOCK TIME=          5.1 SECONDS, CPU UTILIZATION IS    98.24%

          --------------------------
               R-PBE SCF CALCULATION
          --------------------------
         DENSITY MATRIX CONVERGENCE THRESHOLD=  2.00E-04
     COARSE -> FINE DFT GRID SWITCH THRESHOLD=  6.00E-03 (SWITCH IN $DFT)
                   HF -> DFT SWITCH THRESHOLD=  5.00E-03 (SWOFF IN $DFT)

 DFT CODE IS SWITCHING FROM THE FINE GRID NRAD= 96,  NLEB=  302
                      TO THE COARSE GRID NRAD0= 24, NLEB0=  110

 ITER EX DEM     TOTAL ENERGY        E CHANGE  DENSITY CHANGE    DIIS ERROR
          * * *   INITIATING DIIS PROCEDURE   * * *
   1  0  0     -188.3427780263  -188.3427780263   0.108107248   0.095704981
   2  1  0     -188.3662503033    -0.0234722771   0.055495612   0.044990434
   3  2  0     -188.3686874103    -0.0024371070   0.043318814   0.027637790
   4  3  0     -188.3692940014    -0.0006065910   0.018160611   0.028860431
   5  4  0     -188.3711550258    -0.0018610245   0.005324815   0.006082773
 DFT CODE IS SWITCHING BACK TO THE FINE GRID
          * * *   INITIATING DIIS PROCEDURE   * * *
   6  5  0     -188.3664719033     0.0046831225   0.002939856   0.003592046
   7  6  0     -188.3664858659    -0.0000139625   0.003939717   0.001523231
   8  7  0     -188.3664618072     0.0000240586   0.002681949   0.003598129
   9  8  0     -188.3664927703    -0.0000309631   0.000667670   0.000684092
  10  9  0     -188.3664942533    -0.0000014830   0.000099745   0.000130994
  11 10  0     -188.3664943059    -0.0000000526   0.000004839   0.000004311
  12 11  0     -188.3664943059    -0.0000000000   0.000001176   0.000001675

          -----------------
          DENSITY CONVERGED
          -----------------
     TIME TO FORM FOCK OPERATORS=       1.7 SECONDS (       0.1 SEC/ITER)
     TIME TO SOLVE SCF EQUATIONS=       0.0 SECONDS (       0.0 SEC/ITER)

 FINAL R-PBE ENERGY IS     -188.3664943059 AFTER  12 ITERATIONS
 DFT EXCHANGE + CORRELATION ENERGY =       -22.2774280687
 TOTAL ELECTRON NUMBER             =        21.9999999357
 ...... END OF RHF CALCULATION ......
 STEP CPU TIME =     1.73 TOTAL CPU TIME =          6.7 (      0.1 MIN)
 TOTAL WALL CLOCK TIME=          6.9 SECONDS, CPU UTILIZATION IS    98.11%
 ..... END OF 1-ELECTRON GRADIENT ......
 STEP CPU TIME =     0.01 TOTAL CPU TIME =          6.8 (      0.1 MIN)
 TOTAL WALL CLOCK TIME=          6.9 SECONDS, CPU UTILIZATION IS    98.25%
 MEMORY FOR GRID POINT CONTRIBUTIONS TO THE DFT GRADIENT=    144181 WORDS.
 STEP CPU TIME =     0.32 TOTAL CPU TIME =          7.1 (      0.1 MIN)
 TOTAL WALL CLOCK TIME=          7.2 SECONDS, CPU UTILIZATION IS    98.19%
 ...... END OF 2-ELECTRON GRADIENT ......
 STEP CPU TIME =     0.09 TOTAL CPU TIME =          7.2 (      0.1 MIN)
 TOTAL WALL CLOCK TIME=          7.3 SECONDS, CPU UTILIZATION IS    98.22%

          NSERCH=  2     ENERGY=    -188.3664943

                                 -----------------------
                                 GRADIENT (HARTREE/BOHR)
                                 -----------------------
        ATOM     ZNUC       DE/DX         DE/DY         DE/DZ
 --------------------------------------------------------------
    1  C            6.0    -0.0026044     0.0017383     0.0009553
    2  O            8.0     0.0444625    -0.0012158     0.0028941
    3  O            8.0    -0.0418581    -0.0005225    -0.0038494

          MAXIMUM GRADIENT = 0.0444625    RMS GRADIENT = 0.0204523

 NSERCH:   2  E=     -188.3664943059  GRAD. MAX=  0.0444625  R.M.S.=  0.0204523

          HESSIAN UPDATED USING THE BFGS FORMULA
             ACTUAL ENERGY CHANGE WAS  -0.0819294108
          PREDICTED ENERGY CHANGE WAS  -0.1078407509 RATIO=  0.760
          MIN SEARCH, CORRECT HESSIAN, TRYING PURE NR STEP
               NR STEP HAS LENGTH         = 199.694544
          TRIM/QA LAMBDA FOR NON-TS MODES =  -0.00385930
          TRIM/QA STEP HAS LENGTH         =   0.500000
          RADIUS OF STEP TAKEN=   0.50000  CURRENT TRUST RADIUS=   0.50000

 BEGINNING GEOMETRY SEARCH POINT NSERCH=   3 ...

 COORDINATES OF ALL ATOMS ARE (ANGS)
   ATOM   CHARGE       X              Y              Z
 ------------------------------------------------------------
 C           6.0  -0.9670265088   2.2330529537  -0.1178232905
 O           8.0   0.1709777677   2.4799365290   0.1438202249
 O           8.0  -2.1359512589   2.4982805174  -0.0365269344

          INTERNUCLEAR DISTANCES (ANGS.)
          ------------------------------

                1 C          2 O          3 O     

   1 C       0.0000000    1.1935085 *  1.2013908 *
   2 O       1.1935085 *  0.0000000    2.3140404 *
   3 O       1.2013908 *  2.3140404 *  0.0000000  

  * ... LESS THAN  3.000

 ...... END OF ONE-ELECTRON INTEGRALS ......
 STEP CPU TIME =     0.01 TOTAL CPU TIME =          7.2 (      0.1 MIN)
 TOTAL WALL CLOCK TIME=          7.3 SECONDS, CPU UTILIZATION IS    98.22%
 TOTAL NUMBER OF NONZERO TWO-ELECTRON INTEGRALS =              498624
         34 INTEGRAL RECORDS WERE STORED ON DISK FILE  8.
  ...... END OF TWO-ELECTRON INTEGRALS .....
 STEP CPU TIME =     0.09 TOTAL CPU TIME =          7.3 (      0.1 MIN)
 TOTAL WALL CLOCK TIME=          7.4 SECONDS, CPU UTILIZATION IS    98.24%

          --------------------------
               R-PBE SCF CALCULATION
          --------------------------
         DENSITY MATRIX CONVERGENCE THRESHOLD=  2.00E-04
     COARSE -> FINE DFT GRID SWITCH THRESHOLD=  6.00E-03 (SWITCH IN $DFT)
                   HF -> DFT SWITCH THRESHOLD=  5.00E-03 (SWOFF IN $DFT)

 DFT CODE IS SWITCHING FROM THE FINE GRID NRAD= 96,  NLEB=  302
                      TO THE COARSE GRID NRAD0= 24, NLEB0=  110

 ITER EX DEM     TOTAL ENERGY        E CHANGE  DENSITY CHANGE    DIIS ERROR
          * * *   INITIATING DIIS PROCEDURE   * * *
   1  0  0     -188.2652403657  -188.2652403657   0.134807081   0.154978335
   2  1  0     -188.3450198754    -0.0797795097   0.081277558   0.040355060
   3  2  0     -188.3311892239     0.0138306515   0.055547936   0.081977699
   4  3  0     -188.3496316449    -0.0184424210   0.013955714   0.008462495
   5  4  0     -188.3495494846     0.0000821603   0.008383163   0.010674218
   6  5  0     -188.3499120366    -0.0003625520   0.000477287   0.000410438
 DFT CODE IS SWITCHING BACK TO THE FINE GRID
          * * *   INITIATING DIIS PROCEDURE   * * *
   7  6  0     -188.3447279237     0.0051841129   0.004090983   0.003892103
   8  7  0     -188.3447485757    -0.0000206520   0.001779145   0.000831560
   9  8  0     -188.3447436842     0.0000048915   0.001238064   0.001554209
  10  9  0     -188.3447503204    -0.0000066362   0.000370571   0.000256562
  11 10  0     -188.3447503295    -0.0000000091   0.000241887   0.000261382
  12 11  0     -188.3447505610    -0.0000002315   0.000016968   0.000020183

          -----------------
          DENSITY CONVERGED
          -----------------
     TIME TO FORM FOCK OPERATORS=       1.6 SECONDS (       0.1 SEC/ITER)
     TIME TO SOLVE SCF EQUATIONS=       0.0 SECONDS (       0.0 SEC/ITER)

 FINAL R-PBE ENERGY IS     -188.3447505610 AFTER  12 ITERATIONS
 DFT EXCHANGE + CORRELATION ENERGY =       -22.2854496926
 TOTAL ELECTRON NUMBER             =        21.9999998073
 ...... END OF RHF CALCULATION ......
 STEP CPU TIME =     1.63 TOTAL CPU TIME =          8.9 (      0.1 MIN)
 TOTAL WALL CLOCK TIME=          9.0 SECONDS, CPU UTILIZATION IS    98.34%
 ..... END OF 1-ELECTRON GRADIENT ......
 STEP CPU TIME =     0.00 TOTAL CPU TIME =          8.9 (      0.1 MIN)
 TOTAL WALL CLOCK TIME=          9.0 SECONDS, CPU UTILIZATION IS    98.23%
 MEMORY FOR GRID POINT CONTRIBUTIONS TO THE DFT GRADIENT=    144181 WORDS.
 STEP CPU TIME =     0.33 TOTAL CPU TIME =          9.2 (      0.2 MIN)
 TOTAL WALL CLOCK TIME=          9.4 SECONDS, CPU UTILIZATION IS    98.29%
 ...... END OF 2-ELECTRON GRADIENT ......
 STEP CPU TIME =     0.09 TOTAL CPU TIME =          9.3 (      0.2 MIN)
 TOTAL WALL CLOCK TIME=          9.5 SECONDS, CPU UTILIZATION IS    98.31%

          NSERCH=  3     ENERGY=    -188.3447506

                                 -----------------------
                                 GRADIENT (HARTREE/BOHR)
                                 -----------------------
        ATOM     ZNUC       DE/DX         DE/DY         DE/DZ
 --------------------------------------------------------------
    1  C            6.0     0.0146000    -0.0725739    -0.0477461
    2  O            8.0     0.0035110     0.0350668     0.0239530
    3  O            8.0    -0.0181110     0.0375071     0.0237931

          MAXIMUM GRADIENT = 0.0725739    RMS GRADIENT = 0.0363264

 NSERCH:   3  E=     -188.3447505610  GRAD. MAX=  0.0725739  R.M.S.=  0.0363264

          HESSIAN UPDATED USING THE BFGS FORMULA
             ACTUAL ENERGY CHANGE WAS   0.0217437449
          PREDICTED ENERGY CHANGE WAS  -0.0045985031 RATIO= -4.728
          MIN SEARCH, CORRECT HESSIAN, TRYING PURE NR STEP
               NR STEP HAS LENGTH         = 346.265845
          TRIM/QA LAMBDA FOR NON-TS MODES =  -0.30214457
          TRIM/QA STEP HAS LENGTH         =   0.250000
          RADIUS OF STEP TAKEN=   0.25000  CURRENT TRUST RADIUS=   0.25000

 BEGINNING GEOMETRY SEARCH POINT NSERCH=   4 ...

 COORDINATES OF ALL ATOMS ARE (ANGS)
   ATOM   CHARGE       X              Y              Z
 ------------------------------------------------------------
 C           6.0  -0.9716542622   2.3149213565  -0.0629730283
 O           8.0   0.1353105704   2.4392693412   0.1134022595
 O           8.0  -2.0956563082   2.4570793023  -0.0609592312

          INTERNUCLEAR DISTANCES (ANGS.)
          ------------------------------

                1 C          2 O          3 O     

   1 C       0.0000000    1.1278040 *  1.1329579 *
   2 O       1.1278040 *  0.0000000    2.2378410 *
   3 O       1.1329579 *  2.2378410 *  0.0000000  

  * ... LESS THAN  3.000

 ...... END OF ONE-ELECTRON INTEGRALS ......
 STEP CPU TIME =     0.00 TOTAL CPU TIME =          9.3 (      0.2 MIN)
 TOTAL WALL CLOCK TIME=          9.5 SECONDS, CPU UTILIZATION IS    98.31%
 TOTAL NUMBER OF NONZERO TWO-ELECTRON INTEGRALS =              501584
         34 INTEGRAL RECORDS WERE STORED ON DISK FILE  8.
  ...... END OF TWO-ELECTRON INTEGRALS .....
 STEP CPU TIME =     0.09 TOTAL CPU TIME =          9.4 (      0.2 MIN)
 TOTAL WALL CLOCK TIME=          9.6 SECONDS, CPU UTILIZATION IS    98.33%

          --------------------------
               R-PBE SCF CALCULATION
          --------------------------
         DENSITY MATRIX CONVERGENCE THRESHOLD=  2.00E-04
     COARSE -> FINE DFT GRID SWITCH THRESHOLD=  6.00E-03 (SWITCH IN $DFT)
                   HF -> DFT SWITCH THRESHOLD=  5.00E-03 (SWOFF IN $DFT)

 DFT CODE IS SWITCHING FROM THE FINE GRID NRAD= 96,  NLEB=  302
                      TO THE COARSE GRID NRAD0= 24, NLEB0=  110

 ITER EX DEM     TOTAL ENERGY        E CHANGE  DENSITY CHANGE    DIIS ERROR
          * * *   INITIATING DIIS PROCEDURE   * * *
   1  0  0     -188.3326086388  -188.3326086388   0.055896047   0.077269325
   2  1  0     -188.3530989014    -0.0204902627   0.024276626   0.023869012
   3  2  0     -188.3536951217    -0.0005962203   0.016479128   0.019017421
   4  3  0     -188.3543062319    -0.0006111101   0.005916186   0.008844461
 DFT CODE IS SWITCHING BACK TO THE FINE GRID
          * * *   INITIATING DIIS PROCEDURE   * * *
   5  4  0     -188.3517461580     0.0025600739   0.005084644   0.003477304
   6  5  0     -188.3516792528     0.0000669052   0.004540890   0.005322074
   7  6  0     -188.3517587259    -0.0000794730   0.001055322   0.001414070
   8  7  0     -188.3517644852    -0.0000057593   0.000239333   0.000304312
   9  8  0     -188.3517646770    -0.0000001918   0.000042675   0.000068655
  10  9  0     -188.3517646892    -0.0000000122   0.000006767   0.000008911

          -----------------
          DENSITY CONVERGED
          -----------------
     TIME TO FORM FOCK OPERATORS=       1.6 SECONDS (       0.2 SEC/ITER)
     TIME TO SOLVE SCF EQUATIONS=       0.0 SECONDS (       0.0 SEC/ITER)

 FINAL R-PBE ENERGY IS     -188.3517646892 AFTER  10 ITERATIONS
 DFT EXCHANGE + CORRELATION ENERGY =       -22.4179546040
 TOTAL ELECTRON NUMBER             =        21.9999998763
 ...... END OF RHF CALCULATION ......
 STEP CPU TIME =     1.61 TOTAL CPU TIME =         11.0 (      0.2 MIN)
 TOTAL WALL CLOCK TIME=         11.2 SECONDS, CPU UTILIZATION IS    98.30%
 ..... END OF 1-ELECTRON GRADIENT ......
 STEP CPU TIME =     0.01 TOTAL CPU TIME =         11.0 (      0.2 MIN)
 TOTAL WALL CLOCK TIME=         11.2 SECONDS, CPU UTILIZATION IS    98.31%
 MEMORY FOR GRID POINT CONTRIBUTIONS TO THE DFT GRADIENT=    144181 WORDS.
 STEP CPU TIME =     0.35 TOTAL CPU TIME =         11.4 (      0.2 MIN)
 TOTAL WALL CLOCK TIME=         11.6 SECONDS, CPU UTILIZATION IS    98.36%
 ...... END OF 2-ELECTRON GRADIENT ......
 STEP CPU TIME =     0.10 TOTAL CPU TIME =         11.5 (      0.2 MIN)
 TOTAL WALL CLOCK TIME=         11.7 SECONDS, CPU UTILIZATION IS    98.37%

          NSERCH=  4     ENERGY=    -188.3517647

                                 -----------------------
                                 GRADIENT (HARTREE/BOHR)
                                 -----------------------
        ATOM     ZNUC       DE/DX         DE/DY         DE/DZ
 --------------------------------------------------------------
    1  C            6.0     0.0131025    -0.0158366    -0.0095904
    2  O            8.0    -0.1232057     0.0081275    -0.0048091
    3  O            8.0     0.1101032     0.0077092     0.0143996

[...]
   41  O  3 YY    0.000325  -0.000115  -0.000520   0.004808  -0.005939
   42  O  3 ZZ    0.000319  -0.000113  -0.000511   0.004721  -0.005831
   43  O  3 XY    0.000008  -0.000003  -0.000013   0.000121  -0.000150
   44  O  3 XZ   -0.000088   0.000031   0.000141  -0.001302   0.001607
   45  O  3 YZ    0.000001  -0.000000  -0.000001   0.000010  -0.000012

                      6          7          8          9         10
                   -0.5081    -0.4641    -0.4633    -0.4633    -0.3314
                     A          A          A          A          A   
    1  C  1  S   -0.141827   0.000000   0.000002   0.000002  -0.000000
    2  C  1  S    0.342738  -0.000001  -0.000006  -0.000004   0.000000
    3  C  1  S    0.096480  -0.000002  -0.000018  -0.000010   0.000001
    4  C  1  X    0.000001   0.353119   0.004482  -0.033677  -0.000006
    5  C  1  Y   -0.000007  -0.002479   0.432972   0.018254   0.000000
    6  C  1  Z   -0.000004   0.027594  -0.017959   0.431671  -0.000000
    7  C  1  X   -0.000000  -0.056342   0.001521  -0.011206   0.000011
    8  C  1  Y   -0.000009   0.000438   0.143142   0.006035   0.000000
    9  C  1  Z   -0.000006  -0.004489  -0.005934   0.142707   0.000001
   10  C  1 XX   -0.001240  -0.000000  -0.000004  -0.000003  -0.000726
   11  C  1 YY    0.000626   0.000000   0.000004   0.000000   0.000801
   12  C  1 ZZ    0.000614   0.000000   0.000000   0.000002  -0.000075
   13  C  1 XY    0.000016  -0.000000   0.000000  -0.000000  -0.063670
   14  C  1 XZ   -0.000170  -0.000000  -0.000000  -0.000000  -0.000583
   15  C  1 YZ    0.000001  -0.000000   0.000001   0.000002  -0.005003
   16  O  2  S    0.102161   0.076075  -0.000014   0.000031  -0.000000
   17  O  2  S   -0.221447  -0.166089   0.000031  -0.000069   0.000001
   18  O  2  S   -0.300611  -0.230772   0.000040  -0.000092  -0.000003
   19  O  2  X   -0.324804  -0.396731   0.003765  -0.027696  -0.003147
   20  O  2  Y    0.002339   0.002921   0.352380   0.014858  -0.483480
   21  O  2  Z   -0.025557  -0.031361  -0.014607   0.351300  -0.004170
   22  O  2  X   -0.176220  -0.192476   0.002026  -0.014925  -0.002117
   23  O  2  Y    0.001270   0.001419   0.189986   0.008011  -0.324919
   24  O  2  Z   -0.013864  -0.015224  -0.007876   0.189404  -0.002803
   25  O  2 XX    0.017661   0.018701  -0.000495   0.003675   0.000191
   26  O  2 YY   -0.008912  -0.009438   0.000340   0.000010  -0.000211
   27  O  2 ZZ   -0.008749  -0.009263   0.000154  -0.003685   0.000020
   28  O  2 XY   -0.000221  -0.000239  -0.027096  -0.001158   0.016872
   29  O  2 XZ    0.002414   0.002568   0.001101  -0.026848   0.000154
   30  O  2 YZ   -0.000017  -0.000019  -0.002140   0.000105   0.001326
   31  O  3  S    0.102160  -0.076075   0.000018  -0.000028   0.000000
   32  O  3  S   -0.221447   0.166088  -0.000040   0.000063  -0.000001
   33  O  3  S   -0.300611   0.230776  -0.000053   0.000079   0.000002
   34  O  3  X    0.324805  -0.396734   0.003822  -0.027655   0.003221
   35  O  3  Y   -0.002380   0.002982   0.352378   0.014858   0.483481
   36  O  3  Z    0.025529  -0.031321  -0.014602   0.351301   0.004176
   37  O  3  X    0.176220  -0.192476   0.002057  -0.014904   0.002162
   38  O  3  Y   -0.001290   0.001453   0.189985   0.008010   0.324919
   39  O  3  Z    0.013852  -0.015201  -0.007873   0.189405   0.002806
   40  O  3 XX    0.017661  -0.018701   0.000502  -0.003671   0.000194
   41  O  3 YY   -0.008912   0.009437  -0.000346  -0.000011  -0.000214
   42  O  3 ZZ   -0.008749   0.009264  -0.000156   0.003682   0.000020
   43  O  3 XY   -0.000225   0.000244   0.027096   0.001158   0.016872
   44  O  3 XZ    0.002412  -0.002565  -0.001100   0.026849   0.000154
   45  O  3 YZ   -0.000018   0.000019   0.002138  -0.000108   0.001325

                     11         12         13         14         15
                   -0.3314    -0.0159    -0.0159     0.0251     0.2722
                     A          A          A          A          A   
    1  C  1  S    0.000000   0.000025  -0.000063  -0.095208   0.000001
    2  C  1  S   -0.000000  -0.000038   0.000092   0.110264   0.000011
    3  C  1  S   -0.000003  -0.000441   0.001063   1.908693   0.000008
    4  C  1  X   -0.000003  -0.049657   0.006551  -0.000016  -0.067976
    5  C  1  Y    0.000000  -0.140690  -0.620372   0.000349   0.000527
    6  C  1  Z    0.000000   0.618398  -0.140613   0.000244  -0.005403
    7  C  1  X    0.000014  -0.047582   0.006271  -0.000033  -2.520717
    8  C  1  Y   -0.000000  -0.134786  -0.594336   0.000400   0.018263
    9  C  1  Z    0.000002   0.592445  -0.134712   0.000273  -0.198149
   10  C  1 XX    0.008652   0.000018  -0.000048  -0.075031   0.000003
   11  C  1 YY   -0.000006  -0.000007   0.000027   0.037862  -0.000002
   12  C  1 ZZ   -0.008646  -0.000012   0.000022   0.037168  -0.000002
   13  C  1 XY    0.000479   0.000000   0.000000   0.000948  -0.000001
   14  C  1 XZ   -0.063085   0.000003  -0.000006  -0.010254  -0.000002
   15  C  1 YZ    0.000502  -0.000003   0.000003   0.000075  -0.000000
   16  O  2  S   -0.000000  -0.000019   0.000044   0.079750  -0.082175
   17  O  2  S    0.000001   0.000038  -0.000096  -0.171455   0.096989
   18  O  2  S   -0.000005   0.000170  -0.000374  -0.719860   1.581561
   19  O  2  X    0.037958   0.030836  -0.003911   0.297396   0.090555
   20  O  2  Y    0.003911   0.087571   0.386140  -0.002357  -0.000672
   21  O  2  Z   -0.482000  -0.384918   0.087536   0.023246   0.007102
   22  O  2  X    0.025508   0.030936  -0.003868   0.443493  -0.321791
   23  O  2  Y    0.002628   0.087939   0.387761  -0.003427   0.002302
   24  O  2  Z   -0.323925  -0.386537   0.087908   0.034736  -0.025341
   25  O  2 XX   -0.002294   0.002134  -0.000288  -0.009609   0.020890
   26  O  2 YY    0.000002  -0.000045  -0.000189   0.004849  -0.010542
   27  O  2 ZZ    0.002292  -0.002089   0.000477   0.004759  -0.010348
   28  O  2 XY   -0.000127   0.003477   0.015373   0.000110  -0.000264
   29  O  2 XZ    0.016717  -0.015225   0.003471  -0.001321   0.002857
   30  O  2 YZ   -0.000132   0.000385   0.001184   0.000009  -0.000021
   31  O  3  S   -0.000000  -0.000018   0.000045   0.079751   0.082174
   32  O  3  S   -0.000002   0.000039  -0.000095  -0.171457  -0.096975
   33  O  3  S    0.000010   0.000148  -0.000383  -0.719876  -1.581587
   34  O  3  X   -0.037909   0.030973  -0.004246  -0.297379   0.090561
   35  O  3  Y   -0.003911   0.087570   0.386142   0.001962  -0.000641
   36  O  3  Z    0.482005  -0.384907   0.087509  -0.023525   0.007133
   37  O  3  X   -0.025475   0.031128  -0.004325  -0.443474  -0.321817
   38  O  3  Y   -0.002628   0.087938   0.387764   0.003017   0.002387
   39  O  3  Z    0.323928  -0.386522   0.087872  -0.035018  -0.025294
   40  O  3 XX   -0.002292  -0.002128   0.000275  -0.009610  -0.020892
   41  O  3 YY    0.000002   0.000043   0.000197   0.004849   0.010543
   42  O  3 ZZ    0.002290   0.002085  -0.000472   0.004761   0.010350
   43  O  3 XY   -0.000127  -0.003477  -0.015373   0.000133   0.000266
   44  O  3 XZ    0.016718   0.015226  -0.003472  -0.001305  -0.002857
   45  O  3 YZ   -0.000134  -0.000386  -0.001183   0.000010   0.000021

                     16         17         18         19         20
                    0.3322     0.3322     0.4712     0.6358     0.6787
                     A          A          A          A          A   
    1  C  1  S   -0.000002   0.000006   0.171509  -0.000002  -0.013602
    2  C  1  S    0.000021  -0.000062  -1.166392   0.000031   1.270637
    3  C  1  S   -0.000017   0.000045   1.922199  -0.000005   0.566099
    4  C  1  X    0.064001  -0.011959   0.000012   1.061474  -0.000018
    5  C  1  Y    0.225789   0.795470  -0.000027  -0.007711   0.000031
    6  C  1  Z   -0.792914   0.225551  -0.000018   0.083478   0.000019
    7  C  1  X   -0.097463   0.018290   0.000002  -0.265610   0.000013
    8  C  1  Y   -0.344495  -1.213674   0.000043   0.001930   0.000023
    9  C  1  Z    1.209788  -0.344127   0.000028  -0.020890   0.000012
   10  C  1 XX    0.000002  -0.000008   0.246081   0.000002   0.159890
   11  C  1 YY    0.000001   0.000006  -0.124174  -0.000001  -0.080682
   12  C  1 ZZ   -0.000003   0.000002  -0.121906  -0.000002  -0.079209
   13  C  1 XY    0.000000  -0.000000  -0.003104  -0.000012  -0.002016
   14  C  1 XZ    0.000000  -0.000001   0.033621  -0.000007   0.021843
   15  C  1 YZ   -0.000002   0.000002  -0.000244  -0.000001  -0.000158
   16  O  2  S    0.000006   0.000001  -0.003340   0.056376   0.057652
   17  O  2  S   -0.000011  -0.000007   0.091583  -0.155543  -0.154917
   18  O  2  S   -0.000113   0.000000  -0.620540  -0.290389  -0.471899
   19  O  2  X    0.006339  -0.001186  -0.393431  -0.019289  -0.350430
   20  O  2  Y    0.022389   0.078878   0.002846   0.000117   0.002552
   21  O  2  Z   -0.078625   0.022366  -0.030953  -0.001531  -0.027567
   22  O  2  X    0.012767  -0.002382   0.348027   0.934275   1.131911
   23  O  2  Y    0.044952   0.158368  -0.002513  -0.006711  -0.008198
   24  O  2  Z   -0.157857   0.044904   0.027387   0.073520   0.089048
   25  O  2 XX   -0.004931   0.000926  -0.106562   0.088741   0.002505
   26  O  2 YY    0.000127   0.000441   0.053773  -0.044780  -0.001264
   27  O  2 ZZ    0.004804  -0.001367   0.052789  -0.043961  -0.001241
   28  O  2 XY   -0.010017  -0.035365   0.001338  -0.001110  -0.000032
   29  O  2 XZ    0.035024  -0.009984  -0.014565   0.012131   0.000342
   30  O  2 YZ   -0.001044  -0.002709   0.000105  -0.000087  -0.000003
   31  O  3  S   -0.000006  -0.000002  -0.003341  -0.056375   0.057653
   32  O  3  S    0.000012  -0.000001   0.091582   0.155543  -0.154916
   33  O  3  S    0.000100   0.000051  -0.620522   0.290375  -0.471899
   34  O  3  X    0.006338  -0.001190   0.393431  -0.019291   0.350423
   35  O  3  Y    0.022389   0.078879  -0.002871   0.000164  -0.002546
   36  O  3  Z   -0.078625   0.022365   0.030930  -0.001503   0.027564
   37  O  3  X    0.012765  -0.002369  -0.348009   0.934253  -1.131932
   38  O  3  Y    0.044952   0.158368   0.002546  -0.006863   0.008255
   39  O  3  Z   -0.157858   0.044905  -0.027356   0.073421  -0.089002
   40  O  3 XX    0.004927  -0.000915  -0.106564  -0.088741   0.002508
   41  O  3 YY   -0.000127  -0.000449   0.053773   0.044779  -0.001266
   42  O  3 ZZ   -0.004800   0.001364   0.052791   0.043962  -0.001243
   43  O  3 XY    0.010016   0.035365   0.001352   0.001129  -0.000031
   44  O  3 XZ   -0.035024   0.009985  -0.014556  -0.012118   0.000343
   45  O  3 YZ    0.001047   0.002707   0.000106   0.000089  -0.000002

                     21
                    0.7438
                     A   
    1  C  1  S   -0.000000
    2  C  1  S   -0.000008
    3  C  1  S   -0.000010
    4  C  1  X   -0.000051
    5  C  1  Y    0.000000
    6  C  1  Z   -0.000004
    7  C  1  X    0.000060
    8  C  1  Y   -0.000000
    9  C  1  Z    0.000004
   10  C  1 XX    0.016173
   11  C  1 YY   -0.000020
   12  C  1 ZZ   -0.016153
   13  C  1 XY    0.001519
   14  C  1 XZ   -0.117860
   15  C  1 YZ    0.000986
   16  O  2  S   -0.000001
   17  O  2  S   -0.000001
   18  O  2  S   -0.000001
   19  O  2  X    0.048601
   20  O  2  Y    0.008259
   21  O  2  Z   -0.617293
   22  O  2  X   -0.062652
   23  O  2  Y   -0.010638
   24  O  2  Z    0.795131
   25  O  2 XX   -0.001526
   26  O  2 YY    0.000005
   27  O  2 ZZ    0.001521
   28  O  2 XY   -0.000143
   29  O  2 XZ    0.011076
   30  O  2 YZ   -0.000093
   31  O  3  S   -0.000001
   32  O  3  S    0.000011
   33  O  3  S    0.000004
   34  O  3  X   -0.048621
   35  O  3  Y   -0.008259
   36  O  3  Z    0.617292
   37  O  3  X    0.062589
   38  O  3  Y    0.010639
   39  O  3  Z   -0.795136
   40  O  3 XX   -0.001515
   41  O  3 YY   -0.000001
   42  O  3 ZZ    0.001516
   43  O  3 XY   -0.000143
   44  O  3 XZ    0.011077
   45  O  3 YZ   -0.000093

     ---------------------------------------------------------------------
     PROPERTIES FOR THE PBE      DFT FUNCTIONAL (RHF  TYPE) DENSITY MATRIX
     ---------------------------------------------------------------------

          -----------------
          ENERGY COMPONENTS
          -----------------

         WAVEFUNCTION NORMALIZATION =       1.0000000000

                ONE ELECTRON ENERGY =    -371.1656089606
                TWO ELECTRON ENERGY =     125.2091573149
           NUCLEAR REPULSION ENERGY =      57.5879738732
                                      ------------------
                       TOTAL ENERGY =    -188.3684777726

 ELECTRON-ELECTRON POTENTIAL ENERGY =     125.2091573149
  NUCLEUS-ELECTRON POTENTIAL ENERGY =    -558.8959219959
   NUCLEUS-NUCLEUS POTENTIAL ENERGY =      57.5879738732
                                      ------------------
             TOTAL POTENTIAL ENERGY =    -376.0987908079
               TOTAL KINETIC ENERGY =     187.7303130353
                 VIRIAL RATIO (V/T) =       2.0033993697

          ---------------------------------------
          MULLIKEN AND LOWDIN POPULATION ANALYSES
          ---------------------------------------

     ATOMIC MULLIKEN POPULATION IN EACH MOLECULAR ORBITAL

                      1          2          3          4          5

                  2.000000   2.000000   2.000000   2.000000   2.000000

    1             0.000649   0.002629   2.005383   0.568140   0.530673
    2             1.002317   0.996044  -0.002692   0.715935   0.734656
    3             0.997034   1.001327  -0.002692   0.715924   0.734671

                      6          7          8          9         10

                  2.000000   2.000000   2.000000   2.000000   2.000000

    1             0.324664   0.314777   0.811959   0.811960   0.054672
    2             0.837669   0.842610   0.594023   0.594022   0.972662
    3             0.837666   0.842613   0.594018   0.594018   0.972666

                     11

                  2.000000

    1             0.054672
    2             0.972662
    3             0.972666

               ----- POPULATIONS IN EACH AO -----
                             MULLIKEN      LOWDIN
              1  C  1  S      1.99394     1.96549
              2  C  1  S      0.76948     0.38745
              3  C  1  S      0.10358     0.20165
              4  C  1  X      0.80166     0.69950
              5  C  1  Y      0.61330     0.54061
              6  C  1  Z      0.61446     0.54175
              7  C  1  X      0.04620     0.25165
              8  C  1  Y      0.19866     0.27188
              9  C  1  Z      0.19772     0.27177
             10  C  1 XX      0.00867     0.30371
             11  C  1 YY      0.02392     0.09302
             12  C  1 ZZ      0.05433     0.09501
             13  C  1 XY      0.05392     0.11045
             14  C  1 XZ      0.00034     0.10966
             15  C  1 YZ      0.00000     0.00069
             16  O  2  S      1.99521     1.97162
             17  O  2  S      0.93648     0.65915
             18  O  2  S      0.87069     0.47055
             19  O  2  X      0.91540     0.84432
             20  O  2  Y      0.98516     0.93134
             21  O  2  Z      0.98473     0.93103
             22  O  2  X      0.39976     0.47949
             23  O  2  Y      0.57280     0.59526
             24  O  2  Z      0.57173     0.59469
             25  O  2 XX      0.00269     0.20768
             26  O  2 YY      0.00784     0.18467
             27  O  2 ZZ      0.00866     0.18481
             28  O  2 XY      0.00869     0.01150
             29  O  2 XZ      0.00005     0.01166
             30  O  2 YZ      0.00000     0.00007
             31  O  3  S      1.99521     1.97162
             32  O  3  S      0.93648     0.65915
             33  O  3  S      0.87070     0.47055
             34  O  3  X      0.91539     0.84431
             35  O  3  Y      0.98516     0.93134
             36  O  3  Z      0.98474     0.93104
             37  O  3  X      0.39976     0.47949
             38  O  3  Y      0.57280     0.59526
             39  O  3  Z      0.57174     0.59469
             40  O  3 XX      0.00269     0.20768
             41  O  3 YY      0.00784     0.18467
             42  O  3 ZZ      0.00866     0.18481
             43  O  3 XY      0.00869     0.01150
             44  O  3 XZ      0.00005     0.01166
             45  O  3 YZ      0.00000     0.00007

          ----- MULLIKEN ATOMIC OVERLAP POPULATIONS -----
          (OFF-DIAGONAL ELEMENTS NEED TO BE MULTIPLIED BY 2)

             1           2           3

    1    4.1395740
    2    0.6703019   7.6266317
    3    0.6703028  -0.0370254   7.6266356

          TOTAL MULLIKEN AND LOWDIN ATOMIC POPULATIONS
       ATOM         MULL.POP.    CHARGE          LOW.POP.     CHARGE
    1 C             5.480179    0.519821         5.844295    0.155705
    2 O             8.259908   -0.259908         8.077852   -0.077852
    3 O             8.259913   -0.259913         8.077853   -0.077853

          MULLIKEN SPHERICAL HARMONIC POPULATIONS
       ATOM           S       P       D      F      G      H      I    TOTAL
    1 C             2.87    2.47    0.14   0.00   0.00   0.00   0.00    5.48
    2 O             3.80    4.43    0.03   0.00   0.00   0.00   0.00    8.26
    3 O             3.80    4.43    0.03   0.00   0.00   0.00   0.00    8.26

          -------------------------------
          BOND ORDER AND VALENCE ANALYSIS     BOND ORDER THRESHOLD=0.050
          -------------------------------

                   BOND                       BOND                       BOND
  ATOM PAIR DIST  ORDER      ATOM PAIR DIST  ORDER      ATOM PAIR DIST  ORDER
    1   2  1.176  2.098        1   3  1.176  2.098        2   3  2.352  0.276

                       TOTAL       BONDED        FREE
      ATOM            VALENCE     VALENCE     VALENCE
    1 C                 4.196       4.196       0.000
    2 O                 2.374       2.374       0.000
    3 O                 2.374       2.374      -0.000

          ---------------------
          ELECTROSTATIC MOMENTS
          ---------------------

 POINT   1           X           Y           Z (BOHR)    CHARGE
                -1.846893    4.542448   -0.006629        0.00 (A.U.)
         DX          DY          DZ         /D/  (DEBYE)
     0.000006   -0.000124   -0.000078    0.000147
 ...... END OF PROPERTY EVALUATION ......
 STEP CPU TIME =     0.00 TOTAL CPU TIME =         36.1 (      0.6 MIN)
 TOTAL WALL CLOCK TIME=         36.8 SECONDS, CPU UTILIZATION IS    98.37%
  $VIB   
          IVIB=   0 IATOM=   0 ICOORD=   0 E=     -188.3684777726
  1.863311610E-06-1.335119512E-05-8.852430150E-06-6.822248421E-05 7.164362208E-06
 -8.655787969E-07 6.635917260E-05 6.186832907E-06 9.718008947E-06
  6.327774646E-06-1.243900610E-04-7.812990285E-05
 ......END OF GEOMETRY SEARCH......
 STEP CPU TIME =     0.00 TOTAL CPU TIME =         36.1 (      0.6 MIN)
 TOTAL WALL CLOCK TIME=         36.8 SECONDS, CPU UTILIZATION IS    98.34%
                995951  WORDS OF DYNAMIC MEMORY USED
 EXECUTION OF GAMESS TERMINATED NORMALLY Sun Sep 29 16:45:01 2019
 DDI: 263640 bytes (0.3 MB / 0 MWords) used by master data server.

 ----------------------------------------
 CPU timing information for all processes
 ========================================
 0: 35.539 + 0.626 = 36.165
 ----------------------------------------
 ddikick.x: exited gracefully.
----- accounting info -----
Files used on the master node crcfe02.crc.nd.edu were:
-rwxr-xr-x 1 cdrisko campus     330 Sep 29 16:44 /afs/crc.nd.edu/user/c/cdrisko/CO2_opt.F05*
-rw-r--r-- 1 cdrisko campus  191302 Sep 29 16:45 /afs/crc.nd.edu/user/c/cdrisko/CO2_opt.F07
-rw-r--r-- 1 cdrisko campus 5940528 Sep 29 16:44 /afs/crc.nd.edu/user/c/cdrisko/CO2_opt.F08
-rw-r--r-- 1 cdrisko campus 1668720 Sep 29 16:45 /afs/crc.nd.edu/user/c/cdrisko/CO2_opt.F10
-rw-r--r-- 1 cdrisko campus 1069432 Sep 29 16:44 /afs/crc.nd.edu/user/c/cdrisko/CO2_opt.F22
Sun Sep 29 16:45:04 EDT 2019
0.391u 0.222s 0:40.36 1.5%	0+0k 0+16io 0pf+0w
