----- GAMESS execution script 'rungms' -----
This job is running on host crcfe02.crc.nd.edu
under operating system Linux at Sun Sep 29 17:41:43 EDT 2019
Available scratch disk space (Kbyte units) at beginning of the job is
Filesystem      1K-blocks  Used  Available Use% Mounted on
AFS            2147483647     0 2147483647   0% /afs
GAMESS temporary binary files will be written to /afs/crc.nd.edu/user/c/cdrisko
GAMESS supplementary output files will be written to /afs/crc.nd.edu/user/c/cdrisko/scr
Copying input file NO2_opt.inp to your run's scratch directory...

 Distributed Data Interface kickoff program.
 Initiating 1 compute processes on 1 nodes to run the following command:
 /afs/crc.nd.edu/x86_64_linux/g/gamess/nov-2017/gamess/gamess.00.x NO2_opt 

          ******************************************************
          *         GAMESS VERSION = 11 NOV 2017 (R3)         *
          *             FROM IOWA STATE UNIVERSITY             *
          * M.W.SCHMIDT, K.K.BALDRIDGE, J.A.BOATZ, S.T.ELBERT, *
          *   M.S.GORDON, J.H.JENSEN, S.KOSEKI, N.MATSUNAGA,   *
          *          K.A.NGUYEN, S.J.SU, T.L.WINDUS,           *
          *       TOGETHER WITH M.DUPUIS, J.A.MONTGOMERY       *
          *         J.COMPUT.CHEM.  14, 1347-1363(1993)        *
          **************** 64 BIT INTEL VERSION ****************

  SINCE 1993, STUDENTS AND POSTDOCS WORKING AT IOWA STATE UNIVERSITY
  AND ALSO IN THEIR VARIOUS JOBS AFTER LEAVING ISU HAVE MADE IMPORTANT
  CONTRIBUTIONS TO THE CODE:
     IVANA ADAMOVIC, CHRISTINE AIKENS, YURI ALEXEEV, POOJA ARORA,
     ANDREY ASADCHEV, ROB BELL, PRADIPTA BANDYOPADHYAY, JONATHAN BENTZ,
     BRETT BODE, KURT BRORSEN, CALEB CARLIN, GALINA CHABAN, WEI CHEN,
     CHEOL HO CHOI, PAUL DAY, ALBERT DEFUSCO, NUWAN DESILVA, TIM DUDLEY,
     DMITRI FEDOROV, ALEX FINDLATER, GRAHAM FLETCHER, MARK FREITAG,
     KURT GLAESEMANN, ANASTASIA GUININA,
     DAN KEMP, GRANT MERRILL, NORIYUKI MINEZAWA, JONATHAN MULLIN,
     TAKESHI NAGATA, SEAN NEDD, HEATHER NETZLOFF, BOSILJKA NJEGIC, RYAN OLSON,
     MIKE PAK, BUU PHAM,
     SPENCER PRUITT, LUKE ROSKOP, JIM SHOEMAKER, LYUDMILA SLIPCHENKO,
     TONY SMITH, SAROM SOK LEANG, JIE SONG, TETSUYA TAKETSUGU, SIMON WEBB,
     PENG XU, SOOHAENG YOO, FEDERICO ZAHARIEV

  ADDITIONAL CODE HAS BEEN PROVIDED BY COLLABORATORS IN OTHER GROUPS:
     IOWA STATE UNIVERSITY:
          JOE IVANIC, AARON WEST, LAIMUTIS BYTAUTAS, KLAUS RUEDENBERG
     UNIVERSITY OF TOKYO: KIMIHIKO HIRAO, TAKAHITO NAKAJIMA,
          TAKAO TSUNEDA, MUNEAKI KAMIYA, SUSUMU YANAGISAWA,
          KIYOSHI YAGI, MAHITO CHIBA, SEIKEN TOKURA, NAOAKI KAWAKAMI
     UNIVERSITY OF AARHUS: FRANK JENSEN
     UNIVERSITY OF IOWA: VISVALDAS KAIRYS, HUI LI
     NATIONAL INST. OF STANDARDS AND TECHNOLOGY: WALT STEVENS, DAVID GARMER
     UNIVERSITY OF PISA: BENEDETTA MENNUCCI, JACOPO TOMASI
     UNIVERSITY OF MEMPHIS: HENRY KURTZ, PRAKASHAN KORAMBATH
     UNIVERSITY OF ALBERTA: TOBY ZENG, MARIUSZ KLOBUKOWSKI
     UNIVERSITY OF NEW ENGLAND: MARK SPACKMAN
     MIE UNIVERSITY: HIROAKI UMEDA
     NAT. INST. OF ADVANCED INDUSTRIAL SCIENCE AND TECHNOLOGY: KAZUO KITAURA
     MICHIGAN STATE UNIVERSITY:
          KAROL KOWALSKI, MARTA WLOCH, JEFFREY GOUR, JESSE LUTZ,
          WEI LI, PIOTR PIECUCH
     UNIVERSITY OF SILESIA: MONIKA MUSIAL, STANISLAW KUCHARSKI
     FACULTES UNIVERSITAIRES NOTRE-DAME DE LA PAIX:
          OLIVIER QUINET, BENOIT CHAMPAGNE
     UNIVERSITY OF CALIFORNIA - SANTA BARBARA: BERNARD KIRTMAN
     INSTITUTE FOR MOLECULAR SCIENCE:
          KAZUYA ISHIMURA, MICHIO KATOUDA, AND SHIGERU NAGASE
     UNIVERSITY OF NOTRE DAME: ANNA POMOGAEVA, DAN CHIPMAN
     KYUSHU UNIVERSITY:
          HARUYUKI NAKANO,
          FENG LONG GU, JACEK KORCHOWIEC, MARCIN MAKOWSKI, AND YURIKO AOKI,
          HIROTOSHI MORI AND EISAKU MIYOSHI
     PENNSYLVANIA STATE UNIVERSITY:
          TZVETELIN IORDANOV, CHET SWALINA, JONATHAN SKONE,
          SHARON HAMMES-SCHIFFER
     WASEDA UNIVERSITY:
          MASATO KOBAYASHI, TOMOKO AKAMA, TSUGUKI TOUMA,
          TAKESHI YOSHIKAWA, YASUHIRO IKABATA, JUNJI SEINO,
          YUYA NAKAJIMA, HIROMI NAKAI
     NANJING UNIVERSITY: SHUHUA LI
     UNIVERSITY OF NEBRASKA:
          PEIFENG SU, DEJUN SI, NANDUN THELLAMUREGE, YALI WANG, HUI LI
     UNIVERSITY OF ZURICH: ROBERTO PEVERATI, KIM BALDRIDGE
     N. COPERNICUS UNIVERSITY AND JACKSON STATE UNIVERSITY:
          MARIA BARYSZ
     UNIVERSITY OF COPENHAGEN: Jimmy Kromann, CASPER STEINMANN
     TOKYO INSTITUTE OF TECHNOLOGY: HIROYA NAKATA
     NAGOYA UNIVERSITY: YOSHIO NISHIMOTO, STEPHAN IRLE
     MOSCOW STATE UNIVERSITY: VLADIMIR MIRONOV

 EXECUTION OF GAMESS BEGUN Sun Sep 29 17:41:43 2019

            ECHO OF THE FIRST FEW INPUT CARDS -
 INPUT CARD>!   File created by the GAMESS Input Deck Generator Plugin for Avogadro         
 INPUT CARD> $BASIS GBASIS=PCSEG-1 $END                                                     
 INPUT CARD> $CONTRL COORD=ZMT SCFTYP=ROHF ISPHER=1 RUNTYP=OPTIMIZE MULT=2 DFTTYP=PBE $END  
 INPUT CARD>                                                                                
 INPUT CARD> $DATA                                                                          
 INPUT CARD>Title                                                                           
 INPUT CARD>C1                                                                              
 INPUT CARD>N                                                                               
 INPUT CARD>O 1 rso                                                                         
 INPUT CARD>O 1 rso 2 ang                                                                   
 INPUT CARD>                                                                                
 INPUT CARD>rso = 1.20                                                                      
 INPUT CARD>ang = 132                                                                       
 INPUT CARD> $END                                                                           
    1000000 WORDS OF MEMORY AVAILABLE

     BASIS OPTIONS
     -------------
     GBASIS=PCSEG-1      IGAUSS=       0      POLAR=NONE    
     NDFUNC=       0     NFFUNC=       0     DIFFSP=       F
     NPFUNC=       0      DIFFS=       F     BASNAM=        


     RUN TITLE
     ---------
 Title                                                                           

 THE POINT GROUP OF THE MOLECULE IS C1      
 THE ORDER OF THE PRINCIPAL AXIS IS     0

 YOUR FULLY SUBSTITUTED Z-MATRIX IS
 N   
 O      1   1.2000000
 O      1   1.2000000  2  132.0000

 THE MOMENTS OF INERTIA ARE (AMU-ANGSTROM**2)
 IXX=     2.320   IYY=    38.445   IZZ=    40.765

 ATOM      ATOMIC                      COORDINATES (BOHR)
           CHARGE         X                   Y                   Z
 N           7.0     0.0000000000       -0.6415263190        0.0000000000
 O           8.0     2.0716207107        0.2808186464        0.0000000000
 O           8.0    -2.0716207107        0.2808186464        0.0000000000

          INTERNUCLEAR DISTANCES (ANGS.)
          ------------------------------

                1 N          2 O          3 O     

   1 N       0.0000000    1.2000000 *  1.2000000 *
   2 O       1.2000000 *  0.0000000    2.1925091 *
   3 O       1.2000000 *  2.1925091 *  0.0000000  

  * ... LESS THAN  3.000


     ATOMIC BASIS SET
     ----------------
 THE CONTRACTED PRIMITIVE FUNCTIONS HAVE BEEN UNNORMALIZED
 THE CONTRACTED BASIS FUNCTIONS ARE NOW NORMALIZED TO UNITY

  SHELL TYPE  PRIMITIVE        EXPONENT          CONTRACTION COEFFICIENT(S)

 N         

      1   S       1          1726.3200000    0.005526692708
      1   S       2           259.8270000    0.041238777833
      1   S       3            59.0335000    0.182735518857
      1   S       4            16.3509000    0.465933825414
      1   S       5             4.9108400    0.450079961070

      2   S       6             7.7589400   -0.147940502099
      2   S       7             0.7055730    1.051675837690

      3   S       8             0.2092860    1.000000000000

      4   P       9            13.1844000    0.064862763118
      4   P      10             2.8186000    0.339184155940
      4   P      11             0.7655710    0.735827618992

      5   P      12             0.1959490    1.000000000000

      6   D      13             0.9000000    1.000000000000

 O         

      7   S      14          2288.6400000    0.005451138222
      7   S      15           344.4160000    0.040718922842
      7   S      16            78.2538000    0.181369420873
      7   S      17            21.7195000    0.465536820246
      7   S      18             6.5590700    0.451211321214

      8   S      19            10.4656000   -0.150211201174
      8   S      20             0.9643510    1.052867983385

      9   S      21             0.2851270    1.000000000000

     10   P      22            17.0590000    0.068749256972
     10   P      23             3.6899900    0.351671941499
     10   P      24             0.9929960    0.724532099722

     11   P      25             0.2449240    1.000000000000

     12   D      26             1.0000000    1.000000000000

 O         

     13   S      27          2288.6400000    0.005451138222
     13   S      28           344.4160000    0.040718922842
     13   S      29            78.2538000    0.181369420873
     13   S      30            21.7195000    0.465536820246
     13   S      31             6.5590700    0.451211321214

     14   S      32            10.4656000   -0.150211201174
     14   S      33             0.9643510    1.052867983385

     15   S      34             0.2851270    1.000000000000

     16   P      35            17.0590000    0.068749256972
     16   P      36             3.6899900    0.351671941499
     16   P      37             0.9929960    0.724532099722

     17   P      38             0.2449240    1.000000000000

     18   D      39             1.0000000    1.000000000000

 TOTAL NUMBER OF BASIS SET SHELLS             =   18
 NUMBER OF CARTESIAN GAUSSIAN BASIS FUNCTIONS =   45
 NOTE: THIS RUN WILL RESTRICT THE MO VARIATION SPACE TO SPHERICAL HARMONICS.
 THE NUMBER OF ORBITALS KEPT IN THE VARIATIONAL SPACE WILL BE PRINTED LATER.
 NUMBER OF ELECTRONS                          =   23
 CHARGE OF MOLECULE                           =    0
 SPIN MULTIPLICITY                            =    2
 NUMBER OF OCCUPIED ORBITALS (ALPHA)          =   12
 NUMBER OF OCCUPIED ORBITALS (BETA )          =   11
 TOTAL NUMBER OF ATOMS                        =    3
 THE NUCLEAR REPULSION ENERGY IS       64.8367196565

     LEBEDEV GRID-BASED DFT OPTIONS
     ------------------------------
     DFTTYP=PBE     
     NRAD  =      96     NLEB  =     302
     NRAD0 =      24     NLEB0 =     110
     SWOFF =    5.00E-03 (PURE SCF -> DFT)
     SWITCH=    3.00E-04 (COARSE -> TIGHT GRID)
     THRESH=    0.00E+00 GTHRE=    1.00E+00

 GRIMME'S EMPIRICAL DISPERSION CORRECTION= F

     $CONTRL OPTIONS
     ---------------
 SCFTYP=ROHF         RUNTYP=OPTIMIZE     EXETYP=RUN     
 MPLEVL=       0     CITYP =NONE         CCTYP =NONE         VBTYP =NONE    
 DFTTYP=PBE          TDDFT =NONE    
 MULT  =       2     ICHARG=       0     NZVAR =       0     COORD =ZMT     
 PP    =NONE         RELWFN=NONE         LOCAL =NONE         NUMGRD=       F
 ISPHER=       1     NOSYM =       0     MAXIT =      30     UNITS =ANGS    
 PLTORB=       F     MOLPLT=       F     AIMPAC=       F     FRIEND=        
 NPRINT=       7     IREST =       0     GEOM  =INPUT   
 NORMF =       0     NORMP =       0     ITOL  =      20     ICUT  =       9
 INTTYP=BEST         GRDTYP=BEST         QMTTOL= 1.0E-06

     $SYSTEM OPTIONS
     ---------------
  REPLICATED MEMORY=     1000000 WORDS (ON EVERY NODE).
 DISTRIBUTED MEMDDI=           0 MILLION WORDS IN AGGREGATE,
 MEMDDI DISTRIBUTED OVER   1 PROCESSORS IS           0 WORDS/PROCESSOR.
 TOTAL MEMORY REQUESTED ON EACH PROCESSOR=     1000000 WORDS.
 TIMLIM=      525600.00 MINUTES, OR     365.0 DAYS.
 PARALL= F  BALTYP=  DLB     KDIAG=    0  COREFL= F
 MXSEQ2=     300 MXSEQ3=     150  mem10=         0

          ----------------
          PROPERTIES INPUT
          ----------------

     MOMENTS            FIELD           POTENTIAL          DENSITY
 IEMOM =       1   IEFLD =       0   IEPOT =       0   IEDEN =       0
 WHERE =COMASS     WHERE =NUCLEI     WHERE =NUCLEI     WHERE =NUCLEI  
 OUTPUT=BOTH       OUTPUT=BOTH       OUTPUT=BOTH       OUTPUT=BOTH    
 IEMINT=       0   IEFINT=       0                     IEDINT=       0
                                                       MORB  =       0
          EXTRAPOLATION IN EFFECT
          DIIS IN EFFECT
 ORBITAL PRINTING OPTION: NPREO=     1    45     2     1

     -------------------------------
     INTEGRAL TRANSFORMATION OPTIONS
     -------------------------------
     NWORD  =            0
     CUTOFF = 1.0E-09     MPTRAN =       0
     DIRTRF =       F     AOINTS =DUP     

          ----------------------
          INTEGRAL INPUT OPTIONS
          ----------------------
 NOPK  =       1 NORDER=       0 SCHWRZ=       F

   --- ENCODED Z MATRIX ---
 COORD  TYPE   I   J   K   L   M   N
    1      1    2   1
    2      1    3   1
    3      2    3   1   2

 THE DETERMINANT OF THE G MATRIX IS 10**(    -4)

 THE DETERMINANT OF THE G MATRIX IS 10**(    -4)
 * * * WARNING * * *
 YOUR B MATRIX HAS A SMALL DETERMINANT.
 THIS SUGGESTS YOU MAY HAVE BADLY CHOSEN COORDINATES.

     ------------------------------------------
     THE POINT GROUP IS C1 , NAXIS= 0, ORDER= 1
     ------------------------------------------

 -- VARIATIONAL SPACE WILL BE RESTRICTED TO PURE SPHERICAL HARMONICS ONLY --
 AFTER EXCLUDING CONTAMINANT COMBINATIONS FROM THE CARTESIAN GAUSSIAN BASIS
 SET, THE NUMBER OF SPHERICAL HARMONICS KEPT IN THE VARIATION SPACE IS   42

     DIMENSIONS OF THE SYMMETRY SUBSPACES ARE
 A   =   42

 ..... DONE SETTING UP THE RUN .....
 STEP CPU TIME =     0.03 TOTAL CPU TIME =          0.0 (      0.0 MIN)
 TOTAL WALL CLOCK TIME=          0.0 SECONDS, CPU UTILIZATION IS    75.00%


          -----------------------------
          STATIONARY POINT LOCATION RUN
          -----------------------------

 OBTAINING INITIAL HESSIAN, HESS=GUESS   
 CARTESIAN COORDINATE OPTIMIZATION USING BADGER'S RULE FORCE CONSTANT GUESS

          PARAMETERS CONTROLLING GEOMETRY SEARCH ARE
          METHOD =QA                  UPHESS =BFGS    
          NNEG   =         0          NFRZ   =         0
          NSTEP  =        50          IFOLOW =         1
          HESS   =GUESS               RESTAR =         F
          IHREP  =         0          HSSEND =         F
          NPRT   =         0          NPUN   =         0
          OPTTOL = 1.000E-04          RMIN   = 1.500E-03
          RMAX   = 1.000E-01          RLIM   = 7.000E-02
          DXMAX  = 3.000E-01          PURIFY =         F
          MOVIE  =         F          TRUPD  =         T
          TRMAX  = 5.000E-01          TRMIN  = 5.000E-02
          ITBMAT =         5          STPT   =         F
          STSTEP = 1.000E-02          PROJCT=          T

 BEGINNING GEOMETRY SEARCH POINT NSERCH=   0 ...

 COORDINATES OF ALL ATOMS ARE (ANGS)
   ATOM   CHARGE       X              Y              Z
 ------------------------------------------------------------
 N           7.0   0.0000000000  -0.3394811328   0.0000000000
 O           8.0   1.0962545492   0.1486028389   0.0000000000
 O           8.0  -1.0962545492   0.1486028389   0.0000000000

 THE CURRENT FULLY SUBSTITUTED Z-MATRIX IS
 N   
 O      1   1.2000000
 O      1   1.2000000  2   132.0000000

          ********************
          1 ELECTRON INTEGRALS
          ********************
 ...... END OF ONE-ELECTRON INTEGRALS ......
 STEP CPU TIME =     0.00 TOTAL CPU TIME =          0.0 (      0.0 MIN)
 TOTAL WALL CLOCK TIME=          0.0 SECONDS, CPU UTILIZATION IS    75.00%

          -------------
          GUESS OPTIONS
          -------------
          GUESS =HUCKEL            NORB  =       0          NORDER=       0
          MIX   =       F          PRTMO =       F          PUNMO =       F
          TOLZ  = 1.0E-08          TOLE  = 1.0E-05
          SYMDEN=       F          PURIFY=       F

 INITIAL GUESS ORBITALS GENERATED BY HUCKEL   ROUTINE.
 HUCKEL GUESS REQUIRES     18234 WORDS.

 STATISTICS FOR GENERATION OF SYMMETRY ORBITAL -Q- MATRIX
 NUMBER OF CARTESIAN ATOMIC ORBITALS=         45
 NUMBER OF SPHERICAL CONTAMINANTS DROPPED=     3
 NUMBER OF LINEARLY DEPENDENT MOS DROPPED=     0
 TOTAL NUMBER OF MOS IN VARIATION SPACE=      42

 SYMMETRIES FOR INITIAL GUESS ORBITALS FOLLOW.  ALPHA SET(S).
    12 ORBITALS ARE OCCUPIED (    3 CORE ORBITALS).
     4=A        5=A        6=A        7=A        8=A        9=A       10=A   
    11=A       12=A       13=A       14=A       15=A       16=A       17=A   
    18=A       19=A       20=A       21=A       22=A   

 SYMMETRIES FOR INITIAL GUESS ORBITALS FOLLOW.   BETA SET(S).
    11 ORBITALS ARE OCCUPIED (    3 CORE ORBITALS).
     4=A        5=A        6=A        7=A        8=A        9=A       10=A   
    11=A       12=A       13=A       14=A       15=A       16=A       17=A   
    18=A       19=A       20=A       21=A   
 ...... END OF INITIAL ORBITAL SELECTION ......
 STEP CPU TIME =     0.00 TOTAL CPU TIME =          0.0 (      0.0 MIN)
 TOTAL WALL CLOCK TIME=          0.0 SECONDS, CPU UTILIZATION IS    60.00%

                    ----------------------
                    AO INTEGRAL TECHNOLOGY
                    ----------------------
     S,P,L SHELL ROTATED AXIS INTEGRALS, REPROGRAMMED BY
        KAZUYA ISHIMURA (IMS) AND JOSE SIERRA (SYNSTAR).
     S,P,D,L SHELL ROTATED AXIS INTEGRALS PROGRAMMED BY
        KAZUYA ISHIMURA (INSTITUTE FOR MOLECULAR SCIENCE).
     S,P,D,F,G SHELL TO TOTAL QUARTET ANGULAR MOMENTUM SUM 5,
        ERIC PROGRAM BY GRAHAM FLETCHER (ELORET AND NASA ADVANCED
        SUPERCOMPUTING DIVISION, AMES RESEARCH CENTER).
     S,P,D,F,G,L SHELL GENERAL RYS QUADRATURE PROGRAMMED BY
        MICHEL DUPUIS (PACIFIC NORTHWEST NATIONAL LABORATORY).

          --------------------
          2 ELECTRON INTEGRALS
          --------------------

 THE -PK- OPTION IS OFF, THE INTEGRALS ARE NOT IN SUPERMATRIX FORM.
 STORING   15000 INTEGRALS/RECORD ON DISK, USING 12 BYTES/INTEGRAL.
 TWO ELECTRON INTEGRAL EVALUATION REQUIRES   90567 WORDS OF MEMORY.
 II,JST,KST,LST =  1  1  1  1 NREC =         1 INTLOC =    1
 II,JST,KST,LST =  2  1  1  1 NREC =         1 INTLOC =    2
 II,JST,KST,LST =  3  1  1  1 NREC =         1 INTLOC =    7
 II,JST,KST,LST =  4  1  1  1 NREC =         1 INTLOC =   22
 II,JST,KST,LST =  5  1  1  1 NREC =         1 INTLOC =   67
 II,JST,KST,LST =  6  1  1  1 NREC =         1 INTLOC =  214
 II,JST,KST,LST =  7  1  1  1 NREC =         1 INTLOC = 1189
 II,JST,KST,LST =  8  1  1  1 NREC =         1 INTLOC = 2360
 II,JST,KST,LST =  9  1  1  1 NREC =         1 INTLOC = 3796
 II,JST,KST,LST = 10  1  1  1 NREC =         1 INTLOC = 5533
 II,JST,KST,LST = 11  1  1  1 NREC =         1 INTLOC =11895
 II,JST,KST,LST = 12  1  1  1 NREC =         2 INTLOC = 6288
 II,JST,KST,LST = 13  1  1  1 NREC =         4 INTLOC = 7010
 II,JST,KST,LST = 14  1  1  1 NREC =         4 INTLOC =13326
 II,JST,KST,LST = 15  1  1  1 NREC =         5 INTLOC = 6863
 II,JST,KST,LST = 16  1  1  1 NREC =         6 INTLOC = 1354
 II,JST,KST,LST = 17  1  1  1 NREC =         8 INTLOC = 1228
 II,JST,KST,LST = 18  1  1  1 NREC =        10 INTLOC = 9240
 TOTAL NUMBER OF NONZERO TWO-ELECTRON INTEGRALS =              245833
         17 INTEGRAL RECORDS WERE STORED ON DISK FILE  8.
  ...... END OF TWO-ELECTRON INTEGRALS .....
 STEP CPU TIME =     0.08 TOTAL CPU TIME =          0.1 (      0.0 MIN)
 TOTAL WALL CLOCK TIME=          0.1 SECONDS, CPU UTILIZATION IS    91.67%

          ---------------------------
               RO-PBE SCF CALCULATION
          ---------------------------

     NUCLEAR ENERGY =        64.8367196565
     MAXIT = 30     NPUNCH=  2     MULT=  2
     EXTRAP=T  DAMP=F  SHIFT=F  RSTRCT=F  DIIS=T  SOSCF=F
         DENSITY MATRIX CONVERGENCE THRESHOLD=  1.00E-05
     COARSE -> FINE DFT GRID SWITCH THRESHOLD=  3.00E-04 (SWITCH IN $DFT)
                   HF -> DFT SWITCH THRESHOLD=  5.00E-03 (SWOFF IN $DFT)
     ROHF CANONICALIZATION PARAMETERS
             C-C     O-O     V-V
     ALPHA -0.5000  0.5000  1.5000
     BETA   1.5000  0.5000 -0.5000
     MEMORY REQUIRED FOR UHF/ROHF ITERS=    185313 WORDS.

 DFT CODE IS SWITCHING FROM THE FINE GRID NRAD= 96,  NLEB=  302
                      TO THE COARSE GRID NRAD0= 24, NLEB0=  110

     EXCHANGE FUNCTIONAL   =PBE       
     CORRELATION FUNCTIONAL=PBE       
     DFT THRESHOLD         =.460E-07
     GRID CHANGE THRESHOLD =.300E-03
 FOR AN EULER-MACLAURIN QUADRATURE USING  96 RADIAL POINTS:
 SMALLEST GAUSSIAN PRIMITIVE EXPONENT=        0.1959490000 OF TYPE -P-
 ON ATOM NUMBER   1 HAS RADIAL NORMALIZATION=  1.000000
  LARGEST GAUSSIAN PRIMITIVE EXPONENT=     2288.6400000000 OF TYPE -S-
 ON ATOM NUMBER   2 HAS RADIAL NORMALIZATION=  1.000000
 DFT IS SWITCHED OFF, PERFORMING PURE SCF UNTIL SWOFF THRESHOLD IS REACHED.

 ITER EX      TOTAL ENERGY        E CHANGE  DENSITY CHANGE    DIIS ERROR
   1  0     -203.2876501192  -203.2876501192   0.343383163   0.829521057
          * * *   INITIATING DIIS PROCEDURE   * * *
   2  1     -203.7724024944    -0.4847523752   0.446939665   0.270156486
   3  2     -203.7476572653     0.0247452291   0.200186976   0.285340255
   4  3     -203.9560186028    -0.2083613375   0.018587256   0.014070437
   5  4     -203.9569910342    -0.0009724314   0.007054700   0.007226447
   6  5     -203.9571721813    -0.0001811471   0.005203292   0.003665045
   7  6     -203.9572030138    -0.0000308325   0.000647578   0.000415048
 CONVERGED TO SWOFF, SO DFT CALCULATION IS NOW SWITCHED ON.
          * * *   INITIATING DIIS PROCEDURE   * * *
   8  7     -204.8242869685    -0.8670839547   0.237479555   0.100094850
   9  8     -204.8067885467     0.0174984218   0.175909787   0.164625067
  10  9     -204.8382154032    -0.0314268565   0.051051771   0.087871130
  11 10     -204.8533367162    -0.0151213130   0.011498588   0.015513875
  12 11     -204.8539694265    -0.0006327103   0.000765116   0.001010345
  13 12     -204.8539715544    -0.0000021279   0.000332913   0.000354752
  14 13     -204.8539717443    -0.0000001899   0.000072992   0.000026733
 DFT CODE IS SWITCHING BACK TO THE FINE GRID
          * * *   INITIATING DIIS PROCEDURE   * * *
  15 14     -204.8555025099    -0.0015307656   0.002160838   0.001891206
  16 15     -204.8555047053    -0.0000021954   0.002259137   0.000677796
  17 16     -204.8554994921     0.0000052132   0.001761613   0.001507212
  18 17     -204.8555056680    -0.0000061759   0.000724685   0.000501178
  19 18     -204.8555063497    -0.0000006818   0.000213525   0.000300294
  20 19     -204.8555065405    -0.0000001908   0.000010077   0.000008745
  21 20     -204.8555065407    -0.0000000002   0.000000648   0.000001703
  22 21     -204.8555065407    -0.0000000000   0.000000115   0.000000203

          -----------------
          DENSITY CONVERGED
          -----------------
     TIME TO FORM FOCK OPERATORS=       3.4 SECONDS (       0.2 SEC/ITER)
     TIME TO SOLVE SCF EQUATIONS=       0.0 SECONDS (       0.0 SEC/ITER)

 FINAL RO-PBE ENERGY IS     -204.8555065407 AFTER  22 ITERATIONS
 DFT EXCHANGE + CORRELATION ENERGY =       -23.7369818939
 TOTAL ELECTRON NUMBER             =        23.0000003335

          --------------------
          SPIN SZ   =    0.500
          S-SQUARED =    0.750
          --------------------

          ------------
          EIGENVECTORS
          ------------

                      1          2          3          4          5
                  -18.8397   -18.8396   -14.1949    -1.1764    -1.0301
                     A          A          A          A          A   
    1  N  1  S    0.000000   0.000237   0.993225  -0.168935   0.000000
    2  N  1  S   -0.000001  -0.001873   0.032785   0.365680   0.000001
    3  N  1  S    0.000010   0.015817  -0.008325   0.113104  -0.000010
    4  N  1  X    0.000766  -0.000001  -0.000000   0.000000   0.328785
    5  N  1  Y   -0.000000  -0.000294   0.002348   0.129525  -0.000000
    6  N  1  Z    0.000000   0.000000   0.000000   0.000000   0.000000
    7  N  1  X   -0.010678   0.000007  -0.000000   0.000006   0.012231
    8  N  1  Y    0.000003   0.005096  -0.001061   0.010633  -0.000004
    9  N  1  Z    0.000000   0.000000   0.000000   0.000000   0.000000
   10  N  1 XX   -0.000001  -0.001276   0.001958   0.022075  -0.000001
   11  N  1 YY    0.000000   0.000713  -0.000839  -0.006079   0.000000
   12  N  1 ZZ    0.000000   0.000563  -0.001119  -0.015996   0.000001
   13  N  1 XY    0.001111  -0.000001  -0.000000   0.000000   0.030143
   14  N  1 XZ    0.000000   0.000000   0.000000   0.000000   0.000000
   15  N  1 YZ    0.000000   0.000000   0.000000   0.000000   0.000000
   16  O  2  S   -0.701836   0.702806   0.000136  -0.122659  -0.154010
   17  O  2  S   -0.025006   0.024437  -0.000698   0.251100   0.319013
   18  O  2  S    0.017069  -0.015381   0.000066   0.196266   0.289277
   19  O  2  X    0.001530  -0.001345   0.001340  -0.137757  -0.124087
   20  O  2  Y    0.000651  -0.000607   0.000619  -0.045130  -0.063965
   21  O  2  Z    0.000000   0.000000   0.000000   0.000000   0.000000
   22  O  2  X   -0.004159   0.004974   0.001008  -0.046074  -0.047704
   23  O  2  Y   -0.003179   0.000997   0.001048  -0.014079  -0.024745
   24  O  2  Z    0.000000   0.000000   0.000000   0.000000   0.000000
   25  O  2 XX   -0.000210  -0.000243  -0.001165   0.014910   0.006495
   26  O  2 YY    0.000314   0.000322   0.000247  -0.007187  -0.001260
   27  O  2 ZZ   -0.000104  -0.000079   0.000918  -0.007723  -0.005235
   28  O  2 XY    0.000192   0.000214  -0.001323   0.009105   0.011033
   29  O  2 XZ    0.000000   0.000000   0.000000   0.000000   0.000000
   30  O  2 YZ    0.000000   0.000000   0.000000   0.000000   0.000000
   31  O  3  S    0.702801   0.701841   0.000136  -0.122659   0.154010
   32  O  3  S    0.025040   0.024403  -0.000698   0.251098  -0.319015
   33  O  3  S   -0.017090  -0.015358   0.000066   0.196276  -0.289265
   34  O  3  X    0.001532   0.001343  -0.001340   0.137757  -0.124087
   35  O  3  Y   -0.000652  -0.000606   0.000619  -0.045130   0.063965
   36  O  3  Z    0.000000   0.000000   0.000000   0.000000   0.000000
   37  O  3  X   -0.004165  -0.004969  -0.001008   0.046077  -0.047697
   38  O  3  Y    0.003181   0.000993   0.001048  -0.014082   0.024744
   39  O  3  Z    0.000000   0.000000   0.000000   0.000000   0.000000
   40  O  3 XX    0.000209  -0.000243  -0.001165   0.014910  -0.006495
   41  O  3 YY   -0.000313   0.000322   0.000247  -0.007187   0.001260
   42  O  3 ZZ    0.000104  -0.000079   0.000918  -0.007723   0.005235
   43  O  3 XY    0.000191  -0.000215   0.001323  -0.009105   0.011033
   44  O  3 XZ    0.000000   0.000000   0.000000   0.000000   0.000000
   45  O  3 YZ    0.000000   0.000000   0.000000   0.000000   0.000000

                      6          7          8          9         10
                   -0.5770    -0.5047    -0.4908    -0.4687    -0.3305
                     A          A          A          A          A   
    1  N  1  S    0.138898   0.000000  -0.000000   0.050752   0.000000
    2  N  1  S   -0.355109   0.000000   0.000000  -0.103279   0.000000
    3  N  1  S   -0.241879   0.000000  -0.000001  -0.180439   0.000000
    4  N  1  X    0.000000   0.000000   0.364316  -0.000000   0.000000
    5  N  1  Y    0.002673   0.000000   0.000000   0.454677   0.000000
    6  N  1  Z    0.000000   0.483285   0.000000   0.000000   0.000000
    7  N  1  X    0.000003   0.000000   0.030740   0.000002   0.000000
    8  N  1  Y    0.012577   0.000000  -0.000000   0.200239   0.000000
    9  N  1  Z    0.000000   0.228999   0.000000   0.000000  -0.000000
   10  N  1 XX    0.004943   0.000000  -0.000000  -0.030233   0.000000
   11  N  1 YY    0.000363   0.000000   0.000000   0.035866   0.000000
   12  N  1 ZZ   -0.005306   0.000000   0.000000  -0.005633   0.000000
   13  N  1 XY    0.000000   0.000000   0.006914   0.000000   0.000000
   14  N  1 XZ    0.000000   0.000000   0.000000   0.000000   0.051711
   15  N  1 YZ    0.000000   0.025217   0.000000   0.000000  -0.000000
   16  O  2  S   -0.127200   0.000000   0.086795   0.014740   0.000000
   17  O  2  S    0.269232   0.000000  -0.182270  -0.028291   0.000000
   18  O  2  S    0.366765   0.000000  -0.247395  -0.051701   0.000000
   19  O  2  X    0.225414   0.000000  -0.314854  -0.202122   0.000000
   20  O  2  Y    0.106798   0.000000  -0.197661   0.246717   0.000000
   21  O  2  Z    0.000000   0.314353   0.000000   0.000000   0.493038
   22  O  2  X    0.102697   0.000000  -0.173141  -0.111477   0.000000
   23  O  2  Y    0.051582   0.000000  -0.108647   0.128211   0.000000
   24  O  2  Z    0.000000   0.158277   0.000000   0.000000   0.327683
   25  O  2 XX   -0.012277   0.000000   0.011132   0.020849   0.000000
   26  O  2 YY    0.003388   0.000000  -0.000555  -0.016669   0.000000
   27  O  2 ZZ    0.008889   0.000000  -0.010576  -0.004181   0.000000
   28  O  2 XY   -0.010815   0.000000   0.016047  -0.013267   0.000000
   29  O  2 XZ    0.000000  -0.026587   0.000000   0.000000  -0.017642
   30  O  2 YZ    0.000000  -0.010628   0.000000   0.000000  -0.007904
   31  O  3  S   -0.127200   0.000000  -0.086795   0.014740   0.000000
   32  O  3  S    0.269232   0.000000   0.182269  -0.028292   0.000000
   33  O  3  S    0.366769   0.000000   0.247395  -0.051698   0.000000
   34  O  3  X   -0.225415   0.000000  -0.314853   0.202123   0.000000
   35  O  3  Y    0.106799   0.000000   0.197661   0.246717   0.000000
   36  O  3  Z    0.000000   0.314353   0.000000   0.000000  -0.493038
   37  O  3  X   -0.102696   0.000000  -0.173139   0.111479   0.000000
   38  O  3  Y    0.051581   0.000000   0.108647   0.128210   0.000000
   39  O  3  Z    0.000000   0.158278   0.000000   0.000000  -0.327683
   40  O  3 XX   -0.012277   0.000000  -0.011132   0.020849   0.000000
   41  O  3 YY    0.003388   0.000000   0.000555  -0.016669   0.000000
   42  O  3 ZZ    0.008889   0.000000   0.010576  -0.004181   0.000000
   43  O  3 XY    0.010815   0.000000   0.016047   0.013267   0.000000
   44  O  3 XZ    0.000000   0.026587   0.000000   0.000000  -0.017642
   45  O  3 YZ    0.000000  -0.010628   0.000000   0.000000   0.007904

                     11         12         13         14         15
                   -0.2923    -0.2127    -0.1346     0.1574     0.2834
                     A          A          A          A          A   
    1  N  1  S   -0.000000  -0.080713   0.000000  -0.128474  -0.000001
    2  N  1  S   -0.000001   0.149519   0.000000   0.260168  -0.000002
    3  N  1  S    0.000008   0.578793   0.000000   1.916259   0.000008
    4  N  1  X   -0.004757   0.000000   0.000000   0.000001   0.505858
    5  N  1  Y   -0.000000  -0.417883   0.000000   0.437374   0.000002
    6  N  1  Z    0.000000   0.000000   0.579956   0.000000   0.000000
    7  N  1  X    0.084129  -0.000001   0.000000  -0.000031   2.250974
    8  N  1  Y    0.000003  -0.238272   0.000000   0.871681   0.000005
    9  N  1  Z    0.000000   0.000000   0.493747   0.000000   0.000000
   10  N  1 XX    0.000000  -0.043726   0.000000  -0.063413  -0.000001
   11  N  1 YY   -0.000000   0.026888   0.000000   0.013150   0.000000
   12  N  1 ZZ   -0.000000   0.016838   0.000000   0.050263   0.000001
   13  N  1 XY   -0.044420   0.000000   0.000000  -0.000000  -0.041654
   14  N  1 XZ    0.000000   0.000000  -0.000000   0.000000   0.000000
   15  N  1 YZ    0.000000   0.000000  -0.015987   0.000000   0.000000
   16  O  2  S    0.004241   0.020403   0.000000   0.084732   0.094403
   17  O  2  S   -0.008037  -0.059948   0.000000  -0.193165  -0.179988
   18  O  2  S   -0.057043  -0.099627   0.000000  -0.878118  -1.507251
   19  O  2  X    0.283537   0.051623   0.000000   0.394093   0.111482
   20  O  2  Y   -0.413364   0.415546   0.000000   0.000896   0.217423
   21  O  2  Z    0.000000   0.000000  -0.402895   0.000000   0.000000
   22  O  2  X    0.200422   0.044226   0.000000   0.737635   0.705193
   23  O  2  Y   -0.262319   0.329632   0.000000   0.039630   0.572962
   24  O  2  Z    0.000000   0.000000  -0.367913   0.000000   0.000000
   25  O  2 XX   -0.013188  -0.004459   0.000000   0.019422  -0.004977
   26  O  2 YY    0.012933   0.002998   0.000000  -0.020564   0.011333
   27  O  2 ZZ    0.000255   0.001460   0.000000   0.001141  -0.006356
   28  O  2 XY    0.012245  -0.003434   0.000000  -0.004855   0.012280
   29  O  2 XZ    0.000000   0.000000  -0.008871   0.000000   0.000000
   30  O  2 YZ    0.000000   0.000000  -0.006387   0.000000   0.000000
   31  O  3  S   -0.004241   0.020403   0.000000   0.084734  -0.094401
   32  O  3  S    0.008038  -0.059948   0.000000  -0.193168   0.179977
   33  O  3  S    0.057034  -0.099629   0.000000  -0.878157   1.507251
   34  O  3  X    0.283537  -0.051624   0.000000  -0.394095   0.111474
   35  O  3  Y    0.413365   0.415545   0.000000   0.000898  -0.217423
   36  O  3  Z    0.000000   0.000000  -0.402895   0.000000   0.000000
   37  O  3  X    0.200417  -0.044226   0.000000  -0.737647   0.705191
   38  O  3  Y    0.262319   0.329633   0.000000   0.039644  -0.572965
   39  O  3  Z    0.000000   0.000000  -0.367913   0.000000   0.000000
   40  O  3 XX    0.013188  -0.004459   0.000000   0.019422   0.004978
   41  O  3 YY   -0.012933   0.002998   0.000000  -0.020564  -0.011334
   42  O  3 ZZ   -0.000255   0.001460   0.000000   0.001142   0.006355
   43  O  3 XY    0.012245   0.003434   0.000000   0.004856   0.012280
   44  O  3 XZ    0.000000   0.000000   0.008871   0.000000   0.000000
   45  O  3 YZ    0.000000   0.000000  -0.006387   0.000000   0.000000

                     16         17         18         19         20
                    0.4949     0.5126     0.5222     0.5753     0.6631
                     A          A          A          A          A   
    1  N  1  S   -0.016053  -0.000002   0.000000   0.115976  -0.018594
    2  N  1  S    0.018816   0.000011   0.000000  -1.322484   0.462277
    3  N  1  S    1.221554   0.000008   0.000000   2.705779   1.106340
    4  N  1  X    0.000042  -0.862346   0.000000  -0.000007  -0.000006
    5  N  1  Y   -0.774980  -0.000038   0.000000   0.167706   0.107232
    6  N  1  Z    0.000000   0.000000  -0.813765   0.000000   0.000000
    7  N  1  X   -0.000089   1.880956   0.000000   0.000017   0.000017
    8  N  1  Y    1.538647   0.000064   0.000000   0.222194   0.406926
    9  N  1  Z    0.000000   0.000000   1.146782   0.000000   0.000000
   10  N  1 XX    0.103832   0.000001   0.000000   0.064115   0.120364
   11  N  1 YY   -0.071673  -0.000002   0.000000  -0.032365  -0.025945
   12  N  1 ZZ   -0.032159   0.000001   0.000000  -0.031750  -0.094419
   13  N  1 XY   -0.000004   0.097018   0.000000   0.000002   0.000001
   14  N  1 XZ    0.000000   0.000000   0.000000   0.000000   0.000000
   15  N  1 YZ    0.000000   0.000000  -0.038485   0.000000   0.000000
   16  O  2  S    0.018305   0.000901   0.000000   0.042639   0.024868
   17  O  2  S    0.008095   0.034116   0.000000  -0.198966   0.045776
   18  O  2  S   -0.749977  -0.954233   0.000000  -0.634272  -0.607911
   19  O  2  X   -0.099795  -0.320109   0.000000  -0.215620  -0.519790
   20  O  2  Y   -0.222623  -0.055763   0.000000  -0.177532   0.154975
   21  O  2  Z    0.000000   0.000000  -0.241286   0.000000   0.000000
   22  O  2  X    0.511918   0.234638   0.000000   0.557526   1.083073
   23  O  2  Y    0.056615   0.201554   0.000000   0.300200   0.028716
   24  O  2  Z    0.000000   0.000000  -0.040763   0.000000   0.000000
   25  O  2 XX   -0.064834  -0.064340   0.000000  -0.071484   0.006178
   26  O  2 YY    0.032460   0.014430   0.000000   0.016742  -0.003548
   27  O  2 ZZ    0.032375   0.049910   0.000000   0.054741  -0.002629
   28  O  2 XY   -0.007497  -0.080811   0.000000  -0.071396   0.024241
   29  O  2 XZ    0.000000   0.000000   0.036314   0.000000   0.000000
   30  O  2 YZ    0.000000   0.000000   0.013996   0.000000   0.000000
   31  O  3  S    0.018306  -0.000899   0.000000   0.042639   0.024867
   32  O  3  S    0.008094  -0.034127   0.000000  -0.198972   0.045779
   33  O  3  S   -0.750062   0.954210   0.000000  -0.634247  -0.607894
   34  O  3  X    0.099821  -0.320117   0.000000   0.215608   0.519777
   35  O  3  Y   -0.222628   0.055742   0.000000  -0.177529   0.154973
   36  O  3  Z    0.000000   0.000000  -0.241286   0.000000   0.000000
   37  O  3  X   -0.511932   0.234628   0.000000  -0.557510  -1.083055
   38  O  3  Y    0.056633  -0.201558   0.000000   0.300193   0.028714
   39  O  3  Z    0.000000   0.000000  -0.040763   0.000000   0.000000
   40  O  3 XX   -0.064840   0.064337   0.000000  -0.071482   0.006179
   41  O  3 YY    0.032461  -0.014428   0.000000   0.016742  -0.003549
   42  O  3 ZZ    0.032379  -0.049909   0.000000   0.054740  -0.002630
   43  O  3 XY    0.007505  -0.080812   0.000000   0.071394  -0.024243
   44  O  3 XZ    0.000000   0.000000  -0.036314   0.000000   0.000000
   45  O  3 YZ    0.000000   0.000000   0.013996   0.000000   0.000000

                     21         22         23         24         25
                    0.7040     0.7497     0.7568     0.7948     0.8272
                     A          A          A          A          A   
    1  N  1  S   -0.000000   0.000000   0.015917   0.000000   0.000000
    2  N  1  S   -0.000000   0.000000  -0.531803   0.000000  -0.000000
    3  N  1  S   -0.000009   0.000000   0.530922   0.000000  -0.000001
    4  N  1  X    0.095362   0.000000   0.000000   0.000000  -0.148725
    5  N  1  Y   -0.000001   0.000000  -0.240522   0.000000  -0.000002
    6  N  1  Z    0.000000   0.000000   0.000000  -0.281325   0.000000
    7  N  1  X    0.266669   0.000000  -0.000004   0.000000   0.932362
    8  N  1  Y    0.000003   0.000000   1.054482   0.000000   0.000005
    9  N  1  Z    0.000000  -0.000001   0.000000   1.124017   0.000000
   10  N  1 XX   -0.000001   0.000000  -0.109268   0.000000  -0.000001
   11  N  1 YY    0.000000   0.000000   0.021117   0.000000   0.000000
   12  N  1 ZZ    0.000001   0.000000   0.088151   0.000000   0.000001
   13  N  1 XY    0.112765   0.000000   0.000000   0.000000  -0.141690
   14  N  1 XZ    0.000000   0.059802   0.000000   0.000000   0.000000
   15  N  1 YZ    0.000000  -0.000000   0.000000  -0.025395   0.000000
   16  O  2  S    0.032231   0.000000  -0.000852   0.000000  -0.001874
   17  O  2  S   -0.101275   0.000000  -0.040726   0.000000  -0.000287
   18  O  2  S   -0.236552   0.000000  -0.238618   0.000000  -0.387921
   19  O  2  X   -0.333312   0.000000  -0.047617   0.000000   0.394671
   20  O  2  Y   -0.488417   0.000000   0.508718   0.000000  -0.392732
   21  O  2  Z    0.000000   0.628363   0.000000   0.576019   0.000000
   22  O  2  X    0.692567   0.000000   0.105474   0.000000  -0.618535
   23  O  2  Y    0.675183   0.000000  -0.932935   0.000000   0.713677
   24  O  2  Z    0.000000  -0.803542   0.000000  -1.047187   0.000000
   25  O  2 XX    0.011437   0.000000  -0.023013   0.000000  -0.064027
   26  O  2 YY   -0.009492   0.000000  -0.017402   0.000000   0.044847
   27  O  2 ZZ   -0.001945   0.000000   0.040415   0.000000   0.019179
   28  O  2 XY    0.003817   0.000000  -0.037268   0.000000   0.031776
   29  O  2 XZ    0.000000  -0.024453   0.000000  -0.014285   0.000000
   30  O  2 YZ    0.000000  -0.001237   0.000000  -0.028443   0.000000
   31  O  3  S   -0.032231   0.000000  -0.000851   0.000000   0.001875
   32  O  3  S    0.101279   0.000000  -0.040733   0.000000   0.000272
   33  O  3  S    0.236554   0.000000  -0.238617   0.000000   0.387934
   34  O  3  X   -0.333317   0.000000   0.047619   0.000000   0.394679
   35  O  3  Y    0.488427   0.000000   0.508709   0.000000   0.392734
   36  O  3  Z    0.000000  -0.628364   0.000000   0.576018   0.000000
   37  O  3  X    0.692577   0.000000  -0.105479   0.000000  -0.618543
   38  O  3  Y   -0.675199   0.000000  -0.932922   0.000000  -0.713683
   39  O  3  Z    0.000000   0.803544   0.000000  -1.047186   0.000000
   40  O  3 XX   -0.011436   0.000000  -0.023013   0.000000   0.064027
   41  O  3 YY    0.009491   0.000000  -0.017402   0.000000  -0.044848
   42  O  3 ZZ    0.001945   0.000000   0.040414   0.000000  -0.019180
   43  O  3 XY    0.003817   0.000000   0.037267   0.000000   0.031776
   44  O  3 XZ    0.000000  -0.024453   0.000000   0.014285   0.000000
   45  O  3 YZ    0.000000   0.001237   0.000000  -0.028443   0.000000

                     26         27         28         29         30
                    1.4659     1.4757     1.5466     1.6100     1.6150
                     A          A          A          A          A   
    1  N  1  S    0.000000   0.006712   0.000000   0.012544  -0.000001
    2  N  1  S    0.000000  -0.395170   0.000000  -0.417926   0.000045
    3  N  1  S    0.000000   2.765300   0.000000   3.115772  -0.000339
    4  N  1  X    0.000000  -0.000002   0.000000   0.000000   0.022733
    5  N  1  Y    0.000000   0.128261   0.000000  -0.103429   0.000010
    6  N  1  Z    0.000000   0.000000  -0.136591   0.000000   0.000000
    7  N  1  X    0.000000  -0.000007   0.000000  -0.000272  -2.552319
    8  N  1  Y    0.000000   0.740348   0.000000   1.017729  -0.000109
    9  N  1  Z    0.000000   0.000000   0.154648   0.000000   0.000000
   10  N  1 XX    0.000000   0.197098   0.000000  -0.136503   0.000012
   11  N  1 YY    0.000000  -0.602902   0.000000   0.462031  -0.000046
   12  N  1 ZZ    0.000000   0.405804   0.000000  -0.325528   0.000034
   13  N  1 XY    0.000000  -0.000004   0.000000  -0.000012  -0.066080
   14  N  1 XZ    0.681171   0.000000   0.000000   0.000000   0.000000
   15  N  1 YZ   -0.000000   0.000000   0.811614   0.000000   0.000000
   16  O  2  S    0.000000  -0.039366   0.000000  -0.049073   0.066107
   17  O  2  S    0.000000   0.854578   0.000000   0.990806  -1.342641
   18  O  2  S    0.000000  -1.986013   0.000000  -2.245508   3.104132
   19  O  2  X    0.000000   0.017481   0.000000  -0.041193   0.070347
   20  O  2  Y    0.000000   0.050689   0.000000  -0.075246   0.055331
   21  O  2  Z   -0.129787   0.000000  -0.040748   0.000000   0.000000
   22  O  2  X    0.000000   0.716054   0.000000   0.921205  -0.857952
   23  O  2  Y    0.000000   0.223697   0.000000   0.143806  -0.699012
   24  O  2  Z   -0.074277   0.000000  -0.114691   0.000000   0.000000
   25  O  2 XX    0.000000  -0.072863   0.000000   0.221963  -0.047410
   26  O  2 YY    0.000000  -0.074597   0.000000  -0.147559  -0.096843
   27  O  2 ZZ    0.000000   0.147460   0.000000  -0.074405   0.144253
   28  O  2 XY    0.000000   0.186527   0.000000  -0.168288  -0.140860
   29  O  2 XZ   -0.290790   0.000000  -0.285034   0.000000   0.000000
   30  O  2 YZ   -0.213311   0.000000   0.131814   0.000000   0.000000
   31  O  3  S    0.000000  -0.039367   0.000000  -0.049087  -0.066097
   32  O  3  S    0.000000   0.854590   0.000000   0.991092   1.342424
   33  O  3  S    0.000000  -1.986040   0.000000  -2.246174  -3.103640
   34  O  3  X    0.000000  -0.017483   0.000000   0.041204   0.070340
   35  O  3  Y    0.000000   0.050689   0.000000  -0.075258  -0.055316
   36  O  3  Z    0.129787   0.000000  -0.040748   0.000000   0.000000
   37  O  3  X    0.000000  -0.716063   0.000000  -0.921389  -0.857752
   38  O  3  Y    0.000000   0.223700   0.000000   0.143954   0.698979
   39  O  3  Z    0.074277   0.000000  -0.114691   0.000000   0.000000
   40  O  3 XX    0.000000  -0.072858   0.000000   0.221980   0.047361
   41  O  3 YY    0.000000  -0.074600   0.000000  -0.147544   0.096875
   42  O  3 ZZ    0.000000   0.147458   0.000000  -0.074436  -0.144236
   43  O  3 XY    0.000000  -0.186527   0.000000   0.168260  -0.140892
   44  O  3 XZ   -0.290790   0.000000   0.285034   0.000000   0.000000
   45  O  3 YZ    0.213311   0.000000   0.131814   0.000000   0.000000

                     31         32         33         34         35
                    1.8606     2.0112     2.0277     2.0517     2.0785
                     A          A          A          A          A   
    1  N  1  S    0.000000  -0.011864   0.000000   0.000000   0.000000
    2  N  1  S   -0.000004  -0.450261   0.000000   0.000007   0.000000
    3  N  1  S    0.000019   2.082109   0.000000  -0.000031   0.000000
    4  N  1  X    0.118152   0.000001   0.000000  -0.063591   0.000000
    5  N  1  Y   -0.000002   0.092226   0.000000  -0.000000   0.000000
    6  N  1  Z    0.000000   0.000000   0.000000   0.000000   0.098997
    7  N  1  X    1.625881   0.000006   0.000000  -0.271590   0.000000
    8  N  1  Y    0.000005   0.855121   0.000000  -0.000012   0.000000
    9  N  1  Z    0.000000   0.000000  -0.000000   0.000000   0.159213
   10  N  1 XX   -0.000004   0.481206   0.000000  -0.000005   0.000000
   11  N  1 YY    0.000001  -0.124727   0.000000   0.000002   0.000000
   12  N  1 ZZ    0.000003  -0.356480   0.000000   0.000003   0.000000
   13  N  1 XY    0.651847   0.000002   0.000000  -0.134688   0.000000
   14  N  1 XZ    0.000000   0.000000  -0.002480   0.000000  -0.000000
   15  N  1 YZ    0.000000   0.000000  -0.000000   0.000000  -0.194042
   16  O  2  S    0.018191   0.011116   0.000000  -0.010429   0.000000
   17  O  2  S    0.164926   0.220829   0.000000   0.070622   0.000000
   18  O  2  S   -1.345416  -1.226364   0.000000   0.117961   0.000000
   19  O  2  X    0.327542   0.167825   0.000000  -0.114180   0.000000
   20  O  2  Y   -0.020257   0.161818   0.000000   0.024358   0.000000
   21  O  2  Z    0.000000   0.000000   0.023775   0.000000   0.054806
   22  O  2  X    0.155746   0.483183   0.000000   0.067490   0.000000
   23  O  2  Y    0.376961  -0.062563   0.000000  -0.099464   0.000000
   24  O  2  Z    0.000000   0.000000  -0.031277   0.000000  -0.115368
   25  O  2 XX    0.258421  -0.026710   0.000000  -0.240156   0.000000
   26  O  2 YY   -0.444332   0.521384   0.000000  -0.313841   0.000000
   27  O  2 ZZ    0.185911  -0.494674   0.000000   0.553997   0.000000
   28  O  2 XY   -0.146912   0.026354   0.000000   0.422962   0.000000
   29  O  2 XZ    0.000000   0.000000   0.392753   0.000000   0.036373
   30  O  2 YZ    0.000000   0.000000  -0.588399   0.000000   0.700314
   31  O  3  S   -0.018192   0.011116   0.000000   0.010429   0.000000
   32  O  3  S   -0.164909   0.220827   0.000000  -0.070632   0.000000
   33  O  3  S    1.345387  -1.226354   0.000000  -0.117924   0.000000
   34  O  3  X    0.327545  -0.167824   0.000000  -0.114177   0.000000
   35  O  3  Y    0.020254   0.161818   0.000000  -0.024362   0.000000
   36  O  3  Z    0.000000   0.000000  -0.023775   0.000000   0.054806
   37  O  3  X    0.155734  -0.483181   0.000000   0.067505   0.000000
   38  O  3  Y   -0.376957  -0.062565   0.000000   0.099465   0.000000
   39  O  3  Z    0.000000   0.000000   0.031277   0.000000  -0.115368
   40  O  3 XX   -0.258413  -0.026704   0.000000   0.240154   0.000000
   41  O  3 YY    0.444321   0.521396   0.000000   0.313829   0.000000
   42  O  3 ZZ   -0.185908  -0.494692   0.000000  -0.553983   0.000000
   43  O  3 XY   -0.146913  -0.026348   0.000000   0.422962   0.000000
   44  O  3 XZ    0.000000   0.000000   0.392753   0.000000  -0.036373
   45  O  3 YZ    0.000000   0.000000   0.588399   0.000000   0.700313

                     36         37         38         39         40
                    2.2974     2.5231     2.7239     2.8182     2.9012
                     A          A          A          A          A   
    1  N  1  S   -0.010681   0.000000   0.000000  -0.058690   0.000000
    2  N  1  S   -0.417078   0.000000  -0.000004   0.458372   0.000000
    3  N  1  S    1.116522   0.000000   0.000001   2.241722   0.000000
    4  N  1  X    0.000002   0.000000  -0.426258  -0.000002   0.000000
    5  N  1  Y    0.019001   0.000000  -0.000001   0.413352   0.000000
    6  N  1  Z    0.000000  -0.159357   0.000000   0.000000   0.000000
    7  N  1  X   -0.000001   0.000000  -0.593030   0.000013   0.000000
    8  N  1  Y    0.565308   0.000000   0.000001   0.913495   0.000000
    9  N  1  Z    0.000000  -0.474815   0.000000   0.000000  -0.000000
   10  N  1 XX    0.524411   0.000000   0.000000  -0.139955   0.000000
   11  N  1 YY    0.288241   0.000000  -0.000000   0.437260   0.000000
   12  N  1 ZZ   -0.812652   0.000000  -0.000000  -0.297305   0.000000
   13  N  1 XY    0.000001   0.000000   0.683954   0.000003   0.000000
   14  N  1 XZ    0.000000   0.000000   0.000000   0.000000   0.966495
   15  N  1 YZ    0.000000  -0.640039   0.000000   0.000000   0.000000
   16  O  2  S    0.024709   0.000000   0.023054  -0.000353   0.000000
   17  O  2  S   -0.106846   0.000000  -0.568002   0.582133   0.000000
   18  O  2  S   -0.512937   0.000000   1.015415  -1.705727   0.000000
   19  O  2  X    0.227655   0.000000   0.180863   0.019334   0.000000
   20  O  2  Y    0.141246   0.000000   0.063792  -0.007862   0.000000
   21  O  2  Z    0.000000  -0.035682   0.000000   0.000000  -0.057622
   22  O  2  X    0.151669   0.000000  -0.427505   0.920766   0.000000
   23  O  2  Y   -0.130150   0.000000  -0.400230   0.084771   0.000000
   24  O  2  Z    0.000000   0.320040   0.000000   0.000000  -0.201382
   25  O  2 XX   -0.074921   0.000000  -0.032559  -0.792657   0.000000
   26  O  2 YY   -0.231468   0.000000   0.311419   0.445441   0.000000
   27  O  2 ZZ    0.306389   0.000000  -0.278861   0.347217   0.000000
   28  O  2 XY    0.370615   0.000000   0.543980  -0.061613   0.000000
   29  O  2 XZ    0.000000  -0.708413   0.000000   0.000000   0.606632
   30  O  2 YZ    0.000000  -0.048335   0.000000   0.000000   0.378469
   31  O  3  S    0.024708   0.000000  -0.023054  -0.000353   0.000000
   32  O  3  S   -0.106845   0.000000   0.568001   0.582132   0.000000
   33  O  3  S   -0.512938   0.000000  -1.015413  -1.705710   0.000000
   34  O  3  X   -0.227654   0.000000   0.180863  -0.019331   0.000000
   35  O  3  Y    0.141246   0.000000  -0.063792  -0.007861   0.000000
   36  O  3  Z    0.000000  -0.035682   0.000000   0.000000   0.057622
   37  O  3  X   -0.151669   0.000000  -0.427503  -0.920766   0.000000
   38  O  3  Y   -0.130150   0.000000   0.400228   0.084766   0.000000
   39  O  3  Z    0.000000   0.320040   0.000000   0.000000   0.201382
   40  O  3 XX   -0.074918   0.000000   0.032563  -0.792660   0.000000
   41  O  3 YY   -0.231469   0.000000  -0.311421   0.445441   0.000000
   42  O  3 ZZ    0.306387   0.000000   0.278858   0.347219   0.000000
   43  O  3 XY   -0.370619   0.000000   0.543976   0.061615   0.000000
   44  O  3 XZ    0.000000   0.708413   0.000000   0.000000   0.606632
   45  O  3 YZ    0.000000  -0.048335   0.000000   0.000000  -0.378469

                     41         42
                    2.9602     3.1645
                     A          A   
    1  N  1  S   -0.000000  -0.086809
    2  N  1  S    0.000006   0.499286
    3  N  1  S   -0.000003   1.919102
    4  N  1  X    0.875149  -0.000004
    5  N  1  Y    0.000002   0.269849
    6  N  1  Z    0.000000   0.000000
    7  N  1  X    1.025805   0.000001
    8  N  1  Y   -0.000004   0.252332
    9  N  1  Z    0.000000   0.000000
   10  N  1 XX    0.000003   1.213874
   11  N  1 YY   -0.000003  -0.675720
   12  N  1 ZZ   -0.000000  -0.538154
   13  N  1 XY    0.895217  -0.000002
   14  N  1 XZ    0.000000   0.000000
   15  N  1 YZ    0.000000   0.000000
   16  O  2  S    0.026622   0.037916
   17  O  2  S    0.300937   0.128572
   18  O  2  S   -1.468898  -1.266874
   19  O  2  X    0.241226   0.297172
   20  O  2  Y    0.070618   0.199888
   21  O  2  Z    0.000000   0.000000
   22  O  2  X    0.680878   0.580120
   23  O  2  Y    0.278539   0.377489
   24  O  2  Z    0.000000   0.000000
   25  O  2 XX   -0.787642  -0.193619
   26  O  2 YY    0.425482  -0.140846
   27  O  2 ZZ    0.362160   0.334465
   28  O  2 XY   -0.318753  -0.756160
   29  O  2 XZ    0.000000   0.000000
   30  O  2 YZ    0.000000   0.000000
   31  O  3  S   -0.026622   0.037916
   32  O  3  S   -0.300938   0.128574
   33  O  3  S    1.468898  -1.266881
   34  O  3  X    0.241224  -0.297173
   35  O  3  Y   -0.070617   0.199889
   36  O  3  Z    0.000000   0.000000
   37  O  3  X    0.680878  -0.580126
   38  O  3  Y   -0.278535   0.377489
   39  O  3  Z    0.000000   0.000000
   40  O  3 XX    0.787640  -0.193626
   41  O  3 YY   -0.425483  -0.140842
   42  O  3 ZZ   -0.362157   0.334469
   43  O  3 XY   -0.318745   0.756163
   44  O  3 XZ    0.000000   0.000000
   45  O  3 YZ    0.000000   0.000000
 ...... END OF ROHF CALCULATION ......
 STEP CPU TIME =     3.44 TOTAL CPU TIME =          3.5 (      0.1 MIN)
 TOTAL WALL CLOCK TIME=          3.6 SECONDS, CPU UTILIZATION IS    98.61%

     ---------------------------------------------------------------------
     PROPERTIES FOR THE PBE      DFT FUNCTIONAL (ROHF TYPE) DENSITY MATRIX
     ---------------------------------------------------------------------

          -----------------
          ENERGY COMPONENTS
          -----------------

         WAVEFUNCTION NORMALIZATION =       1.0000000000

                ONE ELECTRON ENERGY =    -408.3784558233
                TWO ELECTRON ENERGY =     138.6862296261
           NUCLEAR REPULSION ENERGY =      64.8367196565
                                      ------------------
                       TOTAL ENERGY =    -204.8555065407

 ELECTRON-ELECTRON POTENTIAL ENERGY =     138.6862296261
  NUCLEUS-ELECTRON POTENTIAL ENERGY =    -612.8394988741
   NUCLEUS-NUCLEUS POTENTIAL ENERGY =      64.8367196565
                                      ------------------
             TOTAL POTENTIAL ENERGY =    -409.3165495915
               TOTAL KINETIC ENERGY =     204.4610430508
                 VIRIAL RATIO (V/T) =       2.0019292843

          ---------------------------------------
          MULLIKEN AND LOWDIN POPULATION ANALYSES
          ---------------------------------------

     ATOMIC MULLIKEN POPULATION IN EACH MOLECULAR ORBITAL

                      1          2          3          4          5

                  2.000000   2.000000   2.000000   2.000000   2.000000

    1             0.002730   0.002755   2.001201   0.791672   0.475849
    2             0.997264   0.999994  -0.000600   0.604156   0.762082
    3             1.000006   0.997252  -0.000600   0.604172   0.762069

                      6          7          8          9         10

                  2.000000   2.000000   2.000000   2.000000   2.000000

    1             0.413048   1.042203   0.332221   1.013156   0.034465
    2             0.793474   0.478898   0.833891   0.493422   0.982768
    3             0.793478   0.478899   0.833887   0.493423   0.982767

                     11         12

                  2.000000   1.000000

    1             0.059183   0.442727
    2             0.970409   0.278637
    3             0.970408   0.278636

          MULLIKEN SPHERICAL HARMONIC POPULATIONS
       ATOM           S       P       D      F      G      H      I    TOTAL
    1 N             1.81    1.65    0.07   0.00   0.00   0.00   0.00    3.53
    2 O             1.94    2.28    0.02   0.00   0.00   0.00   0.00    4.24
    3 O             1.94    2.28    0.02   0.00   0.00   0.00   0.00    4.24

          MULLIKEN SPHERICAL HARMONIC POPULATIONS
       ATOM           S       P       D      F      G      H      I    TOTAL
    1 N             1.62    1.41    0.05   0.00   0.00   0.00   0.00    3.08
    2 O             1.94    2.00    0.02   0.00   0.00   0.00   0.00    3.96
    3 O             1.94    2.00    0.02   0.00   0.00   0.00   0.00    3.96

     ATOMIC SPIN POPULATION (ALPHA MINUS BETA)
       ATOM         MULL.POP.                    LOW.POP.
    1 N             0.442727                     0.411134
    2 O             0.278637                     0.294433
    3 O             0.278636                     0.294433

               ----- POPULATIONS IN EACH AO -----
                             MULLIKEN      LOWDIN
              1  N  1  S      1.99428     1.96958
              2  N  1  S      0.91891     0.53384
              3  N  1  S      0.51592     0.36479
              4  N  1  X      0.77958     0.69897
              5  N  1  Y      0.88237     0.82905
              6  N  1  Z      0.69087     0.62200
              7  N  1  X      0.04932     0.28023
              8  N  1  Y      0.31429     0.42479
              9  N  1  Z      0.34622     0.38982
             10  N  1 XX      0.00751     0.24391
             11  N  1 YY      0.03128     0.16316
             12  N  1 ZZ      0.04108     0.14437
             13  N  1 XY      0.03446     0.08157
             14  N  1 XZ      0.00510     0.06732
             15  N  1 YZ      0.00000     0.00563
             16  O  2  S      1.99542     1.97195
             17  O  2  S      0.94933     0.67834
             18  O  2  S      0.93221     0.49806
             19  O  2  X      0.90569     0.85007
             20  O  2  Y      1.01081     0.97093
             21  O  2  Z      0.93117     0.88544
             22  O  2  X      0.39120     0.48038
             23  O  2  Y      0.52480     0.57112
             24  O  2  Z      0.52068     0.55855
             25  O  2 XX      0.00367     0.20769
             26  O  2 YY      0.00992     0.19269
             27  O  2 ZZ      0.00969     0.19367
             28  O  2 XY      0.00833     0.01797
             29  O  2 XZ      0.00148     0.01161
             30  O  2 YZ      0.00000     0.00202
             31  O  3  S      1.99542     1.97195
             32  O  3  S      0.94933     0.67834
             33  O  3  S      0.93221     0.49806
             34  O  3  X      0.90569     0.85007
             35  O  3  Y      1.01081     0.97093
             36  O  3  Z      0.93117     0.88544
             37  O  3  X      0.39119     0.48038
             38  O  3  Y      0.52480     0.57112
             39  O  3  Z      0.52068     0.55855
             40  O  3 XX      0.00367     0.20769
             41  O  3 YY      0.00992     0.19269
             42  O  3 ZZ      0.00969     0.19367
             43  O  3 XY      0.00833     0.01797
             44  O  3 XZ      0.00148     0.01161
             45  O  3 YZ      0.00000     0.00202

          ----- MULLIKEN ATOMIC OVERLAP POPULATIONS -----
          (OFF-DIAGONAL ELEMENTS NEED TO BE MULTIPLIED BY 2)

             1           2           3

    1    5.9956755
    2    0.3077612   7.9886451
    3    0.3077719  -0.1020110   7.9886352

          TOTAL MULLIKEN AND LOWDIN ATOMIC POPULATIONS
       ATOM         MULL.POP.    CHARGE          LOW.POP.     CHARGE
    1 N             6.611209    0.388791         6.819016    0.180984
    2 O             8.194395   -0.194395         8.090492   -0.090492
    3 O             8.194396   -0.194396         8.090492   -0.090492

          MULLIKEN SPHERICAL HARMONIC POPULATIONS
       ATOM           S       P       D      F      G      H      I    TOTAL
    1 N             3.43    3.06    0.12   0.00   0.00   0.00   0.00    6.61
    2 O             3.88    4.28    0.03   0.00   0.00   0.00   0.00    8.19
    3 O             3.88    4.28    0.03   0.00   0.00   0.00   0.00    8.19

          -------------------------------
          BOND ORDER AND VALENCE ANALYSIS     BOND ORDER THRESHOLD=0.050
          -------------------------------

                   BOND                       BOND                       BOND
  ATOM PAIR DIST  ORDER      ATOM PAIR DIST  ORDER      ATOM PAIR DIST  ORDER
    1   2  1.200  1.745        1   3  1.200  1.745        2   3  2.193  0.376

                       TOTAL       BONDED        FREE
      ATOM            VALENCE     VALENCE     VALENCE
    1 N                 3.685       3.489       0.196
    2 O                 2.198       2.120       0.078
    3 O                 2.198       2.120       0.078

          -----------------------------------------
          ATOMIC SPIN DENSITY AT THE NUCLEUS (A.U.)
          -----------------------------------------
                            SPIN DENS    ALPHA DENS     BETA DENS
    1  N            7.0     0.4906203      93.29870      92.80808
    2  O            8.0     0.0510649     141.57933     141.52827
    3  O            8.0     0.0510654     141.57933     141.52826

          ---------------------
          ELECTROSTATIC MOMENTS
          ---------------------

 POINT   1           X           Y           Z (BOHR)    CHARGE
                 0.000000    0.000000    0.000000       -0.00 (A.U.)
         DX          DY          DZ         /D/  (DEBYE)
    -0.000005   -0.292304    0.000000    0.292304
 ...... END OF PROPERTY EVALUATION ......
 STEP CPU TIME =     0.00 TOTAL CPU TIME =          3.5 (      0.1 MIN)
 TOTAL WALL CLOCK TIME=          3.6 SECONDS, CPU UTILIZATION IS    98.34%

 BEGINNING ONE ELECTRON GRADIENT...
 ..... END OF 1-ELECTRON GRADIENT ......
 STEP CPU TIME =     0.01 TOTAL CPU TIME =          3.6 (      0.1 MIN)
 TOTAL WALL CLOCK TIME=          3.6 SECONDS, CPU UTILIZATION IS    98.34%

          ----------------------
          GRADIENT OF THE ENERGY
          ----------------------
 MEMORY FOR GRID POINT CONTRIBUTIONS TO THE DFT GRADIENT=    144181 WORDS.
 STEP CPU TIME =     0.47 TOTAL CPU TIME =          4.0 (      0.1 MIN)
 TOTAL WALL CLOCK TIME=          4.1 SECONDS, CPU UTILIZATION IS    98.53%

 THE MINIMUM MEMORY REQUIRED FOR THIS RUN IS      82364 WORDS.
 USING     996914 WORDS FOR 2E- DERIVATIVE INTEGRAL CONTRIBUTIONS.
 THE COARSE/FINE SCHWARZ SCREENINGS SKIPPED            0/           0 BLOCKS.
 THE NUMBER OF GRADIENT INTEGRAL BLOCKS COMPUTED WAS     13901
 ...... END OF 2-ELECTRON GRADIENT ......
 STEP CPU TIME =     0.09 TOTAL CPU TIME =          4.1 (      0.1 MIN)
 TOTAL WALL CLOCK TIME=          4.2 SECONDS, CPU UTILIZATION IS    98.33%

          NSERCH=  0     ENERGY=    -204.8555065

                                 -----------------------
                                 GRADIENT (HARTREE/BOHR)
                                 -----------------------
        ATOM     ZNUC       DE/DX         DE/DY         DE/DZ
 --------------------------------------------------------------
    1  N            7.0    -0.0000004     0.0040683     0.0000000
    2  O            8.0    -0.0197354    -0.0020341     0.0000000
    3  O            8.0     0.0197358    -0.0020343     0.0000000

          MAXIMUM GRADIENT = 0.0197358    RMS GRADIENT = 0.0094505

 NSERCH:   0  E=     -204.8555065407  GRAD. MAX=  0.0197358  R.M.S.=  0.0094505

          FORCE CONSTANT MATRIX NOT UPDATED --- TAKING FIRST STEP
          MIN SEARCH, CORRECT HESSIAN, TRYING PURE NR STEP
               NR STEP HAS LENGTH         =   0.250073
          RADIUS OF STEP TAKEN=   0.25007  CURRENT TRUST RADIUS=   0.30000

 THE DETERMINANT OF THE G MATRIX IS 10**(    -4)
 * * * WARNING * * *
 YOUR B MATRIX HAS A SMALL DETERMINANT.
 THIS SUGGESTS YOU MAY HAVE BADLY CHOSEN COORDINATES.

 BEGINNING GEOMETRY SEARCH POINT NSERCH=   1 ...

 COORDINATES OF ALL ATOMS ARE (ANGS)
   ATOM   CHARGE       X              Y              Z
 ------------------------------------------------------------
 N           7.0   0.0000001798  -0.2573161502   0.0000000000
 O           8.0   1.1570221678   0.1075203075  -0.0000000000
 O           8.0  -1.1570223476   0.1075203876   0.0000000000

 THE CURRENT FULLY SUBSTITUTED Z-MATRIX IS
 N   
 O      1   1.2131799
 O      1   1.2131805  2   144.9974073

          INTERNUCLEAR DISTANCES (ANGS.)
          ------------------------------

                1 N          2 O          3 O     

   1 N       0.0000000    1.2131799 *  1.2131805 *
   2 O       1.2131799 *  0.0000000    2.3140445 *
   3 O       1.2131805 *  2.3140445 *  0.0000000  

  * ... LESS THAN  3.000

 ...... END OF ONE-ELECTRON INTEGRALS ......
 STEP CPU TIME =     0.00 TOTAL CPU TIME =          4.1 (      0.1 MIN)
 TOTAL WALL CLOCK TIME=          4.2 SECONDS, CPU UTILIZATION IS    98.33%
 TOTAL NUMBER OF NONZERO TWO-ELECTRON INTEGRALS =              244574
         17 INTEGRAL RECORDS WERE STORED ON DISK FILE  8.
  ...... END OF TWO-ELECTRON INTEGRALS .....
 STEP CPU TIME =     0.06 TOTAL CPU TIME =          4.2 (      0.1 MIN)
 TOTAL WALL CLOCK TIME=          4.2 SECONDS, CPU UTILIZATION IS    98.35%

          ---------------------------
               RO-PBE SCF CALCULATION
          ---------------------------
         DENSITY MATRIX CONVERGENCE THRESHOLD=  5.00E-05
     COARSE -> FINE DFT GRID SWITCH THRESHOLD=  1.50E-03 (SWITCH IN $DFT)
                   HF -> DFT SWITCH THRESHOLD=  5.00E-03 (SWOFF IN $DFT)

 DFT CODE IS SWITCHING FROM THE FINE GRID NRAD= 96,  NLEB=  302
                      TO THE COARSE GRID NRAD0= 24, NLEB0=  110

 ITER EX      TOTAL ENERGY        E CHANGE  DENSITY CHANGE    DIIS ERROR
          * * *   INITIATING DIIS PROCEDURE   * * *
   1  0     -204.8302384600  -204.8302384600   0.069176276   0.070372972
   2  1     -204.8469016888    -0.0166632288   0.051127290   0.019106300
   3  2     -204.8430947261     0.0038069627   0.036810543   0.041618835
   4  3     -204.8479746361    -0.0048799099   0.004467047   0.004717788
   5  4     -204.8480324671    -0.0000578311   0.000694575   0.000671718
 DFT CODE IS SWITCHING BACK TO THE FINE GRID
          * * *   INITIATING DIIS PROCEDURE   * * *
   6  5     -204.8497488727    -0.0017164055   0.001989680   0.001719495
   7  6     -204.8497512036    -0.0000023310   0.002146049   0.000676391
   8  7     -204.8497461405     0.0000050631   0.001624069   0.001357897
   9  8     -204.8497521113    -0.0000059708   0.000689431   0.000472383
  10  9     -204.8497528046    -0.0000006933   0.000206109   0.000257501
  11 10     -204.8497529862    -0.0000001816   0.000016390   0.000009947
  12 11     -204.8497529864    -0.0000000002   0.000000666   0.000001161
  13 12     -204.8497529864    -0.0000000000   0.000000098   0.000000241

          -----------------
          DENSITY CONVERGED
          -----------------
     TIME TO FORM FOCK OPERATORS=       3.0 SECONDS (       0.2 SEC/ITER)
     TIME TO SOLVE SCF EQUATIONS=       0.0 SECONDS (       0.0 SEC/ITER)

 FINAL RO-PBE ENERGY IS     -204.8497529864 AFTER  13 ITERATIONS
 DFT EXCHANGE + CORRELATION ENERGY =       -23.7061694543
 TOTAL ELECTRON NUMBER             =        22.9999995130

          --------------------
          SPIN SZ   =    0.500
          S-SQUARED =    0.750
          --------------------
 ...... END OF ROHF CALCULATION ......
 STEP CPU TIME =     3.01 TOTAL CPU TIME =          7.2 (      0.1 MIN)
 TOTAL WALL CLOCK TIME=          7.3 SECONDS, CPU UTILIZATION IS    98.63%
 ..... END OF 1-ELECTRON GRADIENT ......
 STEP CPU TIME =     0.01 TOTAL CPU TIME =          7.2 (      0.1 MIN)
 TOTAL WALL CLOCK TIME=          7.3 SECONDS, CPU UTILIZATION IS    98.63%
 MEMORY FOR GRID POINT CONTRIBUTIONS TO THE DFT GRADIENT=    144181 WORDS.
 STEP CPU TIME =     0.43 TOTAL CPU TIME =          7.6 (      0.1 MIN)
 TOTAL WALL CLOCK TIME=          7.7 SECONDS, CPU UTILIZATION IS    98.71%
 ...... END OF 2-ELECTRON GRADIENT ......
 STEP CPU TIME =     0.09 TOTAL CPU TIME =          7.7 (      0.1 MIN)
 TOTAL WALL CLOCK TIME=          7.8 SECONDS, CPU UTILIZATION IS    98.72%

          NSERCH=  1     ENERGY=    -204.8497530

                                 -----------------------
                                 GRADIENT (HARTREE/BOHR)
                                 -----------------------
        ATOM     ZNUC       DE/DX         DE/DY         DE/DZ
 --------------------------------------------------------------
    1  N            7.0     0.0000002     0.0449907     0.0000000
    2  O            8.0     0.0170247    -0.0224954     0.0000000
    3  O            8.0    -0.0170249    -0.0224953     0.0000000

          MAXIMUM GRADIENT = 0.0449907    RMS GRADIENT = 0.0200442

 NSERCH:   1  E=     -204.8497529864  GRAD. MAX=  0.0449907  R.M.S.=  0.0200442

          HESSIAN UPDATED USING THE BFGS FORMULA
             ACTUAL ENERGY CHANGE WAS   0.0057535543
          PREDICTED ENERGY CHANGE WAS  -0.0017925561 RATIO= -3.210
          MIN SEARCH, CORRECT HESSIAN, TRYING PURE NR STEP
               NR STEP HAS LENGTH         =   0.208267
          TRIM/QA LAMBDA FOR NON-TS MODES =  -0.19075880
          TRIM/QA STEP HAS LENGTH         =   0.125037
          RADIUS OF STEP TAKEN=   0.12504  CURRENT TRUST RADIUS=   0.12504

 THE DETERMINANT OF THE G MATRIX IS 10**(    -4)
 * * * WARNING * * *
 YOUR B MATRIX HAS A SMALL DETERMINANT.
 THIS SUGGESTS YOU MAY HAVE BADLY CHOSEN COORDINATES.

 BEGINNING GEOMETRY SEARCH POINT NSERCH=   2 ...

 COORDINATES OF ALL ATOMS ARE (ANGS)
   ATOM   CHARGE       X              Y              Z
 ------------------------------------------------------------
 N           7.0   0.0000001805  -0.3051380915  -0.0000000000
 O           8.0   1.1352551431   0.1314312844   0.0000000000
 O           8.0  -1.1352553228   0.1314313520   0.0000000000

 THE CURRENT FULLY SUBSTITUTED Z-MATRIX IS
 N   
 O      1   1.2163045
 O      1   1.2163050  2   137.9308887

          INTERNUCLEAR DISTANCES (ANGS.)
          ------------------------------

                1 N          2 O          3 O     

   1 N       0.0000000    1.2163045 *  1.2163050 *
   2 O       1.2163045 *  0.0000000    2.2705105 *
   3 O       1.2163050 *  2.2705105 *  0.0000000  

  * ... LESS THAN  3.000

 ...... END OF ONE-ELECTRON INTEGRALS ......
 STEP CPU TIME =     0.00 TOTAL CPU TIME =          7.7 (      0.1 MIN)
 TOTAL WALL CLOCK TIME=          7.8 SECONDS, CPU UTILIZATION IS    98.72%
 TOTAL NUMBER OF NONZERO TWO-ELECTRON INTEGRALS =              245218
         17 INTEGRAL RECORDS WERE STORED ON DISK FILE  8.
  ...... END OF TWO-ELECTRON INTEGRALS .....
 STEP CPU TIME =     0.09 TOTAL CPU TIME =          7.8 (      0.1 MIN)
 TOTAL WALL CLOCK TIME=          7.9 SECONDS, CPU UTILIZATION IS    98.86%

          ---------------------------
               RO-PBE SCF CALCULATION
          ---------------------------
         DENSITY MATRIX CONVERGENCE THRESHOLD=  2.00E-04
     COARSE -> FINE DFT GRID SWITCH THRESHOLD=  6.00E-03 (SWITCH IN $DFT)
                   HF -> DFT SWITCH THRESHOLD=  5.00E-03 (SWOFF IN $DFT)

 DFT CODE IS SWITCHING FROM THE FINE GRID NRAD= 96,  NLEB=  302
                      TO THE COARSE GRID NRAD0= 24, NLEB0=  110

 ITER EX      TOTAL ENERGY        E CHANGE  DENSITY CHANGE    DIIS ERROR
          * * *   INITIATING DIIS PROCEDURE   * * *
   1  0     -204.8481183071  -204.8481183071   0.034726549   0.037898212
   2  1     -204.8528568850    -0.0047385779   0.028644683   0.010518636
   3  2     -204.8512774510     0.0015794340   0.021845229   0.028905344
   4  3     -204.8532592617    -0.0019818107   0.001141183   0.002342524
 DFT CODE IS SWITCHING BACK TO THE FINE GRID
          * * *   INITIATING DIIS PROCEDURE   * * *
   5  4     -204.8550071623    -0.0017479006   0.001995031   0.001841714
   6  5     -204.8550107508    -0.0000035884   0.000793368   0.000643876
   7  6     -204.8550114821    -0.0000007314   0.000860258   0.000391140
   8  7     -204.8550111955     0.0000002866   0.000600255   0.000415956
   9  8     -204.8550118189    -0.0000006233   0.000260011   0.000241491
  10  9     -204.8550120498    -0.0000002310   0.000019542   0.000014521
  11 10     -204.8550120504    -0.0000000006   0.000000907   0.000002334

          -----------------
          DENSITY CONVERGED
          -----------------
     TIME TO FORM FOCK OPERATORS=       2.5 SECONDS (       0.2 SEC/ITER)
     TIME TO SOLVE SCF EQUATIONS=       0.0 SECONDS (       0.0 SEC/ITER)

 FINAL RO-PBE ENERGY IS     -204.8550120504 AFTER  11 ITERATIONS
 DFT EXCHANGE + CORRELATION ENERGY =       -23.7040335981
 TOTAL ELECTRON NUMBER             =        22.9999997730

          --------------------
          SPIN SZ   =    0.500
          S-SQUARED =    0.750
          --------------------
 ...... END OF ROHF CALCULATION ......
 STEP CPU TIME =     2.49 TOTAL CPU TIME =         10.3 (      0.2 MIN)
 TOTAL WALL CLOCK TIME=         10.4 SECONDS, CPU UTILIZATION IS    98.75%
 ..... END OF 1-ELECTRON GRADIENT ......
 STEP CPU TIME =     0.00 TOTAL CPU TIME =         10.3 (      0.2 MIN)
 TOTAL WALL CLOCK TIME=         10.4 SECONDS, CPU UTILIZATION IS    98.75%
 MEMORY FOR GRID POINT CONTRIBUTIONS TO THE DFT GRADIENT=    144181 WORDS.
 STEP CPU TIME =     0.42 TOTAL CPU TIME =         10.7 (      0.2 MIN)
 TOTAL WALL CLOCK TIME=         10.9 SECONDS, CPU UTILIZATION IS    98.71%
 ...... END OF 2-ELECTRON GRADIENT ......
 STEP CPU TIME =     0.09 TOTAL CPU TIME =         10.8 (      0.2 MIN)
 TOTAL WALL CLOCK TIME=         10.9 SECONDS, CPU UTILIZATION IS    98.81%

          NSERCH=  2     ENERGY=    -204.8550121

                                 -----------------------
                                 GRADIENT (HARTREE/BOHR)
                                 -----------------------
        ATOM     ZNUC       DE/DX         DE/DY         DE/DZ
 --------------------------------------------------------------
    1  N            7.0     0.0000002     0.0121701     0.0000000
    2  O            8.0     0.0149864    -0.0060851     0.0000000
    3  O            8.0    -0.0149866    -0.0060850     0.0000000

          MAXIMUM GRADIENT = 0.0149866    RMS GRADIENT = 0.0086368

 NSERCH:   2  E=     -204.8550120504  GRAD. MAX=  0.0149866  R.M.S.=  0.0086368

          HESSIAN UPDATED USING THE BFGS FORMULA
             ACTUAL ENERGY CHANGE WAS  -0.0052590640
          PREDICTED ENERGY CHANGE WAS  -0.0052408394 RATIO=  1.003
          MIN SEARCH, CORRECT HESSIAN, TRYING PURE NR STEP
               NR STEP HAS LENGTH         =   0.102964
          RADIUS OF STEP TAKEN=   0.10296  CURRENT TRUST RADIUS=   0.25007

 THE DETERMINANT OF THE G MATRIX IS 10**(    -4)
 * * * WARNING * * *
 YOUR B MATRIX HAS A SMALL DETERMINANT.
 THIS SUGGESTS YOU MAY HAVE BADLY CHOSEN COORDINATES.

 BEGINNING GEOMETRY SEARCH POINT NSERCH=   3 ...

 COORDINATES OF ALL ATOMS ARE (ANGS)
   ATOM   CHARGE       X              Y              Z
 ------------------------------------------------------------
 N           7.0   0.0000000586  -0.3336755342  -0.0000000000
 O           8.0   1.1056986038   0.1457000334   0.0000000000
 O           8.0  -1.1056986611   0.1457000456   0.0000000000

 THE CURRENT FULLY SUBSTITUTED Z-MATRIX IS
 N   
 O      1   1.2051432
 O      1   1.2051434  2   133.1217190

          INTERNUCLEAR DISTANCES (ANGS.)
          ------------------------------

                1 N          2 O          3 O     

   1 N       0.0000000    1.2051432 *  1.2051434 *
   2 O       1.2051432 *  0.0000000    2.2113973 *
   3 O       1.2051434 *  2.2113973 *  0.0000000  

  * ... LESS THAN  3.000

 ...... END OF ONE-ELECTRON INTEGRALS ......
 STEP CPU TIME =     0.00 TOTAL CPU TIME =         10.8 (      0.2 MIN)
 TOTAL WALL CLOCK TIME=         10.9 SECONDS, CPU UTILIZATION IS    98.72%
 TOTAL NUMBER OF NONZERO TWO-ELECTRON INTEGRALS =              245574
         17 INTEGRAL RECORDS WERE STORED ON DISK FILE  8.
  ...... END OF TWO-ELECTRON INTEGRALS .....
 STEP CPU TIME =     0.04 TOTAL CPU TIME =         10.9 (      0.2 MIN)
 TOTAL WALL CLOCK TIME=         11.0 SECONDS, CPU UTILIZATION IS    98.73%

          ---------------------------
               RO-PBE SCF CALCULATION
          ---------------------------
         DENSITY MATRIX CONVERGENCE THRESHOLD=  5.00E-05
     COARSE -> FINE DFT GRID SWITCH THRESHOLD=  1.50E-03 (SWITCH IN $DFT)
                   HF -> DFT SWITCH THRESHOLD=  5.00E-03 (SWOFF IN $DFT)

 DFT CODE IS SWITCHING FROM THE FINE GRID NRAD= 96,  NLEB=  302
                      TO THE COARSE GRID NRAD0= 24, NLEB0=  110

 ITER EX      TOTAL ENERGY        E CHANGE  DENSITY CHANGE    DIIS ERROR
          * * *   INITIATING DIIS PROCEDURE   * * *
   1  0     -204.8518223047  -204.8518223047   0.027094918   0.022937612
   2  1     -204.8540465484    -0.0022242437   0.024694181   0.009103574
   3  2     -204.8532288257     0.0008177226   0.016566178   0.023799022
   4  3     -204.8543434049    -0.0011145791   0.001513143   0.002070433
   5  4     -204.8543524874    -0.0000090825   0.000213388   0.000233746
 DFT CODE IS SWITCHING BACK TO THE FINE GRID
          * * *   INITIATING DIIS PROCEDURE   * * *
   6  5     -204.8559616481    -0.0016091608   0.002118030   0.001895817
   7  6     -204.8559645014    -0.0000028532   0.001405548   0.000701850
   8  7     -204.8559639359     0.0000005655   0.001379000   0.000660540
   9  8     -204.8559645315    -0.0000005956   0.000893387   0.000707097
  10  9     -204.8559657254    -0.0000011939   0.000256577   0.000295722
  11 10     -204.8559660156    -0.0000002902   0.000012094   0.000009734
  12 11     -204.8559660158    -0.0000000002   0.000000703   0.000001896
  13 12     -204.8559660158    -0.0000000000   0.000000104   0.000000201

          -----------------
          DENSITY CONVERGED
          -----------------
     TIME TO FORM FOCK OPERATORS=       2.8 SECONDS (       0.2 SEC/ITER)
     TIME TO SOLVE SCF EQUATIONS=       0.0 SECONDS (       0.0 SEC/ITER)

 FINAL RO-PBE ENERGY IS     -204.8559660158 AFTER  13 ITERATIONS
 DFT EXCHANGE + CORRELATION ENERGY =       -23.7268564161
 TOTAL ELECTRON NUMBER             =        23.0000001783

          --------------------
          SPIN SZ   =    0.500
          S-SQUARED =    0.750
          --------------------
 ...... END OF ROHF CALCULATION ......
 STEP CPU TIME =     2.82 TOTAL CPU TIME =         13.7 (      0.2 MIN)
 TOTAL WALL CLOCK TIME=         13.8 SECONDS, CPU UTILIZATION IS    98.77%
 ..... END OF 1-ELECTRON GRADIENT ......
 STEP CPU TIME =     0.00 TOTAL CPU TIME =         13.7 (      0.2 MIN)
 TOTAL WALL CLOCK TIME=         13.8 SECONDS, CPU UTILIZATION IS    98.77%
 MEMORY FOR GRID POINT CONTRIBUTIONS TO THE DFT GRADIENT=    144181 WORDS.
 STEP CPU TIME =     0.44 TOTAL CPU TIME =         14.1 (      0.2 MIN)
 TOTAL WALL CLOCK TIME=         14.3 SECONDS, CPU UTILIZATION IS    98.81%
 ...... END OF 2-ELECTRON GRADIENT ......
 STEP CPU TIME =     0.09 TOTAL CPU TIME =         14.2 (      0.2 MIN)
 TOTAL WALL CLOCK TIME=         14.4 SECONDS, CPU UTILIZATION IS    98.82%

          NSERCH=  3     ENERGY=    -204.8559660

                                 -----------------------
                                 GRADIENT (HARTREE/BOHR)
                                 -----------------------
        ATOM     ZNUC       DE/DX         DE/DY         DE/DZ
 --------------------------------------------------------------
    1  N            7.0    -0.0000003     0.0029954     0.0000000
    2  O            8.0    -0.0093180    -0.0014977     0.0000000
    3  O            8.0     0.0093183    -0.0014978     0.0000000

          MAXIMUM GRADIENT = 0.0093183    RMS GRADIENT = 0.0045597

 NSERCH:   3  E=     -204.8559660158  GRAD. MAX=  0.0093183  R.M.S.=  0.0045597

          HESSIAN UPDATED USING THE BFGS FORMULA
             ACTUAL ENERGY CHANGE WAS  -0.0009539654
          PREDICTED ENERGY CHANGE WAS  -0.0013292827 RATIO=  0.718
          MIN SEARCH, CORRECT HESSIAN, TRYING PURE NR STEP
               NR STEP HAS LENGTH         =   0.022543
          RADIUS OF STEP TAKEN=   0.02254  CURRENT TRUST RADIUS=   0.10296

 THE DETERMINANT OF THE G MATRIX IS 10**(    -4)
 * * * WARNING * * *
 YOUR B MATRIX HAS A SMALL DETERMINANT.
 THIS SUGGESTS YOU MAY HAVE BADLY CHOSEN COORDINATES.

 BEGINNING GEOMETRY SEARCH POINT NSERCH=   4 ...

 COORDINATES OF ALL ATOMS ARE (ANGS)
   ATOM   CHARGE       X              Y              Z
 ------------------------------------------------------------
 N           7.0   0.0000001549  -0.3325699036  -0.0000000000
 O           8.0   1.1140794283   0.1451471972   0.0000000000
 O           8.0  -1.1140795818   0.1451472513   0.0000000000

[...]
   21  O  2  Z    0.000000  -0.314698   0.000000   0.000000   0.492686
   22  O  2  X    0.102951   0.000000  -0.176609   0.106972   0.000000
   23  O  2  Y    0.047636   0.000000  -0.104941  -0.132577   0.000000
   24  O  2  Z    0.000000  -0.159604   0.000000   0.000000   0.327248
   25  O  2 XX   -0.012599   0.000000   0.011691  -0.020171   0.000000
   26  O  2 YY    0.003782   0.000000  -0.001178   0.016198   0.000000
   27  O  2 ZZ    0.008817   0.000000  -0.010513   0.003973   0.000000
   28  O  2 XY   -0.010141   0.000000   0.015600   0.014111   0.000000
   29  O  2 XZ    0.000000   0.026441   0.000000   0.000000  -0.017560
   30  O  2 YZ    0.000000   0.010089   0.000000   0.000000  -0.007440
   31  O  3  S   -0.127694   0.000000  -0.086247  -0.012951   0.000000
   32  O  3  S    0.270639   0.000000   0.181348   0.024440   0.000000
   33  O  3  S    0.366987   0.000000   0.244484   0.047240   0.000000
   34  O  3  X   -0.226387   0.000000  -0.320127  -0.193868   0.000000
   35  O  3  Y    0.099019   0.000000   0.189707  -0.253100   0.000000
   36  O  3  Z    0.000000  -0.314698   0.000000   0.000000  -0.492686
   37  O  3  X   -0.102950   0.000000  -0.176608  -0.106974   0.000000
   38  O  3  Y    0.047634   0.000000   0.104941  -0.132576   0.000000
   39  O  3  Z    0.000000  -0.159604   0.000000   0.000000  -0.327247
   40  O  3 XX   -0.012599   0.000000  -0.011691  -0.020171   0.000000
   41  O  3 YY    0.003782   0.000000   0.001178   0.016198   0.000000
   42  O  3 ZZ    0.008817   0.000000   0.010513   0.003973   0.000000
   43  O  3 XY    0.010140   0.000000   0.015600  -0.014111   0.000000
   44  O  3 XZ    0.000000  -0.026441   0.000000   0.000000  -0.017560
   45  O  3 YZ    0.000000   0.010089   0.000000   0.000000   0.007440

                     11         12         13         14         15
                   -0.2947    -0.2116    -0.1394     0.1352     0.2804
                     A          A          A          A          A   
    1  N  1  S   -0.000000  -0.081017   0.000000  -0.128486  -0.000001
    2  N  1  S   -0.000001   0.151225   0.000000   0.265657  -0.000002
    3  N  1  S    0.000007   0.572814   0.000000   1.774124   0.000008
    4  N  1  X   -0.002098   0.000000   0.000000  -0.000000   0.530011
    5  N  1  Y   -0.000000  -0.419214   0.000000   0.439216   0.000002
    6  N  1  Z    0.000000   0.000000  -0.579054   0.000000   0.000000
    7  N  1  X    0.082212  -0.000002   0.000000  -0.000028   2.208621
    8  N  1  Y    0.000003  -0.240699   0.000000   0.798117   0.000005
    9  N  1  Z    0.000000   0.000000  -0.486344   0.000000   0.000000
   10  N  1 XX    0.000000  -0.043284   0.000000  -0.064188  -0.000001
   11  N  1 YY   -0.000000   0.026238   0.000000   0.015672   0.000000
   12  N  1 ZZ   -0.000000   0.017047   0.000000   0.048517   0.000001
   13  N  1 XY   -0.044292  -0.000000   0.000000  -0.000000  -0.041596
   14  N  1 XZ    0.000000   0.000000   0.000000   0.000000   0.000000
   15  N  1 YZ    0.000000   0.000000   0.014945   0.000000   0.000000
   16  O  2  S    0.003785   0.020226   0.000000   0.081891   0.094758
   17  O  2  S   -0.006764  -0.059396   0.000000  -0.189914  -0.182387
   18  O  2  S   -0.054744  -0.098598   0.000000  -0.800113  -1.476240
   19  O  2  X    0.272312   0.061489   0.000000   0.404945   0.126309
   20  O  2  Y   -0.419333   0.415460   0.000000  -0.005718   0.215583
   21  O  2  Z    0.000000   0.000000   0.403301   0.000000   0.000000
   22  O  2  X    0.193119   0.051860   0.000000   0.695609   0.717861
   23  O  2  Y   -0.266295   0.328263   0.000000   0.023786   0.549411
   24  O  2  Z    0.000000   0.000000   0.363030   0.000000   0.000000
   25  O  2 XX   -0.012498  -0.004561   0.000000   0.019118  -0.003442
   26  O  2 YY    0.012266   0.003167   0.000000  -0.019343   0.010392
   27  O  2 ZZ    0.000232   0.001394   0.000000   0.000225  -0.006951
   28  O  2 XY    0.012760  -0.002882   0.000000  -0.005598   0.014028
   29  O  2 XZ    0.000000   0.000000   0.008863   0.000000   0.000000
   30  O  2 YZ    0.000000   0.000000   0.006006   0.000000   0.000000
   31  O  3  S   -0.003784   0.020226   0.000000   0.081893  -0.094756
   32  O  3  S    0.006765  -0.059396   0.000000  -0.189916   0.182376
   33  O  3  S    0.054737  -0.098600   0.000000  -0.800148   1.476240
   34  O  3  X    0.272312  -0.061490   0.000000  -0.404947   0.126301
   35  O  3  Y    0.419333   0.415459   0.000000  -0.005716  -0.215584
   36  O  3  Z    0.000000   0.000000   0.403301   0.000000   0.000000
   37  O  3  X    0.193115  -0.051861   0.000000  -0.695621   0.717859
   38  O  3  Y    0.266295   0.328264   0.000000   0.023798  -0.549413
   39  O  3  Z    0.000000   0.000000   0.363030   0.000000   0.000000
   40  O  3 XX    0.012498  -0.004561   0.000000   0.019118   0.003443
   41  O  3 YY   -0.012266   0.003167   0.000000  -0.019343  -0.010393
   42  O  3 ZZ   -0.000232   0.001394   0.000000   0.000225   0.006950
   43  O  3 XY    0.012761   0.002882   0.000000   0.005598   0.014028
   44  O  3 XZ    0.000000   0.000000  -0.008863   0.000000   0.000000
   45  O  3 YZ    0.000000   0.000000   0.006006   0.000000   0.000000

                     16         17         18         19         20
                    0.4985     0.5059     0.5239     0.5751     0.6616
                     A          A          A          A          A   
    1  N  1  S   -0.016612   0.000003   0.000000  -0.114384   0.022238
    2  N  1  S    0.013448  -0.000010   0.000000   1.323196  -0.479011
    3  N  1  S    1.178870  -0.000082   0.000000  -2.686024  -1.077951
    4  N  1  X    0.000095   0.846594   0.000000   0.000006   0.000006
    5  N  1  Y   -0.773969   0.000088   0.000000  -0.171978  -0.106993
    6  N  1  Z    0.000000   0.000000  -0.816195   0.000000   0.000000
    7  N  1  X   -0.000220  -1.974875   0.000000  -0.000016  -0.000018
    8  N  1  Y    1.505111  -0.000158   0.000000  -0.202402  -0.402388
    9  N  1  Z    0.000000   0.000000   1.139123   0.000000   0.000000
   10  N  1 XX    0.099160  -0.000007   0.000000  -0.059979  -0.125000
   11  N  1 YY   -0.070050   0.000007   0.000000   0.030573   0.032506
   12  N  1 ZZ   -0.029110   0.000001   0.000000   0.029406   0.092494
   13  N  1 XY   -0.000009  -0.091124   0.000000  -0.000002  -0.000001
   14  N  1 XZ    0.000000   0.000000  -0.000000   0.000000   0.000000
   15  N  1 YZ    0.000000   0.000000  -0.036413   0.000000   0.000000
   16  O  2  S    0.019704  -0.005121   0.000000  -0.043762  -0.026996
   17  O  2  S   -0.003553  -0.025531   0.000000   0.203677  -0.033559
   18  O  2  S   -0.705907   1.015790   0.000000   0.614487   0.588298
   19  O  2  X   -0.091119   0.323389   0.000000   0.214386   0.513558
   20  O  2  Y   -0.229450   0.055261   0.000000   0.168446  -0.150406
   21  O  2  Z    0.000000   0.000000  -0.244032   0.000000   0.000000
   22  O  2  X    0.501888  -0.286705   0.000000  -0.565606  -1.087077
   23  O  2  Y    0.056592  -0.231627   0.000000  -0.288854  -0.020686
   24  O  2  Z    0.000000   0.000000  -0.035272   0.000000   0.000000
   25  O  2 XX   -0.062193   0.066803   0.000000   0.072519  -0.008700
   26  O  2 YY    0.031251  -0.017736   0.000000  -0.018301   0.005084
   27  O  2 ZZ    0.030942  -0.049067   0.000000  -0.054218   0.003616
   28  O  2 XY   -0.006481   0.076806   0.000000   0.069666  -0.023771
   29  O  2 XZ    0.000000   0.000000   0.035175   0.000000   0.000000
   30  O  2 YZ    0.000000   0.000000   0.013121   0.000000   0.000000
   31  O  3  S    0.019706   0.005116   0.000000  -0.043762  -0.026995
   32  O  3  S   -0.003551   0.025544   0.000000   0.203683  -0.033563
   33  O  3  S   -0.706128  -1.015681   0.000000   0.614463   0.588279
   34  O  3  X    0.091186   0.323386   0.000000  -0.214375  -0.513544
   35  O  3  Y   -0.229462  -0.055210   0.000000   0.168442  -0.150405
   36  O  3  Z    0.000000   0.000000  -0.244032   0.000000   0.000000
   37  O  3  X   -0.501945  -0.286634   0.000000   0.565591   1.087056
   38  O  3  Y    0.056643   0.231624   0.000000  -0.288847  -0.020682
   39  O  3  Z    0.000000   0.000000  -0.035272   0.000000   0.000000
   40  O  3 XX   -0.062207  -0.066792   0.000000   0.072518  -0.008701
   41  O  3 YY    0.031254   0.017730   0.000000  -0.018301   0.005084
   42  O  3 ZZ    0.030952   0.049062   0.000000  -0.054217   0.003617
   43  O  3 XY    0.006498   0.076806   0.000000  -0.069664   0.023773
   44  O  3 XZ    0.000000   0.000000  -0.035175   0.000000   0.000000
   45  O  3 YZ    0.000000   0.000000   0.013121   0.000000   0.000000

                     21         22
                    0.7048     0.7475
                     A          A   
    1  N  1  S    0.000000   0.000000
    2  N  1  S    0.000000   0.000000
    3  N  1  S    0.000009   0.000000
    4  N  1  X   -0.109660   0.000000
    5  N  1  Y    0.000001   0.000000
    6  N  1  Z    0.000000   0.000000
    7  N  1  X   -0.251183   0.000000
    8  N  1  Y   -0.000002   0.000000
    9  N  1  Z    0.000000  -0.000000
   10  N  1 XX    0.000001   0.000000
   11  N  1 YY   -0.000000   0.000000
   12  N  1 ZZ   -0.000001   0.000000
   13  N  1 XY   -0.103113   0.000000
   14  N  1 XZ    0.000000  -0.055812
   15  N  1 YZ    0.000000  -0.000000
   16  O  2  S   -0.031571   0.000000
   17  O  2  S    0.102822   0.000000
   18  O  2  S    0.213605   0.000000
   19  O  2  X    0.319139   0.000000
   20  O  2  Y    0.499475   0.000000
   21  O  2  Z    0.000000  -0.629616
   22  O  2  X   -0.663110   0.000000
   23  O  2  Y   -0.685056   0.000000
   24  O  2  Z    0.000000   0.798954
   25  O  2 XX   -0.013346   0.000000
   26  O  2 YY    0.009347   0.000000
   27  O  2 ZZ    0.003999   0.000000
   28  O  2 XY   -0.007072   0.000000
   29  O  2 XZ    0.000000   0.022819
   30  O  2 YZ    0.000000   0.001132
   31  O  3  S    0.031571   0.000000
   32  O  3  S   -0.102825   0.000000
   33  O  3  S   -0.213608   0.000000
   34  O  3  X    0.319144   0.000000
   35  O  3  Y   -0.499483   0.000000
   36  O  3  Z    0.000000   0.629616
   37  O  3  X   -0.663121   0.000000
   38  O  3  Y    0.685068   0.000000
   39  O  3  Z    0.000000  -0.798953
   40  O  3 XX    0.013346   0.000000
   41  O  3 YY   -0.009347   0.000000
   42  O  3 ZZ   -0.003999   0.000000
   43  O  3 XY   -0.007072   0.000000
   44  O  3 XZ    0.000000   0.022819
   45  O  3 YZ    0.000000  -0.001132

     ---------------------------------------------------------------------
     PROPERTIES FOR THE PBE      DFT FUNCTIONAL (ROHF TYPE) DENSITY MATRIX
     ---------------------------------------------------------------------

          -----------------
          ENERGY COMPONENTS
          -----------------

         WAVEFUNCTION NORMALIZATION =       1.0000000000

                ONE ELECTRON ENERGY =    -407.0808642995
                TWO ELECTRON ENERGY =     138.0536717501
           NUCLEAR REPULSION ENERGY =      64.1711042319
                                      ------------------
                       TOTAL ENERGY =    -204.8560883175

 ELECTRON-ELECTRON POTENTIAL ENERGY =     138.0536717501
  NUCLEUS-ELECTRON POTENTIAL ENERGY =    -611.4635380371
   NUCLEUS-NUCLEUS POTENTIAL ENERGY =      64.1711042319
                                      ------------------
             TOTAL POTENTIAL ENERGY =    -409.2387620552
               TOTAL KINETIC ENERGY =     204.3826737377
                 VIRIAL RATIO (V/T) =       2.0023163146

          ---------------------------------------
          MULLIKEN AND LOWDIN POPULATION ANALYSES
          ---------------------------------------

     ATOMIC MULLIKEN POPULATION IN EACH MOLECULAR ORBITAL

                      1          2          3          4          5

                  2.000000   2.000000   2.000000   2.000000   2.000000

    1             0.002824   0.002607   2.001184   0.791482   0.463174
    2             0.999256   0.998029  -0.000592   0.604253   0.768417
    3             0.997920   0.999364  -0.000592   0.604265   0.768409

                      6          7          8          9         10

                  2.000000   2.000000   2.000000   2.000000   2.000000

    1             0.419363   1.041832   0.338078   1.017206   0.033461
    2             0.790317   0.479085   0.830962   0.491398   0.983269
    3             0.790320   0.479084   0.830960   0.491397   0.983270

                     11         12

                  2.000000   1.000000

    1             0.056926   0.441567
    2             0.971537   0.279217
    3             0.971537   0.279216

          MULLIKEN SPHERICAL HARMONIC POPULATIONS
       ATOM           S       P       D      F      G      H      I    TOTAL
    1 N             1.81    1.65    0.07   0.00   0.00   0.00   0.00    3.53
    2 O             1.94    2.28    0.02   0.00   0.00   0.00   0.00    4.24
    3 O             1.94    2.28    0.02   0.00   0.00   0.00   0.00    4.24

          MULLIKEN SPHERICAL HARMONIC POPULATIONS
       ATOM           S       P       D      F      G      H      I    TOTAL
    1 N             1.62    1.41    0.05   0.00   0.00   0.00   0.00    3.08
    2 O             1.94    2.00    0.02   0.00   0.00   0.00   0.00    3.96
    3 O             1.94    2.00    0.02   0.00   0.00   0.00   0.00    3.96

     ATOMIC SPIN POPULATION (ALPHA MINUS BETA)
       ATOM         MULL.POP.                    LOW.POP.
    1 N             0.441567                     0.411215
    2 O             0.279217                     0.294393
    3 O             0.279216                     0.294392

               ----- POPULATIONS IN EACH AO -----
                             MULLIKEN      LOWDIN
              1  N  1  S      1.99428     1.96975
              2  N  1  S      0.92030     0.53604
              3  N  1  S      0.51834     0.36549
              4  N  1  X      0.77444     0.69414
              5  N  1  Y      0.87921     0.82660
              6  N  1  Z      0.68723     0.61963
              7  N  1  X      0.04673     0.28130
              8  N  1  Y      0.32348     0.42887
              9  N  1  Z      0.34992     0.39333
             10  N  1 XX      0.00747     0.24335
             11  N  1 YY      0.03032     0.16256
             12  N  1 ZZ      0.03983     0.14554
             13  N  1 XY      0.03346     0.07857
             14  N  1 XZ      0.00468     0.06486
             15  N  1 YZ      0.00000     0.00514
             16  O  2  S      1.99544     1.97202
             17  O  2  S      0.95181     0.68098
             18  O  2  S      0.93566     0.49974
             19  O  2  X      0.89114     0.83550
             20  O  2  Y      1.01602     0.97643
             21  O  2  Z      0.93008     0.88469
             22  O  2  X      0.38888     0.48045
             23  O  2  Y      0.53092     0.57599
             24  O  2  Z      0.52278     0.56076
             25  O  2 XX      0.00362     0.20799
             26  O  2 YY      0.00985     0.19300
             27  O  2 ZZ      0.00945     0.19439
             28  O  2 XY      0.00817     0.01742
             29  O  2 XZ      0.00133     0.01127
             30  O  2 YZ      0.00000     0.00180
             31  O  3  S      1.99544     1.97202
             32  O  3  S      0.95181     0.68098
             33  O  3  S      0.93567     0.49974
             34  O  3  X      0.89113     0.83550
             35  O  3  Y      1.01602     0.97643
             36  O  3  Z      0.93008     0.88469
             37  O  3  X      0.38888     0.48045
             38  O  3  Y      0.53092     0.57599
             39  O  3  Z      0.52278     0.56076
             40  O  3 XX      0.00362     0.20799
             41  O  3 YY      0.00985     0.19300
             42  O  3 ZZ      0.00945     0.19439
             43  O  3 XY      0.00817     0.01742
             44  O  3 XZ      0.00133     0.01127
             45  O  3 YZ      0.00000     0.00180

          ----- MULLIKEN ATOMIC OVERLAP POPULATIONS -----
          (OFF-DIAGONAL ELEMENTS NEED TO BE MULTIPLIED BY 2)

             1           2           3

    1    6.0076028
    2    0.3010473   7.9872660
    3    0.3010543  -0.0931667   7.9872613

          TOTAL MULLIKEN AND LOWDIN ATOMIC POPULATIONS
       ATOM         MULL.POP.    CHARGE          LOW.POP.     CHARGE
    1 N             6.609704    0.390296         6.815173    0.184827
    2 O             8.195147   -0.195147         8.092414   -0.092414
    3 O             8.195149   -0.195149         8.092414   -0.092414

          MULLIKEN SPHERICAL HARMONIC POPULATIONS
       ATOM           S       P       D      F      G      H      I    TOTAL
    1 N             3.43    3.06    0.12   0.00   0.00   0.00   0.00    6.61
    2 O             3.88    4.28    0.03   0.00   0.00   0.00   0.00    8.20
    3 O             3.88    4.28    0.03   0.00   0.00   0.00   0.00    8.20

          -------------------------------
          BOND ORDER AND VALENCE ANALYSIS     BOND ORDER THRESHOLD=0.050
          -------------------------------

                   BOND                       BOND                       BOND
  ATOM PAIR DIST  ORDER      ATOM PAIR DIST  ORDER      ATOM PAIR DIST  ORDER
    1   2  1.211  1.739        1   3  1.211  1.739        2   3  2.227  0.382

                       TOTAL       BONDED        FREE
      ATOM            VALENCE     VALENCE     VALENCE
    1 N                 3.673       3.478       0.195
    2 O                 2.199       2.121       0.078
    3 O                 2.199       2.121       0.078

          -----------------------------------------
          ATOMIC SPIN DENSITY AT THE NUCLEUS (A.U.)
          -----------------------------------------
                            SPIN DENS    ALPHA DENS     BETA DENS
    1  N            7.0     0.4948481      93.30404      92.80919
    2  O            8.0     0.0501735     141.59421     141.54403
    3  O            8.0     0.0501740     141.59421     141.54403

          ---------------------
          ELECTROSTATIC MOMENTS
          ---------------------

 POINT   1           X           Y           Z (BOHR)    CHARGE
                -0.000000   -0.000702    0.000000        0.00 (A.U.)
         DX          DY          DZ         /D/  (DEBYE)
    -0.000002   -0.256046   -0.000000    0.256046
 ...... END OF PROPERTY EVALUATION ......
 STEP CPU TIME =     0.02 TOTAL CPU TIME =         25.0 (      0.4 MIN)
 TOTAL WALL CLOCK TIME=         25.3 SECONDS, CPU UTILIZATION IS    98.85%
  $VIB   
          IVIB=   0 IATOM=   0 ICOORD=   0 E=     -204.8560883175
  0.000000000E+00-7.821464578E-06 0.000000000E+00-2.965683837E-05 3.910955673E-06
  0.000000000E+00 2.965787848E-05 3.910508905E-06 0.000000000E+00
 -2.347694858E-06-2.560456858E-01-5.983424269E-17
 ......END OF GEOMETRY SEARCH......
 STEP CPU TIME =     0.00 TOTAL CPU TIME =         25.0 (      0.4 MIN)
 TOTAL WALL CLOCK TIME=         25.3 SECONDS, CPU UTILIZATION IS    98.85%
                996986  WORDS OF DYNAMIC MEMORY USED
 EXECUTION OF GAMESS TERMINATED NORMALLY Sun Sep 29 17:42:08 2019
 DDI: 263640 bytes (0.3 MB / 0 MWords) used by master data server.

 ----------------------------------------
 CPU timing information for all processes
 ========================================
 0: 24.693 + 0.315 = 25.09
 ----------------------------------------
 ddikick.x: exited gracefully.
----- accounting info -----
Files used on the master node crcfe02.crc.nd.edu were:
-rw-r--r-- 1 cdrisko campus     251 Sep 29 17:41 /afs/crc.nd.edu/user/c/cdrisko/NO2_opt.F05
-rw-r--r-- 1 cdrisko campus  124013 Sep 29 17:42 /afs/crc.nd.edu/user/c/cdrisko/NO2_opt.F07
-rw-r--r-- 1 cdrisko campus 3060272 Sep 29 17:42 /afs/crc.nd.edu/user/c/cdrisko/NO2_opt.F08
-rw-r--r-- 1 cdrisko campus 2224960 Sep 29 17:42 /afs/crc.nd.edu/user/c/cdrisko/NO2_opt.F10
-rw-r--r-- 1 cdrisko campus 1069432 Sep 29 17:42 /afs/crc.nd.edu/user/c/cdrisko/NO2_opt.F22
Sun Sep 29 17:42:11 EDT 2019
0.410u 0.194s 0:29.03 2.0%	0+0k 0+16io 0pf+0w
