----- GAMESS execution script 'rungms' -----
This job is running on host crcfe02.crc.nd.edu
under operating system Linux at Sun Sep 29 16:45:13 EDT 2019
Available scratch disk space (Kbyte units) at beginning of the job is
Filesystem      1K-blocks  Used  Available Use% Mounted on
AFS            2147483647     0 2147483647   0% /afs
GAMESS temporary binary files will be written to /afs/crc.nd.edu/user/c/cdrisko
GAMESS supplementary output files will be written to /afs/crc.nd.edu/user/c/cdrisko/scr
Copying input file SiO2_opt.inp to your run's scratch directory...

 Distributed Data Interface kickoff program.
 Initiating 1 compute processes on 1 nodes to run the following command:
 /afs/crc.nd.edu/x86_64_linux/g/gamess/nov-2017/gamess/gamess.00.x SiO2_opt 

          ******************************************************
          *         GAMESS VERSION = 11 NOV 2017 (R3)         *
          *             FROM IOWA STATE UNIVERSITY             *
          * M.W.SCHMIDT, K.K.BALDRIDGE, J.A.BOATZ, S.T.ELBERT, *
          *   M.S.GORDON, J.H.JENSEN, S.KOSEKI, N.MATSUNAGA,   *
          *          K.A.NGUYEN, S.J.SU, T.L.WINDUS,           *
          *       TOGETHER WITH M.DUPUIS, J.A.MONTGOMERY       *
          *         J.COMPUT.CHEM.  14, 1347-1363(1993)        *
          **************** 64 BIT INTEL VERSION ****************

  SINCE 1993, STUDENTS AND POSTDOCS WORKING AT IOWA STATE UNIVERSITY
  AND ALSO IN THEIR VARIOUS JOBS AFTER LEAVING ISU HAVE MADE IMPORTANT
  CONTRIBUTIONS TO THE CODE:
     IVANA ADAMOVIC, CHRISTINE AIKENS, YURI ALEXEEV, POOJA ARORA,
     ANDREY ASADCHEV, ROB BELL, PRADIPTA BANDYOPADHYAY, JONATHAN BENTZ,
     BRETT BODE, KURT BRORSEN, CALEB CARLIN, GALINA CHABAN, WEI CHEN,
     CHEOL HO CHOI, PAUL DAY, ALBERT DEFUSCO, NUWAN DESILVA, TIM DUDLEY,
     DMITRI FEDOROV, ALEX FINDLATER, GRAHAM FLETCHER, MARK FREITAG,
     KURT GLAESEMANN, ANASTASIA GUININA,
     DAN KEMP, GRANT MERRILL, NORIYUKI MINEZAWA, JONATHAN MULLIN,
     TAKESHI NAGATA, SEAN NEDD, HEATHER NETZLOFF, BOSILJKA NJEGIC, RYAN OLSON,
     MIKE PAK, BUU PHAM,
     SPENCER PRUITT, LUKE ROSKOP, JIM SHOEMAKER, LYUDMILA SLIPCHENKO,
     TONY SMITH, SAROM SOK LEANG, JIE SONG, TETSUYA TAKETSUGU, SIMON WEBB,
     PENG XU, SOOHAENG YOO, FEDERICO ZAHARIEV

  ADDITIONAL CODE HAS BEEN PROVIDED BY COLLABORATORS IN OTHER GROUPS:
     IOWA STATE UNIVERSITY:
          JOE IVANIC, AARON WEST, LAIMUTIS BYTAUTAS, KLAUS RUEDENBERG
     UNIVERSITY OF TOKYO: KIMIHIKO HIRAO, TAKAHITO NAKAJIMA,
          TAKAO TSUNEDA, MUNEAKI KAMIYA, SUSUMU YANAGISAWA,
          KIYOSHI YAGI, MAHITO CHIBA, SEIKEN TOKURA, NAOAKI KAWAKAMI
     UNIVERSITY OF AARHUS: FRANK JENSEN
     UNIVERSITY OF IOWA: VISVALDAS KAIRYS, HUI LI
     NATIONAL INST. OF STANDARDS AND TECHNOLOGY: WALT STEVENS, DAVID GARMER
     UNIVERSITY OF PISA: BENEDETTA MENNUCCI, JACOPO TOMASI
     UNIVERSITY OF MEMPHIS: HENRY KURTZ, PRAKASHAN KORAMBATH
     UNIVERSITY OF ALBERTA: TOBY ZENG, MARIUSZ KLOBUKOWSKI
     UNIVERSITY OF NEW ENGLAND: MARK SPACKMAN
     MIE UNIVERSITY: HIROAKI UMEDA
     NAT. INST. OF ADVANCED INDUSTRIAL SCIENCE AND TECHNOLOGY: KAZUO KITAURA
     MICHIGAN STATE UNIVERSITY:
          KAROL KOWALSKI, MARTA WLOCH, JEFFREY GOUR, JESSE LUTZ,
          WEI LI, PIOTR PIECUCH
     UNIVERSITY OF SILESIA: MONIKA MUSIAL, STANISLAW KUCHARSKI
     FACULTES UNIVERSITAIRES NOTRE-DAME DE LA PAIX:
          OLIVIER QUINET, BENOIT CHAMPAGNE
     UNIVERSITY OF CALIFORNIA - SANTA BARBARA: BERNARD KIRTMAN
     INSTITUTE FOR MOLECULAR SCIENCE:
          KAZUYA ISHIMURA, MICHIO KATOUDA, AND SHIGERU NAGASE
     UNIVERSITY OF NOTRE DAME: ANNA POMOGAEVA, DAN CHIPMAN
     KYUSHU UNIVERSITY:
          HARUYUKI NAKANO,
          FENG LONG GU, JACEK KORCHOWIEC, MARCIN MAKOWSKI, AND YURIKO AOKI,
          HIROTOSHI MORI AND EISAKU MIYOSHI
     PENNSYLVANIA STATE UNIVERSITY:
          TZVETELIN IORDANOV, CHET SWALINA, JONATHAN SKONE,
          SHARON HAMMES-SCHIFFER
     WASEDA UNIVERSITY:
          MASATO KOBAYASHI, TOMOKO AKAMA, TSUGUKI TOUMA,
          TAKESHI YOSHIKAWA, YASUHIRO IKABATA, JUNJI SEINO,
          YUYA NAKAJIMA, HIROMI NAKAI
     NANJING UNIVERSITY: SHUHUA LI
     UNIVERSITY OF NEBRASKA:
          PEIFENG SU, DEJUN SI, NANDUN THELLAMUREGE, YALI WANG, HUI LI
     UNIVERSITY OF ZURICH: ROBERTO PEVERATI, KIM BALDRIDGE
     N. COPERNICUS UNIVERSITY AND JACKSON STATE UNIVERSITY:
          MARIA BARYSZ
     UNIVERSITY OF COPENHAGEN: Jimmy Kromann, CASPER STEINMANN
     TOKYO INSTITUTE OF TECHNOLOGY: HIROYA NAKATA
     NAGOYA UNIVERSITY: YOSHIO NISHIMOTO, STEPHAN IRLE
     MOSCOW STATE UNIVERSITY: VLADIMIR MIRONOV

 EXECUTION OF GAMESS BEGUN Sun Sep 29 16:45:14 2019

            ECHO OF THE FIRST FEW INPUT CARDS -
 INPUT CARD>!   File created by the GAMESS Input Deck Generator Plugin for Avogadro         
 INPUT CARD> $BASIS GBASIS=PCSEG-1 $END                                                     
 INPUT CARD> $CONTRL RUNTYP=OPTIMIZE DFTTYP=PBE ISPHER=1 MULT=1 $END                        
 INPUT CARD>                                                                                
 INPUT CARD> $DATA                                                                          
 INPUT CARD>Title                                                                           
 INPUT CARD>C1                                                                              
 INPUT CARD>Si    14.0    -4.00518     4.13005     0.00435                                  
 INPUT CARD>O     8.0    -2.90553     3.21368     0.03161                                   
 INPUT CARD>O     8.0    -5.31866     3.55234    -0.00743                                   
 INPUT CARD> $END                                                                           
    1000000 WORDS OF MEMORY AVAILABLE

     BASIS OPTIONS
     -------------
     GBASIS=PCSEG-1      IGAUSS=       0      POLAR=NONE    
     NDFUNC=       0     NFFUNC=       0     DIFFSP=       F
     NPFUNC=       0      DIFFS=       F     BASNAM=        


     RUN TITLE
     ---------
 Title                                                                           

 THE POINT GROUP OF THE MOLECULE IS C1      
 THE ORDER OF THE PRINCIPAL AXIS IS     0

 ATOM      ATOMIC                      COORDINATES (BOHR)
           CHARGE         X                   Y                   Z
 SI         14.0    -7.5686927315        7.8046628156        0.0082203080
 O           8.0    -5.4906555491        6.0729746122        0.0597342385
 O           8.0   -10.0508100219        6.7129492152       -0.0140406641

          INTERNUCLEAR DISTANCES (ANGS.)
          ------------------------------

                1 SI         2 O          3 O     

   1 SI      0.0000000    1.4316799 *  1.4349625 *
   2 O       1.4316799 *  0.0000000    2.4370907 *
   3 O       1.4349625 *  2.4370907 *  0.0000000  

  * ... LESS THAN  3.000


     ATOMIC BASIS SET
     ----------------
 THE CONTRACTED PRIMITIVE FUNCTIONS HAVE BEEN UNNORMALIZED
 THE CONTRACTED BASIS FUNCTIONS ARE NOW NORMALIZED TO UNITY

  SHELL TYPE  PRIMITIVE        EXPONENT          CONTRACTION COEFFICIENT(S)

 SI        

      1   S       1         36968.0000000    0.000693986073
      1   S       2          5545.9600000    0.005358888910
      1   S       3          1262.3100000    0.027392538892
      1   S       4           357.0700000    0.104914123099
      1   S       5           115.6860000    0.289859095627
      1   S       6            41.1630000    0.455170733726
      1   S       7            15.2701000    0.265677695227

      2   S       8            34.7095000   -0.086057826489
      2   S       9             3.6129000    0.552185909234
      2   S      10             1.3367100    0.520001948630

      3   S      11             0.2185700    1.000000000000

      4   S      12             0.0775716    1.000000000000

      5   P      13           310.3390000    0.004145677820
      5   P      14            72.7046000    0.032209295500
      5   P      15            22.9262000    0.133325654202
      5   P      16             8.2955100    0.330351444571
      5   P      17             3.1157300    0.456219731049
      5   P      18             1.1462200    0.263739714080

      6   P      19             0.5279800    0.304583908363
      6   P      20             0.1909940    0.754948341462

      7   P      21             0.0633721    1.000000000000

      8   D      22             0.4500000    1.000000000000

 O         

      9   S      23          2288.6400000    0.005451138222
      9   S      24           344.4160000    0.040718922842
      9   S      25            78.2538000    0.181369420873
      9   S      26            21.7195000    0.465536820246
      9   S      27             6.5590700    0.451211321214

     10   S      28            10.4656000   -0.150211201174
     10   S      29             0.9643510    1.052867983385

     11   S      30             0.2851270    1.000000000000

     12   P      31            17.0590000    0.068749256972
     12   P      32             3.6899900    0.351671941499
     12   P      33             0.9929960    0.724532099722

     13   P      34             0.2449240    1.000000000000

     14   D      35             1.0000000    1.000000000000

 O         

     15   S      36          2288.6400000    0.005451138222
     15   S      37           344.4160000    0.040718922842
     15   S      38            78.2538000    0.181369420873
     15   S      39            21.7195000    0.465536820246
     15   S      40             6.5590700    0.451211321214

     16   S      41            10.4656000   -0.150211201174
     16   S      42             0.9643510    1.052867983385

     17   S      43             0.2851270    1.000000000000

     18   P      44            17.0590000    0.068749256972
     18   P      45             3.6899900    0.351671941499
     18   P      46             0.9929960    0.724532099722

     19   P      47             0.2449240    1.000000000000

     20   D      48             1.0000000    1.000000000000

 TOTAL NUMBER OF BASIS SET SHELLS             =   20
 NUMBER OF CARTESIAN GAUSSIAN BASIS FUNCTIONS =   49
 NOTE: THIS RUN WILL RESTRICT THE MO VARIATION SPACE TO SPHERICAL HARMONICS.
 THE NUMBER OF ORBITALS KEPT IN THE VARIATIONAL SPACE WILL BE PRINTED LATER.
 NUMBER OF ELECTRONS                          =   30
 CHARGE OF MOLECULE                           =    0
 SPIN MULTIPLICITY                            =    1
 NUMBER OF OCCUPIED ORBITALS (ALPHA)          =   15
 NUMBER OF OCCUPIED ORBITALS (BETA )          =   15
 TOTAL NUMBER OF ATOMS                        =    3
 THE NUCLEAR REPULSION ENERGY IS       96.5967670079

     LEBEDEV GRID-BASED DFT OPTIONS
     ------------------------------
     DFTTYP=PBE     
     NRAD  =      96     NLEB  =     302
     NRAD0 =      24     NLEB0 =     110
     SWOFF =    5.00E-03 (PURE SCF -> DFT)
     SWITCH=    3.00E-04 (COARSE -> TIGHT GRID)
     THRESH=    0.00E+00 GTHRE=    1.00E+00

 GRIMME'S EMPIRICAL DISPERSION CORRECTION= F

     $CONTRL OPTIONS
     ---------------
 SCFTYP=RHF          RUNTYP=OPTIMIZE     EXETYP=RUN     
 MPLEVL=       0     CITYP =NONE         CCTYP =NONE         VBTYP =NONE    
 DFTTYP=PBE          TDDFT =NONE    
 MULT  =       1     ICHARG=       0     NZVAR =       0     COORD =UNIQUE  
 PP    =NONE         RELWFN=NONE         LOCAL =NONE         NUMGRD=       F
 ISPHER=       1     NOSYM =       0     MAXIT =      30     UNITS =ANGS    
 PLTORB=       F     MOLPLT=       F     AIMPAC=       F     FRIEND=        
 NPRINT=       7     IREST =       0     GEOM  =INPUT   
 NORMF =       0     NORMP =       0     ITOL  =      20     ICUT  =       9
 INTTYP=BEST         GRDTYP=BEST         QMTTOL= 1.0E-06

     $SYSTEM OPTIONS
     ---------------
  REPLICATED MEMORY=     1000000 WORDS (ON EVERY NODE).
 DISTRIBUTED MEMDDI=           0 MILLION WORDS IN AGGREGATE,
 MEMDDI DISTRIBUTED OVER   1 PROCESSORS IS           0 WORDS/PROCESSOR.
 TOTAL MEMORY REQUESTED ON EACH PROCESSOR=     1000000 WORDS.
 TIMLIM=      525600.00 MINUTES, OR     365.0 DAYS.
 PARALL= F  BALTYP=  DLB     KDIAG=    0  COREFL= F
 MXSEQ2=     300 MXSEQ3=     150  mem10=         0

          ----------------
          PROPERTIES INPUT
          ----------------

     MOMENTS            FIELD           POTENTIAL          DENSITY
 IEMOM =       1   IEFLD =       0   IEPOT =       0   IEDEN =       0
 WHERE =COMASS     WHERE =NUCLEI     WHERE =NUCLEI     WHERE =NUCLEI  
 OUTPUT=BOTH       OUTPUT=BOTH       OUTPUT=BOTH       OUTPUT=BOTH    
 IEMINT=       0   IEFINT=       0                     IEDINT=       0
                                                       MORB  =       0
          EXTRAPOLATION IN EFFECT
          DIIS IN EFFECT
 ORBITAL PRINTING OPTION: NPREO=     1    49     2     1

     -------------------------------
     INTEGRAL TRANSFORMATION OPTIONS
     -------------------------------
     NWORD  =            0
     CUTOFF = 1.0E-09     MPTRAN =       0
     DIRTRF =       F     AOINTS =DUP     

          ----------------------
          INTEGRAL INPUT OPTIONS
          ----------------------
 NOPK  =       1 NORDER=       0 SCHWRZ=       F

     ------------------------------------------
     THE POINT GROUP IS C1 , NAXIS= 0, ORDER= 1
     ------------------------------------------

 -- VARIATIONAL SPACE WILL BE RESTRICTED TO PURE SPHERICAL HARMONICS ONLY --
 AFTER EXCLUDING CONTAMINANT COMBINATIONS FROM THE CARTESIAN GAUSSIAN BASIS
 SET, THE NUMBER OF SPHERICAL HARMONICS KEPT IN THE VARIATION SPACE IS   46

     DIMENSIONS OF THE SYMMETRY SUBSPACES ARE
 A   =   46

 ..... DONE SETTING UP THE RUN .....
 STEP CPU TIME =     0.02 TOTAL CPU TIME =          0.0 (      0.0 MIN)
 TOTAL WALL CLOCK TIME=          0.0 SECONDS, CPU UTILIZATION IS    66.67%


          -----------------------------
          STATIONARY POINT LOCATION RUN
          -----------------------------

 OBTAINING INITIAL HESSIAN, HESS=GUESS   
 CARTESIAN COORDINATE OPTIMIZATION USING BADGER'S RULE FORCE CONSTANT GUESS

          PARAMETERS CONTROLLING GEOMETRY SEARCH ARE
          METHOD =QA                  UPHESS =BFGS    
          NNEG   =         0          NFRZ   =         0
          NSTEP  =        50          IFOLOW =         1
          HESS   =GUESS               RESTAR =         F
          IHREP  =         0          HSSEND =         F
          NPRT   =         0          NPUN   =         0
          OPTTOL = 1.000E-04          RMIN   = 1.500E-03
          RMAX   = 1.000E-01          RLIM   = 7.000E-02
          DXMAX  = 3.000E-01          PURIFY =         F
          MOVIE  =         F          TRUPD  =         T
          TRMAX  = 5.000E-01          TRMIN  = 5.000E-02
          ITBMAT =         5          STPT   =         F
          STSTEP = 1.000E-02          PROJCT=          T

 BEGINNING GEOMETRY SEARCH POINT NSERCH=   0 ...

 COORDINATES OF ALL ATOMS ARE (ANGS)
   ATOM   CHARGE       X              Y              Z
 ------------------------------------------------------------
 SI         14.0  -4.0051800000   4.1300500000   0.0043500000
 O           8.0  -2.9055300000   3.2136800000   0.0316100000
 O           8.0  -5.3186600000   3.5523400000  -0.0074300000

          ********************
          1 ELECTRON INTEGRALS
          ********************
 ...... END OF ONE-ELECTRON INTEGRALS ......
 STEP CPU TIME =     0.02 TOTAL CPU TIME =          0.0 (      0.0 MIN)
 TOTAL WALL CLOCK TIME=          0.0 SECONDS, CPU UTILIZATION IS   100.00%

          -------------
          GUESS OPTIONS
          -------------
          GUESS =HUCKEL            NORB  =       0          NORDER=       0
          MIX   =       F          PRTMO =       F          PUNMO =       F
          TOLZ  = 1.0E-08          TOLE  = 1.0E-05
          SYMDEN=       F          PURIFY=       F

 INITIAL GUESS ORBITALS GENERATED BY HUCKEL   ROUTINE.
 HUCKEL GUESS REQUIRES     21634 WORDS.

 STATISTICS FOR GENERATION OF SYMMETRY ORBITAL -Q- MATRIX
 NUMBER OF CARTESIAN ATOMIC ORBITALS=         49
 NUMBER OF SPHERICAL CONTAMINANTS DROPPED=     3
 NUMBER OF LINEARLY DEPENDENT MOS DROPPED=     0
 TOTAL NUMBER OF MOS IN VARIATION SPACE=      46

 SYMMETRIES FOR INITIAL GUESS ORBITALS FOLLOW.   BOTH SET(S).
    15 ORBITALS ARE OCCUPIED (    7 CORE ORBITALS).
     8=A        9=A       10=A       11=A       12=A       13=A       14=A   
    15=A       16=A       17=A       18=A       19=A       20=A       21=A   
    22=A       23=A       24=A       25=A   
 ...... END OF INITIAL ORBITAL SELECTION ......
 STEP CPU TIME =     0.00 TOTAL CPU TIME =          0.0 (      0.0 MIN)
 TOTAL WALL CLOCK TIME=          0.0 SECONDS, CPU UTILIZATION IS   100.00%

                    ----------------------
                    AO INTEGRAL TECHNOLOGY
                    ----------------------
     S,P,L SHELL ROTATED AXIS INTEGRALS, REPROGRAMMED BY
        KAZUYA ISHIMURA (IMS) AND JOSE SIERRA (SYNSTAR).
     S,P,D,L SHELL ROTATED AXIS INTEGRALS PROGRAMMED BY
        KAZUYA ISHIMURA (INSTITUTE FOR MOLECULAR SCIENCE).
     S,P,D,F,G SHELL TO TOTAL QUARTET ANGULAR MOMENTUM SUM 5,
        ERIC PROGRAM BY GRAHAM FLETCHER (ELORET AND NASA ADVANCED
        SUPERCOMPUTING DIVISION, AMES RESEARCH CENTER).
     S,P,D,F,G,L SHELL GENERAL RYS QUADRATURE PROGRAMMED BY
        MICHEL DUPUIS (PACIFIC NORTHWEST NATIONAL LABORATORY).

          --------------------
          2 ELECTRON INTEGRALS
          --------------------

 THE -PK- OPTION IS OFF, THE INTEGRALS ARE NOT IN SUPERMATRIX FORM.
 STORING   15000 INTEGRALS/RECORD ON DISK, USING 12 BYTES/INTEGRAL.
 TWO ELECTRON INTEGRAL EVALUATION REQUIRES   90606 WORDS OF MEMORY.
 II,JST,KST,LST =  1  1  1  1 NREC =         1 INTLOC =    1
 II,JST,KST,LST =  2  1  1  1 NREC =         1 INTLOC =    2
 II,JST,KST,LST =  3  1  1  1 NREC =         1 INTLOC =    7
 II,JST,KST,LST =  4  1  1  1 NREC =         1 INTLOC =   22
 II,JST,KST,LST =  5  1  1  1 NREC =         1 INTLOC =   56
 II,JST,KST,LST =  6  1  1  1 NREC =         1 INTLOC =  125
 II,JST,KST,LST =  7  1  1  1 NREC =         1 INTLOC =  329
 II,JST,KST,LST =  8  1  1  1 NREC =         1 INTLOC =  776
 II,JST,KST,LST =  9  1  1  1 NREC =         1 INTLOC = 2864
 II,JST,KST,LST = 10  1  1  1 NREC =         1 INTLOC = 6643
 II,JST,KST,LST = 11  1  1  1 NREC =         1 INTLOC =11256
 II,JST,KST,LST = 12  1  1  1 NREC =         2 INTLOC = 1566
 II,JST,KST,LST = 13  1  1  1 NREC =         3 INTLOC = 7165
 II,JST,KST,LST = 14  1  1  1 NREC =         5 INTLOC = 6057
 II,JST,KST,LST = 15  1  1  1 NREC =        11 INTLOC = 5277
 II,JST,KST,LST = 16  1  1  1 NREC =        12 INTLOC = 4806
 II,JST,KST,LST = 17  1  1  1 NREC =        13 INTLOC =11951
 II,JST,KST,LST = 18  1  1  1 NREC =        15 INTLOC = 6829
 II,JST,KST,LST = 19  1  1  1 NREC =        21 INTLOC =  505
 II,JST,KST,LST = 20  1  1  1 NREC =        28 INTLOC = 4011
 TOTAL NUMBER OF NONZERO TWO-ELECTRON INTEGRALS =              690797
         47 INTEGRAL RECORDS WERE STORED ON DISK FILE  8.
  ...... END OF TWO-ELECTRON INTEGRALS .....
 STEP CPU TIME =     0.11 TOTAL CPU TIME =          0.2 (      0.0 MIN)
 TOTAL WALL CLOCK TIME=          0.2 SECONDS, CPU UTILIZATION IS    93.75%

          --------------------------
               R-PBE SCF CALCULATION
          --------------------------

     NUCLEAR ENERGY =        96.5967670079
     MAXIT =   30     NPUNCH=    2
     EXTRAP=T  DAMP=F  SHIFT=F  RSTRCT=F  DIIS=T  DEM=F  SOSCF=F
         DENSITY MATRIX CONVERGENCE THRESHOLD=  1.00E-05
     COARSE -> FINE DFT GRID SWITCH THRESHOLD=  3.00E-04 (SWITCH IN $DFT)
                   HF -> DFT SWITCH THRESHOLD=  5.00E-03 (SWOFF IN $DFT)
     MEMORY REQUIRED FOR RHF ITERS=    183117 WORDS.

 DFT CODE IS SWITCHING FROM THE FINE GRID NRAD= 96,  NLEB=  302
                      TO THE COARSE GRID NRAD0= 24, NLEB0=  110

     EXCHANGE FUNCTIONAL   =PBE       
     CORRELATION FUNCTIONAL=PBE       
     DFT THRESHOLD         =.460E-07
     GRID CHANGE THRESHOLD =.300E-03
 FOR AN EULER-MACLAURIN QUADRATURE USING  96 RADIAL POINTS:
 SMALLEST GAUSSIAN PRIMITIVE EXPONENT=        0.0633721000 OF TYPE -P-
 ON ATOM NUMBER   1 HAS RADIAL NORMALIZATION=  1.000000
  LARGEST GAUSSIAN PRIMITIVE EXPONENT=    36968.0000000000 OF TYPE -S-
 ON ATOM NUMBER   1 HAS RADIAL NORMALIZATION=  0.999999
 DFT IS SWITCHED OFF, PERFORMING PURE SCF UNTIL SWOFF THRESHOLD IS REACHED.

 ITER EX DEM     TOTAL ENERGY        E CHANGE  DENSITY CHANGE    DIIS ERROR
   1  0  0     -437.7461413588  -437.7461413588   0.351478154   0.599008545
          * * *   INITIATING DIIS PROCEDURE   * * *
   2  1  0     -438.3657263957    -0.6195850369   0.290381019   0.158741548
   3  2  0     -438.4056351607    -0.0399087651   0.123476140   0.145511592
   4  3  0     -438.4633265640    -0.0576914033   0.013693370   0.013634047
   5  4  0     -438.4642788954    -0.0009523314   0.006649161   0.004425294
   6  5  0     -438.4644133081    -0.0001344127   0.004068668   0.001988778
 CONVERGED TO SWOFF, SO DFT CALCULATION IS NOW SWITCHED ON.
          * * *   INITIATING DIIS PROCEDURE   * * *
   7  6  0     -439.4800297829    -1.0156164747   0.323097301   0.080449470
   8  7  0     -439.4506432516     0.0293865312   0.246256210   0.121888669
   9  8  0     -439.4793095657    -0.0286663141   0.118199757   0.092517345
  10  9  0     -439.5069817541    -0.0276721883   0.068945745   0.031249965
  11 10  0     -439.5087013618    -0.0017196077   0.034054482   0.027202495
  12 11  0     -439.5123162221    -0.0036148603   0.002553954   0.001750457
  13 12  0     -439.5123298921    -0.0000136700   0.000879280   0.000769548
  14 13  0     -439.5123323819    -0.0000024898   0.000084323   0.000052152
 DFT CODE IS SWITCHING BACK TO THE FINE GRID
          * * *   INITIATING DIIS PROCEDURE   * * *
  15 14  0     -439.5068767426     0.0054556393   0.018436082   0.020747083
  16 15  0     -439.5074835241    -0.0006067815   0.042787922   0.005924091
  17 16  0     -439.5050789379     0.0024045862   0.034912066   0.021420979
  18 17  0     -439.5075419643    -0.0024630264   0.009240204   0.004897020
  19 18  0     -439.5076953079    -0.0001533436   0.001529303   0.001110611
  20 19  0     -439.5077021978    -0.0000068899   0.000151786   0.000088048
  21 20  0     -439.5077022666    -0.0000000688   0.000027071   0.000009151
  22 21  0     -439.5077022671    -0.0000000005   0.000006150   0.000003560
  23 22  0     -439.5077022672    -0.0000000000   0.000000496   0.000000373

          -----------------
          DENSITY CONVERGED
          -----------------
     TIME TO FORM FOCK OPERATORS=       3.0 SECONDS (       0.1 SEC/ITER)
     TIME TO SOLVE SCF EQUATIONS=       0.0 SECONDS (       0.0 SEC/ITER)

 FINAL R-PBE ENERGY IS     -439.5077022672 AFTER  23 ITERATIONS
 DFT EXCHANGE + CORRELATION ENERGY =       -37.8890158113
 TOTAL ELECTRON NUMBER             =        30.0000627587

          ------------
          EIGENVECTORS
          ------------

                      1          2          3          4          5
                  -65.4466   -18.7478   -18.7475    -5.1224    -3.5354
                     A          A          A          A          A   
    1  SI 1  S    0.998029   0.000001   0.000000  -0.295866   0.003600
    2  SI 1  S    0.007593  -0.000082  -0.000077   1.028850  -0.012887
    3  SI 1  S   -0.004752   0.003851   0.003846   0.029404   0.001372
    4  SI 1  S    0.000891   0.002922   0.002902  -0.008130  -0.001530
    5  SI 1  X   -0.000009  -0.000005   0.000037   0.001778   0.126776
    6  SI 1  Y   -0.000066   0.000111   0.000104   0.012554   0.985823
    7  SI 1  Z    0.000001  -0.000001  -0.000001  -0.000131  -0.010961
    8  SI 1  X    0.000187  -0.002710   0.002008   0.000066   0.002446
    9  SI 1  Y    0.001375  -0.002191  -0.002838   0.000478   0.019346
   10  SI 1  Z   -0.000014  -0.000012   0.000064  -0.000005  -0.000215
   11  SI 1  X   -0.000022  -0.001298   0.001035  -0.000049  -0.000559
   12  SI 1  Y   -0.000162  -0.000787  -0.001109  -0.000356  -0.004360
   13  SI 1  Z    0.000002  -0.000009   0.000029   0.000004   0.000049
   14  SI 1 XX   -0.000599   0.000055   0.000161   0.000191  -0.001477
   15  SI 1 YY    0.000053   0.000299   0.000183   0.000026   0.001835
   16  SI 1 ZZ    0.000545  -0.000353  -0.000344  -0.000217  -0.000358
   17  SI 1 XY    0.000110  -0.000200   0.000260  -0.000027   0.000558
   18  SI 1 XZ   -0.000020   0.000009   0.000005   0.000007  -0.000026
   19  SI 1 YZ    0.000009  -0.000012  -0.000004  -0.000004  -0.000024
   20  O  2  S   -0.000027   0.002929   0.993178  -0.000956   0.001695
   21  O  2  S   -0.000281   0.000350   0.033999   0.000753  -0.002902
   22  O  2  S    0.001610  -0.001459  -0.016875   0.000051   0.000496
   23  O  2  X   -0.000113   0.000117  -0.000969  -0.001690   0.003538
   24  O  2  Y    0.000102  -0.000145   0.000928   0.001406  -0.001887
   25  O  2  Z   -0.000003   0.000003  -0.000026  -0.000042   0.000074
   26  O  2  X   -0.000905   0.000842   0.003135   0.000391  -0.000077
   27  O  2  Y    0.000687   0.000308  -0.002445  -0.000326  -0.000224
   28  O  2  Z   -0.000022   0.000008   0.000076   0.000010   0.000002
   29  O  2 XX    0.000089  -0.000186  -0.000273   0.000818  -0.001488
   30  O  2 YY    0.000040   0.000185   0.000010   0.000234   0.000586
   31  O  2 ZZ   -0.000129   0.000001   0.000264  -0.001052   0.000902
   32  O  2 XY   -0.000195   0.000102   0.000417  -0.001809   0.001337
   33  O  2 XZ    0.000006  -0.000004  -0.000014   0.000054  -0.000056
   34  O  2 YZ   -0.000005  -0.000001   0.000010  -0.000045   0.000023
   35  O  3  S   -0.000027   0.993180  -0.002888  -0.000938   0.001603
   36  O  3  S   -0.000282   0.033989   0.000152   0.000724  -0.002737
   37  O  3  S    0.001598  -0.016869  -0.001362   0.000050   0.000455
   38  O  3  X    0.000135   0.001182  -0.000159   0.001974  -0.003732
   39  O  3  Y    0.000066   0.000620  -0.000111   0.000866  -0.000752
   40  O  3  Z    0.000001   0.000009  -0.000001   0.000018  -0.000045
   41  O  3  X    0.001055  -0.003692  -0.000704  -0.000471   0.000006
   42  O  3  Y    0.000408  -0.001479   0.000534  -0.000207  -0.000257
   43  O  3  Z    0.000010  -0.000035  -0.000017  -0.000004   0.000003
   44  O  3 XX    0.000176  -0.000447  -0.000203   0.001592  -0.001888
   45  O  3 YY   -0.000046   0.000182   0.000203  -0.000549   0.001024
   46  O  3 ZZ   -0.000130   0.000265  -0.000001  -0.001043   0.000864
   47  O  3 XY    0.000151  -0.000267   0.000028   0.001340  -0.000446
   48  O  3 XZ    0.000003  -0.000009  -0.000004   0.000027  -0.000041
   49  O  3 YZ    0.000001  -0.000003  -0.000003   0.000012  -0.000009

                      6          7          8          9         10
                   -3.5349    -3.5328    -0.9271    -0.8827    -0.4146
                     A          A          A          A          A   
    1  SI 1  S    0.000002   0.000053   0.040116   0.000292   0.057617
    2  SI 1  S   -0.000006  -0.000194  -0.232727  -0.001727  -0.363392
    3  SI 1  S    0.000001   0.000046   0.292940   0.002139   0.582942
    4  SI 1  S   -0.000001  -0.000022  -0.003927   0.000090   0.089229
    5  SI 1  X   -0.014317   0.984786   0.008241   0.140126  -0.006032
    6  SI 1  Y    0.012898  -0.126420   0.071448  -0.019282  -0.042751
    7  SI 1  Z    0.994502   0.015817  -0.000769   0.002262   0.000449
    8  SI 1  X   -0.000271   0.021716  -0.010955  -0.252936   0.019594
    9  SI 1  Y    0.000244  -0.002830  -0.099142   0.034980   0.140300
   10  SI 1  Z    0.018810   0.000349   0.001073  -0.004085  -0.001474
   11  SI 1  X    0.000065  -0.004395   0.002031   0.030920   0.010396
   12  SI 1  Y   -0.000058   0.000567   0.017432  -0.004264   0.074612
   13  SI 1  Z   -0.004485  -0.000071  -0.000187   0.000500  -0.000778
   14  SI 1 XX   -0.000006   0.000010   0.053362   0.020853   0.030680
   15  SI 1 YY    0.000033   0.000002  -0.009600  -0.020499  -0.016644
   16  SI 1 ZZ   -0.000027  -0.000012  -0.043762  -0.000354  -0.014036
   17  SI 1 XY   -0.000018   0.000076  -0.011516   0.081822  -0.007795
   18  SI 1 XZ    0.000209  -0.000001   0.001762  -0.000663   0.000842
   19  SI 1 YZ    0.001462   0.000001  -0.000657   0.001470  -0.000074
   20  O  2  S    0.000001  -0.002626  -0.161003   0.168706   0.072343
   21  O  2  S   -0.000002   0.004626   0.329918  -0.350766  -0.154662
   22  O  2  S    0.000000  -0.001260   0.274112  -0.268266  -0.245814
   23  O  2  X   -0.000012  -0.004313  -0.083313   0.063643  -0.166319
   24  O  2  Y    0.000011   0.004385   0.069455  -0.068705   0.258541
   25  O  2  Z    0.000950  -0.000117  -0.002066   0.001773  -0.005629
   26  O  2  X    0.000005  -0.000041  -0.012034  -0.000177  -0.086711
   27  O  2  Y   -0.000004  -0.000821   0.015397   0.001088   0.127923
   28  O  2  Z   -0.000343   0.000010  -0.000365  -0.000016  -0.002849
   29  O  2 XX    0.000020   0.000566   0.004408   0.000867   0.002144
   30  O  2 YY    0.000014   0.000727   0.002324  -0.005828   0.004455
   31  O  2 ZZ   -0.000034  -0.001294  -0.006732   0.004961  -0.006600
   32  O  2 XY   -0.000019  -0.002285  -0.011965   0.008304  -0.012617
   33  O  2 XZ   -0.000816   0.000059   0.000333  -0.000170   0.000304
   34  O  2 YZ    0.000634  -0.000062  -0.000304   0.000276  -0.000341
   35  O  3  S    0.000001   0.002626  -0.157555  -0.171952   0.072196
   36  O  3  S   -0.000001  -0.004614   0.322780   0.357503  -0.154369
   37  O  3  S    0.000000   0.001251   0.269521   0.274786  -0.245015
   38  O  3  X   -0.000015  -0.005378   0.097289   0.081889   0.230922
   39  O  3  Y    0.000011  -0.002996   0.042566   0.049063   0.201848
   40  O  3  Z    0.000932  -0.000040   0.000873   0.000569   0.000815
   41  O  3  X    0.000005   0.000184   0.016014   0.000037   0.118601
   42  O  3  Y   -0.000004   0.000790   0.011586  -0.000719   0.098739
   43  O  3  Z   -0.000341  -0.000007   0.000087   0.000009   0.000480
   44  O  3 XX   -0.000025  -0.001671   0.009625   0.003613   0.008095
   45  O  3 YY    0.000009   0.000363  -0.003017   0.001444  -0.001530
   46  O  3 ZZ    0.000016   0.001308  -0.006608  -0.005057  -0.006565
   47  O  3 XY    0.000006  -0.001980   0.009284   0.009220   0.011331
   48  O  3 XZ    0.000947  -0.000025   0.000155   0.000029   0.000103
   49  O  3 YZ    0.000378  -0.000015   0.000082   0.000040   0.000091

                     11         12         13         14         15
                   -0.3511    -0.3505    -0.3465    -0.2902    -0.2685
                     A          A          A          A          A   
    1  SI 1  S   -0.004636  -0.000027   0.000116  -0.000001  -0.000022
    2  SI 1  S    0.028479   0.000169  -0.000672   0.000006   0.000128
    3  SI 1  S   -0.056875  -0.000346   0.001586  -0.000011  -0.000327
    4  SI 1  S    0.105440   0.000692  -0.003991  -0.000029  -0.000418
    5  SI 1  X   -0.025565   0.002152  -0.167363   0.000029   0.015038
    6  SI 1  Y   -0.144640  -0.002891   0.028199   0.000013  -0.001789
    7  SI 1  Z    0.002434  -0.156223  -0.002826  -0.000678   0.000223
    8  SI 1  X    0.064341  -0.005438   0.440824  -0.000077  -0.048531
    9  SI 1  Y    0.360126   0.007268  -0.073731  -0.000031   0.005806
   10  SI 1  Z   -0.006081   0.394016   0.007429   0.002011  -0.000727
   11  SI 1  X    0.001375  -0.000923  -0.075768   0.000019   0.131393
   12  SI 1  Y    0.023200   0.000978   0.009962  -0.000009  -0.018968
   13  SI 1  Z   -0.000690   0.066287  -0.001191   0.000735   0.002148
   14  SI 1 XX    0.053068   0.000474  -0.014552   0.003186   0.033119
   15  SI 1 YY   -0.061883  -0.001335   0.014921   0.000378  -0.033075
   16  SI 1 ZZ    0.008815   0.000861  -0.000369  -0.003564  -0.000044
   17  SI 1 XY   -0.020170   0.000444  -0.052300  -0.001802   0.132913
   18  SI 1 XZ    0.001010  -0.005181   0.000404  -0.127126  -0.001066
   19  SI 1 YZ    0.001004  -0.043355  -0.000989   0.017766   0.002386
   20  O  2  S   -0.024575  -0.000175   0.050135  -0.000001  -0.001007
   21  O  2  S    0.044877   0.000318  -0.092862   0.000003  -0.001037
   22  O  2  S    0.118573   0.000865  -0.273450   0.000010   0.029153
   23  O  2  X    0.358147  -0.003152  -0.207776   0.006667   0.425252
   24  O  2  Y    0.170715   0.005677   0.375906  -0.005639   0.198082
   25  O  2  Z    0.000535   0.381117  -0.007554  -0.455957   0.003814
   26  O  2  X    0.200656  -0.002032  -0.075953   0.004746   0.255997
   27  O  2  Y    0.120522   0.003559   0.188256  -0.004009   0.175101
   28  O  2  Z   -0.000126   0.230537  -0.003367  -0.325083   0.001614
   29  O  2 XX   -0.018125   0.000297  -0.002700  -0.000331  -0.016405
   30  O  2 YY    0.014532   0.000394   0.010002  -0.000283   0.015908
   31  O  2 ZZ    0.003592  -0.000691  -0.007303   0.000614   0.000497
   32  O  2 XY    0.003913  -0.000381  -0.012404   0.000356   0.001447
   33  O  2 XZ   -0.000303  -0.016434   0.000226   0.013125  -0.000304
   34  O  2 YZ   -0.000195   0.014222  -0.000423  -0.013293  -0.000197
   35  O  3  S   -0.027540  -0.000157  -0.048701   0.000006   0.001194
   36  O  3  S    0.050474   0.000283   0.090339  -0.000014   0.000725
   37  O  3  S    0.134051   0.000766   0.265245  -0.000030  -0.029442
   38  O  3  X   -0.311463  -0.007347  -0.285305  -0.006508   0.356377
   39  O  3  Y    0.242151   0.006372  -0.318552   0.005652  -0.309990
   40  O  3  Z   -0.009881   0.375539   0.000010   0.460765   0.008900
   41  O  3  X   -0.165140  -0.004310  -0.115562  -0.004655   0.199451
   42  O  3  Y    0.159890   0.003931  -0.169865   0.004023  -0.240421
   43  O  3  Z   -0.005805   0.226987   0.000547   0.328227   0.005795
   44  O  3 XX   -0.017455  -0.000600  -0.002945  -0.000406   0.014629
   45  O  3 YY    0.013455   0.000283  -0.004099   0.000194  -0.014141
   46  O  3 ZZ    0.004000   0.000317   0.007045   0.000212  -0.000488
   47  O  3 XY    0.005748   0.000156  -0.014701   0.000070  -0.008760
   48  O  3 XZ   -0.000553   0.019467   0.000025   0.016489   0.000358
   49  O  3 YZ   -0.000109   0.008968  -0.000049   0.009217   0.000067

                     16         17         18         19         20
                   -0.2273    -0.0573     0.0401     0.0581     0.1258
                     A          A          A          A          A   
    1  SI 1  S    0.025797   0.000000  -0.000056  -0.015230  -0.039965
    2  SI 1  S   -0.168258  -0.000002   0.000388   0.103110   0.282695
    3  SI 1  S    0.234732   0.000001  -0.001921  -0.051088  -1.191316
    4  SI 1  S    0.528548   0.000001   0.002010  -0.734520   1.602883
    5  SI 1  X   -0.021449   0.002835  -0.082009  -0.004379   0.028615
    6  SI 1  Y   -0.153474  -0.002442   0.011654  -0.029496   0.203838
    7  SI 1  Z    0.001606  -0.196207  -0.001334   0.000307  -0.002127
    8  SI 1  X    0.063373  -0.009628   0.252932   0.013142  -0.130268
    9  SI 1  Y    0.452471   0.008289  -0.035923   0.087225  -0.932572
   10  SI 1  Z   -0.004732   0.665652   0.004118  -0.000909   0.009736
   11  SI 1  X    0.011505  -0.007665   1.107487   0.149357   0.081370
   12  SI 1  Y    0.080710   0.006596  -0.155311   1.061055   0.592220
   13  SI 1  Z   -0.000848   0.530280   0.017909  -0.011023  -0.006210
   14  SI 1 XX   -0.149607  -0.000437   0.037810   0.072564   0.024270
   15  SI 1 YY    0.091120   0.002689  -0.037853   0.094462  -0.070983
   16  SI 1 ZZ    0.058487  -0.002252   0.000043  -0.167027   0.046714
   17  SI 1 XY    0.039996  -0.001586   0.152982   0.003427  -0.015971
   18  SI 1 XZ   -0.003972   0.017241  -0.001275   0.003952  -0.000178
   19  SI 1 YZ    0.000110   0.124609   0.002759  -0.003707   0.001463
   20  O  2  S    0.013657  -0.000001   0.048393  -0.053881   0.021599
   21  O  2  S   -0.035213  -0.000000  -0.086550   0.107886  -0.017860
   22  O  2  S   -0.038617   0.000020  -0.432915   0.442236  -0.333885
   23  O  2  X    0.036487   0.004247  -0.094302  -0.135187   0.003529
   24  O  2  Y   -0.332826  -0.003677  -0.162510  -0.049115   0.069429
   25  O  2  Z    0.004639  -0.295081   0.000652  -0.001344  -0.000813
   26  O  2  X   -0.031608   0.004574  -0.147060  -0.147688   0.094435
   27  O  2  Y   -0.237259  -0.003955  -0.117721  -0.118211   0.005072
   28  O  2  Z    0.002477  -0.318050  -0.000669  -0.000666   0.001301
   29  O  2 XX    0.001547  -0.000055   0.004020   0.004805   0.002175
   30  O  2 YY   -0.004531   0.000015  -0.003116   0.001339  -0.011681
   31  O  2 ZZ    0.002984   0.000041  -0.000904  -0.006144   0.009506
   32  O  2 XY    0.006142   0.000018   0.000657  -0.001676   0.012945
   33  O  2 XZ   -0.000099   0.002257   0.000076   0.000203  -0.000283
   34  O  2 YZ    0.000197   0.000666   0.000044  -0.000134   0.000492
   35  O  3  S    0.013566   0.000001  -0.048346  -0.053838   0.021681
   36  O  3  S   -0.035003   0.000001   0.086453   0.107725  -0.018134
   37  O  3  S   -0.038968  -0.000012   0.432987   0.442492  -0.333574
   38  O  3  X   -0.127875   0.004251  -0.045047   0.116882   0.016100
   39  O  3  Y   -0.310505  -0.003669   0.182538  -0.084297   0.067161
   40  O  3  Z    0.002031  -0.294895  -0.002921   0.002739  -0.000605
   41  O  3  X   -0.036215   0.004576  -0.107304   0.110548  -0.088770
   42  O  3  Y   -0.237411  -0.003952   0.154088  -0.153556   0.030195
   43  O  3  Z    0.002443  -0.317463  -0.003466   0.003509  -0.001658
   44  O  3 XX   -0.001711   0.000049  -0.003134   0.005273  -0.004784
   45  O  3 YY   -0.001257   0.000028   0.002213   0.000853  -0.004686
   46  O  3 ZZ    0.002968  -0.000077   0.000921  -0.006127   0.009470
   47  O  3 XY   -0.007059  -0.000043   0.002658   0.000372  -0.015179
   48  O  3 XZ    0.000010  -0.001947  -0.000101   0.000185  -0.000049
   49  O  3 YZ   -0.000041   0.001303   0.000021  -0.000095  -0.000016

                     21         22         23         24         25
                    0.1476     0.2854     0.3221     0.5432     0.5929
                     A          A          A          A          A   
    1  SI 1  S   -0.000000  -0.000408   0.050951   0.000000   0.010935
    2  SI 1  S    0.000003   0.002888  -0.369344  -0.000002  -0.080539
    3  SI 1  S   -0.000014  -0.010453   1.495412   0.000017   0.314436
    4  SI 1  S    0.000032   0.006895  -0.995437  -0.000001  -0.055080
    5  SI 1  X   -0.003782  -0.268960   0.023673  -0.000575   0.011642
    6  SI 1  Y    0.003262   0.036065   0.179619   0.000493   0.077707
    7  SI 1  Z    0.261950  -0.004332  -0.001893   0.039637  -0.000798
    8  SI 1  X    0.016360   1.359944  -0.114314   0.002216  -0.054449
    9  SI 1  Y   -0.014109  -0.183242  -0.874942  -0.001887  -0.355285
   10  SI 1  Z   -1.132926   0.021914   0.009234  -0.150881   0.003630
   11  SI 1  X   -0.017283  -0.926431   0.077408   0.000408   0.005864
   12  SI 1  Y    0.014897   0.125139   0.597736  -0.000358   0.038733
   13  SI 1  Z    1.198023  -0.014932  -0.006319  -0.028872  -0.000397
   14  SI 1 XX    0.000167   0.107251  -0.323090  -0.003649  -0.374340
   15  SI 1 YY   -0.001080  -0.104044  -0.150657   0.020669   0.894915
   16  SI 1 ZZ    0.000914  -0.003208   0.473746  -0.017020  -0.520575
   17  SI 1 XY    0.000640   0.424245   0.033563  -0.012055   0.212129
   18  SI 1 XZ   -0.006756  -0.003436  -0.013701   0.146115  -0.000345
   19  SI 1 YZ   -0.049944   0.007578   0.009453   0.959570  -0.017240
   20  O  2  S    0.000002   0.015395   0.017126   0.000001   0.018305
   21  O  2  S   -0.000004  -0.042195  -0.068375   0.000006  -0.085125
   22  O  2  S   -0.000016  -0.095915   0.008682  -0.000037  -0.059235
   23  O  2  X   -0.000654   0.090749   0.238983  -0.003587   0.261624
   24  O  2  Y    0.000563  -0.224751  -0.123387   0.003094   0.223165
   25  O  2  Z    0.045466   0.004101   0.004984   0.248578   0.001046
   26  O  2  X   -0.000477   0.115080   0.222753  -0.000550   0.094004
   27  O  2  Y    0.000412  -0.235425  -0.063883   0.000477  -0.021811
   28  O  2  Z    0.033380   0.004588   0.004009   0.040107   0.001645
   29  O  2 XX   -0.000307  -0.007907   0.016788  -0.001009   0.049935
   30  O  2 YY   -0.000254   0.015236  -0.018130   0.000176  -0.027167
   31  O  2 ZZ    0.000561  -0.007330   0.001342   0.000833  -0.022768
   32  O  2 XY    0.000323  -0.004401  -0.017915   0.000384   0.018152
   33  O  2 XZ    0.012272   0.000045   0.000480   0.040423   0.000990
   34  O  2 YZ   -0.011766  -0.000387   0.000020   0.008192   0.000317
   35  O  3  S    0.000000  -0.015609   0.016843  -0.000000   0.018579
   36  O  3  S   -0.000002   0.043480  -0.067710  -0.000007  -0.085850
   37  O  3  S   -0.000003   0.095097   0.009791   0.000021  -0.062154
   38  O  3  X   -0.000655   0.153626  -0.261471  -0.003686  -0.189943
   39  O  3  Y    0.000567   0.191854  -0.049641   0.003171   0.286951
   40  O  3  Z    0.045200  -0.000170  -0.003155   0.255299  -0.006351
   41  O  3  X   -0.000471   0.180487  -0.229425  -0.000561  -0.098254
   42  O  3  Y    0.000406   0.193564   0.001896   0.000506   0.000480
   43  O  3  Z    0.032368   0.000204  -0.003340   0.039980  -0.001443
   44  O  3 XX    0.000376   0.003593   0.022629   0.000931   0.035796
   45  O  3 YY   -0.000171  -0.011060  -0.023962   0.000390  -0.013176
   46  O  3 ZZ   -0.000205   0.007466   0.001333  -0.001320  -0.022620
   47  O  3 XY   -0.000073  -0.011186   0.004389  -0.000723  -0.039049
   48  O  3 XZ   -0.015035   0.000074   0.000301  -0.037179   0.001464
   49  O  3 YZ   -0.007918   0.000105   0.000427   0.018066  -0.000693

                     26         27         28         29         30
                    0.5938     0.6848     0.7401     0.8001     0.8064
                     A          A          A          A          A   
    1  SI 1  S    0.000000   0.034269  -0.000096   0.000012  -0.012299
    2  SI 1  S    0.000001  -0.287849   0.000715  -0.000105   0.106702
    3  SI 1  S   -0.000055   2.350592   0.004664   0.000960  -0.997438
    4  SI 1  S   -0.000001  -0.151465  -0.002038  -0.000167   0.170316
    5  SI 1  X    0.000012   0.014908  -0.170582   0.000003  -0.001434
    6  SI 1  Y   -0.000002   0.110805   0.023725   0.000007  -0.006573
    7  SI 1  Z   -0.000729  -0.001162  -0.002758   0.000093   0.000059
    8  SI 1  X   -0.000058  -0.158041   1.914418  -0.000017   0.025032
    9  SI 1  Y    0.000038  -1.206259  -0.269074  -0.000167   0.156985
   10  SI 1  Z    0.003289   0.012709   0.030973  -0.002084  -0.001565
   11  SI 1  X   -0.000006   0.025656  -0.472577   0.000114  -0.066560
   12  SI 1  Y    0.000005   0.207413   0.067677   0.000425  -0.458342
   13  SI 1  Z    0.000642  -0.002208  -0.007671  -0.001824   0.004767
   14  SI 1 XX   -0.024438   0.428874  -0.126888   0.010836  -0.496232
   15  SI 1 YY   -0.003070   0.050332   0.124187   0.000807   0.458212
   16  SI 1 ZZ    0.027509  -0.479206   0.002701  -0.011644   0.038020
   17  SI 1 XY    0.014300  -0.063664  -0.495552  -0.006126   0.155910
   18  SI 1 XZ    0.974262   0.015959   0.004004  -0.413057  -0.011257
   19  SI 1 YZ   -0.148551  -0.008531  -0.008903   0.059076  -0.003745
   20  O  2  S   -0.000000   0.064364   0.064818   0.000010  -0.011421
   21  O  2  S   -0.000009  -0.120883  -0.144693   0.000032  -0.028016
   22  O  2  S    0.000036  -0.858821  -0.836379  -0.000283   0.300045
   23  O  2  X    0.004619  -0.358371  -0.126181   0.008724  -0.257063
   24  O  2  Y   -0.003907   0.002981   0.366820  -0.006818  -0.457358
   25  O  2  Z   -0.316842  -0.005231  -0.006402  -0.585391   0.001446
   26  O  2  X    0.000952   1.212914   0.931595  -0.012402   0.113334
   27  O  2  Y   -0.000822  -0.634705  -1.123559   0.009528   1.018266
   28  O  2  Z   -0.068488   0.025402   0.027435   0.847753  -0.010261
   29  O  2 XX    0.000417   0.008968  -0.013799  -0.000757   0.027209
   30  O  2 YY    0.000936  -0.003156   0.011854  -0.000609  -0.034351
   31  O  2 ZZ   -0.001354  -0.005812   0.001944   0.001365   0.007142
   32  O  2 XY   -0.000831  -0.004767  -0.004304   0.000783   0.015541
   33  O  2 XZ   -0.016353   0.000306  -0.000209   0.029078   0.000167
   34  O  2 YZ    0.043523  -0.000102  -0.000205  -0.030107   0.000793
   35  O  3  S    0.000001   0.063901  -0.065323   0.000013  -0.011772
   36  O  3  S   -0.000018  -0.121182   0.147461   0.000008  -0.026835
   37  O  3  S    0.000032  -0.843401   0.831597  -0.000284   0.300737
   38  O  3  X   -0.004528   0.343344  -0.225820  -0.008506   0.118855
   39  O  3  Y    0.003914  -0.098086  -0.313401   0.007699  -0.509895
   40  O  3  Z    0.311037   0.006186   0.000620   0.581360   0.008672
   41  O  3  X   -0.000901  -1.327017   1.209534   0.011930   0.179824
   42  O  3  Y    0.000811  -0.266423   0.817955  -0.011403   1.008058
   43  O  3  Z    0.064512  -0.015844   0.007313  -0.839864  -0.010835
   44  O  3 XX    0.000683   0.010610   0.009450  -0.000917   0.015100
   45  O  3 YY   -0.000814  -0.004667  -0.007897   0.000470  -0.022388
   46  O  3 ZZ    0.000131  -0.005943  -0.001553   0.000447   0.007288
   47  O  3 XY    0.000202   0.000625  -0.011893   0.000180  -0.032114
   48  O  3 XZ   -0.027120   0.000267   0.000332   0.036135   0.000568
   49  O  3 YZ   -0.037736  -0.000011  -0.000081   0.020686  -0.000015

                     31         32         33         34         35
                    0.8662     0.9064     0.9976     1.2824     1.4084
                     A          A          A          A          A   
    1  SI 1  S   -0.000001  -0.000158   0.031764   0.000458   0.000004
    2  SI 1  S    0.000006   0.001082  -0.233775  -0.003667  -0.000087
    3  SI 1  S   -0.000062   0.003923   0.401117   0.013373  -0.006012
    4  SI 1  S    0.000021  -0.001588   0.094460  -0.001822   0.000804
    5  SI 1  X   -0.000450  -0.052319   0.016248  -0.231204   0.072878
    6  SI 1  Y    0.000396   0.006701   0.109353   0.034021  -0.010262
    7  SI 1  Z    0.031997  -0.000835  -0.001124  -0.003761   0.001180
    8  SI 1  X    0.004790   0.574793  -0.065887   1.337755  -1.229669
    9  SI 1  Y   -0.004214  -0.080408  -0.475782  -0.197506   0.174861
   10  SI 1  Z   -0.340744   0.009255   0.004960   0.021766  -0.019924
   11  SI 1  X    0.005891  -0.470644   0.008359  -0.021847  -0.287993
   12  SI 1  Y   -0.005064   0.066980   0.092462   0.005699   0.040168
   13  SI 1  Z   -0.403440  -0.007675  -0.001028  -0.000385  -0.004657
   14  SI 1 XX   -0.001246  -0.098626   0.876215  -0.267504   0.057676
   15  SI 1 YY    0.007148   0.093801  -0.147166   0.274782  -0.057209
   16  SI 1 ZZ   -0.005901   0.004825  -0.729049  -0.007279  -0.000467
   17  SI 1 XY   -0.004101  -0.378292  -0.164467  -1.107818   0.229968
   18  SI 1 XZ    0.048872   0.002965   0.028815   0.009435  -0.001882
   19  SI 1 YZ    0.330889  -0.006699  -0.010733  -0.020049   0.004146
   20  O  2  S   -0.000005   0.016179   0.049969   0.049325   0.077041
   21  O  2  S    0.000017  -0.022346  -0.311969  -0.178140  -1.229824
   22  O  2  S    0.000058  -0.275069  -0.214360  -0.804115   2.040680
   23  O  2  X    0.008704  -0.427540   0.383916   0.540931  -0.016137
   24  O  2  Y   -0.007457  -0.419696  -0.426625  -0.314857  -0.019357
   25  O  2  Z   -0.600369  -0.001055   0.010850   0.011717   0.000005
   26  O  2  X   -0.013815   0.972539  -0.146483   0.022821  -0.423278
   27  O  2  Y    0.011853   0.304871   0.081226  -0.142625   0.521856
   28  O  2  Z    0.947972   0.010400  -0.003136   0.002103  -0.012591
   29  O  2 XX   -0.000975   0.043697  -0.018737   0.022227  -0.042107
   30  O  2 YY   -0.000485  -0.032593   0.052942  -0.054550  -0.049812
   31  O  2 ZZ    0.001461  -0.011104  -0.034205   0.032323   0.091919
   32  O  2 XY    0.000815   0.005584   0.023223  -0.070459   0.121818
   33  O  2 XZ    0.038939   0.000852  -0.000031   0.000712  -0.003796
   34  O  2 YZ   -0.022742   0.000390  -0.000911   0.000236   0.003736
   35  O  3  S    0.000001  -0.016739   0.050219  -0.047970  -0.077157
   36  O  3  S    0.000014   0.026167  -0.311682   0.165856   1.230129
   37  O  3  S   -0.000067   0.272512  -0.217087   0.798354  -2.035752
   38  O  3  X    0.008771  -0.289502  -0.501220   0.597221  -0.008642
   39  O  3  Y   -0.007608   0.527318  -0.300087   0.148751   0.023651
   40  O  3  Z   -0.604322  -0.010785  -0.003519   0.006776  -0.000408
   41  O  3  X   -0.013887   0.845171   0.179198   0.060186  -0.550197
   42  O  3  Y    0.011970  -0.567180   0.033330   0.128918  -0.383611
   43  O  3  Z    0.953031   0.019330   0.002188  -0.000739  -0.003178
   44  O  3 XX    0.001104  -0.035320  -0.024209  -0.049644   0.098985
   45  O  3 YY   -0.000252   0.023786   0.057550   0.082469  -0.006853
   46  O  3 ZZ   -0.000852   0.011534  -0.033341  -0.032825  -0.092132
   47  O  3 XY   -0.000390   0.028325   0.003098  -0.036050   0.105639
   48  O  3 XZ   -0.044051  -0.001136   0.000114   0.000168   0.001872
   49  O  3 YZ   -0.011375   0.000232  -0.001261  -0.002174   0.000303

                     36         37         38         39         40
                    1.4901     2.0971     2.1012     2.1125     2.1320
                     A          A          A          A          A   
    1  SI 1  S   -0.017034  -0.000005  -0.000004  -0.000019   0.000842
    2  SI 1  S    0.155865   0.000040   0.000033   0.000226  -0.000398
    3  SI 1  S   -1.214901  -0.000207  -0.000119  -0.001677  -0.108847
    4  SI 1  S   -0.922456  -0.000084  -0.000084   0.000336   0.014906
    5  SI 1  X   -0.010345  -0.000054  -0.000331   0.019824   0.000009
    6  SI 1  Y   -0.076937   0.000004   0.000248  -0.002868   0.002105
    7  SI 1  Z    0.000807   0.000908   0.020630   0.000383   0.000004
    8  SI 1  X    0.121650  -0.000136   0.001607  -0.011024   0.007433
    9  SI 1  Y    0.904257   0.000096  -0.001470   0.002300   0.049886
   10  SI 1  Z   -0.009482  -0.005324  -0.128218  -0.000568  -0.000696
   11  SI 1  X    0.041913   0.000060  -0.000345  -0.022973  -0.000654
   12  SI 1  Y    0.290021   0.000016   0.000370   0.003021  -0.005556
   13  SI 1  Z   -0.003006   0.001266   0.029390  -0.000288   0.000098
   14  SI 1 XX   -0.290665  -0.000604  -0.000043   0.008926   0.083541
   15  SI 1 YY   -0.045736  -0.000140  -0.000759  -0.006979   0.071123
   16  SI 1 ZZ    0.336401   0.000744   0.000802  -0.001947  -0.154664
   17  SI 1 XY    0.042555   0.000251   0.000356   0.032855  -0.002869
   18  SI 1 XZ   -0.010980   0.017610  -0.005360  -0.000164   0.004032
   19  SI 1 YZ    0.006112  -0.004201  -0.031835   0.000474  -0.003303
   20  O  2  S    0.064894   0.000019   0.000015  -0.005888   0.005562
   21  O  2  S   -1.213554  -0.000376  -0.000316   0.071495  -0.078660
   22  O  2  S    2.231537   0.000659   0.000577  -0.060360   0.080055
   23  O  2  X   -0.074779  -0.000092   0.000494  -0.066812   0.044773
   24  O  2  Y    0.107494   0.000225  -0.000305   0.000303  -0.022068
   25  O  2  Z   -0.002419   0.015887  -0.026830  -0.000999   0.000895
   26  O  2  X   -0.552349  -0.000070  -0.001034   0.098763  -0.066336
   27  O  2  Y    0.237627  -0.000157   0.000720   0.002642   0.025041
   28  O  2  Z   -0.010918  -0.023925   0.047459   0.001460  -0.001220
   29  O  2 XX   -0.102885  -0.013036  -0.004218  -0.424986  -0.206390
   30  O  2 YY    0.017669   0.010641   0.015028  -0.194666  -0.378300
   31  O  2 ZZ    0.085216   0.002395  -0.010810   0.619651   0.584690
   32  O  2 XY    0.147128   0.001878  -0.005389  -0.325568  -0.373614
   33  O  2 XZ   -0.005021   0.576806   0.220658  -0.011150  -0.007805
   34  O  2 YZ    0.003020   0.448537   0.647273   0.009975   0.009597
   35  O  3  S    0.065138  -0.000022  -0.000022   0.005999   0.005415
   36  O  3  S   -1.213796   0.000261   0.000281  -0.073055  -0.076589
   37  O  3  S    2.222026  -0.000200  -0.000251   0.062181   0.078590
   38  O  3  X    0.098363   0.000499   0.000600  -0.065311  -0.047669
   39  O  3  Y    0.081327  -0.000255  -0.000332   0.017877  -0.008912
   40  O  3  Z    0.000400  -0.018117  -0.025365  -0.001293  -0.000624
   41  O  3  X    0.594442  -0.000715  -0.000983   0.095813   0.068862
   42  O  3  Y    0.074701   0.000392   0.000576  -0.029275   0.006049
   43  O  3  Z    0.007664   0.027585   0.045077   0.001974   0.001012
   44  O  3 XX   -0.161082  -0.011344   0.001104   0.257258  -0.051478
   45  O  3 YY    0.075952  -0.012048   0.015365   0.350195  -0.546104
   46  O  3 ZZ    0.085131   0.023393  -0.016470  -0.607453   0.597582
   47  O  3 XY   -0.087489   0.013718  -0.010868  -0.340597   0.269580
   48  O  3 XZ   -0.003028   0.427329  -0.066157   0.019787  -0.013820
   49  O  3 YZ   -0.001136  -0.532462   0.730026  -0.018274   0.020727

                     41         42         43         44         45
                    2.1716     2.3439     2.3750     2.5937     2.8502
                     A          A          A          A          A   
    1  SI 1  S    0.000036   0.000001  -0.000001  -0.002270   0.034492
    2  SI 1  S   -0.000305  -0.000014   0.000011   0.023774  -0.383769
    3  SI 1  S    0.000653   0.000119  -0.000080  -0.126616   2.957133
    4  SI 1  S   -0.000114   0.000016  -0.000007   0.101404   0.092640
    5  SI 1  X    0.023948  -0.001010  -0.000019   0.009572   0.013963
    6  SI 1  Y   -0.003389   0.000868   0.000019   0.066365   0.092561
    7  SI 1  Z    0.000385   0.069361   0.001652  -0.000688  -0.000950
    8  SI 1  X   -0.274106   0.006368   0.000110  -0.058214  -0.218286
    9  SI 1  Y    0.037516  -0.005478  -0.000108  -0.385252  -1.577545
   10  SI 1  Z   -0.004403  -0.433402  -0.011822   0.003957   0.016461
   11  SI 1  X    0.042345  -0.000587  -0.000015  -0.004150   0.025312
   12  SI 1  Y   -0.005703   0.000504   0.000012  -0.032924   0.186511
   13  SI 1  Z    0.000679   0.040276   0.001178   0.000349  -0.001950
   14  SI 1 XX   -0.068581  -0.001573   0.013553  -0.582276   0.641224
   15  SI 1 YY    0.068599   0.007880   0.001861   0.555841  -0.017042
   16  SI 1 ZZ   -0.000018  -0.006307  -0.015414   0.026435  -0.624182
   17  SI 1 XY   -0.275755  -0.004536  -0.007942   0.188765  -0.108837
   18  SI 1 XZ    0.002263   0.062858  -0.543064  -0.012476   0.022441
   19  SI 1 YZ   -0.004954   0.365183   0.085768  -0.004880  -0.010302
   20  O  2  S    0.007989  -0.000001   0.000000  -0.004727   0.003509
   21  O  2  S   -0.128646   0.000079  -0.000039   0.088875   0.661196
   22  O  2  S    0.141500  -0.000210   0.000122  -0.075453  -2.024281
   23  O  2  X    0.010575   0.000790   0.000481  -0.040990   0.053725
   24  O  2  Y   -0.094527  -0.000675  -0.000409   0.016080  -0.048863
   25  O  2  Z    0.001332  -0.054099  -0.033799  -0.000787   0.001384
   26  O  2  X    0.029070  -0.003162  -0.003137   0.172308   0.969422
   27  O  2  Y    0.177014   0.002728   0.002705   0.251618  -0.716595
   28  O  2  Z   -0.001779   0.224755   0.214227  -0.000652   0.022892
   29  O  2 XX   -0.516721   0.017281   0.011943  -0.657449  -0.381720
   30  O  2 YY    0.693914   0.005537   0.013202   0.669992  -0.089430
   31  O  2 ZZ   -0.177193  -0.022818  -0.025145  -0.012543   0.471151
   32  O  2 XY   -0.063760  -0.012187  -0.014858  -0.223182   0.689975
   33  O  2 XZ   -0.004990  -0.690723  -0.477926  -0.007954  -0.022728
   34  O  2 YZ   -0.013557   0.255297   0.613960  -0.013054   0.018083
   35  O  3  S   -0.008000  -0.000001   0.000000  -0.004744   0.003400
   36  O  3  S    0.128136   0.000009  -0.000004   0.089375   0.661737
   37  O  3  S   -0.141706   0.000005  -0.000001  -0.078832  -2.015064
   38  O  3  X    0.036198   0.000816  -0.000461   0.043842  -0.063707
   39  O  3  Y    0.087756  -0.000693   0.000389   0.003810  -0.031213
   40  O  3  Z   -0.000559  -0.055706   0.031544   0.000586  -0.000528
   41  O  3  X   -0.021820  -0.003363   0.002915  -0.096837  -1.126812
   42  O  3  Y   -0.177649   0.002909  -0.002500   0.286297  -0.419221
   43  O  3  Z    0.001874   0.232468  -0.201956  -0.004954  -0.011066
   44  O  3 XX    0.395758  -0.019044   0.014859  -0.451137  -0.678962
   45  O  3 YY   -0.571679   0.001656  -0.009703   0.463685   0.207500
   46  O  3 ZZ    0.175920   0.017388  -0.005156  -0.012548   0.471462
   47  O  3 XY   -0.428487   0.008379  -0.000833   0.593686  -0.496089
   48  O  3 XZ    0.008938   0.760636  -0.595227  -0.014690  -0.013021
   49  O  3 YZ    0.004455   0.076166  -0.452770   0.001754  -0.003380

                     46
                    2.9464
                     A   
    1  SI 1  S   -0.000009
    2  SI 1  S   -0.001032
    3  SI 1  S    0.024172
    4  SI 1  S   -0.001341
    5  SI 1  X   -0.191837
    6  SI 1  Y    0.027027
    7  SI 1  Z   -0.003106
    8  SI 1  X    2.946251
    9  SI 1  Y   -0.426121
   10  SI 1  Z    0.047830
   11  SI 1  X   -0.401011
   12  SI 1  Y    0.058151
   13  SI 1  Z   -0.006511
   14  SI 1 XX   -0.283069
   15  SI 1 YY    0.285516
   16  SI 1 ZZ   -0.002448
   17  SI 1 XY   -1.145340
   18  SI 1 XZ    0.009551
   19  SI 1 YZ   -0.020683
   20  O  2  S    0.015267
   21  O  2  S    0.580894
   22  O  2  S   -2.266085
   23  O  2  X    0.126576
   24  O  2  Y   -0.090948
   25  O  2  Z    0.002957
   26  O  2  X    1.046768
   27  O  2  Y   -0.939836
   28  O  2  Z    0.026786
   29  O  2 XX   -0.359434
   30  O  2 YY   -0.035183
   31  O  2 ZZ    0.394616
   32  O  2 XY    0.798054
   33  O  2 XZ   -0.022435
   34  O  2 YZ    0.017757
   35  O  3  S   -0.015066
   36  O  3  S   -0.578320
   37  O  3  S    2.239513
   38  O  3  X    0.143411
   39  O  3  Y    0.051112
   40  O  3  Z    0.001433
   41  O  3  X    1.253847
   42  O  3  Y    0.609102
   43  O  3  Z    0.010524
   44  O  3 XX    0.698785
   45  O  3 YY   -0.305363
   46  O  3 ZZ   -0.393421
   47  O  3 XY    0.574527
   48  O  3 XZ    0.011047
   49  O  3 YZ    0.007030
 ...... END OF RHF CALCULATION ......
 STEP CPU TIME =     3.05 TOTAL CPU TIME =          3.2 (      0.1 MIN)
 TOTAL WALL CLOCK TIME=          3.2 SECONDS, CPU UTILIZATION IS    98.46%

     ---------------------------------------------------------------------
     PROPERTIES FOR THE PBE      DFT FUNCTIONAL (RHF  TYPE) DENSITY MATRIX
     ---------------------------------------------------------------------

          -----------------
          ENERGY COMPONENTS
          -----------------

         WAVEFUNCTION NORMALIZATION =       1.0000000000

                ONE ELECTRON ENERGY =    -800.2721691979
                TWO ELECTRON ENERGY =     264.1676999228
           NUCLEAR REPULSION ENERGY =      96.5967670079
                                      ------------------
                       TOTAL ENERGY =    -439.5077022672

 ELECTRON-ELECTRON POTENTIAL ENERGY =     264.1676999228
  NUCLEUS-ELECTRON POTENTIAL ENERGY =   -1240.1063572249
   NUCLEUS-NUCLEUS POTENTIAL ENERGY =      96.5967670079
                                      ------------------
             TOTAL POTENTIAL ENERGY =    -879.3418902941
               TOTAL KINETIC ENERGY =     439.8341880269
                 VIRIAL RATIO (V/T) =       1.9992577072

          ---------------------------------------
          MULLIKEN AND LOWDIN POPULATION ANALYSES
          ---------------------------------------

     ATOMIC MULLIKEN POPULATION IN EACH MOLECULAR ORBITAL

                      1          2          3          4          5

                  2.000000   2.000000   2.000000   2.000000   2.000000

    1             1.999786   0.001132   0.001130   1.999698   1.999108
    2             0.000108   0.000007   1.998861   0.000158   0.000467
    3             0.000107   1.998861   0.000009   0.000144   0.000425

                      6          7          8          9         10

                  2.000000   2.000000   2.000000   2.000000   2.000000

    1             1.999953   1.998335   0.437616   0.394141   0.784854
    2             0.000024   0.000829   0.796554   0.786235   0.608927
    3             0.000023   0.000835   0.765830   0.819624   0.606219

                     11         12         13         14         15

                  2.000000   2.000000   2.000000   2.000000   2.000000

    1             0.475984   0.616431   0.313859   0.120956   0.176261
    2             0.765392   0.701470   0.846592   0.929127   0.904801
    3             0.758624   0.682099   0.839549   0.949917   0.918937

               ----- POPULATIONS IN EACH AO -----
                             MULLIKEN      LOWDIN
              1  SI 1  S      1.99978     1.99912
              2  SI 1  S      1.99088     1.88216
              3  SI 1  S      0.92560     0.40028
              4  SI 1  S      0.07614     0.19501
              5  SI 1  X      1.99517     1.96504
              6  SI 1  Y      1.99258     1.96033
              7  SI 1  Z      1.99241     1.96119
              8  SI 1  X      0.64601     0.49556
              9  SI 1  Y      0.56243     0.49338
             10  SI 1  Z      0.53396     0.48057
             11  SI 1  X      0.06099     0.15446
             12  SI 1  Y      0.06609     0.16614
             13  SI 1  Z      0.07214     0.15085
             14  SI 1 XX      0.02254     0.33132
             15  SI 1 YY      0.07342     0.16806
             16  SI 1 ZZ      0.17027     0.11759
             17  SI 1 XY      0.11881     0.19627
             18  SI 1 XZ      0.02002     0.15741
             19  SI 1 YZ      0.00000     0.02582
             20  O  2  S      1.99542     1.97257
             21  O  2  S      0.93961     0.66659
             22  O  2  S      0.86492     0.49365
             23  O  2  X      1.09213     1.04664
             24  O  2  Y      0.81384     0.76957
             25  O  2  Z      0.98254     0.93794
             26  O  2  X      0.52233     0.63212
             27  O  2  Y      0.47063     0.56931
             28  O  2  Z      0.64265     0.66749
             29  O  2 XX      0.00136     0.19351
             30  O  2 YY      0.00470     0.19645
             31  O  2 ZZ      0.00409     0.18939
             32  O  2 XY      0.00294     0.00870
             33  O  2 XZ      0.00239     0.00334
             34  O  2 YZ      0.00000     0.00252
             35  O  3  S      1.99542     1.97258
             36  O  3  S      0.93977     0.66807
             37  O  3  S      0.86638     0.49542
             38  O  3  X      1.05896     1.01011
             39  O  3  Y      0.84451     0.80290
             40  O  3  Z      0.98301     0.93859
             41  O  3  X      0.46199     0.60502
             42  O  3  Y      0.53205     0.59267
             43  O  3  Z      0.64375     0.66846
             44  O  3 XX      0.00135     0.19812
             45  O  3 YY      0.00442     0.19394
             46  O  3 ZZ      0.00430     0.19005
             47  O  3 XY      0.00426     0.00793
             48  O  3 XZ      0.00102     0.00475
             49  O  3 YZ      0.00000     0.00104

          ----- MULLIKEN ATOMIC OVERLAP POPULATIONS -----
          (OFF-DIAGONAL ELEMENTS NEED TO BE MULTIPLIED BY 2)

             1           2           3

    1   12.1150603
    2    0.6030847   7.7805495
    3    0.6010988  -0.0440811   7.7841855

          TOTAL MULLIKEN AND LOWDIN ATOMIC POPULATIONS
       ATOM         MULL.POP.    CHARGE          LOW.POP.     CHARGE
    1 SI           13.319244    0.680756        13.300571    0.699429
    2 O             8.339553   -0.339553         8.349770   -0.349770
    3 O             8.341203   -0.341203         8.349659   -0.349659

          MULLIKEN SPHERICAL HARMONIC POPULATIONS
       ATOM           S       P       D      F      G      H      I    TOTAL
    1 SI            4.99    7.92    0.41   0.00   0.00   0.00   0.00   13.32
    2 O             3.80    4.52    0.02   0.00   0.00   0.00   0.00    8.34
    3 O             3.80    4.52    0.02   0.00   0.00   0.00   0.00    8.34

          -------------------------------
          BOND ORDER AND VALENCE ANALYSIS     BOND ORDER THRESHOLD=0.050
          -------------------------------

                   BOND                       BOND                       BOND
  ATOM PAIR DIST  ORDER      ATOM PAIR DIST  ORDER      ATOM PAIR DIST  ORDER
    1   2  1.432  2.118        1   3  1.435  2.115        2   3  2.437  0.173

                       TOTAL       BONDED        FREE
      ATOM            VALENCE     VALENCE     VALENCE
    1 SI                4.233       4.233       0.000
    2 O                 2.291       2.291       0.000
    3 O                 2.288       2.288       0.000

          ---------------------
          ELECTROSTATIC MOMENTS
          ---------------------

 POINT   1           X           Y           Z (BOHR)    CHARGE
                -7.676473    7.051578    0.016023        0.00 (A.U.)
         DX          DY          DZ         /D/  (DEBYE)
     0.497545    3.469491   -0.036074    3.505171
 ...... END OF PROPERTY EVALUATION ......
 STEP CPU TIME =     0.01 TOTAL CPU TIME =          3.2 (      0.1 MIN)
 TOTAL WALL CLOCK TIME=          3.3 SECONDS, CPU UTILIZATION IS    98.47%

 BEGINNING ONE ELECTRON GRADIENT...
 ..... END OF 1-ELECTRON GRADIENT ......
 STEP CPU TIME =     0.00 TOTAL CPU TIME =          3.2 (      0.1 MIN)
 TOTAL WALL CLOCK TIME=          3.3 SECONDS, CPU UTILIZATION IS    98.17%

          ----------------------
          GRADIENT OF THE ENERGY
          ----------------------
 MEMORY FOR GRID POINT CONTRIBUTIONS TO THE DFT GRADIENT=    146145 WORDS.
 STEP CPU TIME =     0.42 TOTAL CPU TIME =          3.6 (      0.1 MIN)
 TOTAL WALL CLOCK TIME=          3.7 SECONDS, CPU UTILIZATION IS    98.37%

 THE MINIMUM MEMORY REQUIRED FOR THIS RUN IS      87966 WORDS.
 USING     990322 WORDS FOR 2E- DERIVATIVE INTEGRAL CONTRIBUTIONS.
 THE COARSE/FINE SCHWARZ SCREENINGS SKIPPED            0/           0 BLOCKS.
 THE NUMBER OF GRADIENT INTEGRAL BLOCKS COMPUTED WAS     20884
 ...... END OF 2-ELECTRON GRADIENT ......
 STEP CPU TIME =     0.17 TOTAL CPU TIME =          3.8 (      0.1 MIN)
 TOTAL WALL CLOCK TIME=          3.9 SECONDS, CPU UTILIZATION IS    98.45%

          NSERCH=  0     ENERGY=    -439.5077023

                                 -----------------------
                                 GRADIENT (HARTREE/BOHR)
                                 -----------------------
        ATOM     ZNUC       DE/DX         DE/DY         DE/DZ
 --------------------------------------------------------------
    1  SI          14.0    -0.0085693    -0.0967503     0.0010786
    2  O            8.0    -0.1823044     0.0761949    -0.0035783
    3  O            8.0     0.1908737     0.0205554     0.0024997

          MAXIMUM GRADIENT = 0.1908737    RMS GRADIENT = 0.0973825

 NSERCH:   0  E=     -439.5077022672  GRAD. MAX=  0.1908737  R.M.S.=  0.0973825

          FORCE CONSTANT MATRIX NOT UPDATED --- TAKING FIRST STEP
          MIN SEARCH, CORRECT HESSIAN, TRYING PURE NR STEP
               NR STEP HAS LENGTH         =   2.477483
          TRIM/QA LAMBDA FOR NON-TS MODES =  -0.37904074
          TRIM/QA STEP HAS LENGTH         =   0.300000
          RADIUS OF STEP TAKEN=   0.30000  CURRENT TRUST RADIUS=   0.30000

 BEGINNING GEOMETRY SEARCH POINT NSERCH=   1 ...

 COORDINATES OF ALL ATOMS ARE (ANGS)
   ATOM   CHARGE       X              Y              Z
 ------------------------------------------------------------
 SI         14.0  -4.0096996481   4.1056313006   0.0045882060
 O           8.0  -2.7942217034   3.2102681489   0.0332590432
 O           8.0  -5.4254486485   3.5801705505  -0.0093172492

          INTERNUCLEAR DISTANCES (ANGS.)
          ------------------------------

                1 SI         2 O          3 O     

   1 SI      0.0000000    1.5099284 *  1.5101813 *
   2 O       1.5099284 *  0.0000000    2.6574416 *
   3 O       1.5101813 *  2.6574416 *  0.0000000  

  * ... LESS THAN  3.000

 ...... END OF ONE-ELECTRON INTEGRALS ......
 STEP CPU TIME =     0.01 TOTAL CPU TIME =          3.8 (      0.1 MIN)
 TOTAL WALL CLOCK TIME=          3.9 SECONDS, CPU UTILIZATION IS    98.70%
 TOTAL NUMBER OF NONZERO TWO-ELECTRON INTEGRALS =              675715
         46 INTEGRAL RECORDS WERE STORED ON DISK FILE  8.
  ...... END OF TWO-ELECTRON INTEGRALS .....
 STEP CPU TIME =     0.13 TOTAL CPU TIME =          3.9 (      0.1 MIN)
 TOTAL WALL CLOCK TIME=          4.0 SECONDS, CPU UTILIZATION IS    98.75%

          --------------------------
               R-PBE SCF CALCULATION
          --------------------------
         DENSITY MATRIX CONVERGENCE THRESHOLD=  2.00E-04
     COARSE -> FINE DFT GRID SWITCH THRESHOLD=  6.00E-03 (SWITCH IN $DFT)
                   HF -> DFT SWITCH THRESHOLD=  5.00E-03 (SWOFF IN $DFT)

 DFT CODE IS SWITCHING FROM THE FINE GRID NRAD= 96,  NLEB=  302
                      TO THE COARSE GRID NRAD0= 24, NLEB0=  110

 ITER EX DEM     TOTAL ENERGY        E CHANGE  DENSITY CHANGE    DIIS ERROR
          * * *   INITIATING DIIS PROCEDURE   * * *
   1  0  0     -439.5153802168  -439.5153802168   0.056981772   0.055230466
   2  1  0     -439.5188312931    -0.0034510762   0.077495586   0.047520420
   3  2  0     -439.5151632279     0.0036680651   0.069212761   0.046794340
   4  3  0     -439.5253870174    -0.0102237895   0.018110724   0.006653239
   5  4  0     -439.5248924979     0.0004945195   0.013835293   0.014584158
   6  5  0     -439.5256107451    -0.0007182473   0.001455935   0.000395166
 DFT CODE IS SWITCHING BACK TO THE FINE GRID
          * * *   INITIATING DIIS PROCEDURE   * * *
   7  6  0     -439.5570052024    -0.0313944573   0.032767947   0.019953890
   8  7  0     -439.5574113426    -0.0004061402   0.037583638   0.012662537
   9  8  0     -439.5561421301     0.0012692125   0.031245241   0.015176952
  10  9  0     -439.5576208433    -0.0014787132   0.013134261   0.009285680
  11 10  0     -439.5579271896    -0.0003063463   0.003548154   0.001756043
  12 11  0     -439.5579510126    -0.0000238230   0.000584389   0.000245556
  13 12  0     -439.5579513772    -0.0000003646   0.000027949   0.000018448
  14 13  0     -439.5579513792    -0.0000000020   0.000002604   0.000002379

          -----------------
          DENSITY CONVERGED
          -----------------
     TIME TO FORM FOCK OPERATORS=       2.3 SECONDS (       0.2 SEC/ITER)
     TIME TO SOLVE SCF EQUATIONS=       0.0 SECONDS (       0.0 SEC/ITER)

 FINAL R-PBE ENERGY IS     -439.5579513792 AFTER  14 ITERATIONS
 DFT EXCHANGE + CORRELATION ENERGY =       -37.7757868406
 TOTAL ELECTRON NUMBER             =        29.9998759623
 ...... END OF RHF CALCULATION ......
 STEP CPU TIME =     2.36 TOTAL CPU TIME =          6.3 (      0.1 MIN)
 TOTAL WALL CLOCK TIME=          6.4 SECONDS, CPU UTILIZATION IS    98.44%
 ..... END OF 1-ELECTRON GRADIENT ......
 STEP CPU TIME =     0.00 TOTAL CPU TIME =          6.3 (      0.1 MIN)
 TOTAL WALL CLOCK TIME=          6.4 SECONDS, CPU UTILIZATION IS    98.44%
 MEMORY FOR GRID POINT CONTRIBUTIONS TO THE DFT GRADIENT=    146145 WORDS.
 STEP CPU TIME =     0.37 TOTAL CPU TIME =          6.7 (      0.1 MIN)
 TOTAL WALL CLOCK TIME=          6.8 SECONDS, CPU UTILIZATION IS    98.67%
 ...... END OF 2-ELECTRON GRADIENT ......
 STEP CPU TIME =     0.17 TOTAL CPU TIME =          6.8 (      0.1 MIN)
 TOTAL WALL CLOCK TIME=          6.9 SECONDS, CPU UTILIZATION IS    98.70%

          NSERCH=  1     ENERGY=    -439.5579514

                                 -----------------------
                                 GRADIENT (HARTREE/BOHR)
                                 -----------------------
        ATOM     ZNUC       DE/DX         DE/DY         DE/DZ
 --------------------------------------------------------------
    1  SI          14.0     0.0020864     0.0108369    -0.0001046
    2  O            8.0    -0.0718488     0.0046864    -0.0010953
    3  O            8.0     0.0697624    -0.0155233     0.0011999

          MAXIMUM GRADIENT = 0.0718488    RMS GRADIENT = 0.0340203

 NSERCH:   1  E=     -439.5579513792  GRAD. MAX=  0.0718488  R.M.S.=  0.0340203

          HESSIAN UPDATED USING THE BFGS FORMULA
             ACTUAL ENERGY CHANGE WAS  -0.0502491120
          PREDICTED ENERGY CHANGE WAS  -0.0529353208 RATIO=  0.949
          MIN SEARCH, CORRECT HESSIAN, TRYING PURE NR STEP
               NR STEP HAS LENGTH         =   1.558643
          TRIM/QA LAMBDA FOR NON-TS MODES =  -0.10613136
          TRIM/QA STEP HAS LENGTH         =   0.500000
          RADIUS OF STEP TAKEN=   0.50000  CURRENT TRUST RADIUS=   0.50000

 BEGINNING GEOMETRY SEARCH POINT NSERCH=   2 ...

 COORDINATES OF ALL ATOMS ARE (ANGS)
   ATOM   CHARGE       X              Y              Z
 ------------------------------------------------------------
 SI         14.0  -4.0299656885   3.9619710104   0.0060809035
 O           8.0  -2.6468379780   3.2627988930   0.0347336249
 O           8.0  -5.5525663335   3.6713000966  -0.0122845284

          INTERNUCLEAR DISTANCES (ANGS.)
          ------------------------------

                1 SI         2 O          3 O     

   1 SI      0.0000000    1.5500661 *  1.5502063 *
   2 O       1.5500661 *  0.0000000    2.9346791 *
   3 O       1.5502063 *  2.9346791 *  0.0000000  

  * ... LESS THAN  3.000

 ...... END OF ONE-ELECTRON INTEGRALS ......
 STEP CPU TIME =     0.00 TOTAL CPU TIME =          6.8 (      0.1 MIN)
 TOTAL WALL CLOCK TIME=          6.9 SECONDS, CPU UTILIZATION IS    98.70%
 TOTAL NUMBER OF NONZERO TWO-ELECTRON INTEGRALS =              641541
         43 INTEGRAL RECORDS WERE STORED ON DISK FILE  8.
  ...... END OF TWO-ELECTRON INTEGRALS .....
 STEP CPU TIME =     0.11 TOTAL CPU TIME =          6.9 (      0.1 MIN)
 TOTAL WALL CLOCK TIME=          7.0 SECONDS, CPU UTILIZATION IS    98.58%

          --------------------------
               R-PBE SCF CALCULATION
          --------------------------
         DENSITY MATRIX CONVERGENCE THRESHOLD=  2.00E-04
     COARSE -> FINE DFT GRID SWITCH THRESHOLD=  6.00E-03 (SWITCH IN $DFT)
                   HF -> DFT SWITCH THRESHOLD=  5.00E-03 (SWOFF IN $DFT)

 DFT CODE IS SWITCHING FROM THE FINE GRID NRAD= 96,  NLEB=  302
                      TO THE COARSE GRID NRAD0= 24, NLEB0=  110

 ITER EX DEM     TOTAL ENERGY        E CHANGE  DENSITY CHANGE    DIIS ERROR
          * * *   INITIATING DIIS PROCEDURE   * * *
   1  0  0     -439.5281431493  -439.5281431493   0.124045671   0.064380352
   2  1  0     -439.5572966279    -0.0291534787   0.038742734   0.017154875
   3  2  0     -439.5538770292     0.0034195987   0.043513314   0.031844246
   4  3  0     -439.5574057324    -0.0035287031   0.014416515   0.014589975
   5  4  0     -439.5578467605    -0.0004410281   0.010847568   0.009393390
   6  5  0     -439.5581948787    -0.0003481182   0.002032276   0.000839076
 DFT CODE IS SWITCHING BACK TO THE FINE GRID
          * * *   INITIATING DIIS PROCEDURE   * * *
   7  6  0     -439.5883702631    -0.0301753844   0.047421149   0.021759548
   8  7  0     -439.5892789141    -0.0009086510   0.028423927   0.010591130
   9  8  0     -439.5879950005     0.0012839136   0.023448858   0.017936365
  10  9  0     -439.5895047530    -0.0015097525   0.007770257   0.007239952
  11 10  0     -439.5896498148    -0.0001450618   0.002949952   0.001458848
  12 11  0     -439.5896634927    -0.0000136779   0.000656609   0.000264425
  13 12  0     -439.5896638162    -0.0000003235   0.000034960   0.000043584
  14 13  0     -439.5896638218    -0.0000000055   0.000003641   0.000003044

          -----------------
          DENSITY CONVERGED
          -----------------
     TIME TO FORM FOCK OPERATORS=       2.3 SECONDS (       0.2 SEC/ITER)
     TIME TO SOLVE SCF EQUATIONS=       0.0 SECONDS (       0.0 SEC/ITER)

 FINAL R-PBE ENERGY IS     -439.5896638218 AFTER  14 ITERATIONS
 DFT EXCHANGE + CORRELATION ENERGY =       -37.7261020527
 TOTAL ELECTRON NUMBER             =        30.0000700802
 ...... END OF RHF CALCULATION ......
 STEP CPU TIME =     2.31 TOTAL CPU TIME =          9.3 (      0.2 MIN)
 TOTAL WALL CLOCK TIME=          9.4 SECONDS, CPU UTILIZATION IS    98.51%
 ..... END OF 1-ELECTRON GRADIENT ......
 STEP CPU TIME =     0.01 TOTAL CPU TIME =          9.3 (      0.2 MIN)
 TOTAL WALL CLOCK TIME=          9.4 SECONDS, CPU UTILIZATION IS    98.51%
 MEMORY FOR GRID POINT CONTRIBUTIONS TO THE DFT GRADIENT=    146145 WORDS.
 STEP CPU TIME =     0.33 TOTAL CPU TIME =          9.6 (      0.2 MIN)
 TOTAL WALL CLOCK TIME=          9.8 SECONDS, CPU UTILIZATION IS    98.46%
 ...... END OF 2-ELECTRON GRADIENT ......
 STEP CPU TIME =     0.15 TOTAL CPU TIME =          9.8 (      0.2 MIN)
 TOTAL WALL CLOCK TIME=          9.9 SECONDS, CPU UTILIZATION IS    98.58%

          NSERCH=  2     ENERGY=    -439.5896638

                                 -----------------------
                                 GRADIENT (HARTREE/BOHR)
                                 -----------------------
        ATOM     ZNUC       DE/DX         DE/DY         DE/DZ
 --------------------------------------------------------------
    1  SI          14.0     0.0049044     0.0361525    -0.0003785
    2  O            8.0    -0.0095340    -0.0171130     0.0000750
    3  O            8.0     0.0046296    -0.0190395     0.0003034

          MAXIMUM GRADIENT = 0.0361525    RMS GRADIENT = 0.0152716

 NSERCH:   2  E=     -439.5896638218  GRAD. MAX=  0.0361525  R.M.S.=  0.0152716

          HESSIAN UPDATED USING THE BFGS FORMULA
             ACTUAL ENERGY CHANGE WAS  -0.0317124425
          PREDICTED ENERGY CHANGE WAS  -0.0342709907 RATIO=  0.925
          MIN SEARCH, CORRECT HESSIAN, TRYING PURE NR STEP
               NR STEP HAS LENGTH         =   0.593240
          TRIM/QA LAMBDA FOR NON-TS MODES =  -0.01285866
          TRIM/QA STEP HAS LENGTH         =   0.500000
          RADIUS OF STEP TAKEN=   0.50000  CURRENT TRUST RADIUS=   0.50000

 BEGINNING GEOMETRY SEARCH POINT NSERCH=   3 ...

 COORDINATES OF ALL ATOMS ARE (ANGS)
   ATOM   CHARGE       X              Y              Z
 ------------------------------------------------------------
 SI         14.0  -4.0536308867   3.7929317172   0.0078399137
 O           8.0  -2.5214574037   3.3313815037   0.0356911375
 O           8.0  -5.6542817096   3.7717567791  -0.0150010512

          INTERNUCLEAR DISTANCES (ANGS.)
          ------------------------------

                1 SI         2 O          3 O     

   1 SI      0.0000000    1.6004249 *  1.6009538 *
   2 O       1.6004249 *  0.0000000    3.1640304  
   3 O       1.6009538 *  3.1640304    0.0000000  

  * ... LESS THAN  3.000

 ...... END OF ONE-ELECTRON INTEGRALS ......
 STEP CPU TIME =     0.00 TOTAL CPU TIME =          9.8 (      0.2 MIN)
 TOTAL WALL CLOCK TIME=          9.9 SECONDS, CPU UTILIZATION IS    98.48%
 TOTAL NUMBER OF NONZERO TWO-ELECTRON INTEGRALS =              600998
         41 INTEGRAL RECORDS WERE STORED ON DISK FILE  8.
  ...... END OF TWO-ELECTRON INTEGRALS .....
 STEP CPU TIME =     0.12 TOTAL CPU TIME =          9.9 (      0.2 MIN)
 TOTAL WALL CLOCK TIME=         10.0 SECONDS, CPU UTILIZATION IS    98.50%

          --------------------------
               R-PBE SCF CALCULATION
          --------------------------
         DENSITY MATRIX CONVERGENCE THRESHOLD=  5.00E-05
     COARSE -> FINE DFT GRID SWITCH THRESHOLD=  1.50E-03 (SWITCH IN $DFT)
                   HF -> DFT SWITCH THRESHOLD=  5.00E-03 (SWOFF IN $DFT)

 DFT CODE IS SWITCHING FROM THE FINE GRID NRAD= 96,  NLEB=  302
                      TO THE COARSE GRID NRAD0= 24, NLEB0=  110

 ITER EX DEM     TOTAL ENERGY        E CHANGE  DENSITY CHANGE    DIIS ERROR
          * * *   INITIATING DIIS PROCEDURE   * * *
   1  0  0     -439.5302980248  -439.5302980248   0.124493827   0.076136682
   2  1  0     -439.5565976535    -0.0262996287   0.125868810   0.047867732
   3  2  0     -439.5405319414     0.0160657121   0.097292522   0.086734449
   4  3  0     -439.5629077415    -0.0223758001   0.012792377   0.006340344
   5  4  0     -439.5630233086    -0.0001155672   0.002868944   0.002993939
   6  5  0     -439.5630273340    -0.0000040254   0.001556805   0.002833800
   7  6  0     -439.5630492790    -0.0000219450   0.000151201   0.000121418
 DFT CODE IS SWITCHING BACK TO THE FINE GRID
          * * *   INITIATING DIIS PROCEDURE   * * *
   8  7  0     -439.5965823052    -0.0335330262   0.046660113   0.023462386
[...]
   45  O  3 YY   -0.000031   0.001184  -0.003104  -0.006284   0.005559
   46  O  3 ZZ   -0.000016   0.001256  -0.003293  -0.006665   0.005897
   47  O  3 XY    0.000124   0.000599  -0.001572  -0.003180   0.002815
   48  O  3 XZ   -0.000559  -0.000069   0.000181   0.000367  -0.000324
   49  O  3 YZ    0.000081   0.000010  -0.000025  -0.000051   0.000045

                     11         12         13         14         15
                   -0.3580    -0.3412    -0.3412    -0.3036    -0.3035
                     A          A          A          A          A   
    1  SI 1  S   -0.000000  -0.000000   0.000000  -0.000000   0.000000
    2  SI 1  S    0.000000  -0.000000   0.000000   0.000002  -0.000000
    3  SI 1  S   -0.000003   0.000004  -0.000001  -0.000008  -0.000002
    4  SI 1  S   -0.000003   0.000025  -0.000006   0.000006   0.000004
    5  SI 1  X   -0.162909  -0.019677   0.007259   0.000002  -0.000001
    6  SI 1  Y    0.022894  -0.144105   0.034920   0.000001  -0.000000
    7  SI 1  Z   -0.002634  -0.035585  -0.145425   0.000000   0.000001
    8  SI 1  X    0.422085   0.051801  -0.019117  -0.000007   0.000001
    9  SI 1  Y   -0.059316   0.379338  -0.091921  -0.000003   0.000001
   10  SI 1  Z    0.006824   0.093673   0.382814  -0.000001  -0.000004
   11  SI 1  X   -0.115065   0.010651  -0.003925   0.000036  -0.000010
   12  SI 1  Y    0.016181   0.077883  -0.018874  -0.000007   0.000002
   13  SI 1  Z   -0.001864   0.019234   0.078604   0.000000  -0.000002
   14  SI 1 XX   -0.000004   0.000014  -0.000003   0.028517  -0.010759
   15  SI 1 YY    0.000004  -0.000014   0.000003  -0.029380   0.007346
   16  SI 1 ZZ    0.000001   0.000000   0.000000   0.000864   0.003414
   17  SI 1 XY   -0.000011  -0.000003   0.000001   0.118349  -0.029289
   18  SI 1 XZ    0.000000   0.000000   0.000000   0.030996   0.121666
   19  SI 1 YZ   -0.000000  -0.000002  -0.000009  -0.002368  -0.017606
   20  O  2  S    0.050848  -0.000007   0.000002  -0.000003   0.000000
   21  O  2  S   -0.100231   0.000016  -0.000006   0.000007  -0.000002
   22  O  2  S   -0.224693   0.000022  -0.000005   0.000004   0.000002
   23  O  2  X   -0.428178   0.050287  -0.018546   0.059522  -0.022436
   24  O  2  Y    0.060314   0.367369  -0.089016   0.435399  -0.108837
   25  O  2  Z   -0.006933   0.090724   0.370740   0.110891   0.439389
   26  O  2  X   -0.201370   0.032020  -0.011812   0.042879  -0.016166
   27  O  2  Y    0.028380   0.233926  -0.056683   0.313758  -0.078433
   28  O  2  Z   -0.003262   0.057768   0.236071   0.079907   0.316631
   29  O  2 XX    0.016782  -0.004613   0.001703  -0.003860   0.001457
   30  O  2 YY   -0.008142   0.004743  -0.001149   0.003973  -0.000992
   31  O  2 ZZ   -0.008639  -0.000130  -0.000554  -0.000114  -0.000465
   32  O  2 XY   -0.004136  -0.019100   0.004580  -0.016014   0.003963
   33  O  2 XZ    0.000475  -0.004853  -0.019637  -0.004194  -0.016461
   34  O  2 YZ   -0.000067   0.000362   0.002844   0.000321   0.002387
   35  O  3  S   -0.050848  -0.000002   0.000000   0.000001  -0.000001
   36  O  3  S    0.100229   0.000002   0.000002  -0.000003   0.000001
   37  O  3  S    0.224697   0.000018  -0.000006   0.000000   0.000002
   38  O  3  X   -0.428202   0.050116  -0.018503  -0.059321   0.022383
   39  O  3  Y    0.060124   0.367382  -0.089020  -0.435437   0.108847
   40  O  3  Z   -0.006931   0.090719   0.370731  -0.110890  -0.439398
   41  O  3  X   -0.201381   0.031914  -0.011785  -0.042759   0.016134
   42  O  3  Y    0.028266   0.233934  -0.056685  -0.313781   0.078439
   43  O  3  Z   -0.003260   0.057764   0.236064  -0.079907  -0.316637
   44  O  3 XX   -0.016784   0.004599  -0.001700  -0.003852   0.001456
   45  O  3 YY    0.008145  -0.004732   0.001146   0.003966  -0.000990
   46  O  3 ZZ    0.008639   0.000133   0.000554  -0.000113  -0.000465
   47  O  3 XY    0.004123   0.019104  -0.004581  -0.016017   0.003963
   48  O  3 XZ   -0.000475   0.004852   0.019637  -0.004194  -0.016462
   49  O  3 YZ    0.000067  -0.000360  -0.002839   0.000320   0.002382

                     16         17         18         19         20
                   -0.1660    -0.0677    -0.0676     0.0901     0.1414
                     A          A          A          A          A   
    1  SI 1  S    0.036462   0.000012  -0.000004  -0.000001  -0.000027
    2  SI 1  S   -0.237223  -0.000081   0.000023   0.000004   0.000190
    3  SI 1  S    0.303324   0.000071  -0.000020  -0.000027  -0.000773
    4  SI 1  S    0.819693   0.000417  -0.000119   0.000009   0.000815
    5  SI 1  X   -0.000013   0.027650  -0.011104  -0.029276   0.035082
    6  SI 1  Y   -0.000093   0.203160  -0.055364   0.004123   0.248859
    7  SI 1  Z    0.000001   0.056364   0.205003  -0.000489  -0.005862
    8  SI 1  X    0.000040  -0.091756   0.036858   0.025088  -0.152700
    9  SI 1  Y    0.000287  -0.674128   0.183708  -0.003559  -1.083211
   10  SI 1  Z   -0.000003  -0.187027  -0.680246   0.000471   0.025516
   11  SI 1  X    0.000008  -0.058966   0.023687   1.392459   0.172259
   12  SI 1  Y    0.000084  -0.433401   0.118108  -0.195720   1.222298
   13  SI 1  Z   -0.000001  -0.120239  -0.437330   0.022470  -0.028793
   14  SI 1 XX   -0.222465  -0.000088   0.000026   0.000001   0.000043
   15  SI 1 YY    0.107945   0.000017  -0.000006  -0.000006  -0.000028
   16  SI 1 ZZ    0.114519   0.000072  -0.000020   0.000004  -0.000016
   17  SI 1 XY    0.054719   0.000018  -0.000005   0.000040  -0.000011
   18  SI 1 XZ   -0.006300  -0.000004  -0.000003  -0.000000   0.000001
   19  SI 1 YZ    0.000886  -0.000008  -0.000030   0.000001   0.000000
   20  O  2  S    0.036814   0.000024  -0.000006   0.062860   0.000001
   21  O  2  S   -0.084907  -0.000054   0.000016  -0.124640   0.000013
   22  O  2  S   -0.209586  -0.000163   0.000030  -0.563118  -0.000085
   23  O  2  X    0.315677   0.042322  -0.016973   0.004401   0.003088
   24  O  2  Y   -0.044563   0.309837  -0.084437  -0.000683   0.022258
   25  O  2  Z    0.005107   0.085969   0.312676   0.000066  -0.000525
   26  O  2  X    0.199580   0.040014  -0.016042  -0.025811  -0.000755
   27  O  2  Y   -0.028210   0.293142  -0.079890   0.003594  -0.005351
   28  O  2  Z    0.003230   0.081333   0.295822  -0.000419   0.000126
   29  O  2 XX    0.000452  -0.000023   0.000010  -0.007573   0.003917
   30  O  2 YY   -0.000220   0.000021  -0.000005   0.003674  -0.003911
   31  O  2 ZZ   -0.000232   0.000002  -0.000005   0.003899  -0.000006
   32  O  2 XY   -0.000109  -0.000104   0.000028   0.001866   0.015745
   33  O  2 XZ    0.000013  -0.000030  -0.000106  -0.000215  -0.000342
   34  O  2 YZ   -0.000002   0.000002   0.000017   0.000030   0.000313
   35  O  3  S    0.036815   0.000024  -0.000008  -0.062859   0.000005
   36  O  3  S   -0.084908  -0.000055   0.000015   0.124629   0.000004
   37  O  3  S   -0.209587  -0.000156   0.000060   0.563140  -0.000121
   38  O  3  X   -0.315731   0.042017  -0.016885   0.004414   0.003183
   39  O  3  Y    0.044207   0.309880  -0.084449  -0.000570   0.022244
   40  O  3  Z   -0.005103   0.085964   0.312678   0.000064  -0.000523
   41  O  3  X   -0.199622   0.039775  -0.015974  -0.025776  -0.000754
   42  O  3  Y    0.027914   0.293175  -0.079899   0.003660  -0.005353
   43  O  3  Z   -0.003227   0.081329   0.295822  -0.000419   0.000126
   44  O  3 XX    0.000451   0.000022  -0.000010   0.007575  -0.003927
   45  O  3 YY   -0.000219  -0.000021   0.000005  -0.003675   0.003912
   46  O  3 ZZ   -0.000232  -0.000001   0.000005  -0.003900   0.000015
   47  O  3 XY   -0.000111   0.000104  -0.000028  -0.001862  -0.015743
   48  O  3 XZ    0.000013   0.000030   0.000106   0.000215   0.000342
   49  O  3 YZ   -0.000002  -0.000003  -0.000017  -0.000030  -0.000313

                     21         22         23         24         25
                    0.1414     0.1818     0.4792     0.4792     0.5210
                     A          A          A          A          A   
    1  SI 1  S    0.000000  -0.067365   0.000000   0.000000  -0.000000
    2  SI 1  S   -0.000003   0.480272  -0.000003  -0.000000   0.000002
    3  SI 1  S    0.000010  -1.952010   0.000020   0.000001  -0.000016
    4  SI 1  S   -0.000011   1.884786  -0.000002   0.000001  -0.000014
    5  SI 1  X    0.003173  -0.000019  -0.000000  -0.000001  -0.398385
    6  SI 1  Y   -0.006367  -0.000108  -0.000002  -0.000007   0.056009
    7  SI 1  Z   -0.251287   0.000001   0.000007  -0.000002  -0.006448
    8  SI 1  X   -0.013808   0.000091   0.000001   0.000004   2.219651
    9  SI 1  Y    0.027712   0.000470   0.000008   0.000025  -0.312056
   10  SI 1  Z    1.093780  -0.000004  -0.000025   0.000008   0.035923
   11  SI 1  X    0.015505  -0.000084   0.000000   0.000001  -0.707815
   12  SI 1  Y   -0.031259  -0.000506   0.000002   0.000007   0.099507
   13  SI 1  Z   -1.234220   0.000005  -0.000007   0.000002  -0.011454
   14  SI 1 XX   -0.000001   0.199958  -0.008509  -0.014633   0.000465
   15  SI 1 YY    0.000001  -0.097025  -0.246436  -0.808897  -0.000474
   16  SI 1 ZZ    0.000000  -0.102932   0.254945   0.823530   0.000009
   17  SI 1 XY    0.000000  -0.049180  -0.055257  -0.126638   0.001947
   18  SI 1 XZ    0.000001   0.005657   0.127732  -0.056075  -0.000016
   19  SI 1 YZ    0.000008  -0.000794   0.942447  -0.289440   0.000035
   20  O  2  S   -0.000004   0.005149   0.000000  -0.000000   0.071051
   21  O  2  S    0.000009   0.031592   0.000001   0.000001  -0.225651
   22  O  2  S    0.000030  -0.255717  -0.000009  -0.000002  -0.548267
   23  O  2  X    0.000284  -0.202225  -0.000004  -0.000007   0.381910
   24  O  2  Y   -0.000570   0.028435  -0.000017  -0.000049  -0.054620
   25  O  2  Z   -0.022467  -0.003273   0.000056  -0.000022   0.006189
   26  O  2  X   -0.000069  -0.094296   0.000010   0.000000   0.597129
   27  O  2  Y    0.000137   0.013252  -0.000003  -0.000007  -0.083984
   28  O  2  Z    0.005404  -0.001524   0.000001   0.000002   0.009663
   29  O  2 XX    0.000355  -0.025380  -0.000263  -0.000451   0.012060
   30  O  2 YY    0.000100   0.012315  -0.007569  -0.024846  -0.005837
   31  O  2 ZZ   -0.000455   0.013065   0.007833   0.025297  -0.006223
   32  O  2 XY   -0.000440   0.006241  -0.001701  -0.003900  -0.003092
   33  O  2 XZ   -0.016216  -0.000718   0.003935  -0.001726   0.000343
   34  O  2 YZ    0.002276   0.000101   0.028951  -0.008891  -0.000051
   35  O  3  S    0.000004   0.005149   0.000000  -0.000000  -0.071052
   36  O  3  S   -0.000009   0.031586   0.000001   0.000001   0.225646
   37  O  3  S   -0.000027  -0.255700  -0.000009  -0.000002   0.548297
   38  O  3  X    0.000283   0.202228  -0.000003  -0.000009   0.382153
   39  O  3  Y   -0.000569  -0.028423  -0.000019  -0.000064  -0.052796
   40  O  3  Z   -0.022467   0.003273   0.000058  -0.000015   0.006168
   41  O  3  X   -0.000069   0.094314  -0.000011  -0.000000   0.597185
   42  O  3  Y    0.000137  -0.013262   0.000002   0.000004  -0.083915
   43  O  3  Z    0.005405   0.001524   0.000002  -0.000003   0.009664
   44  O  3 XX   -0.000355  -0.025379  -0.000261  -0.000446  -0.012119
   45  O  3 YY   -0.000100   0.012314  -0.007571  -0.024851   0.005896
   46  O  3 ZZ    0.000455   0.013065   0.007832   0.025297   0.006223
   47  O  3 XY    0.000440   0.006244  -0.001694  -0.003879   0.002853
   48  O  3 XZ    0.016216  -0.000718   0.003913  -0.001719  -0.000341
   49  O  3 YZ   -0.002271   0.000101   0.028954  -0.008891   0.000047

     ---------------------------------------------------------------------
     PROPERTIES FOR THE PBE      DFT FUNCTIONAL (RHF  TYPE) DENSITY MATRIX
     ---------------------------------------------------------------------

          -----------------
          ENERGY COMPONENTS
          -----------------

         WAVEFUNCTION NORMALIZATION =       1.0000000000

                ONE ELECTRON ENERGY =    -782.7129135474
                TWO ELECTRON ENERGY =     255.1782528736
           NUCLEAR REPULSION ENERGY =      87.9270911389
                                      ------------------
                       TOTAL ENERGY =    -439.6075695349

 ELECTRON-ELECTRON POTENTIAL ENERGY =     255.1782528736
  NUCLEUS-ELECTRON POTENTIAL ENERGY =   -1221.6122101550
   NUCLEUS-NUCLEUS POTENTIAL ENERGY =      87.9270911389
                                      ------------------
             TOTAL POTENTIAL ENERGY =    -878.5068661425
               TOTAL KINETIC ENERGY =     438.8992966076
                 VIRIAL RATIO (V/T) =       2.0016137481

          ---------------------------------------
          MULLIKEN AND LOWDIN POPULATION ANALYSES
          ---------------------------------------

     ATOMIC MULLIKEN POPULATION IN EACH MOLECULAR ORBITAL

                      1          2          3          4          5

                  2.000000   2.000000   2.000000   2.000000   2.000000

    1             1.999859   0.001606   0.000465   2.000248   2.000033
    2             0.000071   0.989993   1.008972  -0.000124  -0.000016
    3             0.000071   1.008402   0.990563  -0.000124  -0.000016

                      6          7          8          9         10

                  2.000000   2.000000   2.000000   2.000000   2.000000

    1             2.000033   1.999109   0.399893   0.303489   0.675660
    2            -0.000016   0.000445   0.800089   0.848216   0.662167
    3            -0.000016   0.000445   0.800018   0.848295   0.662173

                     11         12         13         14         15

                  2.000000   2.000000   2.000000   2.000000   2.000000

    1             0.322603   0.601441   0.601465   0.117055   0.117056
    2             0.838704   0.699300   0.699286   0.941451   0.941452
    3             0.838693   0.699259   0.699249   0.941494   0.941491

               ----- POPULATIONS IN EACH AO -----
                             MULLIKEN      LOWDIN
              1  SI 1  S      1.99977     1.99906
              2  SI 1  S      1.99011     1.88566
              3  SI 1  S      0.94094     0.40908
              4  SI 1  S      0.05885     0.17143
              5  SI 1  X      1.99538     1.96518
              6  SI 1  Y      1.99272     1.96050
              7  SI 1  Z      1.99267     1.96041
              8  SI 1  X      0.61814     0.49975
              9  SI 1  Y      0.52058     0.47448
             10  SI 1  Z      0.51866     0.47385
             11  SI 1  X      0.01280     0.13527
             12  SI 1  Y      0.08866     0.16929
             13  SI 1  Z      0.09018     0.16998
             14  SI 1 XX      0.02167     0.35443
             15  SI 1 YY      0.06881     0.12545
             16  SI 1 ZZ      0.11306     0.11830
             17  SI 1 XY      0.11474     0.14673
             18  SI 1 XZ      0.00230     0.14905
             19  SI 1 YZ      0.00000     0.00298
             20  O  2  S      1.99548     1.97271
             21  O  2  S      0.94714     0.68296
             22  O  2  S      0.91255     0.51613
             23  O  2  X      0.87709     0.82129
             24  O  2  Y      0.97087     0.93009
             25  O  2  Z      0.97275     0.93186
             26  O  2  X      0.41810     0.58202
             27  O  2  Y      0.65878     0.68415
             28  O  2  Z      0.66358     0.68538
             29  O  2 XX      0.00126     0.20547
             30  O  2 YY      0.00381     0.19669
             31  O  2 ZZ      0.00426     0.19647
             32  O  2 XY      0.00422     0.00477
             33  O  2 XZ      0.00008     0.00448
             34  O  2 YZ      0.00000     0.00009
             35  O  3  S      1.99548     1.97271
             36  O  3  S      0.94714     0.68296
             37  O  3  S      0.91255     0.51613
             38  O  3  X      0.87706     0.82126
             39  O  3  Y      0.97090     0.93012
             40  O  3  Z      0.97275     0.93186
             41  O  3  X      0.41807     0.58200
             42  O  3  Y      0.65881     0.68417
             43  O  3  Z      0.66358     0.68538
             44  O  3 XX      0.00126     0.20547
             45  O  3 YY      0.00381     0.19669
             46  O  3 ZZ      0.00426     0.19647
             47  O  3 XY      0.00422     0.00476
             48  O  3 XZ      0.00008     0.00448
             49  O  3 YZ      0.00000     0.00009

          ----- MULLIKEN ATOMIC OVERLAP POPULATIONS -----
          (OFF-DIAGONAL ELEMENTS NEED TO BE MULTIPLIED BY 2)

             1           2           3

    1   12.0372342
    2    0.5513901   7.8861578
    3    0.5513907  -0.0075585   7.8861633

          TOTAL MULLIKEN AND LOWDIN ATOMIC POPULATIONS
       ATOM         MULL.POP.    CHARGE          LOW.POP.     CHARGE
    1 SI           13.140015    0.859985        13.170899    0.829101
    2 O             8.429989   -0.429989         8.414550   -0.414550
    3 O             8.429996   -0.429996         8.414552   -0.414552

          MULLIKEN SPHERICAL HARMONIC POPULATIONS
       ATOM           S       P       D      F      G      H      I    TOTAL
    1 SI            4.99    7.83    0.32   0.00   0.00   0.00   0.00   13.14
    2 O             3.86    4.56    0.01   0.00   0.00   0.00   0.00    8.43
    3 O             3.86    4.56    0.01   0.00   0.00   0.00   0.00    8.43

          -------------------------------
          BOND ORDER AND VALENCE ANALYSIS     BOND ORDER THRESHOLD=0.050
          -------------------------------

                   BOND                       BOND                       BOND
  ATOM PAIR DIST  ORDER      ATOM PAIR DIST  ORDER      ATOM PAIR DIST  ORDER
    1   2  1.541  2.047        1   3  1.541  2.047        2   3  3.081  0.166

                       TOTAL       BONDED        FREE
      ATOM            VALENCE     VALENCE     VALENCE
    1 SI                4.094       4.094      -0.000
    2 O                 2.213       2.213      -0.000
    3 O                 2.213       2.213      -0.000

          ---------------------
          ELECTROSTATIC MOMENTS
          ---------------------

 POINT   1           X           Y           Z (BOHR)    CHARGE
                -7.703378    6.863579    0.017971       -0.00 (A.U.)
         DX          DY          DZ         /D/  (DEBYE)
     0.000132    0.000921   -0.000010    0.000931
 ...... END OF PROPERTY EVALUATION ......
 STEP CPU TIME =     0.01 TOTAL CPU TIME =         31.6 (      0.5 MIN)
 TOTAL WALL CLOCK TIME=         32.1 SECONDS, CPU UTILIZATION IS    98.50%
  $VIB   
          IVIB=   0 IATOM=   0 ICOORD=   0 E=     -439.6075695349
  7.416917566E-06 1.369088925E-05-6.307517907E-08-8.600179207E-06-6.157394559E-06
 -4.762061681E-08 1.183261641E-06-7.533494693E-06 1.106957994E-07
  1.320322120E-04 9.214850443E-04-9.538418728E-06
 ......END OF GEOMETRY SEARCH......
 STEP CPU TIME =     0.00 TOTAL CPU TIME =         31.6 (      0.5 MIN)
 TOTAL WALL CLOCK TIME=         32.1 SECONDS, CPU UTILIZATION IS    98.47%
                990394  WORDS OF DYNAMIC MEMORY USED
 EXECUTION OF GAMESS TERMINATED NORMALLY Sun Sep 29 16:45:46 2019
 DDI: 263640 bytes (0.3 MB / 0 MWords) used by master data server.

 ----------------------------------------
 CPU timing information for all processes
 ========================================
 0: 31.45 + 0.584 = 31.630
 ----------------------------------------
 ddikick.x: exited gracefully.
----- accounting info -----
Files used on the master node crcfe02.crc.nd.edu were:
-rwxr-xr-x 1 cdrisko campus     331 Sep 29 16:45 /afs/crc.nd.edu/user/c/cdrisko/SiO2_opt.F05*
-rw-r--r-- 1 cdrisko campus  193515 Sep 29 16:45 /afs/crc.nd.edu/user/c/cdrisko/SiO2_opt.F07
-rw-r--r-- 1 cdrisko campus 7560672 Sep 29 16:45 /afs/crc.nd.edu/user/c/cdrisko/SiO2_opt.F08
-rw-r--r-- 1 cdrisko campus 1668720 Sep 29 16:45 /afs/crc.nd.edu/user/c/cdrisko/SiO2_opt.F10
-rw-r--r-- 1 cdrisko campus 1069880 Sep 29 16:45 /afs/crc.nd.edu/user/c/cdrisko/SiO2_opt.F22
Sun Sep 29 16:45:49 EDT 2019
0.402u 0.190s 0:35.69 1.6%	0+0k 0+16io 0pf+0w
