----- GAMESS execution script 'rungms' -----
This job is running on host crcfe02.crc.nd.edu
under operating system Linux at Sun Sep 29 15:47:22 EDT 2019
Available scratch disk space (Kbyte units) at beginning of the job is
Filesystem      1K-blocks  Used  Available Use% Mounted on
AFS            2147483647     0 2147483647   0% /afs
GAMESS temporary binary files will be written to /afs/crc.nd.edu/user/c/cdrisko
GAMESS supplementary output files will be written to /afs/crc.nd.edu/user/c/cdrisko/scr
Copying input file SO2_opt.inp to your run's scratch directory...

 Distributed Data Interface kickoff program.
 Initiating 1 compute processes on 1 nodes to run the following command:
 /afs/crc.nd.edu/x86_64_linux/g/gamess/nov-2017/gamess/gamess.00.x SO2_opt 

          ******************************************************
          *         GAMESS VERSION = 11 NOV 2017 (R3)         *
          *             FROM IOWA STATE UNIVERSITY             *
          * M.W.SCHMIDT, K.K.BALDRIDGE, J.A.BOATZ, S.T.ELBERT, *
          *   M.S.GORDON, J.H.JENSEN, S.KOSEKI, N.MATSUNAGA,   *
          *          K.A.NGUYEN, S.J.SU, T.L.WINDUS,           *
          *       TOGETHER WITH M.DUPUIS, J.A.MONTGOMERY       *
          *         J.COMPUT.CHEM.  14, 1347-1363(1993)        *
          **************** 64 BIT INTEL VERSION ****************

  SINCE 1993, STUDENTS AND POSTDOCS WORKING AT IOWA STATE UNIVERSITY
  AND ALSO IN THEIR VARIOUS JOBS AFTER LEAVING ISU HAVE MADE IMPORTANT
  CONTRIBUTIONS TO THE CODE:
     IVANA ADAMOVIC, CHRISTINE AIKENS, YURI ALEXEEV, POOJA ARORA,
     ANDREY ASADCHEV, ROB BELL, PRADIPTA BANDYOPADHYAY, JONATHAN BENTZ,
     BRETT BODE, KURT BRORSEN, CALEB CARLIN, GALINA CHABAN, WEI CHEN,
     CHEOL HO CHOI, PAUL DAY, ALBERT DEFUSCO, NUWAN DESILVA, TIM DUDLEY,
     DMITRI FEDOROV, ALEX FINDLATER, GRAHAM FLETCHER, MARK FREITAG,
     KURT GLAESEMANN, ANASTASIA GUININA,
     DAN KEMP, GRANT MERRILL, NORIYUKI MINEZAWA, JONATHAN MULLIN,
     TAKESHI NAGATA, SEAN NEDD, HEATHER NETZLOFF, BOSILJKA NJEGIC, RYAN OLSON,
     MIKE PAK, BUU PHAM,
     SPENCER PRUITT, LUKE ROSKOP, JIM SHOEMAKER, LYUDMILA SLIPCHENKO,
     TONY SMITH, SAROM SOK LEANG, JIE SONG, TETSUYA TAKETSUGU, SIMON WEBB,
     PENG XU, SOOHAENG YOO, FEDERICO ZAHARIEV

  ADDITIONAL CODE HAS BEEN PROVIDED BY COLLABORATORS IN OTHER GROUPS:
     IOWA STATE UNIVERSITY:
          JOE IVANIC, AARON WEST, LAIMUTIS BYTAUTAS, KLAUS RUEDENBERG
     UNIVERSITY OF TOKYO: KIMIHIKO HIRAO, TAKAHITO NAKAJIMA,
          TAKAO TSUNEDA, MUNEAKI KAMIYA, SUSUMU YANAGISAWA,
          KIYOSHI YAGI, MAHITO CHIBA, SEIKEN TOKURA, NAOAKI KAWAKAMI
     UNIVERSITY OF AARHUS: FRANK JENSEN
     UNIVERSITY OF IOWA: VISVALDAS KAIRYS, HUI LI
     NATIONAL INST. OF STANDARDS AND TECHNOLOGY: WALT STEVENS, DAVID GARMER
     UNIVERSITY OF PISA: BENEDETTA MENNUCCI, JACOPO TOMASI
     UNIVERSITY OF MEMPHIS: HENRY KURTZ, PRAKASHAN KORAMBATH
     UNIVERSITY OF ALBERTA: TOBY ZENG, MARIUSZ KLOBUKOWSKI
     UNIVERSITY OF NEW ENGLAND: MARK SPACKMAN
     MIE UNIVERSITY: HIROAKI UMEDA
     NAT. INST. OF ADVANCED INDUSTRIAL SCIENCE AND TECHNOLOGY: KAZUO KITAURA
     MICHIGAN STATE UNIVERSITY:
          KAROL KOWALSKI, MARTA WLOCH, JEFFREY GOUR, JESSE LUTZ,
          WEI LI, PIOTR PIECUCH
     UNIVERSITY OF SILESIA: MONIKA MUSIAL, STANISLAW KUCHARSKI
     FACULTES UNIVERSITAIRES NOTRE-DAME DE LA PAIX:
          OLIVIER QUINET, BENOIT CHAMPAGNE
     UNIVERSITY OF CALIFORNIA - SANTA BARBARA: BERNARD KIRTMAN
     INSTITUTE FOR MOLECULAR SCIENCE:
          KAZUYA ISHIMURA, MICHIO KATOUDA, AND SHIGERU NAGASE
     UNIVERSITY OF NOTRE DAME: ANNA POMOGAEVA, DAN CHIPMAN
     KYUSHU UNIVERSITY:
          HARUYUKI NAKANO,
          FENG LONG GU, JACEK KORCHOWIEC, MARCIN MAKOWSKI, AND YURIKO AOKI,
          HIROTOSHI MORI AND EISAKU MIYOSHI
     PENNSYLVANIA STATE UNIVERSITY:
          TZVETELIN IORDANOV, CHET SWALINA, JONATHAN SKONE,
          SHARON HAMMES-SCHIFFER
     WASEDA UNIVERSITY:
          MASATO KOBAYASHI, TOMOKO AKAMA, TSUGUKI TOUMA,
          TAKESHI YOSHIKAWA, YASUHIRO IKABATA, JUNJI SEINO,
          YUYA NAKAJIMA, HIROMI NAKAI
     NANJING UNIVERSITY: SHUHUA LI
     UNIVERSITY OF NEBRASKA:
          PEIFENG SU, DEJUN SI, NANDUN THELLAMUREGE, YALI WANG, HUI LI
     UNIVERSITY OF ZURICH: ROBERTO PEVERATI, KIM BALDRIDGE
     N. COPERNICUS UNIVERSITY AND JACKSON STATE UNIVERSITY:
          MARIA BARYSZ
     UNIVERSITY OF COPENHAGEN: Jimmy Kromann, CASPER STEINMANN
     TOKYO INSTITUTE OF TECHNOLOGY: HIROYA NAKATA
     NAGOYA UNIVERSITY: YOSHIO NISHIMOTO, STEPHAN IRLE
     MOSCOW STATE UNIVERSITY: VLADIMIR MIRONOV

 EXECUTION OF GAMESS BEGUN Sun Sep 29 15:47:22 2019

            ECHO OF THE FIRST FEW INPUT CARDS -
 INPUT CARD>!   File created by the GAMESS Input Deck Generator Plugin for Avogadro         
 INPUT CARD> $BASIS GBASIS=PCSEG-1 $END                                                     
 INPUT CARD> $CONTRL RUNTYP=OPTIMIZE DFTTYP=PBE ISPHER=1 MULT=1 $END                        
 INPUT CARD>                                                                                
 INPUT CARD> $DATA                                                                          
 INPUT CARD>Title SO2 Geometry Optimization                                                 
 INPUT CARD>C1                                                                              
 INPUT CARD>O     8.0    -5.66692     3.47856     1.63888                                   
 INPUT CARD>S    16.0    -4.73071     2.43709     1.33794                                   
 INPUT CARD>O     8.0    -3.44983     2.74004     0.76414                                   
 INPUT CARD> $END                                                                           
    1000000 WORDS OF MEMORY AVAILABLE

     BASIS OPTIONS
     -------------
     GBASIS=PCSEG-1      IGAUSS=       0      POLAR=NONE    
     NDFUNC=       0     NFFUNC=       0     DIFFSP=       F
     NPFUNC=       0      DIFFS=       F     BASNAM=        


     RUN TITLE
     ---------
 Title SO2 Geometry Optimization                                                 

 THE POINT GROUP OF THE MOLECULE IS C1      
 THE ORDER OF THE PRINCIPAL AXIS IS     0

 ATOM      ATOMIC                      COORDINATES (BOHR)
           CHARGE         X                   Y                   Z
 O           8.0   -10.7089259943        6.5735252318        3.0970341268
 S          16.0    -8.9397456274        4.6054323074        2.5283399880
 O           8.0    -6.5192334042        5.1779247954        1.4440152163

          INTERNUCLEAR DISTANCES (ANGS.)
          ------------------------------

                1 O          2 S          3 O     

   1 O       0.0000000    1.4323805 *  2.4952094 *
   2 S       1.4323805 *  0.0000000    1.4358547 *
   3 O       2.4952094 *  1.4358547 *  0.0000000  

  * ... LESS THAN  3.000


     ATOMIC BASIS SET
     ----------------
 THE CONTRACTED PRIMITIVE FUNCTIONS HAVE BEEN UNNORMALIZED
 THE CONTRACTED BASIS FUNCTIONS ARE NOW NORMALIZED TO UNITY

  SHELL TYPE  PRIMITIVE        EXPONENT          CONTRACTION COEFFICIENT(S)

 O         

      1   S       1          2288.6400000    0.005451138222
      1   S       2           344.4160000    0.040718922842
      1   S       3            78.2538000    0.181369420873
      1   S       4            21.7195000    0.465536820246
      1   S       5             6.5590700    0.451211321214

      2   S       6            10.4656000   -0.150211201174
      2   S       7             0.9643510    1.052867983385

      3   S       8             0.2851270    1.000000000000

      4   P       9            17.0590000    0.068749256972
      4   P      10             3.6899900    0.351671941499
      4   P      11             0.9929960    0.724532099722

      5   P      12             0.2449240    1.000000000000

      6   D      13             1.0000000    1.000000000000

 S         

      7   S      14         49299.4000000    0.000677492991
      7   S      15          7395.8400000    0.005232317766
      7   S      16          1683.3000000    0.026769459077
      7   S      17           476.1440000    0.102869580705
      7   S      18           154.3290000    0.286438127414
      7   S      19            55.0288000    0.454278639081
      7   S      20            20.5029000    0.271743121997

      8   S      21            45.9596000   -0.088421914560
      8   S      22             4.9274000    0.564350486135
      8   S      23             1.9179900    0.505415953466

      9   S      24             0.3684980    1.000000000000

     10   S      25             0.1291650    1.000000000000

     11   P      26           451.6620000    0.003707705453
     11   P      27           106.0980000    0.029219352245
     11   P      28            33.6996000    0.124444551509
     11   P      29            12.3054000    0.321808587656
     11   P      30             4.7141200    0.462822172957
     11   P      31             1.7810500    0.266513371364

     12   P      32             0.8722350    0.349265132972
     12   P      33             0.3102780    0.717115018770

     13   P      34             0.1001940    1.000000000000

     14   D      35             0.5500000    1.000000000000

 O         

     15   S      36          2288.6400000    0.005451138222
     15   S      37           344.4160000    0.040718922842
     15   S      38            78.2538000    0.181369420873
     15   S      39            21.7195000    0.465536820246
     15   S      40             6.5590700    0.451211321214

     16   S      41            10.4656000   -0.150211201174
     16   S      42             0.9643510    1.052867983385

     17   S      43             0.2851270    1.000000000000

     18   P      44            17.0590000    0.068749256972
     18   P      45             3.6899900    0.351671941499
     18   P      46             0.9929960    0.724532099722

     19   P      47             0.2449240    1.000000000000

     20   D      48             1.0000000    1.000000000000

 TOTAL NUMBER OF BASIS SET SHELLS             =   20
 NUMBER OF CARTESIAN GAUSSIAN BASIS FUNCTIONS =   49
 NOTE: THIS RUN WILL RESTRICT THE MO VARIATION SPACE TO SPHERICAL HARMONICS.
 THE NUMBER OF ORBITALS KEPT IN THE VARIATIONAL SPACE WILL BE PRINTED LATER.
 NUMBER OF ELECTRONS                          =   32
 CHARGE OF MOLECULE                           =    0
 SPIN MULTIPLICITY                            =    1
 NUMBER OF OCCUPIED ORBITALS (ALPHA)          =   16
 NUMBER OF OCCUPIED ORBITALS (BETA )          =   16
 TOTAL NUMBER OF ATOMS                        =    3
 THE NUCLEAR REPULSION ENERGY IS      108.0349182716

     LEBEDEV GRID-BASED DFT OPTIONS
     ------------------------------
     DFTTYP=PBE     
     NRAD  =      96     NLEB  =     302
     NRAD0 =      24     NLEB0 =     110
     SWOFF =    5.00E-03 (PURE SCF -> DFT)
     SWITCH=    3.00E-04 (COARSE -> TIGHT GRID)
     THRESH=    0.00E+00 GTHRE=    1.00E+00

 GRIMME'S EMPIRICAL DISPERSION CORRECTION= F

     $CONTRL OPTIONS
     ---------------
 SCFTYP=RHF          RUNTYP=OPTIMIZE     EXETYP=RUN     
 MPLEVL=       0     CITYP =NONE         CCTYP =NONE         VBTYP =NONE    
 DFTTYP=PBE          TDDFT =NONE    
 MULT  =       1     ICHARG=       0     NZVAR =       0     COORD =UNIQUE  
 PP    =NONE         RELWFN=NONE         LOCAL =NONE         NUMGRD=       F
 ISPHER=       1     NOSYM =       0     MAXIT =      30     UNITS =ANGS    
 PLTORB=       F     MOLPLT=       F     AIMPAC=       F     FRIEND=        
 NPRINT=       7     IREST =       0     GEOM  =INPUT   
 NORMF =       0     NORMP =       0     ITOL  =      20     ICUT  =       9
 INTTYP=BEST         GRDTYP=BEST         QMTTOL= 1.0E-06

     $SYSTEM OPTIONS
     ---------------
  REPLICATED MEMORY=     1000000 WORDS (ON EVERY NODE).
 DISTRIBUTED MEMDDI=           0 MILLION WORDS IN AGGREGATE,
 MEMDDI DISTRIBUTED OVER   1 PROCESSORS IS           0 WORDS/PROCESSOR.
 TOTAL MEMORY REQUESTED ON EACH PROCESSOR=     1000000 WORDS.
 TIMLIM=      525600.00 MINUTES, OR     365.0 DAYS.
 PARALL= F  BALTYP=  DLB     KDIAG=    0  COREFL= F
 MXSEQ2=     300 MXSEQ3=     150  mem10=         0

          ----------------
          PROPERTIES INPUT
          ----------------

     MOMENTS            FIELD           POTENTIAL          DENSITY
 IEMOM =       1   IEFLD =       0   IEPOT =       0   IEDEN =       0
 WHERE =COMASS     WHERE =NUCLEI     WHERE =NUCLEI     WHERE =NUCLEI  
 OUTPUT=BOTH       OUTPUT=BOTH       OUTPUT=BOTH       OUTPUT=BOTH    
 IEMINT=       0   IEFINT=       0                     IEDINT=       0
                                                       MORB  =       0
          EXTRAPOLATION IN EFFECT
          DIIS IN EFFECT
 ORBITAL PRINTING OPTION: NPREO=     1    49     2     1

     -------------------------------
     INTEGRAL TRANSFORMATION OPTIONS
     -------------------------------
     NWORD  =            0
     CUTOFF = 1.0E-09     MPTRAN =       0
     DIRTRF =       F     AOINTS =DUP     

          ----------------------
          INTEGRAL INPUT OPTIONS
          ----------------------
 NOPK  =       1 NORDER=       0 SCHWRZ=       F

     ------------------------------------------
     THE POINT GROUP IS C1 , NAXIS= 0, ORDER= 1
     ------------------------------------------

 -- VARIATIONAL SPACE WILL BE RESTRICTED TO PURE SPHERICAL HARMONICS ONLY --
 AFTER EXCLUDING CONTAMINANT COMBINATIONS FROM THE CARTESIAN GAUSSIAN BASIS
 SET, THE NUMBER OF SPHERICAL HARMONICS KEPT IN THE VARIATION SPACE IS   46

     DIMENSIONS OF THE SYMMETRY SUBSPACES ARE
 A   =   46

 ..... DONE SETTING UP THE RUN .....
 STEP CPU TIME =     0.02 TOTAL CPU TIME =          0.0 (      0.0 MIN)
 TOTAL WALL CLOCK TIME=          0.2 SECONDS, CPU UTILIZATION IS    11.11%


          -----------------------------
          STATIONARY POINT LOCATION RUN
          -----------------------------

 OBTAINING INITIAL HESSIAN, HESS=GUESS   
 CARTESIAN COORDINATE OPTIMIZATION USING BADGER'S RULE FORCE CONSTANT GUESS

          PARAMETERS CONTROLLING GEOMETRY SEARCH ARE
          METHOD =QA                  UPHESS =BFGS    
          NNEG   =         0          NFRZ   =         0
          NSTEP  =        50          IFOLOW =         1
          HESS   =GUESS               RESTAR =         F
          IHREP  =         0          HSSEND =         F
          NPRT   =         0          NPUN   =         0
          OPTTOL = 1.000E-04          RMIN   = 1.500E-03
          RMAX   = 1.000E-01          RLIM   = 7.000E-02
          DXMAX  = 3.000E-01          PURIFY =         F
          MOVIE  =         F          TRUPD  =         T
          TRMAX  = 5.000E-01          TRMIN  = 5.000E-02
          ITBMAT =         5          STPT   =         F
          STSTEP = 1.000E-02          PROJCT=          T

 BEGINNING GEOMETRY SEARCH POINT NSERCH=   0 ...

 COORDINATES OF ALL ATOMS ARE (ANGS)
   ATOM   CHARGE       X              Y              Z
 ------------------------------------------------------------
 O           8.0  -5.6669200000   3.4785600000   1.6388800000
 S          16.0  -4.7307100000   2.4370900000   1.3379400000
 O           8.0  -3.4498300000   2.7400400000   0.7641400000

          ********************
          1 ELECTRON INTEGRALS
          ********************
 ...... END OF ONE-ELECTRON INTEGRALS ......
 STEP CPU TIME =     0.00 TOTAL CPU TIME =          0.0 (      0.0 MIN)
 TOTAL WALL CLOCK TIME=          0.2 SECONDS, CPU UTILIZATION IS    10.53%

          -------------
          GUESS OPTIONS
          -------------
          GUESS =HUCKEL            NORB  =       0          NORDER=       0
          MIX   =       F          PRTMO =       F          PUNMO =       F
          TOLZ  = 1.0E-08          TOLE  = 1.0E-05
          SYMDEN=       F          PURIFY=       F

 INITIAL GUESS ORBITALS GENERATED BY HUCKEL   ROUTINE.
 HUCKEL GUESS REQUIRES     21634 WORDS.

 STATISTICS FOR GENERATION OF SYMMETRY ORBITAL -Q- MATRIX
 NUMBER OF CARTESIAN ATOMIC ORBITALS=         49
 NUMBER OF SPHERICAL CONTAMINANTS DROPPED=     3
 NUMBER OF LINEARLY DEPENDENT MOS DROPPED=     0
 TOTAL NUMBER OF MOS IN VARIATION SPACE=      46

 SYMMETRIES FOR INITIAL GUESS ORBITALS FOLLOW.   BOTH SET(S).
    16 ORBITALS ARE OCCUPIED (    7 CORE ORBITALS).
     8=A        9=A       10=A       11=A       12=A       13=A       14=A   
    15=A       16=A       17=A       18=A       19=A       20=A       21=A   
    22=A       23=A       24=A       25=A       26=A   
 ...... END OF INITIAL ORBITAL SELECTION ......
 STEP CPU TIME =     0.00 TOTAL CPU TIME =          0.0 (      0.0 MIN)
 TOTAL WALL CLOCK TIME=          0.2 SECONDS, CPU UTILIZATION IS     9.09%

                    ----------------------
                    AO INTEGRAL TECHNOLOGY
                    ----------------------
     S,P,L SHELL ROTATED AXIS INTEGRALS, REPROGRAMMED BY
        KAZUYA ISHIMURA (IMS) AND JOSE SIERRA (SYNSTAR).
     S,P,D,L SHELL ROTATED AXIS INTEGRALS PROGRAMMED BY
        KAZUYA ISHIMURA (INSTITUTE FOR MOLECULAR SCIENCE).
     S,P,D,F,G SHELL TO TOTAL QUARTET ANGULAR MOMENTUM SUM 5,
        ERIC PROGRAM BY GRAHAM FLETCHER (ELORET AND NASA ADVANCED
        SUPERCOMPUTING DIVISION, AMES RESEARCH CENTER).
     S,P,D,F,G,L SHELL GENERAL RYS QUADRATURE PROGRAMMED BY
        MICHEL DUPUIS (PACIFIC NORTHWEST NATIONAL LABORATORY).

          --------------------
          2 ELECTRON INTEGRALS
          --------------------

 THE -PK- OPTION IS OFF, THE INTEGRALS ARE NOT IN SUPERMATRIX FORM.
 STORING   15000 INTEGRALS/RECORD ON DISK, USING 12 BYTES/INTEGRAL.
 TWO ELECTRON INTEGRAL EVALUATION REQUIRES   90606 WORDS OF MEMORY.
 II,JST,KST,LST =  1  1  1  1 NREC =         1 INTLOC =    1
 II,JST,KST,LST =  2  1  1  1 NREC =         1 INTLOC =    2
 II,JST,KST,LST =  3  1  1  1 NREC =         1 INTLOC =    7
 II,JST,KST,LST =  4  1  1  1 NREC =         1 INTLOC =   22
 II,JST,KST,LST =  5  1  1  1 NREC =         1 INTLOC =   67
 II,JST,KST,LST =  6  1  1  1 NREC =         1 INTLOC =  214
 II,JST,KST,LST =  7  1  1  1 NREC =         1 INTLOC = 1189
 II,JST,KST,LST =  8  1  1  1 NREC =         1 INTLOC = 3109
 II,JST,KST,LST =  9  1  1  1 NREC =         1 INTLOC = 5549
 II,JST,KST,LST = 10  1  1  1 NREC =         1 INTLOC = 8456
 II,JST,KST,LST = 11  1  1  1 NREC =         1 INTLOC =11876
 II,JST,KST,LST = 12  1  1  1 NREC =         2 INTLOC =10495
 II,JST,KST,LST = 13  1  1  1 NREC =         4 INTLOC =  335
 II,JST,KST,LST = 14  1  1  1 NREC =         5 INTLOC =12688
 II,JST,KST,LST = 15  1  1  1 NREC =        11 INTLOC = 5298
 II,JST,KST,LST = 16  1  1  1 NREC =        12 INTLOC = 4938
 II,JST,KST,LST = 17  1  1  1 NREC =        13 INTLOC =12152
 II,JST,KST,LST = 18  1  1  1 NREC =        15 INTLOC = 7074
 II,JST,KST,LST = 19  1  1  1 NREC =        21 INTLOC = 1834
 II,JST,KST,LST = 20  1  1  1 NREC =        28 INTLOC = 5548
 TOTAL NUMBER OF NONZERO TWO-ELECTRON INTEGRALS =              697399
         47 INTEGRAL RECORDS WERE STORED ON DISK FILE  8.
  ...... END OF TWO-ELECTRON INTEGRALS .....
 STEP CPU TIME =     0.10 TOTAL CPU TIME =          0.1 (      0.0 MIN)
 TOTAL WALL CLOCK TIME=          0.3 SECONDS, CPU UTILIZATION IS    36.36%

          --------------------------
               R-PBE SCF CALCULATION
          --------------------------

     NUCLEAR ENERGY =       108.0349182716
     MAXIT =   30     NPUNCH=    2
     EXTRAP=T  DAMP=F  SHIFT=F  RSTRCT=F  DIIS=T  DEM=F  SOSCF=F
         DENSITY MATRIX CONVERGENCE THRESHOLD=  1.00E-05
     COARSE -> FINE DFT GRID SWITCH THRESHOLD=  3.00E-04 (SWITCH IN $DFT)
                   HF -> DFT SWITCH THRESHOLD=  5.00E-03 (SWOFF IN $DFT)
     MEMORY REQUIRED FOR RHF ITERS=    183117 WORDS.

 DFT CODE IS SWITCHING FROM THE FINE GRID NRAD= 96,  NLEB=  302
                      TO THE COARSE GRID NRAD0= 24, NLEB0=  110

     EXCHANGE FUNCTIONAL   =PBE       
     CORRELATION FUNCTIONAL=PBE       
     DFT THRESHOLD         =.460E-07
     GRID CHANGE THRESHOLD =.300E-03
 FOR AN EULER-MACLAURIN QUADRATURE USING  96 RADIAL POINTS:
 SMALLEST GAUSSIAN PRIMITIVE EXPONENT=        0.1001940000 OF TYPE -P-
 ON ATOM NUMBER   2 HAS RADIAL NORMALIZATION=  1.000000
  LARGEST GAUSSIAN PRIMITIVE EXPONENT=    49299.4000000000 OF TYPE -S-
 ON ATOM NUMBER   2 HAS RADIAL NORMALIZATION=  1.000000
 DFT IS SWITCHED OFF, PERFORMING PURE SCF UNTIL SWOFF THRESHOLD IS REACHED.

 ITER EX DEM     TOTAL ENERGY        E CHANGE  DENSITY CHANGE    DIIS ERROR
   1  0  0     -546.0821859828  -546.0821859828   0.607867836   1.034760196
          * * *   INITIATING DIIS PROCEDURE   * * *
   2  1  0     -546.9079381329    -0.8257521500   0.420079977   0.237404147
   3  2  0     -547.0027211165    -0.0947829836   0.156872430   0.174660738
   4  3  0     -547.1056989946    -0.1029778781   0.024044371   0.013826281
   5  4  0     -547.1066356204    -0.0009366259   0.012791417   0.003184010
   6  5  0     -547.1067665368    -0.0001309163   0.002932498   0.001089083
 CONVERGED TO SWOFF, SO DFT CALCULATION IS NOW SWITCHED ON.
          * * *   INITIATING DIIS PROCEDURE   * * *
   7  6  0     -548.2334614500    -1.1266949132   0.269877610   0.097749393
   8  7  0     -548.2475659975    -0.0141045475   0.232555006   0.075940677
   9  8  0     -548.2435505537     0.0040154438   0.093752125   0.077244605
  10  9  0     -548.2662309677    -0.0226804140   0.020018348   0.010601051
  11 10  0     -548.2663488219    -0.0001178541   0.009066529   0.011654435
  12 11  0     -548.2667177329    -0.0003689110   0.001109079   0.001148225
  13 12  0     -548.2667222125    -0.0000044797   0.000218578   0.000130376
 DFT CODE IS SWITCHING BACK TO THE FINE GRID
          * * *   INITIATING DIIS PROCEDURE   * * *
  14 13  0     -548.2420645012     0.0246577113   0.010135104   0.008739219
  15 14  0     -548.2422461121    -0.0001816109   0.007901572   0.002812739
  16 15  0     -548.2421667698     0.0000793423   0.006209069   0.005453010
  17 16  0     -548.2422646930    -0.0000979231   0.002322129   0.001802730
  18 17  0     -548.2422740186    -0.0000093256   0.000897144   0.000645654
  19 18  0     -548.2422757041    -0.0000016855   0.000182147   0.000069868
  20 19  0     -548.2422757248    -0.0000000207   0.000015624   0.000005183
  21 20  0     -548.2422757249    -0.0000000001   0.000003963   0.000002851
  22 21  0     -548.2422757249    -0.0000000000   0.000000646   0.000000327

          -----------------
          DENSITY CONVERGED
          -----------------
     TIME TO FORM FOCK OPERATORS=       2.9 SECONDS (       0.1 SEC/ITER)
     TIME TO SOLVE SCF EQUATIONS=       0.0 SECONDS (       0.0 SEC/ITER)

 FINAL R-PBE ENERGY IS     -548.2422757249 AFTER  22 ITERATIONS
 DFT EXCHANGE + CORRELATION ENERGY =       -42.5604162158
 TOTAL ELECTRON NUMBER             =        32.0000161949

          ------------
          EIGENVECTORS
          ------------

                      1          2          3          4          5
                  -88.2204   -18.8000   -18.7995    -7.8382    -5.8644
                     A          A          A          A          A   
    1  O  1  S   -0.000025   0.993175  -0.003441  -0.000187   0.000595
    2  O  1  S   -0.000188   0.034055   0.000183  -0.000147  -0.000319
    3  O  1  S    0.000784  -0.016938  -0.001434  -0.000557   0.001219
    4  O  1  X    0.000087   0.001109  -0.000006  -0.000009  -0.000633
    5  O  1  Y   -0.000096  -0.001130   0.000185   0.000009   0.000763
    6  O  1  Z   -0.000028  -0.000366  -0.000015   0.000003   0.000198
    7  O  1  X    0.000439  -0.002521  -0.001210  -0.000687   0.000753
    8  O  1  Y   -0.000497   0.002520  -0.000171   0.000863  -0.000988
    9  O  1  Z   -0.000140   0.000837   0.000531   0.000212  -0.000228
   10  O  1 XX    0.000035  -0.000059  -0.000164   0.000092  -0.000079
   11  O  1 YY    0.000115  -0.000061   0.000157   0.000079  -0.000503
   12  O  1 ZZ   -0.000150   0.000120   0.000007  -0.000171   0.000582
   13  O  1 XY   -0.000272   0.000190   0.000166  -0.000349   0.001036
   14  O  1 XZ   -0.000076   0.000083   0.000079  -0.000112   0.000262
   15  O  1 YZ    0.000085  -0.000059  -0.000085   0.000118  -0.000316
   16  S  2  S    0.997748  -0.000024  -0.000023  -0.308347  -0.000021
   17  S  2  S    0.008348   0.000116   0.000109   1.031507   0.000073
   18  S  2  S   -0.003424   0.000373   0.000370   0.028372  -0.000012
   19  S  2  S    0.000491   0.006134   0.006089  -0.005462  -0.000008
   20  S  2  X    0.000042  -0.000100   0.000060   0.002924   0.883107
   21  S  2  Y    0.000170  -0.000047  -0.000102   0.011687  -0.295771
   22  S  2  Z   -0.000034   0.000047  -0.000016  -0.002341  -0.348277
   23  S  2  X   -0.000141  -0.000386   0.000968   0.000355   0.016007
   24  S  2  Y   -0.000581   0.001333   0.000883   0.001429  -0.005366
   25  S  2  Z    0.000115   0.000039  -0.000495  -0.000285  -0.006312
   26  S  2  X   -0.000012  -0.001882   0.003033  -0.000057  -0.002173
   27  S  2  Y   -0.000047   0.003052   0.001394  -0.000223   0.000727
   28  S  2  Z    0.000009   0.000515  -0.001422   0.000045   0.000857
   29  S  2 XX   -0.000257   0.000127  -0.000213   0.000588   0.000620
   30  S  2 YY    0.000049  -0.000018   0.000437  -0.000258  -0.000820
   31  S  2 ZZ    0.000208  -0.000109  -0.000224  -0.000330   0.000199
   32  S  2 XY    0.000156   0.000436  -0.000293  -0.000383   0.001302
   33  S  2 XZ    0.000259  -0.000201   0.000030  -0.000501  -0.000425
   34  S  2 YZ   -0.000039  -0.000205   0.000055   0.000137  -0.000465
   35  O  3  S   -0.000025   0.003489   0.993176  -0.000180  -0.000581
   36  O  3  S   -0.000188   0.000421   0.034043  -0.000148   0.000301
   37  O  3  S    0.000774  -0.001551  -0.016922  -0.000551  -0.001202
   38  O  3  X   -0.000115   0.000081  -0.001457   0.000022  -0.000865
   39  O  3  Y   -0.000027   0.000150  -0.000269   0.000004  -0.000246
   40  O  3  Z    0.000052  -0.000049   0.000645  -0.000010   0.000391
   41  O  3  X   -0.000598   0.000964   0.003308   0.000980   0.001093
   42  O  3  Y   -0.000148  -0.000882   0.000582   0.000303   0.000368
   43  O  3  Z    0.000268  -0.000328  -0.001463  -0.000446  -0.000500
   44  O  3 XX    0.000223  -0.000196  -0.000180   0.000295   0.000819
   45  O  3 YY   -0.000133   0.000199   0.000094  -0.000197  -0.000478
   46  O  3 ZZ   -0.000090  -0.000002   0.000085  -0.000099  -0.000341
   47  O  3 XY    0.000122   0.000103  -0.000055   0.000094   0.000519
   48  O  3 XZ   -0.000205   0.000102   0.000167  -0.000249  -0.000768
   49  O  3 YZ   -0.000056  -0.000062   0.000029  -0.000040  -0.000239

                      6          7          8          9         10
                   -5.8631    -5.8574    -1.0693    -0.9799    -0.5749
                     A          A          A          A          A   
    1  O  1  S    0.000000  -0.000342  -0.136501   0.158013   0.112939
    2  O  1  S    0.000000   0.000325   0.276615  -0.326322  -0.240792
    3  O  1  S   -0.000000  -0.000675   0.228555  -0.263483  -0.320220
    4  O  1  X    0.000005   0.000487   0.087440  -0.072200   0.098650
    5  O  1  Y    0.000001  -0.000514  -0.088041   0.088315  -0.151786
    6  O  1  Z    0.000012  -0.000159  -0.028974   0.022460  -0.027768
    7  O  1  X   -0.000110  -0.000674   0.023239  -0.007219   0.048562
    8  O  1  Y   -0.000024   0.000143  -0.020812   0.010727  -0.067780
    9  O  1  Z   -0.000259   0.000274  -0.007943   0.002067  -0.014320
   10  O  1 XX    0.000007   0.000086   0.003540   0.000592  -0.000700
   11  O  1 YY   -0.000008   0.000268   0.001485  -0.003989   0.006023
   12  O  1 ZZ    0.000001  -0.000353  -0.005026   0.003397  -0.005323
   13  O  1 XY   -0.000019  -0.000705  -0.012700   0.008180  -0.007885
   14  O  1 XZ    0.000009  -0.000172  -0.003464   0.000616  -0.001772
   15  O  1 YZ   -0.000046   0.000228   0.004605  -0.002683   0.002076
   16  S  2  S    0.000000   0.003902   0.052717   0.000581   0.063710
   17  S  2  S   -0.000000  -0.013473  -0.322007  -0.003585  -0.408640
   18  S  2  S    0.000000   0.000246   0.445288   0.004979   0.637317
   19  S  2  S    0.000000   0.001172   0.054912   0.000812   0.218289
   20  S  2  X    0.388313   0.241291  -0.014324  -0.128261   0.011860
   21  S  2  Y    0.085533   0.945858  -0.064254   0.042156   0.047219
   22  S  2  Z    0.911988  -0.191448   0.012126   0.050658  -0.009479
   23  S  2  X    0.006297   0.003955   0.030284   0.286191  -0.028018
   24  S  2  Y    0.001387   0.015516   0.136074  -0.094089  -0.111585
   25  S  2  Z    0.014789  -0.003139  -0.025658  -0.113031   0.022397
   26  S  2  X   -0.001185  -0.000621  -0.004419  -0.012871  -0.012232
   27  S  2  Y   -0.000261  -0.002432  -0.018432   0.004108  -0.048589
   28  S  2  Z   -0.002784   0.000493   0.003610   0.005095   0.009766
   29  S  2 XX    0.000138  -0.000356   0.032958   0.033099  -0.006314
   30  S  2 YY    0.000122   0.000933  -0.005036  -0.043129  -0.009429
   31  S  2 ZZ   -0.000260  -0.000577  -0.027922   0.010030   0.015742
   32  S  2 XY    0.000338   0.000376  -0.020892   0.068007   0.001860
   33  S  2 XZ    0.000123  -0.000192  -0.033917  -0.022832   0.013153
   34  S  2 YZ    0.000740  -0.000334   0.005107  -0.024325   0.002481
   35  O  3  S    0.000000  -0.000336  -0.132522  -0.161451   0.112712
   36  O  3  S    0.000000   0.000314   0.268447   0.333347  -0.240268
   37  O  3  S   -0.000000  -0.000667   0.222930   0.270300  -0.319343
   38  O  3  X    0.000004  -0.000638  -0.111865  -0.104794  -0.153343
   39  O  3  Y    0.000001  -0.000133  -0.019645  -0.030354  -0.066817
   40  O  3  Z    0.000009   0.000284   0.049473   0.047466   0.071559
   41  O  3  X   -0.000109   0.000633  -0.029297  -0.012167  -0.072254
   42  O  3  Y   -0.000024  -0.000292  -0.003212  -0.004708  -0.027064
   43  O  3  Z   -0.000255  -0.000242   0.012776   0.005622   0.033303
   44  O  3 XX   -0.000018   0.000569   0.010925   0.006069   0.005764
   45  O  3 YY   -0.000005  -0.000370  -0.008336  -0.004641  -0.002510
   46  O  3 ZZ    0.000023  -0.000199  -0.002589  -0.001428  -0.003254
   47  O  3 XY   -0.000016   0.000315   0.002949   0.005179   0.005627
   48  O  3 XZ   -0.000019  -0.000504  -0.008501  -0.005197  -0.006194
   49  O  3 YZ   -0.000031  -0.000137  -0.000981  -0.002083  -0.002748

                     11         12         13         14         15
                   -0.4563    -0.4454    -0.4434    -0.3402    -0.3153
                     A          A          A          A          A   
    1  O  1  S   -0.000001   0.031549  -0.075999  -0.000001   0.000468
    2  O  1  S   -0.000003  -0.065856   0.157584   0.000009  -0.001678
    3  O  1  S    0.000012  -0.107215   0.278608  -0.000012  -0.017822
    4  O  1  X    0.122019   0.288064  -0.197456  -0.180164  -0.377236
    5  O  1  Y    0.026901   0.082423   0.322872  -0.039703  -0.216109
    6  O  1  Z    0.286528  -0.130406   0.053784  -0.423039   0.180932
    7  O  1  X    0.070667   0.164919  -0.081851  -0.125786  -0.242863
    8  O  1  Y    0.015574   0.058232   0.157284  -0.027713  -0.162419
    9  O  1  Z    0.165934  -0.075696   0.020093  -0.295353   0.118673
   10  O  1 XX    0.010941   0.016131   0.002733  -0.009368  -0.016494
   11  O  1 YY   -0.002526  -0.013833  -0.011311   0.002443   0.019838
   12  O  1 ZZ   -0.008415  -0.002297   0.008578   0.006926  -0.003344
   13  O  1 XY   -0.005223  -0.007915   0.012536   0.005205   0.001076
   14  O  1 XZ    0.012763  -0.009952   0.001921  -0.010996   0.007641
   15  O  1 YZ   -0.015990   0.004261  -0.003134   0.015397  -0.002690
   16  S  2  S   -0.000000  -0.007137   0.000334  -0.000000  -0.000194
   17  S  2  S    0.000001   0.045031  -0.002145   0.000002   0.001251
   18  S  2  S   -0.000002  -0.044515   0.002394  -0.000002  -0.001604
   19  S  2  S   -0.000009  -0.150641   0.005860   0.000002  -0.003730
   20  S  2  X   -0.083356  -0.052548  -0.152710  -0.000486   0.010584
   21  S  2  Y   -0.018370  -0.187976   0.056910  -0.000109  -0.005162
   22  S  2  Z   -0.195741   0.040024   0.059693  -0.001137  -0.004024
   23  S  2  X    0.221787   0.139395   0.415423   0.001373  -0.023019
   24  S  2  Y    0.048877   0.497495  -0.154369   0.000308   0.012179
   25  S  2  Z    0.520809  -0.106064  -0.162427   0.003213   0.008663
   26  S  2  X    0.046057   0.018675  -0.018574   0.000575  -0.094838
   27  S  2  Y    0.010149   0.074230   0.003952   0.000135   0.032850
   28  S  2  Z    0.108162  -0.014924   0.007533   0.001373   0.037300
   29  S  2 XX    0.008551  -0.041939   0.018133   0.081943   0.048425
   30  S  2 YY    0.007982   0.060207  -0.024234  -0.006007  -0.063093
   31  S  2 ZZ   -0.016533  -0.018268   0.006100  -0.075936   0.014668
   32  S  2 XY    0.022003   0.035850   0.035198  -0.005304   0.098953
   33  S  2 XZ    0.007537   0.008954  -0.011860   0.092434  -0.033349
   34  S  2 YZ    0.048210  -0.023618  -0.012285  -0.041059  -0.035351
   35  O  3  S    0.000006   0.035718   0.074375   0.000001  -0.000214
   36  O  3  S   -0.000013  -0.074593  -0.154264  -0.000004   0.001202
   37  O  3  S   -0.000018  -0.122132  -0.272222  -0.000000   0.017454
   38  O  3  X    0.119783  -0.219147  -0.305022   0.181484  -0.221723
   39  O  3  Y    0.026407   0.233991  -0.162595   0.040015   0.412466
   40  O  3  Z    0.281388   0.071339   0.145107   0.426292   0.055680
   41  O  3  X    0.069337  -0.118402  -0.136150   0.126592  -0.131990
   42  O  3  Y    0.015285   0.143351  -0.089618   0.027908   0.284977
   43  O  3  Z    0.162878   0.036953   0.066366   0.297347   0.029439
   44  O  3 XX   -0.014366   0.013791   0.007720  -0.013227   0.008297
   45  O  3 YY   -0.000633  -0.010383  -0.002863  -0.000794  -0.008973
   46  O  3 ZZ    0.014998  -0.003407  -0.004856   0.014021   0.000675
   47  O  3 XY   -0.003484  -0.012571   0.011426  -0.003764  -0.018329
   48  O  3 XZ   -0.015795  -0.008602  -0.009127  -0.014490  -0.002044
   49  O  3 YZ   -0.003077   0.005816  -0.005493  -0.004125   0.008846

                     16         17         18         19         20
                   -0.2837    -0.1546     0.0198     0.0535     0.2039
                     A          A          A          A          A   
    1  O  1  S    0.005463   0.000000   0.059560  -0.058262   0.000000
    2  O  1  S   -0.013563   0.000006  -0.123377   0.109653   0.000001
    3  O  1  S   -0.055643  -0.000018  -0.522472   0.594149  -0.000005
    4  O  1  X    0.021797  -0.150033  -0.297397  -0.034327  -0.008225
    5  O  1  Y    0.411145  -0.033048   0.027562  -0.248832  -0.001813
    6  O  1  Z   -0.047847  -0.352368   0.124045   0.037957  -0.019327
    7  O  1  X    0.030570  -0.131609  -0.347787  -0.030299  -0.043589
    8  O  1  Y    0.288867  -0.028981   0.029841  -0.253980  -0.009601
    9  O  1  Z   -0.040116  -0.309086   0.145287   0.036726  -0.102370
   10  O  1 XX    0.005308  -0.001844   0.001649   0.001733  -0.011473
   11  O  1 YY   -0.009907   0.000053  -0.007298  -0.004408   0.002259
   12  O  1 ZZ    0.004599   0.001791   0.005649   0.002675   0.009214
   13  O  1 XY    0.007170  -0.000096   0.000685  -0.000002   0.004459
   14  O  1 XZ   -0.001322  -0.002060   0.002380   0.000604  -0.013291
   15  O  1 YZ   -0.001548   0.000424   0.001215   0.000799   0.014399
   16  S  2  S    0.022800   0.000000   0.023007  -0.000000  -0.000000
   17  S  2  S   -0.148157  -0.000001  -0.155068  -0.000023   0.000000
   18  S  2  S    0.175404   0.000000   0.163573   0.001655   0.000001
   19  S  2  S    0.495920   0.000023   0.926479  -0.007710  -0.000001
   20  S  2  X    0.029317  -0.089132  -0.039037  -0.126814   0.095990
   21  S  2  Y    0.114489  -0.019635  -0.149104   0.042793   0.021150
   22  S  2  Z   -0.023216  -0.209333   0.030609   0.049983   0.225432
   23  S  2  X   -0.080385   0.268072   0.127677   0.396450  -0.377707
   24  S  2  Y   -0.313539   0.059056   0.488731  -0.133971  -0.083223
   25  S  2  Z    0.063622   0.629584  -0.100213  -0.156242  -0.887041
   26  S  2  X   -0.009846   0.138762   0.195145   1.027404   0.509108
   27  S  2  Y   -0.034955   0.030576   0.754643  -0.346914   0.112172
   28  S  2  Z    0.007466   0.325891  -0.153870  -0.404914   1.195656
   29  S  2 XX   -0.111267  -0.012027  -0.094969  -0.080837  -0.015697
   30  S  2 YY    0.068903  -0.010603  -0.067770   0.107238  -0.013598
   31  S  2 ZZ    0.042364   0.022630   0.162739  -0.026401   0.029295
   32  S  2 XY    0.076741  -0.029323   0.039825  -0.170123  -0.037630
   33  S  2 XZ    0.081882  -0.010743   0.150891   0.055145  -0.014093
   34  S  2 YZ   -0.032567  -0.064048   0.014161   0.060700  -0.082099
   35  O  3  S    0.005148   0.000001   0.059985   0.057621  -0.000000
   36  O  3  S   -0.012901   0.000002  -0.124154  -0.108355   0.000003
   37  O  3  S   -0.054319  -0.000012  -0.525984  -0.587596  -0.000005
   38  O  3  X    0.173448  -0.150087   0.265862   0.086672  -0.008389
   39  O  3  Y    0.366251  -0.033061  -0.156995   0.232543  -0.001846
   40  O  3  Z   -0.108198  -0.352500  -0.098474  -0.058717  -0.019688
   41  O  3  X    0.109434  -0.131511   0.309761   0.092246  -0.043917
   42  O  3  Y    0.266733  -0.028969  -0.185650   0.234277  -0.009676
   43  O  3  Z   -0.071611  -0.308882  -0.114479  -0.061255  -0.103136
   44  O  3 XX   -0.002945   0.001658  -0.000387  -0.000420   0.014393
   45  O  3 YY    0.000938  -0.000206  -0.004550   0.002764   0.000348
   46  O  3 ZZ    0.002006  -0.001452   0.004937  -0.002345  -0.014740
   47  O  3 XY   -0.010435  -0.000330  -0.003643   0.002771   0.002741
   48  O  3 XZ    0.004401   0.001892   0.003750  -0.001562   0.015893
   49  O  3 YZ    0.004776  -0.001349   0.002752  -0.001812   0.001340

                     21         22         23         24         25
                    0.2235     0.2762     0.3191     0.5258     0.5448
                     A          A          A          A          A   
    1  O  1  S    0.008498   0.012961  -0.000291   0.000000   0.019231
    2  O  1  S   -0.040420   0.027541  -0.065057   0.000004  -0.075198
    3  O  1  S   -0.032100  -0.531482   0.374948  -0.000012  -0.110455
    4  O  1  X   -0.053269   0.177966  -0.158310  -0.095692  -0.188378
    5  O  1  Y    0.002110  -0.182871   0.229019  -0.021085  -0.207366
    6  O  1  Z    0.022484  -0.058624   0.045928  -0.224723   0.099657
    7  O  1  X   -0.039749  -0.068629  -0.059278   0.016650  -0.056826
    8  O  1  Y    0.109680   0.026685   0.063346   0.003678   0.143486
    9  O  1  Z    0.006633   0.026724   0.019293   0.039108   0.010742
   10  O  1 XX    0.015769  -0.017340  -0.008299   0.027266   0.034198
   11  O  1 YY   -0.020030  -0.002602   0.033027   0.000638  -0.021104
   12  O  1 ZZ    0.004260   0.019942  -0.024727  -0.027904  -0.013094
   13  O  1 XY    0.001612   0.039783  -0.034641   0.005141   0.017859
   14  O  1 XZ   -0.007015   0.017152  -0.005490   0.030111  -0.030843
   15  O  1 YZ    0.001679  -0.013934   0.008348   0.002418  -0.008041
   16  S  2  S   -0.032001  -0.063100   0.000805   0.000001   0.004349
   17  S  2  S    0.234619   0.459538  -0.005844  -0.000004  -0.032156
   18  S  2  S   -0.866411  -1.689037   0.020857   0.000015   0.078740
   19  S  2  S    1.016365   1.988216  -0.024448   0.000008   0.230802
   20  S  2  X   -0.058935   0.031616   0.250419   0.008376  -0.001339
   21  S  2  Y   -0.229703   0.109262  -0.085584   0.001845  -0.004087
   22  S  2  Z    0.046645  -0.023712  -0.098600   0.019676   0.000953
   23  S  2  X    0.231364  -0.113391  -0.944570  -0.039662   0.005427
   24  S  2  Y    0.902917  -0.386662   0.322346  -0.008734   0.017063
   25  S  2  Z   -0.183223   0.084556   0.371958  -0.093166  -0.003908
   26  S  2  X   -0.250136   0.198549   1.118871   0.056054   0.043048
   27  S  2  Y   -0.978477   0.711441  -0.384860   0.012351   0.165523
   28  S  2  Z    0.198311  -0.151286  -0.440309   0.131655  -0.033863
   29  S  2 XX   -0.092141   0.142775   0.134585   0.162192  -0.170477
   30  S  2 YY    0.058269  -0.072186  -0.180200   0.133546   0.759491
   31  S  2 ZZ    0.033872  -0.070588   0.045614  -0.295738  -0.589014
   32  S  2 XY    0.062575  -0.091670   0.289425   0.370595   0.244336
   33  S  2 XZ    0.067196  -0.115924  -0.091628   0.147218  -0.292259
   34  S  2 YZ   -0.026840   0.034887  -0.103343   0.805889  -0.264106
   35  O  3  S    0.008565   0.013058   0.000106   0.000001   0.019494
   36  O  3  S   -0.040905   0.028848   0.063846   0.000002  -0.075989
   37  O  3  S   -0.030755  -0.540133  -0.360967  -0.000013  -0.111551
   38  O  3  X    0.046904  -0.241633  -0.233515  -0.099223   0.062122
   39  O  3  Y   -0.029914  -0.046610  -0.095224  -0.021868  -0.290814
   40  O  3  Z   -0.017166   0.107257   0.108358  -0.233039   0.000840
   41  O  3  X    0.085237   0.067440  -0.081561   0.017295   0.116250
   42  O  3  Y    0.069143  -0.020267  -0.015995   0.003816   0.087947
   43  O  3  Z   -0.042781  -0.026813   0.036230   0.040585  -0.057746
   44  O  3 XX    0.005919  -0.038913  -0.022073  -0.022518   0.005869
   45  O  3 YY   -0.007010   0.025294   0.007605   0.004069   0.015945
   46  O  3 ZZ    0.001091   0.013619   0.014468   0.018449  -0.021814
   47  O  3 XY   -0.018845  -0.004711  -0.030970   0.007798  -0.041352
   48  O  3 XZ   -0.000302   0.032186   0.026229  -0.025997  -0.011240
   49  O  3 YZ    0.008968   0.002046   0.015111   0.026041   0.013184

                     26         27         28         29         30
                    0.5617     0.6381     0.6593     0.7723     0.8008
                     A          A          A          A          A   
    1  O  1  S    0.000001   0.065812  -0.063283  -0.000000  -0.002855
    2  O  1  S   -0.000010  -0.160394   0.170481   0.000013   0.079376
    3  O  1  S    0.000007  -0.578103   0.469569  -0.000030  -0.093843
    4  O  1  X    0.137049   0.314351  -0.070539  -0.219427  -0.319566
    5  O  1  Y    0.030190  -0.072413   0.274964  -0.048372  -0.397120
    6  O  1  Z    0.321867  -0.127041   0.004237  -0.515243   0.173303
    7  O  1  X   -0.015352  -0.818784   0.647625   0.319972   0.393512
    8  O  1  Y   -0.003383   0.701044  -0.874375   0.070557   0.803115
    9  O  1  Z   -0.036031   0.282851  -0.193731   0.751347  -0.242847
   10  O  1 XX   -0.017228  -0.007344  -0.006876  -0.021716  -0.034634
   11  O  1 YY    0.008322   0.017405  -0.002050   0.006377   0.046051
   12  O  1 ZZ    0.008906  -0.010062   0.008926   0.015340  -0.011416
   13  O  1 XY    0.019624  -0.010037   0.023689   0.013936  -0.014516
   14  O  1 XZ   -0.021173  -0.000421   0.006354  -0.025668   0.015629
   15  O  1 YZ    0.051713   0.001293  -0.008720   0.040053   0.000584
   16  S  2  S    0.000000   0.023287   0.000405   0.000001   0.007227
   17  S  2  S   -0.000002  -0.187900  -0.003253  -0.000005  -0.060149
   18  S  2  S    0.000007   0.845400   0.011844   0.000025   0.327479
   19  S  2  S    0.000008   0.849527   0.020563   0.000009   0.018105
   20  S  2  X   -0.000064  -0.021522  -0.170899  -0.000011  -0.005107
   21  S  2  Y   -0.000014  -0.104216   0.054706  -0.000004  -0.018201
   22  S  2  Z   -0.000148   0.018939   0.067636  -0.000024   0.003882
   23  S  2  X    0.000389   0.125973   0.988196  -0.000223   0.024608
   24  S  2  Y    0.000086   0.610517  -0.316642  -0.000037   0.089586
   25  S  2  Z    0.000893  -0.110900  -0.391063  -0.000525  -0.018887
   26  S  2  X   -0.001127   0.023872   0.027464  -0.001722  -0.144418
   27  S  2  Y   -0.000246   0.089818  -0.005690  -0.000394  -0.557282
   28  S  2  Z   -0.002660  -0.018581  -0.011160  -0.003955   0.113705
   29  S  2 XX    0.547857   0.361575   0.209798   0.266624   0.283251
   30  S  2 YY   -0.042336  -0.084685  -0.264808  -0.019871  -0.389210
   31  S  2 ZZ   -0.505520  -0.276891   0.055011  -0.246753   0.105958
   32  S  2 XY   -0.041312  -0.231485   0.407618  -0.018109  -0.231478
   33  S  2 XZ    0.618592  -0.353780  -0.146783   0.300833  -0.072648
   34  S  2 YZ   -0.288064   0.064188  -0.146072  -0.135510   0.150588
   35  O  3  S    0.000001   0.062805   0.066436  -0.000000  -0.002680
   36  O  3  S    0.000001  -0.153442  -0.179832   0.000002   0.079209
   37  O  3  S   -0.000014  -0.549825  -0.489881   0.000001  -0.094049
   38  O  3  X   -0.134095  -0.290202  -0.202444   0.217455   0.082565
   39  O  3  Y   -0.029548   0.140406  -0.179394   0.047908  -0.526084
   40  O  3  Z   -0.314934   0.110405   0.103030   0.510720   0.014108
   41  O  3  X    0.015730   0.969086   0.998295  -0.315881   0.049819
   42  O  3  Y    0.003471   0.070109   0.339939  -0.069588   0.909737
   43  O  3  Z    0.036913  -0.419213  -0.456952  -0.741934  -0.106412
   44  O  3 XX   -0.031710   0.003893   0.021014  -0.031598  -0.004507
   45  O  3 YY   -0.004788   0.002070  -0.016049  -0.002413   0.006800
   46  O  3 ZZ    0.036498  -0.005963  -0.004965   0.034012  -0.002293
   47  O  3 XY   -0.016583   0.014920   0.006237  -0.010343   0.046666
   48  O  3 XZ   -0.034025  -0.007999  -0.016419  -0.034487  -0.005044
   49  O  3 YZ   -0.027497  -0.007609  -0.002130  -0.013011  -0.021241

                     31         32         33         34         35
                    0.8539     0.8606     0.9660     1.0967     1.4137
                     A          A          A          A          A   
    1  O  1  S    0.000001  -0.001316   0.037190  -0.032907   0.081732
    2  O  1  S   -0.000015   0.076016  -0.194234   0.056264  -1.264321
    3  O  1  S    0.000009  -0.113280  -0.192906   0.536666   1.968004
    4  O  1  X   -0.231692   0.372050  -0.307910   0.503743   0.013578
    5  O  1  Y   -0.051123   0.431738   0.475946  -0.366749   0.083908
    6  O  1  Z   -0.543921  -0.199138   0.086452  -0.180092  -0.013666
    7  O  1  X    0.373656  -0.718335   0.205591  -0.249293   0.184604
    8  O  1  Y    0.082357  -0.416585  -0.206885   0.109096  -0.512933
    9  O  1  Z    0.877100   0.345289  -0.068120   0.095919  -0.030479
   10  O  1 XX   -0.025879   0.039504  -0.038375  -0.035698   0.009876
   11  O  1 YY    0.004177  -0.032158   0.061235   0.056071  -0.084424
   12  O  1 ZZ    0.021702  -0.007346  -0.022860  -0.020373   0.074548
   13  O  1 XY    0.007645  -0.015025   0.030514   0.040512   0.094945
   14  O  1 XZ   -0.029739  -0.026034   0.004743   0.003313   0.026866
   15  O  1 YZ    0.026852   0.008130  -0.022107  -0.025620  -0.022336
   16  S  2  S   -0.000000   0.000035   0.008379  -0.000347   0.000027
   17  S  2  S    0.000002  -0.000404  -0.046242   0.002417  -0.000143
   18  S  2  S   -0.000010   0.005040  -0.284629  -0.000436  -0.002201
   19  S  2  S    0.000019  -0.001392   0.431545  -0.008912  -0.006297
   20  S  2  X    0.001619   0.041918  -0.019340  -0.119447  -0.043968
   21  S  2  Y    0.000363  -0.013778  -0.074581   0.041810   0.014650
   22  S  2  Z    0.003833  -0.016554   0.015230   0.046937   0.017347
   23  S  2  X   -0.025845  -0.220342   0.052828   0.368491   0.473319
   24  S  2  Y   -0.005724   0.074003   0.215895  -0.129998  -0.159043
   25  S  2  Z   -0.060863   0.086856  -0.042745  -0.144706  -0.186616
   26  S  2  X   -0.256421   0.339385   0.020851   0.391962   0.834750
   27  S  2  Y   -0.056383  -0.116049   0.051352  -0.131843  -0.280919
   28  S  2  Z   -0.601977  -0.133834  -0.013704  -0.154530  -0.329081
   29  S  2 XX   -0.056372  -0.110978   0.580203   0.333606   0.035253
   30  S  2 YY   -0.047519   0.142117  -0.128159  -0.449332  -0.045680
   31  S  2 ZZ    0.103891  -0.031139  -0.452044   0.115725   0.010427
   32  S  2 XY   -0.131599  -0.227104  -0.340602   0.719351   0.071478
   33  S  2 XZ   -0.050925   0.077928  -0.576600  -0.225768  -0.024346
   34  S  2 YZ   -0.286833   0.081654   0.087684  -0.256365  -0.025557
   35  O  3  S    0.000000   0.000924   0.037835   0.031515  -0.081337
   36  O  3  S    0.000017  -0.073015  -0.195199  -0.048564   1.256598
   37  O  3  S   -0.000034   0.111621  -0.200640  -0.525000  -1.952798
   38  O  3  X   -0.233708   0.107741   0.501406   0.580397  -0.028600
   39  O  3  Y   -0.051249  -0.601415   0.205343  -0.005667  -0.079631
   40  O  3  Z   -0.548762   0.010375  -0.232761  -0.246595   0.019651
   41  O  3  X    0.376188  -0.405575  -0.288446  -0.256701   0.393463
   42  O  3  Y    0.082528   0.803649  -0.040586   0.061219   0.319754
   43  O  3  Z    0.883158   0.097578   0.126636   0.103560  -0.197525
   44  O  3 XX    0.031018  -0.029911  -0.036199   0.043100   0.070237
   45  O  3 YY    0.000056   0.019445   0.057300  -0.066335  -0.020966
   46  O  3 ZZ   -0.031074   0.010467  -0.021102   0.023235  -0.049271
   47  O  3 XY    0.004096   0.034639   0.034322  -0.028257   0.072991
   48  O  3 XZ    0.034402   0.019564   0.004006  -0.007637  -0.081976
   49  O  3 YZ   -0.001287  -0.015072  -0.023150   0.021617  -0.037748

                     36         37         38         39         40
                    1.5059     2.0535     2.0597     2.0647     2.0854
                     A          A          A          A          A   
    1  O  1  S    0.066626   0.000002   0.001663   0.000002  -0.005464
    2  O  1  S   -1.265648  -0.000048  -0.025315   0.000002   0.060505
    3  O  1  S    2.289139   0.000074   0.027093  -0.000032  -0.053997
    4  O  1  X   -0.016351   0.005584  -0.037929   0.009511   0.032376
    5  O  1  Y   -0.077633   0.001229  -0.010761   0.002108  -0.021990
    6  O  1  Z    0.014233   0.013260   0.017146   0.022332  -0.011713
    7  O  1  X    0.573013  -0.009120   0.068681  -0.015487  -0.039954
    8  O  1  Y   -0.285317  -0.002045   0.008436  -0.003398   0.020541
    9  O  1  Z   -0.217213  -0.021740  -0.030014  -0.036281   0.015066
   10  O  1 XX   -0.056927  -0.379652   0.321391   0.177609   0.137443
   11  O  1 YY    0.000613  -0.057098   0.092292   0.089783   0.293811
   12  O  1 ZZ    0.056314   0.436750  -0.413682  -0.267392  -0.431254
   13  O  1 XY    0.133125  -0.197988   0.257114   0.258080   0.300087
   14  O  1 XZ    0.050356  -0.408544  -0.478378   0.175624  -0.386758
   15  O  1 YZ   -0.049074  -0.328767  -0.184075   0.539089  -0.223531
   16  S  2  S   -0.002827  -0.000000   0.000018   0.000001   0.000326
   17  S  2  S    0.033742   0.000002  -0.000184  -0.000009  -0.005015
   18  S  2  S   -0.025640  -0.000010   0.001091   0.000021   0.048223
   19  S  2  S   -2.051346  -0.000006  -0.000058   0.000018   0.014582
   20  S  2  X    0.014946   0.000443   0.006448  -0.009573  -0.000763
   21  S  2  Y    0.058250   0.000097  -0.002194  -0.002111  -0.001966
   22  S  2  Z   -0.011827   0.001031  -0.002552  -0.022474   0.000499
   23  S  2  X   -0.110715  -0.001655  -0.002476   0.037783   0.006676
   24  S  2  Y   -0.435077  -0.000389   0.001136   0.008341   0.023632
   25  S  2  Z    0.087950  -0.003972   0.000998   0.088729  -0.005019
   26  S  2  X   -0.190580  -0.000072  -0.024952   0.001230   0.001971
   27  S  2  Y   -0.739067   0.000004   0.008313   0.000266   0.006382
   28  S  2  Z    0.150468  -0.000069   0.009845   0.002858  -0.001435
   29  S  2 XX   -0.155240  -0.019744   0.008709  -0.007041  -0.036309
   30  S  2 YY   -0.054274   0.001789  -0.014025  -0.005014  -0.070419
   31  S  2 ZZ    0.209514   0.017955   0.005316   0.012056   0.106727
   32  S  2 XY    0.075344   0.002267   0.019332  -0.014146   0.005890
   33  S  2 XZ    0.210659  -0.022399  -0.004506  -0.006625   0.086205
   34  S  2 YZ    0.004948   0.012096  -0.006409  -0.030416   0.020296
   35  O  3  S    0.067077  -0.000002  -0.001878   0.000003  -0.005421
   36  O  3  S   -1.272003   0.000037   0.027578  -0.000017   0.059574
   37  O  3  S    2.295519  -0.000054  -0.028722  -0.000005  -0.053104
   38  O  3  X   -0.021519  -0.006527  -0.028515   0.008962  -0.036717
   39  O  3  Y   -0.074716  -0.001384   0.032317   0.001955   0.000107
   40  O  3  Z    0.016167  -0.015236   0.009147   0.020981   0.015631
   41  O  3  X   -0.619421   0.010560   0.055461  -0.014429   0.041592
   42  O  3  Y    0.109763   0.002241  -0.049183  -0.003149  -0.005139
   43  O  3  Z    0.253449   0.024561  -0.019060  -0.033840  -0.017241
   44  O  3 XX   -0.127402  -0.202554  -0.034517   0.023566  -0.082548
   45  O  3 YY    0.092823   0.089521  -0.450817   0.108800   0.600599
   46  O  3 ZZ    0.034579   0.113033   0.485333  -0.132367  -0.518051
   47  O  3 XY   -0.012252   0.211167   0.339821   0.288018  -0.173369
   48  O  3 XZ    0.098823  -0.246562   0.272294  -0.000639  -0.244454
   49  O  3 YZ    0.002879   0.561337  -0.033299   0.662507  -0.057296

                     41         42         43         44         45
                    2.1567     2.2427     2.3256     2.4668     2.7755
                     A          A          A          A          A   
    1  O  1  S    0.010776   0.000000   0.000000  -0.009400  -0.002563
    2  O  1  S   -0.150844  -0.000008   0.000004   0.205828  -0.537142
    3  O  1  S    0.163119   0.000017  -0.000017  -0.349061   1.401512
    4  O  1  X   -0.014130   0.023146   0.012899   0.054240   0.034141
    5  O  1  Y    0.097737   0.005103   0.002846  -0.016824  -0.044956
    6  O  1  Z   -0.003153   0.054363   0.030301  -0.021515  -0.010320
    7  O  1  X   -0.029375  -0.072384  -0.067740  -0.248493   0.527154
    8  O  1  Y   -0.160397  -0.015956  -0.014915  -0.070266  -0.595737
    9  O  1  Z    0.027558  -0.170026  -0.159074   0.112395  -0.168578
   10  O  1 XX   -0.449509  -0.408118  -0.260011  -0.577452   0.043780
   11  O  1 YY    0.684618   0.052576   0.096330   0.621109   0.346609
   12  O  1 ZZ   -0.235109   0.355543   0.163681  -0.043657  -0.390389
   13  O  1 XY    0.068410   0.085886   0.219398   0.064898  -0.671687
   14  O  1 XZ    0.114830  -0.465990  -0.312311   0.308814  -0.173952
   15  O  1 YZ   -0.125267   0.342898   0.601765  -0.088080   0.201017
   16  S  2  S    0.000033  -0.000000   0.000000   0.002493  -0.040082
   17  S  2  S   -0.000219   0.000004  -0.000002  -0.025748   0.353276
   18  S  2  S    0.000025  -0.000014   0.000007   0.109422  -1.261008
   19  S  2  S   -0.000627  -0.000010   0.000002   0.260967  -0.951885
   20  S  2  X   -0.033277  -0.029846  -0.000390  -0.020456   0.031918
   21  S  2  Y    0.010919  -0.006573  -0.000088  -0.078747   0.116439
   22  S  2  Z    0.013146  -0.070098  -0.000921   0.016096  -0.024512
   23  S  2  X    0.188931   0.117980   0.001762   0.093976  -0.209804
   24  S  2  Y   -0.062026   0.025978   0.000400   0.362396  -0.784645
   25  S  2  Z   -0.074631   0.277090   0.004173  -0.074003   0.162930
   26  S  2  X    0.034358   0.029514   0.000225   0.044708  -0.032240
   27  S  2  Y   -0.012058   0.006499   0.000050   0.175915  -0.120000
   28  S  2  Z   -0.013499   0.069316   0.000530  -0.035536   0.024983
   29  S  2 XX   -0.121562   0.054648  -0.316378  -0.321693  -0.418355
   30  S  2 YY    0.159973   0.045613   0.023833   0.394353   0.107968
   31  S  2 ZZ   -0.038411  -0.100261   0.292545  -0.072660   0.310387
   32  S  2 XY   -0.253091   0.126494   0.022198   0.256477   0.248528
   33  S  2 XZ    0.083347   0.049455  -0.357072   0.112530   0.405823
   34  S  2 YZ    0.090396   0.275337   0.162504  -0.156667  -0.068292
   35  O  3  S   -0.010723  -0.000000  -0.000000  -0.009451  -0.002561
   36  O  3  S    0.149226  -0.000003  -0.000001   0.205961  -0.546149
   37  O  3  S   -0.161333   0.000011   0.000007  -0.349349   1.419824
   38  O  3  X   -0.057236   0.023390  -0.012618  -0.053849  -0.049679
   39  O  3  Y   -0.073758   0.005152  -0.002781   0.019331  -0.016536
   40  O  3  Z    0.031288   0.054934  -0.029629   0.021117   0.022703
   41  O  3  X    0.050103  -0.072953   0.065868   0.176889  -0.735413
   42  O  3  Y    0.152897  -0.016067   0.014511  -0.210075  -0.180428
   43  O  3  Z   -0.035675  -0.171315   0.154707  -0.055616   0.330056
   44  O  3 XX    0.231090   0.462747  -0.415707  -0.313805   0.549705
   45  O  3 YY   -0.398451  -0.010077  -0.045946   0.275037  -0.310676
   46  O  3 ZZ    0.167362  -0.452670   0.461653   0.038769  -0.239029
   47  O  3 XY   -0.525978   0.032503  -0.173270   0.607740   0.357514
   48  O  3 XZ    0.036104   0.516165  -0.450200   0.128375  -0.522766
   49  O  3 YZ    0.289209  -0.086388  -0.257761  -0.281716  -0.166794

                     46
                    2.8924
                     A   
    1  O  1  S   -0.010569
    2  O  1  S   -0.445454
    3  O  1  S    1.338269
    4  O  1  X    0.075165
    5  O  1  Y   -0.081282
    6  O  1  Z   -0.024380
    7  O  1  X    0.564654
    8  O  1  Y   -0.617703
    9  O  1  Z   -0.182487
   10  O  1 XX    0.162633
   11  O  1 YY    0.189713
   12  O  1 ZZ   -0.352346
   13  O  1 XY   -0.748249
   14  O  1 XZ   -0.211144
   15  O  1 YZ    0.253707
   16  S  2  S   -0.000504
   17  S  2  S    0.004942
   18  S  2  S   -0.022473
   19  S  2  S   -0.011813
   20  S  2  X   -0.221299
   21  S  2  Y    0.075479
   22  S  2  Z    0.087147
   23  S  2  X    1.412679
   24  S  2  Y   -0.484790
   25  S  2  Z   -0.556029
   26  S  2  X    0.129922
   27  S  2  Y   -0.044634
   28  S  2  Z   -0.051132
   29  S  2 XX    0.271685
   30  S  2 YY   -0.362221
   31  S  2 ZZ    0.090536
   32  S  2 XY    0.577421
   33  S  2 XZ   -0.184998
   34  S  2 YZ   -0.206021
   35  O  3  S    0.010231
   36  O  3  S    0.434744
   37  O  3  S   -1.299072
   38  O  3  X    0.097437
   39  O  3  Y    0.021438
   40  O  3  Z   -0.043498
   41  O  3  X    0.746025
   42  O  3  Y    0.169014
   43  O  3  Z   -0.333501
   44  O  3 XX   -0.628322
   45  O  3 YY    0.431194
   46  O  3 ZZ    0.197128
   47  O  3 XY   -0.239786
   48  O  3 XZ    0.527996
   49  O  3 YZ    0.098686
 ...... END OF RHF CALCULATION ......
 STEP CPU TIME =     2.92 TOTAL CPU TIME =          3.0 (      0.1 MIN)
 TOTAL WALL CLOCK TIME=          3.3 SECONDS, CPU UTILIZATION IS    92.68%

     ---------------------------------------------------------------------
     PROPERTIES FOR THE PBE      DFT FUNCTIONAL (RHF  TYPE) DENSITY MATRIX
     ---------------------------------------------------------------------

          -----------------
          ENERGY COMPONENTS
          -----------------

         WAVEFUNCTION NORMALIZATION =       1.0000000000

                ONE ELECTRON ENERGY =    -970.0329401482
                TWO ELECTRON ENERGY =     313.7557461517
           NUCLEAR REPULSION ENERGY =     108.0349182716
                                      ------------------
                       TOTAL ENERGY =    -548.2422757249

 ELECTRON-ELECTRON POTENTIAL ENERGY =     313.7557461517
  NUCLEUS-ELECTRON POTENTIAL ENERGY =   -1517.7271695459
   NUCLEUS-NUCLEUS POTENTIAL ENERGY =     108.0349182716
                                      ------------------
             TOTAL POTENTIAL ENERGY =   -1095.9365051227
               TOTAL KINETIC ENERGY =     547.6942293978
                 VIRIAL RATIO (V/T) =       2.0010006429

          ---------------------------------------
          MULLIKEN AND LOWDIN POPULATION ANALYSES
          ---------------------------------------

     ATOMIC MULLIKEN POPULATION IN EACH MOLECULAR ORBITAL

                      1          2          3          4          5

                  2.000000   2.000000   2.000000   2.000000   2.000000

    1             0.000050   1.998859   0.000015  -0.000506  -0.000103
    2             1.999901   0.001129   0.001125   2.001008   2.000209
    3             0.000049   0.000012   1.998861  -0.000502  -0.000106

                      6          7          8          9         10

                  2.000000   2.000000   2.000000   2.000000   2.000000

    1            -0.000019  -0.000036   0.652474   0.744126   0.548037
    2             2.000037   2.000072   0.728609   0.475383   0.907775
    3            -0.000018  -0.000037   0.618917   0.780492   0.544188

                     11         12         13         14         15

                  2.000000   2.000000   2.000000   2.000000   2.000000

    1             0.500359   0.563133   0.815107   0.934006   0.918706
    2             1.015881   0.863441   0.398389   0.115456   0.159029
    3             0.483759   0.573426   0.786504   0.950538   0.922265

                     16

                  2.000000

    1             0.622901
    2             0.735255
    3             0.641844

               ----- POPULATIONS IN EACH AO -----
                             MULLIKEN      LOWDIN
              1  O  1  S      1.99544     1.97254
              2  O  1  S      0.94510     0.68394
              3  O  1  S      0.89328     0.51203
              4  O  1  X      0.95095     0.91219
              5  O  1  Y      1.03221     0.99944
              6  O  1  Z      0.88683     0.84805
              7  O  1  X      0.50295     0.59765
              8  O  1  Y      0.50500     0.61281
              9  O  1  Z      0.56165     0.60469
             10  O  1 XX      0.00268     0.20219
             11  O  1 YY      0.00638     0.19981
             12  O  1 ZZ      0.00674     0.19825
             13  O  1 XY      0.00352     0.01408
             14  O  1 XZ      0.00439     0.00548
             15  O  1 YZ      0.00000     0.00649
             16  S  2  S      1.99980     1.99922
             17  S  2  S      1.99189     1.88165
             18  S  2  S      1.28145     0.63490
             19  S  2  S      0.60209     0.49032
             20  S  2  X      1.99418     1.95898
             21  S  2  Y      1.99507     1.96617
             22  S  2  Z      1.99386     1.95988
             23  S  2  X      0.84842     0.69551
             24  S  2  Y      1.02017     0.92007
             25  S  2  Z      0.85144     0.74307
             26  S  2  X      0.06578     0.21069
             27  S  2  Y      0.10166     0.25194
             28  S  2  Z      0.14305     0.25987
             29  S  2 XX      0.05984     0.32425
             30  S  2 YY      0.14794     0.31001
             31  S  2 ZZ      0.14457     0.28618
             32  S  2 XY      0.11591     0.16985
             33  S  2 XZ      0.04560     0.14549
             34  S  2 YZ      0.00000     0.05150
             35  O  3  S      1.99545     1.97253
             36  O  3  S      0.94529     0.68512
             37  O  3  S      0.89501     0.51318
             38  O  3  X      0.91638     0.87853
             39  O  3  Y      1.07574     1.04053
             40  O  3  Z      0.87559     0.83964
             41  O  3  X      0.39530     0.54046
             42  O  3  Y      0.64959     0.68179
             43  O  3  Z      0.52834     0.59150
             44  O  3 XX      0.00373     0.20950
             45  O  3 YY      0.00611     0.19394
             46  O  3 ZZ      0.00533     0.20072
             47  O  3 XY      0.00699     0.00867
             48  O  3 XZ      0.00134     0.01260
             49  O  3 YZ      0.00000     0.00209

          ----- MULLIKEN ATOMIC OVERLAP POPULATIONS -----
          (OFF-DIAGONAL ELEMENTS NEED TO BE MULTIPLIED BY 2)

             1           2           3

    1    7.9587422
    2    0.3699390  14.6644863
    3   -0.0315713   0.3682734   7.9634894

          TOTAL MULLIKEN AND LOWDIN ATOMIC POPULATIONS
       ATOM         MULL.POP.    CHARGE          LOW.POP.     CHARGE
    1 O             8.297110   -0.297110         8.369658   -0.369658
    2 S            15.402699    0.597301        15.259540    0.740460
    3 O             8.300192   -0.300192         8.370802   -0.370802

          MULLIKEN SPHERICAL HARMONIC POPULATIONS
       ATOM           S       P       D      F      G      H      I    TOTAL
    1 O             3.83    4.44    0.02   0.00   0.00   0.00   0.00    8.30
    2 S             5.88    9.01    0.51   0.00   0.00   0.00   0.00   15.40
    3 O             3.84    4.44    0.02   0.00   0.00   0.00   0.00    8.30

          -------------------------------
          BOND ORDER AND VALENCE ANALYSIS     BOND ORDER THRESHOLD=0.050
          -------------------------------

                   BOND                       BOND                       BOND
  ATOM PAIR DIST  ORDER      ATOM PAIR DIST  ORDER      ATOM PAIR DIST  ORDER
    1   2  1.432  1.913        1   3  2.495  0.240        2   3  1.436  1.911

                       TOTAL       BONDED        FREE
      ATOM            VALENCE     VALENCE     VALENCE
    1 O                 2.153       2.153      -0.000
    2 S                 3.824       3.824       0.000
    3 O                 2.151       2.151       0.000

          ---------------------
          ELECTROSTATIC MOMENTS
          ---------------------

 POINT   1           X           Y           Z (BOHR)    CHARGE
                -8.776867    5.240755    2.399397        0.00 (A.U.)
         DX          DY          DZ         /D/  (DEBYE)
    -0.379023   -1.430067    0.295512    1.508668
 ...... END OF PROPERTY EVALUATION ......
 STEP CPU TIME =     0.00 TOTAL CPU TIME =          3.0 (      0.1 MIN)
 TOTAL WALL CLOCK TIME=          3.3 SECONDS, CPU UTILIZATION IS    92.40%

 BEGINNING ONE ELECTRON GRADIENT...
 ..... END OF 1-ELECTRON GRADIENT ......
 STEP CPU TIME =     0.00 TOTAL CPU TIME =          3.0 (      0.1 MIN)
 TOTAL WALL CLOCK TIME=          3.3 SECONDS, CPU UTILIZATION IS    92.40%

          ----------------------
          GRADIENT OF THE ENERGY
          ----------------------
 MEMORY FOR GRID POINT CONTRIBUTIONS TO THE DFT GRADIENT=    146145 WORDS.
 STEP CPU TIME =     0.36 TOTAL CPU TIME =          3.4 (      0.1 MIN)
 TOTAL WALL CLOCK TIME=          3.6 SECONDS, CPU UTILIZATION IS    93.15%

 THE MINIMUM MEMORY REQUIRED FOR THIS RUN IS      87966 WORDS.
 USING     990322 WORDS FOR 2E- DERIVATIVE INTEGRAL CONTRIBUTIONS.
 THE COARSE/FINE SCHWARZ SCREENINGS SKIPPED            0/           1 BLOCKS.
 THE NUMBER OF GRADIENT INTEGRAL BLOCKS COMPUTED WAS     20890
 ...... END OF 2-ELECTRON GRADIENT ......
 STEP CPU TIME =     0.17 TOTAL CPU TIME =          3.6 (      0.1 MIN)
 TOTAL WALL CLOCK TIME=          3.8 SECONDS, CPU UTILIZATION IS    93.21%

          NSERCH=  0     ENERGY=    -548.2422757

                                 -----------------------
                                 GRADIENT (HARTREE/BOHR)
                                 -----------------------
        ATOM     ZNUC       DE/DX         DE/DY         DE/DZ
 --------------------------------------------------------------
    1  O            8.0     0.0435172    -0.0540262    -0.0134616
    2  S           16.0     0.0140346     0.0717431    -0.0127051
    3  O            8.0    -0.0575519    -0.0177170     0.0261667

          MAXIMUM GRADIENT = 0.0717431    RMS GRADIENT = 0.0405655

 NSERCH:   0  E=     -548.2422757249  GRAD. MAX=  0.0717431  R.M.S.=  0.0405655

          FORCE CONSTANT MATRIX NOT UPDATED --- TAKING FIRST STEP
          MIN SEARCH, CORRECT HESSIAN, TRYING PURE NR STEP
               NR STEP HAS LENGTH         =   0.397323
          TRIM/QA LAMBDA FOR NON-TS MODES =  -0.01322320
          TRIM/QA STEP HAS LENGTH         =   0.300000
          RADIUS OF STEP TAKEN=   0.30000  CURRENT TRUST RADIUS=   0.30000

 BEGINNING GEOMETRY SEARCH POINT NSERCH=   1 ...

 COORDINATES OF ALL ATOMS ARE (ANGS)
   ATOM   CHARGE       X              Y              Z
 ------------------------------------------------------------
 O           8.0  -5.6231968607   3.5283856963   1.6155896549
 S          16.0  -4.7594924190   2.3188290390   1.3612878268
 O           8.0  -3.4647707203   2.8084752647   0.7640825183

          INTERNUCLEAR DISTANCES (ANGS.)
          ------------------------------

                1 O          2 S          3 O     

   1 O       0.0000000    1.5078734 *  2.4294318 *
   2 S       1.5078734 *  0.0000000    1.5075516 *
   3 O       2.4294318 *  1.5075516 *  0.0000000  

  * ... LESS THAN  3.000

 ...... END OF ONE-ELECTRON INTEGRALS ......
 STEP CPU TIME =     0.00 TOTAL CPU TIME =          3.6 (      0.1 MIN)
 TOTAL WALL CLOCK TIME=          3.8 SECONDS, CPU UTILIZATION IS    93.21%
 TOTAL NUMBER OF NONZERO TWO-ELECTRON INTEGRALS =              700422
         47 INTEGRAL RECORDS WERE STORED ON DISK FILE  8.
  ...... END OF TWO-ELECTRON INTEGRALS .....
 STEP CPU TIME =     0.13 TOTAL CPU TIME =          3.7 (      0.1 MIN)
 TOTAL WALL CLOCK TIME=          4.0 SECONDS, CPU UTILIZATION IS    93.43%

          --------------------------
               R-PBE SCF CALCULATION
          --------------------------
         DENSITY MATRIX CONVERGENCE THRESHOLD=  2.00E-04
     COARSE -> FINE DFT GRID SWITCH THRESHOLD=  6.00E-03 (SWITCH IN $DFT)
                   HF -> DFT SWITCH THRESHOLD=  5.00E-03 (SWOFF IN $DFT)

 DFT CODE IS SWITCHING FROM THE FINE GRID NRAD= 96,  NLEB=  302
                      TO THE COARSE GRID NRAD0= 24, NLEB0=  110

 ITER EX DEM     TOTAL ENERGY        E CHANGE  DENSITY CHANGE    DIIS ERROR
          * * *   INITIATING DIIS PROCEDURE   * * *
   1  0  0     -548.2380555235  -548.2380555235   0.141335236   0.057029993
   2  1  0     -548.2520842254    -0.0140287019   0.141466513   0.059239419
   3  2  0     -548.2531481925    -0.0010639672   0.082771544   0.059904589
   4  3  0     -548.2643566297    -0.0112084372   0.015902838   0.008047682
   5  4  0     -548.2640403351     0.0003162947   0.010906007   0.015115025
   6  5  0     -548.2646143061    -0.0005739711   0.001104860   0.000421390
 DFT CODE IS SWITCHING BACK TO THE FINE GRID
          * * *   INITIATING DIIS PROCEDURE   * * *
   7  6  0     -548.2419708363     0.0226434698   0.008619434   0.010883057
   8  7  0     -548.2422689207    -0.0002980844   0.004910738   0.002275427
   9  8  0     -548.2422124677     0.0000564531   0.005689138   0.004734640
  10  9  0     -548.2422644168    -0.0000519491   0.002435894   0.002507026
  11 10  0     -548.2422783497    -0.0000139330   0.001047483   0.000842295
  12 11  0     -548.2422810432    -0.0000026935   0.000144911   0.000078348
  13 12  0     -548.2422810661    -0.0000000229   0.000022363   0.000008886
  14 13  0     -548.2422810666    -0.0000000005   0.000004225   0.000003365

          -----------------
          DENSITY CONVERGED
          -----------------
     TIME TO FORM FOCK OPERATORS=       2.5 SECONDS (       0.2 SEC/ITER)
     TIME TO SOLVE SCF EQUATIONS=       0.0 SECONDS (       0.0 SEC/ITER)

 FINAL R-PBE ENERGY IS     -548.2422810666 AFTER  14 ITERATIONS
 DFT EXCHANGE + CORRELATION ENERGY =       -42.4633618187
 TOTAL ELECTRON NUMBER             =        32.0000113020
 ...... END OF RHF CALCULATION ......
 STEP CPU TIME =     2.51 TOTAL CPU TIME =          6.2 (      0.1 MIN)
 TOTAL WALL CLOCK TIME=          6.5 SECONDS, CPU UTILIZATION IS    95.39%
 ..... END OF 1-ELECTRON GRADIENT ......
 STEP CPU TIME =     0.01 TOTAL CPU TIME =          6.2 (      0.1 MIN)
 TOTAL WALL CLOCK TIME=          6.5 SECONDS, CPU UTILIZATION IS    95.55%
 MEMORY FOR GRID POINT CONTRIBUTIONS TO THE DFT GRADIENT=    146145 WORDS.
 STEP CPU TIME =     0.35 TOTAL CPU TIME =          6.6 (      0.1 MIN)
 TOTAL WALL CLOCK TIME=          6.9 SECONDS, CPU UTILIZATION IS    95.63%
 ...... END OF 2-ELECTRON GRADIENT ......
 STEP CPU TIME =     0.17 TOTAL CPU TIME =          6.7 (      0.1 MIN)
 TOTAL WALL CLOCK TIME=          7.0 SECONDS, CPU UTILIZATION IS    95.74%

          NSERCH=  1     ENERGY=    -548.2422811

                                 -----------------------
                                 GRADIENT (HARTREE/BOHR)
                                 -----------------------
        ATOM     ZNUC       DE/DX         DE/DY         DE/DZ
 --------------------------------------------------------------
    1  O            8.0     0.0126645     0.0221762    -0.0074725
    2  S           16.0    -0.0120416    -0.0485657     0.0096825
    3  O            8.0    -0.0006229     0.0263895    -0.0022100

          MAXIMUM GRADIENT = 0.0485657    RMS GRADIENT = 0.0211005

 NSERCH:   1  E=     -548.2422810666  GRAD. MAX=  0.0485657  R.M.S.=  0.0211005

          HESSIAN UPDATED USING THE BFGS FORMULA
             ACTUAL ENERGY CHANGE WAS  -0.0000053416
          PREDICTED ENERGY CHANGE WAS  -0.0100576221 RATIO=  0.001
          MIN SEARCH, CORRECT HESSIAN, TRYING PURE NR STEP
               NR STEP HAS LENGTH         =   0.502425
          TRIM/QA LAMBDA FOR NON-TS MODES =  -0.20587207
          TRIM/QA STEP HAS LENGTH         =   0.150000
          RADIUS OF STEP TAKEN=   0.15000  CURRENT TRUST RADIUS=   0.15000

 BEGINNING GEOMETRY SEARCH POINT NSERCH=   2 ...

 COORDINATES OF ALL ATOMS ARE (ANGS)
   ATOM   CHARGE       X              Y              Z
 ------------------------------------------------------------
 O           8.0  -5.6619337769   3.5161813523   1.6332281280
 S          16.0  -4.7475308302   2.3652376472   1.3518417001
 O           8.0  -3.4379953930   2.7742710005   0.7558901719

          INTERNUCLEAR DISTANCES (ANGS.)
          ------------------------------

                1 O          2 S          3 O     

   1 O       0.0000000    1.4966571 *  2.5032089 *
   2 S       1.4966571 *  0.0000000    1.4957772 *
   3 O       2.5032089 *  1.4957772 *  0.0000000  

  * ... LESS THAN  3.000

 ...... END OF ONE-ELECTRON INTEGRALS ......
 STEP CPU TIME =     0.00 TOTAL CPU TIME =          6.7 (      0.1 MIN)
 TOTAL WALL CLOCK TIME=          7.0 SECONDS, CPU UTILIZATION IS    95.74%
 TOTAL NUMBER OF NONZERO TWO-ELECTRON INTEGRALS =              696339
         47 INTEGRAL RECORDS WERE STORED ON DISK FILE  8.
  ...... END OF TWO-ELECTRON INTEGRALS .....
 STEP CPU TIME =     0.12 TOTAL CPU TIME =          6.9 (      0.1 MIN)
 TOTAL WALL CLOCK TIME=          7.2 SECONDS, CPU UTILIZATION IS    95.68%

          --------------------------
               R-PBE SCF CALCULATION
          --------------------------
         DENSITY MATRIX CONVERGENCE THRESHOLD=  2.00E-04
     COARSE -> FINE DFT GRID SWITCH THRESHOLD=  6.00E-03 (SWITCH IN $DFT)
                   HF -> DFT SWITCH THRESHOLD=  5.00E-03 (SWOFF IN $DFT)

 DFT CODE IS SWITCHING FROM THE FINE GRID NRAD= 96,  NLEB=  302
                      TO THE COARSE GRID NRAD0= 24, NLEB0=  110

 ITER EX DEM     TOTAL ENERGY        E CHANGE  DENSITY CHANGE    DIIS ERROR
          * * *   INITIATING DIIS PROCEDURE   * * *
   1  0  0     -548.2675541341  -548.2675541341   0.046842312   0.024179369
   2  1  0     -548.2715806652    -0.0040265312   0.042889792   0.013188751
   3  2  0     -548.2703361240     0.0012445412   0.031427895   0.023747151
   4  3  0     -548.2721256191    -0.0017894951   0.007934490   0.005596103
   5  4  0     -548.2721126470     0.0000129721   0.004669397   0.006251552
 DFT CODE IS SWITCHING BACK TO THE FINE GRID
          * * *   INITIATING DIIS PROCEDURE   * * *
   6  5  0     -548.2476917259     0.0244209211   0.009419999   0.009817765
   7  6  0     -548.2479880431    -0.0002963173   0.005106811   0.002192035
   8  7  0     -548.2479012667     0.0000867764   0.005681778   0.006372795
   9  8  0     -548.2479921461    -0.0000908794   0.001426217   0.002106015
  10  9  0     -548.2480040576    -0.0000119115   0.000602799   0.000195970
  11 10  0     -548.2480041492    -0.0000000916   0.000184967   0.000197800
  12 11  0     -548.2480042643    -0.0000001151   0.000019404   0.000007167

          -----------------
          DENSITY CONVERGED
          -----------------
     TIME TO FORM FOCK OPERATORS=       2.3 SECONDS (       0.2 SEC/ITER)
     TIME TO SOLVE SCF EQUATIONS=       0.0 SECONDS (       0.0 SEC/ITER)

 FINAL R-PBE ENERGY IS     -548.2480042643 AFTER  12 ITERATIONS
 DFT EXCHANGE + CORRELATION ENERGY =       -42.4744811995
 TOTAL ELECTRON NUMBER             =        32.0000160900
 ...... END OF RHF CALCULATION ......
 STEP CPU TIME =     2.36 TOTAL CPU TIME =          9.2 (      0.2 MIN)
 TOTAL WALL CLOCK TIME=          9.5 SECONDS, CPU UTILIZATION IS    96.54%
 ..... END OF 1-ELECTRON GRADIENT ......
 STEP CPU TIME =     0.01 TOTAL CPU TIME =          9.2 (      0.2 MIN)
 TOTAL WALL CLOCK TIME=          9.6 SECONDS, CPU UTILIZATION IS    96.55%
 MEMORY FOR GRID POINT CONTRIBUTIONS TO THE DFT GRADIENT=    146145 WORDS.
 STEP CPU TIME =     0.36 TOTAL CPU TIME =          9.6 (      0.2 MIN)
 TOTAL WALL CLOCK TIME=          9.9 SECONDS, CPU UTILIZATION IS    96.58%
 ...... END OF 2-ELECTRON GRADIENT ......
 STEP CPU TIME =     0.17 TOTAL CPU TIME =          9.8 (      0.2 MIN)
 TOTAL WALL CLOCK TIME=         10.1 SECONDS, CPU UTILIZATION IS    96.63%

          NSERCH=  2     ENERGY=    -548.2480043

                                 -----------------------
                                 GRADIENT (HARTREE/BOHR)
                                 -----------------------
        ATOM     ZNUC       DE/DX         DE/DY         DE/DZ
 --------------------------------------------------------------
    1  O            8.0     0.0051738     0.0095860    -0.0031021
    2  S           16.0    -0.0045264    -0.0206247     0.0038618
    3  O            8.0    -0.0006475     0.0110386    -0.0007597

          MAXIMUM GRADIENT = 0.0206247    RMS GRADIENT = 0.0088939

 NSERCH:   2  E=     -548.2480042643  GRAD. MAX=  0.0206247  R.M.S.=  0.0088939

          HESSIAN UPDATED USING THE BFGS FORMULA
             ACTUAL ENERGY CHANGE WAS  -0.0057231977
          PREDICTED ENERGY CHANGE WAS  -0.0063634830 RATIO=  0.899
          MIN SEARCH, CORRECT HESSIAN, TRYING PURE NR STEP
               NR STEP HAS LENGTH         =   0.109905
          RADIUS OF STEP TAKEN=   0.10991  CURRENT TRUST RADIUS=   0.21213

 BEGINNING GEOMETRY SEARCH POINT NSERCH=   3 ...

 COORDINATES OF ALL ATOMS ARE (ANGS)
   ATOM   CHARGE       X              Y              Z
 ------------------------------------------------------------
 O           8.0  -5.6902790770   3.5071690221   1.6461425669
 S          16.0  -4.7391224484   2.3992282105   1.3450732718
 O           8.0  -3.4180584745   2.7492927674   0.7497441612

          INTERNUCLEAR DISTANCES (ANGS.)
          ------------------------------

                1 O          2 S          3 O     

   1 O       0.0000000    1.4909307 *  2.5575170 *
   2 S       1.4909307 *  0.0000000    1.4906951 *
   3 O       2.5575170 *  1.4906951 *  0.0000000  

  * ... LESS THAN  3.000

 ...... END OF ONE-ELECTRON INTEGRALS ......
 STEP CPU TIME =     0.00 TOTAL CPU TIME =          9.8 (      0.2 MIN)
 TOTAL WALL CLOCK TIME=         10.1 SECONDS, CPU UTILIZATION IS    96.63%
 TOTAL NUMBER OF NONZERO TWO-ELECTRON INTEGRALS =              693656
         47 INTEGRAL RECORDS WERE STORED ON DISK FILE  8.
  ...... END OF TWO-ELECTRON INTEGRALS .....
 STEP CPU TIME =     0.13 TOTAL CPU TIME =          9.9 (      0.2 MIN)
 TOTAL WALL CLOCK TIME=         10.2 SECONDS, CPU UTILIZATION IS    96.68%

          --------------------------
               R-PBE SCF CALCULATION
          --------------------------
         DENSITY MATRIX CONVERGENCE THRESHOLD=  5.00E-05
     COARSE -> FINE DFT GRID SWITCH THRESHOLD=  1.50E-03 (SWITCH IN $DFT)
                   HF -> DFT SWITCH THRESHOLD=  5.00E-03 (SWOFF IN $DFT)

 DFT CODE IS SWITCHING FROM THE FINE GRID NRAD= 96,  NLEB=  302
                      TO THE COARSE GRID NRAD0= 24, NLEB0=  110

 ITER EX DEM     TOTAL ENERGY        E CHANGE  DENSITY CHANGE    DIIS ERROR
          * * *   INITIATING DIIS PROCEDURE   * * *
   1  0  0     -548.2714847511  -548.2714847511   0.038174363   0.018527633
   2  1  0     -548.2739195708    -0.0024348196   0.027111613   0.008696674
   3  2  0     -548.2732502406     0.0006693301   0.020244568   0.015828625
   4  3  0     -548.2740628082    -0.0008125676   0.007135414   0.006613803
   5  4  0     -548.2741334325    -0.0000706243   0.002971638   0.003598952
   6  5  0     -548.2741707943    -0.0000373619   0.000450094   0.000157813
 DFT CODE IS SWITCHING BACK TO THE FINE GRID
          * * *   INITIATING DIIS PROCEDURE   * * *
   7  6  0     -548.2490223956     0.0251483987   0.010914927   0.009661530
   8  7  0     -548.2493117519    -0.0002893562   0.008468001   0.002204293
   9  8  0     -548.2491061301     0.0002056218   0.007414148   0.009676401
  10  9  0     -548.2493285612    -0.0002224311   0.001553158   0.001464238
[...]
   14  O  1 XZ   -0.011521   0.001456  -0.009219  -0.010199  -0.006828
   15  O  1 YZ    0.015047  -0.002646   0.004479   0.015135   0.002987
   16  S  2  S    0.000001   0.000001  -0.008527  -0.000000  -0.000006
   17  S  2  S   -0.000008  -0.000003   0.053763   0.000003   0.000040
   18  S  2  S    0.000009   0.000003  -0.055867  -0.000004  -0.000050
   19  S  2  S    0.000022   0.000005  -0.169790  -0.000004  -0.000113
   20  S  2  X    0.084130  -0.157601  -0.049317   0.000002  -0.012601
   21  S  2  Y    0.018498   0.052633  -0.194198  -0.000003   0.004162
   22  S  2  Z    0.197255   0.062335   0.039252   0.000009   0.004977
   23  S  2  X   -0.225575   0.428788   0.131471  -0.000007   0.030285
   24  S  2  Y   -0.049594  -0.143197   0.517697   0.000008  -0.009987
   25  S  2  Z   -0.528882  -0.169590  -0.104639  -0.000024  -0.011965
   26  S  2  X   -0.052170  -0.006475   0.021242  -0.000014   0.100806
   27  S  2  Y   -0.011506   0.002118   0.083736   0.000005  -0.033597
   28  S  2  Z   -0.122525   0.002455  -0.016924  -0.000006  -0.039773
   29  S  2 XX   -0.008501   0.017843  -0.034210   0.075129  -0.043399
   30  S  2 YY   -0.007359  -0.023454   0.053393  -0.005527   0.057048
   31  S  2 ZZ    0.015860   0.005612  -0.019182  -0.069602  -0.013648
   32  S  2 XY   -0.020421   0.037116   0.029583  -0.004902  -0.090441
   33  S  2 XZ   -0.007613  -0.012263   0.004634   0.084746   0.029828
   34  S  2 YZ   -0.044476  -0.013301  -0.020459  -0.037745   0.032323
   35  O  3  S   -0.000057   0.073491   0.033171   0.000001   0.000976
   36  O  3  S    0.000120  -0.152814  -0.069990  -0.000002  -0.003117
   37  O  3  S    0.000203  -0.260727  -0.110820  -0.000001  -0.026281
   38  O  3  X   -0.118370  -0.304602  -0.225047   0.181530   0.228897
   39  O  3  Y   -0.026055  -0.158850   0.215194   0.040042  -0.409133
   40  O  3  Z   -0.278698   0.144356   0.075587   0.426430  -0.059022
   41  O  3  X   -0.070027  -0.142931  -0.126861   0.127961   0.141785
   42  O  3  Y   -0.015413  -0.088050   0.135237   0.028223  -0.283334
   43  O  3  Z   -0.164797   0.068975   0.041301   0.300582  -0.033747
   44  O  3 XX    0.013363   0.007277   0.013580  -0.012410  -0.008331
   45  O  3 YY    0.000676  -0.002537  -0.010454  -0.000857   0.009253
   46  O  3 ZZ   -0.014039  -0.004740  -0.003126   0.013268  -0.000922
   47  O  3 XY    0.003458   0.010643  -0.011199  -0.003824   0.016248
   48  O  3 XZ    0.014685  -0.008665  -0.008488  -0.013569   0.002194
   49  O  3 YZ    0.003383  -0.005157   0.005270  -0.004549  -0.008004

                     16         17         18         19         20
                   -0.2882    -0.1721    -0.0004     0.0263     0.2059
                     A          A          A          A          A   
    1  O  1  S   -0.001987  -0.000000   0.057078  -0.055042  -0.000000
    2  O  1  S    0.005250  -0.000003  -0.119360   0.106531  -0.000002
    3  O  1  S    0.044684   0.000012  -0.473416   0.530837   0.000010
    4  O  1  X   -0.047585   0.150936  -0.312459  -0.014677   0.011621
    5  O  1  Y   -0.422429   0.033245   0.065849  -0.274913   0.002564
    6  O  1  Z    0.059891   0.354492   0.126869   0.032038   0.027310
    7  O  1  X   -0.044961   0.127740  -0.345092  -0.006569   0.047430
    8  O  1  Y   -0.299084   0.028130   0.067699  -0.271167   0.010449
    9  O  1  Z    0.047204   0.300004   0.140589   0.028235   0.111388
   10  O  1 XX   -0.006884   0.001786   0.002605   0.002575   0.010378
   11  O  1 YY    0.011659  -0.000128  -0.006985  -0.006189  -0.002114
   12  O  1 ZZ   -0.004776  -0.001658   0.004380   0.003614  -0.008263
   13  O  1 XY   -0.006301  -0.000109  -0.000568   0.001443  -0.004220
   14  O  1 XZ    0.002037   0.002013   0.001204   0.000483   0.012039
   15  O  1 YZ    0.000993  -0.000878   0.001534   0.000472  -0.013458
   16  S  2  S   -0.021119  -0.000000   0.026551   0.000002   0.000001
   17  S  2  S    0.136890   0.000002  -0.179062  -0.000012  -0.000004
   18  S  2  S   -0.164069  -0.000001   0.235529   0.000006   0.000013
   19  S  2  S   -0.438701  -0.000020   0.793298   0.000104  -0.000016
   20  S  2  X   -0.026328   0.088321  -0.040921  -0.149103  -0.096007
   21  S  2  Y   -0.103727   0.019457  -0.161272   0.049714  -0.021157
   22  S  2  Z    0.020933   0.207427   0.032554   0.058825  -0.225467
   23  S  2  X    0.072245  -0.263359   0.131862   0.464626   0.378829
   24  S  2  Y    0.284635  -0.058019   0.519651  -0.154911   0.083481
   25  S  2  Z   -0.057441  -0.618514  -0.104898  -0.183306   0.889666
   26  S  2  X    0.006411  -0.126420   0.174275   0.909756  -0.510796
   27  S  2  Y    0.025397  -0.027857   0.686739  -0.303342  -0.112559
   28  S  2  Z   -0.005105  -0.296900  -0.138614  -0.358909  -1.199598
   29  S  2 XX    0.103598   0.011334  -0.089989  -0.082528   0.016317
   30  S  2 YY   -0.066915   0.009829  -0.062002   0.108402   0.014166
   31  S  2 ZZ   -0.036683  -0.021162   0.151990  -0.025874  -0.030483
   32  S  2 XY   -0.071182   0.027205   0.038641  -0.171772   0.039199
   33  S  2 XZ   -0.074585   0.010161   0.141500   0.056699   0.014644
   34  S  2 YZ    0.030877   0.059363   0.012487   0.061402   0.085530
   35  O  3  S   -0.001992  -0.000001   0.057068   0.055054   0.000000
   36  O  3  S    0.005258   0.000000  -0.119333  -0.106552  -0.000003
   37  O  3  S    0.044720   0.000010  -0.473358  -0.530949   0.000013
   38  O  3  X   -0.157688   0.150935   0.294465   0.116341   0.011635
   39  O  3  Y   -0.385523   0.033247  -0.136632   0.240992   0.002561
   40  O  3  Z    0.103290   0.354496  -0.112562  -0.072142   0.027301
   41  O  3  X   -0.102127   0.127735   0.322882   0.121440   0.047427
   42  O  3  Y   -0.279884   0.028137  -0.155134   0.232844   0.010451
   43  O  3  Z    0.069728   0.300012  -0.122927  -0.073550   0.111382
   44  O  3 XX    0.001696  -0.001778   0.001053   0.000247  -0.013249
   45  O  3 YY    0.000389   0.000134  -0.004947   0.002481  -0.000379
   46  O  3 ZZ   -0.002085   0.001645   0.003893  -0.002728   0.013627
   47  O  3 XY    0.011544   0.000125  -0.003799   0.004428  -0.002676
   48  O  3 XZ   -0.003855  -0.002008   0.002272  -0.002419  -0.014616
   49  O  3 YZ   -0.005384   0.000913   0.002689  -0.002570  -0.001588

                     21         22         23         24         25
                    0.2219     0.2622     0.2923     0.5165     0.5329
                     A          A          A          A          A   
    1  O  1  S   -0.007383   0.017527   0.003470   0.000000  -0.013755
    2  O  1  S    0.040919   0.011756   0.055093   0.000001   0.058755
    3  O  1  S   -0.000010  -0.536732  -0.387517  -0.000005   0.063801
    4  O  1  X    0.055003   0.151943   0.163184  -0.098021   0.204056
    5  O  1  Y   -0.015623  -0.183158  -0.203295  -0.021601   0.212694
    6  O  1  Z   -0.021953  -0.047516  -0.050417  -0.230180  -0.106788
    7  O  1  X    0.024347  -0.094128   0.080315   0.025662  -0.011348
    8  O  1  Y   -0.117482   0.022874  -0.045155   0.005660  -0.114912
    9  O  1  Z    0.000657   0.037939  -0.029958   0.060253   0.015594
   10  O  1 XX   -0.015227  -0.014574   0.007916   0.026872  -0.036135
   11  O  1 YY    0.018398  -0.005618  -0.030038  -0.000492   0.027167
   12  O  1 ZZ   -0.003170   0.020192   0.022122  -0.026380   0.008968
   13  O  1 XY    0.000492   0.037619   0.031472   0.002132  -0.014055
   14  O  1 XZ    0.007074   0.015949   0.004553   0.029951   0.028949
   15  O  1 YZ   -0.002284  -0.012696  -0.007635  -0.004452   0.005223
   16  S  2  S    0.031724  -0.061939   0.000010   0.000000  -0.001259
   17  S  2  S   -0.233091   0.452683  -0.000073  -0.000002   0.008468
   18  S  2  S    0.863445  -1.707058   0.000270   0.000007   0.009283
   19  S  2  S   -0.978091   2.027560  -0.000302   0.000003  -0.176198
   20  S  2  X    0.058117   0.026616  -0.251635   0.009669  -0.002844
   21  S  2  Y    0.228990   0.105041   0.083891   0.002131  -0.011193
   22  S  2  Z   -0.046232  -0.021190   0.099276   0.022710   0.002262
   23  S  2  X   -0.228128  -0.096238   0.959199  -0.043868   0.013648
   24  S  2  Y   -0.898841  -0.379871  -0.319784  -0.009666   0.053727
   25  S  2  Z    0.181472   0.076628  -0.378428  -0.103038  -0.010857
   26  S  2  X    0.254092   0.194534  -1.198164   0.050905  -0.041065
   27  S  2  Y    1.001172   0.767276   0.399421   0.011217  -0.161778
   28  S  2  Z   -0.202136  -0.154830   0.472707   0.119561   0.032671
   29  S  2 XX    0.096239   0.096637  -0.104303   0.153197   0.212742
   30  S  2 YY   -0.063507  -0.074979   0.136999   0.133083  -0.760327
   31  S  2 ZZ   -0.032732  -0.021659  -0.032696  -0.286280   0.547585
   32  S  2 XY   -0.066427  -0.068888  -0.217028   0.368209  -0.266667
   33  S  2 XZ   -0.068418  -0.061537   0.071649   0.137354   0.244876
   34  S  2 YZ    0.029143   0.032944   0.077570   0.803465   0.267340
   35  O  3  S   -0.007383   0.017525  -0.003473   0.000001  -0.013753
   36  O  3  S    0.040909   0.011740  -0.055105  -0.000001   0.058745
   37  O  3  S    0.000035  -0.536601   0.387689  -0.000005   0.063800
   38  O  3  X   -0.053704  -0.213885   0.232960  -0.097948  -0.072645
   39  O  3  Y    0.020654  -0.061105   0.071222  -0.021594   0.304961
   40  O  3  Z    0.020931   0.096802  -0.105870  -0.230051   0.002263
   41  O  3  X   -0.075531   0.090171   0.088905   0.025646  -0.044201
   42  O  3  Y   -0.084164  -0.038588  -0.011265   0.005658  -0.103939
   43  O  3  Z    0.040058  -0.034772  -0.036800   0.060216   0.028580
   44  O  3 XX   -0.007200  -0.035621   0.020900  -0.023707  -0.008786
   45  O  3 YY    0.007852   0.022038  -0.007809   0.003229  -0.008772
   46  O  3 ZZ   -0.000652   0.013583  -0.013091   0.020478   0.017557
   47  O  3 XY    0.017203  -0.006198   0.028481   0.005445   0.042876
   48  O  3 XZ    0.001557   0.030403  -0.024348  -0.027111   0.010155
   49  O  3 YZ   -0.008257   0.002964  -0.013793   0.020981  -0.015137

                     26
                    0.5356
                     A   
    1  O  1  S    0.000003
    2  O  1  S   -0.000015
    3  O  1  S   -0.000003
    4  O  1  X    0.133385
    5  O  1  Y    0.029361
    6  O  1  Z    0.313338
    7  O  1  X   -0.028744
    8  O  1  Y   -0.006319
    9  O  1  Z   -0.067493
   10  O  1 XX   -0.017236
   11  O  1 YY    0.008145
   12  O  1 ZZ    0.009091
   13  O  1 XY    0.019168
   14  O  1 XZ   -0.021149
   15  O  1 YZ    0.050654
   16  S  2  S    0.000000
   17  S  2  S   -0.000002
   18  S  2  S    0.000002
   19  S  2  S    0.000029
   20  S  2  X    0.000001
   21  S  2  Y    0.000002
   22  S  2  Z    0.000004
   23  S  2  X   -0.000006
   24  S  2  Y   -0.000008
   25  S  2  Z   -0.000022
   26  S  2  X    0.000024
   27  S  2  Y    0.000027
   28  S  2  Z    0.000030
   29  S  2 XX    0.541148
   30  S  2 YY   -0.039617
   31  S  2 ZZ   -0.501531
   32  S  2 XY   -0.035252
   33  S  2 XZ    0.610501
   34  S  2 YZ   -0.271731
   35  O  3  S    0.000002
   36  O  3  S   -0.000007
   37  O  3  S   -0.000018
   38  O  3  X   -0.133444
   39  O  3  Y   -0.029445
   40  O  3  Z   -0.313430
   41  O  3  X    0.028753
   42  O  3  Y    0.006352
   43  O  3  Z    0.067494
   44  O  3 XX   -0.031876
   45  O  3 YY   -0.004539
   46  O  3 ZZ    0.036415
   47  O  3 XY   -0.015960
   48  O  3 XZ   -0.034273
   49  O  3 YZ   -0.025974

     ---------------------------------------------------------------------
     PROPERTIES FOR THE PBE      DFT FUNCTIONAL (RHF  TYPE) DENSITY MATRIX
     ---------------------------------------------------------------------

          -----------------
          ENERGY COMPONENTS
          -----------------

         WAVEFUNCTION NORMALIZATION =       1.0000000000

                ONE ELECTRON ENERGY =    -962.3045207426
                TWO ELECTRON ENERGY =     309.9638832670
           NUCLEAR REPULSION ENERGY =     104.0912939974
                                      ------------------
                       TOTAL ENERGY =    -548.2493434782

 ELECTRON-ELECTRON POTENTIAL ENERGY =     309.9638832670
  NUCLEUS-ELECTRON POTENTIAL ENERGY =   -1509.6856181542
   NUCLEUS-NUCLEUS POTENTIAL ENERGY =     104.0912939974
                                      ------------------
             TOTAL POTENTIAL ENERGY =   -1095.6304408899
               TOTAL KINETIC ENERGY =     547.3810974116
                 VIRIAL RATIO (V/T) =       2.0015861820

          ---------------------------------------
          MULLIKEN AND LOWDIN POPULATION ANALYSES
          ---------------------------------------

     ATOMIC MULLIKEN POPULATION IN EACH MOLECULAR ORBITAL

                      1          2          3          4          5

                  2.000000   2.000000   2.000000   2.000000   2.000000

    1             0.000037   0.821024   1.177875  -0.000448  -0.000138
    2             1.999927   0.001427   0.000775   2.000895   2.000276
    3             0.000037   1.177549   0.821350  -0.000448  -0.000138

                      6          7          8          9         10

                  2.000000   2.000000   2.000000   2.000000   2.000000

    1            -0.000015  -0.000049   0.649764   0.793736   0.507529
    2             2.000029   2.000099   0.700145   0.412863   0.984920
    3            -0.000015  -0.000049   0.650092   0.793402   0.507551

                     11         12         13         14         15

                  2.000000   2.000000   2.000000   2.000000   2.000000

    1             0.475020   0.777177   0.543357   0.952329   0.926654
    2             1.049834   0.445773   0.912942   0.095482   0.146287
    3             0.475146   0.777050   0.543702   0.952189   0.927059

                     16

                  2.000000

    1             0.704537
    2             0.591562
    3             0.703902

               ----- POPULATIONS IN EACH AO -----
                             MULLIKEN      LOWDIN
              1  O  1  S      1.99551     1.97265
              2  O  1  S      0.95066     0.69157
              3  O  1  S      0.92200     0.52325
              4  O  1  X      0.94134     0.90271
              5  O  1  Y      1.00868     0.97518
              6  O  1  Z      0.87851     0.84169
              7  O  1  X      0.52341     0.61068
              8  O  1  Y      0.51925     0.62201
              9  O  1  Z      0.56848     0.60980
             10  O  1 XX      0.00235     0.20328
             11  O  1 YY      0.00533     0.20179
             12  O  1 ZZ      0.00616     0.20141
             13  O  1 XY      0.00285     0.01249
             14  O  1 XZ      0.00387     0.00436
             15  O  1 YZ      0.00000     0.00565
             16  S  2  S      1.99981     1.99923
             17  S  2  S      1.99203     1.88368
             18  S  2  S      1.30561     0.65348
             19  S  2  S      0.57187     0.47882
             20  S  2  X      1.99402     1.95852
             21  S  2  Y      1.99494     1.96553
             22  S  2  Z      1.99387     1.96010
             23  S  2  X      0.84190     0.70263
             24  S  2  Y      1.00958     0.91414
             25  S  2  Z      0.86053     0.75760
             26  S  2  X      0.07226     0.21575
             27  S  2  Y      0.10662     0.25843
             28  S  2  Z      0.16356     0.27929
             29  S  2 XX      0.05052     0.31328
             30  S  2 YY      0.12545     0.30515
             31  S  2 ZZ      0.12472     0.28587
             32  S  2 XY      0.09720     0.14657
             33  S  2 XZ      0.03876     0.12173
             34  S  2 YZ      0.00000     0.04354
             35  O  3  S      1.99551     1.97264
             36  O  3  S      0.95065     0.69206
             37  O  3  S      0.92200     0.52365
             38  O  3  X      0.88993     0.85081
             39  O  3  Y      1.07625     1.04271
             40  O  3  Z      0.86238     0.82728
             41  O  3  X      0.41463     0.54927
             42  O  3  Y      0.66214     0.69550
             43  O  3  Z      0.53434     0.59444
             44  O  3 XX      0.00320     0.20961
             45  O  3 YY      0.00546     0.19683
             46  O  3 ZZ      0.00458     0.20319
             47  O  3 XY      0.00611     0.00739
             48  O  3 XZ      0.00121     0.01087
             49  O  3 YZ      0.00000     0.00187

          ----- MULLIKEN ATOMIC OVERLAP POPULATIONS -----
          (OFF-DIAGONAL ELEMENTS NEED TO BE MULTIPLIED BY 2)

             1           2           3

    1    8.0139335
    2    0.3465819  14.6500713
    3   -0.0321285   0.3465813   8.0139258

          TOTAL MULLIKEN AND LOWDIN ATOMIC POPULATIONS
       ATOM         MULL.POP.    CHARGE          LOW.POP.     CHARGE
    1 O             8.328387   -0.328387         8.378527   -0.378527
    2 S            15.343234    0.656766        15.243353    0.756647
    3 O             8.328379   -0.328379         8.378120   -0.378120

          MULLIKEN SPHERICAL HARMONIC POPULATIONS
       ATOM           S       P       D      F      G      H      I    TOTAL
    1 O             3.87    4.44    0.02   0.00   0.00   0.00   0.00    8.33
    2 S             5.87    9.04    0.44   0.00   0.00   0.00   0.00   15.34
    3 O             3.87    4.44    0.02   0.00   0.00   0.00   0.00    8.33

          -------------------------------
          BOND ORDER AND VALENCE ANALYSIS     BOND ORDER THRESHOLD=0.050
          -------------------------------

                   BOND                       BOND                       BOND
  ATOM PAIR DIST  ORDER      ATOM PAIR DIST  ORDER      ATOM PAIR DIST  ORDER
    1   2  1.491  1.851        1   3  2.563  0.283        2   3  1.491  1.851

                       TOTAL       BONDED        FREE
      ATOM            VALENCE     VALENCE     VALENCE
    1 O                 2.134       2.134      -0.000
    2 S                 3.702       3.702       0.000
    3 O                 2.134       2.134      -0.000

          ---------------------
          ELECTROSTATIC MOMENTS
          ---------------------

 POINT   1           X           Y           Z (BOHR)    CHARGE
                -8.780523    5.224250    2.402501       -0.00 (A.U.)
         DX          DY          DZ         /D/  (DEBYE)
    -0.428558   -1.688628    0.340868    1.775195
 ...... END OF PROPERTY EVALUATION ......
 STEP CPU TIME =     0.00 TOTAL CPU TIME =         22.8 (      0.4 MIN)
 TOTAL WALL CLOCK TIME=         23.3 SECONDS, CPU UTILIZATION IS    97.68%
  $VIB   
          IVIB=   0 IATOM=   0 ICOORD=   0 E=     -548.2493434782
 -3.394607472E-07 2.704022327E-07 1.191753865E-07 5.340857770E-07-1.313084766E-07
 -2.150911602E-07-1.946250298E-07-1.390937561E-07 9.591577368E-08
 -4.285583738E-01-1.688627792E+00 3.408684606E-01
 ......END OF GEOMETRY SEARCH......
 STEP CPU TIME =     0.00 TOTAL CPU TIME =         22.8 (      0.4 MIN)
 TOTAL WALL CLOCK TIME=         23.3 SECONDS, CPU UTILIZATION IS    97.68%
                990394  WORDS OF DYNAMIC MEMORY USED
 EXECUTION OF GAMESS TERMINATED NORMALLY Sun Sep 29 15:47:45 2019
 DDI: 263640 bytes (0.3 MB / 0 MWords) used by master data server.

 ----------------------------------------
 CPU timing information for all processes
 ========================================
 0: 22.310 + 0.479 = 22.790
 ----------------------------------------
 ddikick.x: exited gracefully.
----- accounting info -----
Files used on the master node crcfe02.crc.nd.edu were:
-rwxr-xr-x 1 cdrisko campus     356 Sep 29 15:47 /afs/crc.nd.edu/user/c/cdrisko/SO2_opt.F05*
-rw-r--r-- 1 cdrisko campus  159660 Sep 29 15:47 /afs/crc.nd.edu/user/c/cdrisko/SO2_opt.F07
-rw-r--r-- 1 cdrisko campus 8460752 Sep 29 15:47 /afs/crc.nd.edu/user/c/cdrisko/SO2_opt.F08
-rw-r--r-- 1 cdrisko campus 1668720 Sep 29 15:47 /afs/crc.nd.edu/user/c/cdrisko/SO2_opt.F10
-rw-r--r-- 1 cdrisko campus 1069880 Sep 29 15:47 /afs/crc.nd.edu/user/c/cdrisko/SO2_opt.F22
Sun Sep 29 15:47:48 EDT 2019
0.383u 0.192s 0:27.00 2.1%	0+0k 0+32io 1pf+0w
