----- GAMESS execution script 'rungms' -----
This job is running on host crcfe01.crc.nd.edu
under operating system Linux at Thu Oct 17 12:46:40 EDT 2019
Available scratch disk space (Kbyte units) at beginning of the job is
Filesystem      1K-blocks  Used  Available Use% Mounted on
AFS            2147483647     0 2147483647   0% /afs
GAMESS temporary binary files will be written to /afs/crc.nd.edu/user/c/cdrisko
GAMESS supplementary output files will be written to /afs/crc.nd.edu/user/c/cdrisko/scr
Copying input file acetaldehyde.inp to your run's scratch directory...

 Distributed Data Interface kickoff program.
 Initiating 1 compute processes on 1 nodes to run the following command:
 /afs/crc.nd.edu/x86_64_linux/g/gamess/nov-2017/gamess/gamess.00.x acetaldehyde 

          ******************************************************
          *         GAMESS VERSION = 11 NOV 2017 (R3)         *
          *             FROM IOWA STATE UNIVERSITY             *
          * M.W.SCHMIDT, K.K.BALDRIDGE, J.A.BOATZ, S.T.ELBERT, *
          *   M.S.GORDON, J.H.JENSEN, S.KOSEKI, N.MATSUNAGA,   *
          *          K.A.NGUYEN, S.J.SU, T.L.WINDUS,           *
          *       TOGETHER WITH M.DUPUIS, J.A.MONTGOMERY       *
          *         J.COMPUT.CHEM.  14, 1347-1363(1993)        *
          **************** 64 BIT INTEL VERSION ****************

  SINCE 1993, STUDENTS AND POSTDOCS WORKING AT IOWA STATE UNIVERSITY
  AND ALSO IN THEIR VARIOUS JOBS AFTER LEAVING ISU HAVE MADE IMPORTANT
  CONTRIBUTIONS TO THE CODE:
     IVANA ADAMOVIC, CHRISTINE AIKENS, YURI ALEXEEV, POOJA ARORA,
     ANDREY ASADCHEV, ROB BELL, PRADIPTA BANDYOPADHYAY, JONATHAN BENTZ,
     BRETT BODE, KURT BRORSEN, CALEB CARLIN, GALINA CHABAN, WEI CHEN,
     CHEOL HO CHOI, PAUL DAY, ALBERT DEFUSCO, NUWAN DESILVA, TIM DUDLEY,
     DMITRI FEDOROV, ALEX FINDLATER, GRAHAM FLETCHER, MARK FREITAG,
     KURT GLAESEMANN, ANASTASIA GUININA,
     DAN KEMP, GRANT MERRILL, NORIYUKI MINEZAWA, JONATHAN MULLIN,
     TAKESHI NAGATA, SEAN NEDD, HEATHER NETZLOFF, BOSILJKA NJEGIC, RYAN OLSON,
     MIKE PAK, BUU PHAM,
     SPENCER PRUITT, LUKE ROSKOP, JIM SHOEMAKER, LYUDMILA SLIPCHENKO,
     TONY SMITH, SAROM SOK LEANG, JIE SONG, TETSUYA TAKETSUGU, SIMON WEBB,
     PENG XU, SOOHAENG YOO, FEDERICO ZAHARIEV

  ADDITIONAL CODE HAS BEEN PROVIDED BY COLLABORATORS IN OTHER GROUPS:
     IOWA STATE UNIVERSITY:
          JOE IVANIC, AARON WEST, LAIMUTIS BYTAUTAS, KLAUS RUEDENBERG
     UNIVERSITY OF TOKYO: KIMIHIKO HIRAO, TAKAHITO NAKAJIMA,
          TAKAO TSUNEDA, MUNEAKI KAMIYA, SUSUMU YANAGISAWA,
          KIYOSHI YAGI, MAHITO CHIBA, SEIKEN TOKURA, NAOAKI KAWAKAMI
     UNIVERSITY OF AARHUS: FRANK JENSEN
     UNIVERSITY OF IOWA: VISVALDAS KAIRYS, HUI LI
     NATIONAL INST. OF STANDARDS AND TECHNOLOGY: WALT STEVENS, DAVID GARMER
     UNIVERSITY OF PISA: BENEDETTA MENNUCCI, JACOPO TOMASI
     UNIVERSITY OF MEMPHIS: HENRY KURTZ, PRAKASHAN KORAMBATH
     UNIVERSITY OF ALBERTA: TOBY ZENG, MARIUSZ KLOBUKOWSKI
     UNIVERSITY OF NEW ENGLAND: MARK SPACKMAN
     MIE UNIVERSITY: HIROAKI UMEDA
     NAT. INST. OF ADVANCED INDUSTRIAL SCIENCE AND TECHNOLOGY: KAZUO KITAURA
     MICHIGAN STATE UNIVERSITY:
          KAROL KOWALSKI, MARTA WLOCH, JEFFREY GOUR, JESSE LUTZ,
          WEI LI, PIOTR PIECUCH
     UNIVERSITY OF SILESIA: MONIKA MUSIAL, STANISLAW KUCHARSKI
     FACULTES UNIVERSITAIRES NOTRE-DAME DE LA PAIX:
          OLIVIER QUINET, BENOIT CHAMPAGNE
     UNIVERSITY OF CALIFORNIA - SANTA BARBARA: BERNARD KIRTMAN
     INSTITUTE FOR MOLECULAR SCIENCE:
          KAZUYA ISHIMURA, MICHIO KATOUDA, AND SHIGERU NAGASE
     UNIVERSITY OF NOTRE DAME: ANNA POMOGAEVA, DAN CHIPMAN
     KYUSHU UNIVERSITY:
          HARUYUKI NAKANO,
          FENG LONG GU, JACEK KORCHOWIEC, MARCIN MAKOWSKI, AND YURIKO AOKI,
          HIROTOSHI MORI AND EISAKU MIYOSHI
     PENNSYLVANIA STATE UNIVERSITY:
          TZVETELIN IORDANOV, CHET SWALINA, JONATHAN SKONE,
          SHARON HAMMES-SCHIFFER
     WASEDA UNIVERSITY:
          MASATO KOBAYASHI, TOMOKO AKAMA, TSUGUKI TOUMA,
          TAKESHI YOSHIKAWA, YASUHIRO IKABATA, JUNJI SEINO,
          YUYA NAKAJIMA, HIROMI NAKAI
     NANJING UNIVERSITY: SHUHUA LI
     UNIVERSITY OF NEBRASKA:
          PEIFENG SU, DEJUN SI, NANDUN THELLAMUREGE, YALI WANG, HUI LI
     UNIVERSITY OF ZURICH: ROBERTO PEVERATI, KIM BALDRIDGE
     N. COPERNICUS UNIVERSITY AND JACKSON STATE UNIVERSITY:
          MARIA BARYSZ
     UNIVERSITY OF COPENHAGEN: Jimmy Kromann, CASPER STEINMANN
     TOKYO INSTITUTE OF TECHNOLOGY: HIROYA NAKATA
     NAGOYA UNIVERSITY: YOSHIO NISHIMOTO, STEPHAN IRLE
     MOSCOW STATE UNIVERSITY: VLADIMIR MIRONOV

 EXECUTION OF GAMESS BEGUN Thu Oct 17 12:46:40 2019

            ECHO OF THE FIRST FEW INPUT CARDS -
 INPUT CARD> $CONTRL SCFTYP=RHF DFTTYP=B3LYP RUNTYP=ENERGY                                  
 INPUT CARD>       ISPHER=1 MULT=1 COORD=ZMT NZVAR=15 $END                                  
 INPUT CARD> $BASIS GBASIS=N31 NGAUSS=6 NDFUNC=1 $END                                       
 INPUT CARD> $STATPT IFREEZ(1)=9 $END                                                       
 INPUT CARD> $DATA                                                                          
 INPUT CARD>Title Single Point Energy Calculation of Acetaldehyde                           
 INPUT CARD>C1                                                                              
 INPUT CARD>C                                                                               
 INPUT CARD>C      1   1.5086892                                                            
 INPUT CARD>O      2   1.2107245  1  124.7161                                               
 INPUT CARD>H      2   1.1145804  1  114.7739  3  180.0000  0                               
 INPUT CARD>H      1   1.0926781  2  110.5176  3  110.      0                               
 INPUT CARD>H      1   1.0983769  2  109.8265  3  121.4889  0                               
 INPUT CARD>H      1   1.0983769  2  109.8265  3 -121.4889  0                               
 INPUT CARD> $END                                                                           
    1000000 WORDS OF MEMORY AVAILABLE

     BASIS OPTIONS
     -------------
     GBASIS=N31          IGAUSS=       6      POLAR=POPN31  
     NDFUNC=       1     NFFUNC=       0     DIFFSP=       F
     NPFUNC=       0      DIFFS=       F     BASNAM=        


     RUN TITLE
     ---------
 Title Single Point Energy Calculation of Acetaldehyde                           

 THE POINT GROUP OF THE MOLECULE IS C1      
 THE ORDER OF THE PRINCIPAL AXIS IS     0

 YOUR FULLY SUBSTITUTED Z-MATRIX IS
 C   
 C      1   1.5086892
 O      2   1.2107245  1  124.7161
 H      2   1.1145804  1  114.7739  3  180.0000  0
 H      1   1.0926781  2  110.5176  3  110.0000  0
 H      1   1.0983769  2  109.8265  3  121.4889  0
 H      1   1.0983769  2  109.8265  3 -121.4889  0

 THE MOMENTS OF INERTIA ARE (AMU-ANGSTROM**2)
 IXX=     8.057   IYY=    52.743   IZZ=    55.972

 ATOM      ATOMIC                      COORDINATES (BOHR)
           CHARGE         X                   Y                   Z
 C           6.0    -2.3483919661        0.4451940899        0.1350280034
 C           6.0     0.2389451827       -0.7462804343        0.0153269991
 O           8.0     2.2085697940        0.4171268941       -0.0261521409
 H           1.0     0.2394990483       -2.8519262308       -0.0351809558
 H           1.0    -3.3459660648        0.1904949955       -1.6548407630
 H           1.0    -3.4727477694       -0.1469569389       -1.5061382831
 H           1.0    -3.3555592900       -0.2267329992        1.8209620359

          INTERNUCLEAR DISTANCES (ANGS.)
          ------------------------------

                1 C          2 C          3 O          4 H          5 H     

   1 C       0.0000000    1.5086892 *  2.4129941 *  2.2198436 *  1.0926781 *
   2 C       1.5086892 *  0.0000000    1.2107245 *  1.1145804 *  2.1507392 *
   3 O       2.4129941 *  1.2107245 *  0.0000000    2.0194911 *  3.0654328  
   4 H       2.2198436 *  1.1145804 *  2.0194911 *  0.0000000    2.6318355 *
   5 H       1.0926781 *  2.1507392 *  3.0654328    2.6318355 *  0.0000000  
   6 H       1.0983769 *  2.1463151 *  3.1210656    2.5522231 *  0.2063519 *
   7 H       1.0983769 *  2.1463151 *  3.1210656    2.5522231 *  1.8525268 *

                6 H          7 H     

   1 C       1.0983769 *  1.0983769 *
   2 C       2.1463151 *  2.1463151 *
   3 O       3.1210656    3.1210656  
   4 H       2.5522231 *  2.5522231 *
   5 H       0.2063519 *  1.8525268 *
   6 H       0.0000000    1.7622233 *
   7 H       1.7622233 *  0.0000000  

  * ... LESS THAN  3.000


     ATOMIC BASIS SET
     ----------------
 THE CONTRACTED PRIMITIVE FUNCTIONS HAVE BEEN UNNORMALIZED
 THE CONTRACTED BASIS FUNCTIONS ARE NOW NORMALIZED TO UNITY

  SHELL TYPE  PRIMITIVE        EXPONENT          CONTRACTION COEFFICIENT(S)

 C         

      1   S       1          3047.5248800    0.001834737132
      1   S       2           457.3695180    0.014037322813
      1   S       3           103.9486850    0.068842622264
      1   S       4            29.2101553    0.232184443216
      1   S       5             9.2866630    0.467941348435
      1   S       6             3.1639270    0.362311985337

      2   L       7             7.8682723   -0.119332419775    0.068999066591
      2   L       8             1.8812885   -0.160854151696    0.316423960957
      2   L       9             0.5442493    1.143456437840    0.744308290898

      3   L      10             0.1687145    1.000000000000    1.000000000000

      4   D      11             0.8000000    1.000000000000

 C         

      5   S      12          3047.5248800    0.001834737132
      5   S      13           457.3695180    0.014037322813
      5   S      14           103.9486850    0.068842622264
      5   S      15            29.2101553    0.232184443216
      5   S      16             9.2866630    0.467941348435
      5   S      17             3.1639270    0.362311985337

      6   L      18             7.8682723   -0.119332419775    0.068999066591
      6   L      19             1.8812885   -0.160854151696    0.316423960957
      6   L      20             0.5442493    1.143456437840    0.744308290898

      7   L      21             0.1687145    1.000000000000    1.000000000000

      8   D      22             0.8000000    1.000000000000

 O         

      9   S      23          5484.6716600    0.001831074430
      9   S      24           825.2349460    0.013950172200
      9   S      25           188.0469580    0.068445078098
      9   S      26            52.9645000    0.232714335992
      9   S      27            16.8975704    0.470192897984
      9   S      28             5.7996353    0.358520852987

     10   L      29            15.5396162   -0.110777549525    0.070874268231
     10   L      30             3.5999336   -0.148026262701    0.339752839147
     10   L      31             1.0137618    1.130767015354    0.727158577316

     11   L      32             0.2700058    1.000000000000    1.000000000000

     12   D      33             0.8000000    1.000000000000

 H         

     13   S      34            18.7311370    0.033494604338
     13   S      35             2.8253944    0.234726953484
     13   S      36             0.6401217    0.813757326146

     14   S      37             0.1612778    1.000000000000

 H         

     15   S      38            18.7311370    0.033494604338
     15   S      39             2.8253944    0.234726953484
     15   S      40             0.6401217    0.813757326146

     16   S      41             0.1612778    1.000000000000

 H         

     17   S      42            18.7311370    0.033494604338
     17   S      43             2.8253944    0.234726953484
     17   S      44             0.6401217    0.813757326146

     18   S      45             0.1612778    1.000000000000

 H         

     19   S      46            18.7311370    0.033494604338
     19   S      47             2.8253944    0.234726953484
     19   S      48             0.6401217    0.813757326146

     20   S      49             0.1612778    1.000000000000

 TOTAL NUMBER OF BASIS SET SHELLS             =   20
 NUMBER OF CARTESIAN GAUSSIAN BASIS FUNCTIONS =   53
 NOTE: THIS RUN WILL RESTRICT THE MO VARIATION SPACE TO SPHERICAL HARMONICS.
 THE NUMBER OF ORBITALS KEPT IN THE VARIATIONAL SPACE WILL BE PRINTED LATER.
 NUMBER OF ELECTRONS                          =   24
 CHARGE OF MOLECULE                           =    0
 SPIN MULTIPLICITY                            =    1
 NUMBER OF OCCUPIED ORBITALS (ALPHA)          =   12
 NUMBER OF OCCUPIED ORBITALS (BETA )          =   12
 TOTAL NUMBER OF ATOMS                        =    7
 THE NUCLEAR REPULSION ENERGY IS       71.4904760923

     LEBEDEV GRID-BASED DFT OPTIONS
     ------------------------------
     DFTTYP=B3LYP   
     NRAD  =      96     NLEB  =     302
     NRAD0 =      24     NLEB0 =     110
     SWOFF =    5.00E-03 (PURE SCF -> DFT)
     SWITCH=    3.00E-04 (COARSE -> TIGHT GRID)
     THRESH=    0.00E+00 GTHRE=    1.00E+00

 GRIMME'S EMPIRICAL DISPERSION CORRECTION= F

     $CONTRL OPTIONS
     ---------------
 SCFTYP=RHF          RUNTYP=ENERGY       EXETYP=RUN     
 MPLEVL=       0     CITYP =NONE         CCTYP =NONE         VBTYP =NONE    
 DFTTYP=B3LYP        TDDFT =NONE    
 MULT  =       1     ICHARG=       0     NZVAR =      15     COORD =ZMT     
 PP    =NONE         RELWFN=NONE         LOCAL =NONE         NUMGRD=       F
 ISPHER=       1     NOSYM =       0     MAXIT =      30     UNITS =ANGS    
 PLTORB=       F     MOLPLT=       F     AIMPAC=       F     FRIEND=        
 NPRINT=       7     IREST =       0     GEOM  =INPUT   
 NORMF =       0     NORMP =       0     ITOL  =      20     ICUT  =       9
 INTTYP=BEST         GRDTYP=BEST         QMTTOL= 1.0E-06

     $SYSTEM OPTIONS
     ---------------
  REPLICATED MEMORY=     1000000 WORDS (ON EVERY NODE).
 DISTRIBUTED MEMDDI=           0 MILLION WORDS IN AGGREGATE,
 MEMDDI DISTRIBUTED OVER   1 PROCESSORS IS           0 WORDS/PROCESSOR.
 TOTAL MEMORY REQUESTED ON EACH PROCESSOR=     1000000 WORDS.
 TIMLIM=      525600.00 MINUTES, OR     365.0 DAYS.
 PARALL= F  BALTYP=  DLB     KDIAG=    0  COREFL= F
 MXSEQ2=     300 MXSEQ3=     150  mem10=         0

          ----------------
          PROPERTIES INPUT
          ----------------

     MOMENTS            FIELD           POTENTIAL          DENSITY
 IEMOM =       1   IEFLD =       0   IEPOT =       0   IEDEN =       0
 WHERE =COMASS     WHERE =NUCLEI     WHERE =NUCLEI     WHERE =NUCLEI  
 OUTPUT=BOTH       OUTPUT=BOTH       OUTPUT=BOTH       OUTPUT=BOTH    
 IEMINT=       0   IEFINT=       0                     IEDINT=       0
                                                       MORB  =       0
          EXTRAPOLATION IN EFFECT
          DIIS IN EFFECT
 ORBITAL PRINTING OPTION: NPREO=     1    53     2     1

     -------------------------------
     INTEGRAL TRANSFORMATION OPTIONS
     -------------------------------
     NWORD  =            0
     CUTOFF = 1.0E-09     MPTRAN =       0
     DIRTRF =       F     AOINTS =DUP     

          ----------------------
          INTEGRAL INPUT OPTIONS
          ----------------------
 NOPK  =       1 NORDER=       0 SCHWRZ=       T

   --- ENCODED Z MATRIX ---
 COORD  TYPE   I   J   K   L   M   N
    1      1    2   1
    2      1    3   2
    3      2    3   2   1
    4      1    4   2
    5      2    4   2   1
    6      3    4   2   1   3
    7      1    5   1
    8      2    5   1   2
    9      3    5   1   2   3
   10      1    6   1
   11      2    6   1   2
   12      3    6   1   2   3
   13      1    7   1
   14      2    7   1   2
   15      3    7   1   2   3

 THE DETERMINANT OF THE G MATRIX IS 10**(    -8)


                     --------------------
                     INTERNAL COORDINATES
                     --------------------

                 - - ATOMS - -         COORDINATE      COORDINATE
 NO.   TYPE    I  J  K  L  M  N        (BOHR,RAD)       (ANG,DEG)
 ----------------------------------------------------------------
   1 STRETCH   2  1                     2.8510092       1.5086892
   2 STRETCH   3  2                     2.2879376       1.2107245
   3 BEND      3  2  1                  2.1767066     124.7161000
   4 STRETCH   4  2                     2.1062515       1.1145804
   5 BEND      4  2  1                  2.0031825     114.7739000
   6 TORSION   4  2  1  3               3.1415927     180.0000000
   7 STRETCH   5  1                     2.0648622       1.0926781
   8 BEND      5  1  2                  1.9288960     110.5176000
   9 TORSION   5  1  2  3               1.9198622     110.0000000
  10 STRETCH   6  1                     2.0756314       1.0983769
  11 BEND      6  1  2                  1.9168340     109.8265000
  12 TORSION   6  1  2  3               2.1203813     121.4889000
  13 STRETCH   7  1                     2.0756314       1.0983769
  14 BEND      7  1  2                  1.9168340     109.8265000
  15 TORSION   7  1  2  3              -2.1203813    -121.4889000

     ------------------------------------------
     THE POINT GROUP IS C1 , NAXIS= 0, ORDER= 1
     ------------------------------------------

 -- VARIATIONAL SPACE WILL BE RESTRICTED TO PURE SPHERICAL HARMONICS ONLY --
 AFTER EXCLUDING CONTAMINANT COMBINATIONS FROM THE CARTESIAN GAUSSIAN BASIS
 SET, THE NUMBER OF SPHERICAL HARMONICS KEPT IN THE VARIATION SPACE IS   50

     DIMENSIONS OF THE SYMMETRY SUBSPACES ARE
 A   =   50

 ..... DONE SETTING UP THE RUN .....
 STEP CPU TIME =     0.01 TOTAL CPU TIME =          0.0 (      0.0 MIN)
 TOTAL WALL CLOCK TIME=          0.1 SECONDS, CPU UTILIZATION IS    14.29%

          ********************
          1 ELECTRON INTEGRALS
          ********************
 ...... END OF ONE-ELECTRON INTEGRALS ......
 STEP CPU TIME =     0.00 TOTAL CPU TIME =          0.0 (      0.0 MIN)
 TOTAL WALL CLOCK TIME=          0.1 SECONDS, CPU UTILIZATION IS    12.50%

          -------------
          GUESS OPTIONS
          -------------
          GUESS =HUCKEL            NORB  =       0          NORDER=       0
          MIX   =       F          PRTMO =       F          PUNMO =       F
          TOLZ  = 1.0E-08          TOLE  = 1.0E-05
          SYMDEN=       F          PURIFY=       F

 INITIAL GUESS ORBITALS GENERATED BY HUCKEL   ROUTINE.
 HUCKEL GUESS REQUIRES     27154 WORDS.

 STATISTICS FOR GENERATION OF SYMMETRY ORBITAL -Q- MATRIX
 NUMBER OF CARTESIAN ATOMIC ORBITALS=         53
 NUMBER OF SPHERICAL CONTAMINANTS DROPPED=     3
 NUMBER OF LINEARLY DEPENDENT MOS DROPPED=     0
 TOTAL NUMBER OF MOS IN VARIATION SPACE=      50

 SYMMETRIES FOR INITIAL GUESS ORBITALS FOLLOW.   BOTH SET(S).
    12 ORBITALS ARE OCCUPIED (    3 CORE ORBITALS).
     4=A        5=A        6=A        7=A        8=A        9=A       10=A   
    11=A       12=A       13=A       14=A       15=A       16=A       17=A   
    18=A       19=A       20=A       21=A       22=A   
 ...... END OF INITIAL ORBITAL SELECTION ......
 STEP CPU TIME =     0.00 TOTAL CPU TIME =          0.0 (      0.0 MIN)
 TOTAL WALL CLOCK TIME=          0.1 SECONDS, CPU UTILIZATION IS    12.50%

                    ----------------------
                    AO INTEGRAL TECHNOLOGY
                    ----------------------
     S,P,L SHELL ROTATED AXIS INTEGRALS, REPROGRAMMED BY
        KAZUYA ISHIMURA (IMS) AND JOSE SIERRA (SYNSTAR).
     S,P,D,L SHELL ROTATED AXIS INTEGRALS PROGRAMMED BY
        KAZUYA ISHIMURA (INSTITUTE FOR MOLECULAR SCIENCE).
     S,P,D,F,G SHELL TO TOTAL QUARTET ANGULAR MOMENTUM SUM 5,
        ERIC PROGRAM BY GRAHAM FLETCHER (ELORET AND NASA ADVANCED
        SUPERCOMPUTING DIVISION, AMES RESEARCH CENTER).
     S,P,D,F,G,L SHELL GENERAL RYS QUADRATURE PROGRAMMED BY
        MICHEL DUPUIS (PACIFIC NORTHWEST NATIONAL LABORATORY).

          --------------------
          2 ELECTRON INTEGRALS
          --------------------

 THE -PK- OPTION IS OFF, THE INTEGRALS ARE NOT IN SUPERMATRIX FORM.
 STORING   15000 INTEGRALS/RECORD ON DISK, USING 12 BYTES/INTEGRAL.
 TWO ELECTRON INTEGRAL EVALUATION REQUIRES   90606 WORDS OF MEMORY.
 SCHWARZ INEQUALITY OVERHEAD:      1430 INTEGRALS, T=        0.00
 II,JST,KST,LST =  1  1  1  1 NREC =         1 INTLOC =    1
 II,JST,KST,LST =  2  1  1  1 NREC =         1 INTLOC =    2
 II,JST,KST,LST =  3  1  1  1 NREC =         1 INTLOC =   34
 II,JST,KST,LST =  4  1  1  1 NREC =         1 INTLOC =  214
 II,JST,KST,LST =  5  1  1  1 NREC =         1 INTLOC = 1189
 II,JST,KST,LST =  6  1  1  1 NREC =         1 INTLOC = 3229
 II,JST,KST,LST =  7  1  1  1 NREC =         2 INTLOC =  977
 II,JST,KST,LST =  8  1  1  1 NREC =         3 INTLOC = 8232
 II,JST,KST,LST =  9  1  1  1 NREC =         7 INTLOC = 6161
 II,JST,KST,LST = 10  1  1  1 NREC =         8 INTLOC = 3461
 II,JST,KST,LST = 11  1  1  1 NREC =        13 INTLOC =  816
 II,JST,KST,LST = 12  1  1  1 NREC =        19 INTLOC =14473
 II,JST,KST,LST = 13  1  1  1 NREC =        34 INTLOC = 9445
 II,JST,KST,LST = 14  1  1  1 NREC =        37 INTLOC =12358
 II,JST,KST,LST = 15  1  1  1 NREC =        41 INTLOC = 3840
 II,JST,KST,LST = 16  1  1  1 NREC =        44 INTLOC =11111
 II,JST,KST,LST = 17  1  1  1 NREC =        48 INTLOC = 9379
 II,JST,KST,LST = 18  1  1  1 NREC =        52 INTLOC = 8515
 II,JST,KST,LST = 19  1  1  1 NREC =        56 INTLOC =14207
 II,JST,KST,LST = 20  1  1  1 NREC =        61 INTLOC = 5782
 SCHWARZ INEQUALITY TEST SKIPPED         959 INTEGRAL BLOCKS.
 TOTAL NUMBER OF NONZERO TWO-ELECTRON INTEGRALS =              979487
         66 INTEGRAL RECORDS WERE STORED ON DISK FILE  8.
  ...... END OF TWO-ELECTRON INTEGRALS .....
 STEP CPU TIME =     0.11 TOTAL CPU TIME =          0.1 (      0.0 MIN)
 TOTAL WALL CLOCK TIME=          0.2 SECONDS, CPU UTILIZATION IS    63.16%

          --------------------------
             R-B3LYP SCF CALCULATION
          --------------------------

     NUCLEAR ENERGY =        71.4904760923
     MAXIT =   30     NPUNCH=    2
     EXTRAP=T  DAMP=F  SHIFT=F  RSTRCT=F  DIIS=T  DEM=F  SOSCF=F
         DENSITY MATRIX CONVERGENCE THRESHOLD=  1.00E-05
     COARSE -> FINE DFT GRID SWITCH THRESHOLD=  3.00E-04 (SWITCH IN $DFT)
                   HF -> DFT SWITCH THRESHOLD=  5.00E-03 (SWOFF IN $DFT)
     MEMORY REQUIRED FOR RHF ITERS=    307426 WORDS.

 DFT CODE IS SWITCHING FROM THE FINE GRID NRAD= 96,  NLEB=  302
                      TO THE COARSE GRID NRAD0= 24, NLEB0=  110

     EXCHANGE FUNCTIONAL   =B88&HFX   
     CORRELATION FUNCTIONAL=LYP88&VWN5
     DFT THRESHOLD         =.197E-07
     GRID CHANGE THRESHOLD =.300E-03
 FOR AN EULER-MACLAURIN QUADRATURE USING  96 RADIAL POINTS:
 SMALLEST GAUSSIAN PRIMITIVE EXPONENT=        0.1612777588 OF TYPE -S-
 ON ATOM NUMBER   4 HAS RADIAL NORMALIZATION=  1.000000
  LARGEST GAUSSIAN PRIMITIVE EXPONENT=     5484.6716600000 OF TYPE -S-
 ON ATOM NUMBER   3 HAS RADIAL NORMALIZATION=  1.000000
 DFT IS SWITCHED OFF, PERFORMING PURE SCF UNTIL SWOFF THRESHOLD IS REACHED.

 ITER EX DEM     TOTAL ENERGY        E CHANGE  DENSITY CHANGE    DIIS ERROR
          * * *   INITIATING DIIS PROCEDURE   * * *
   1  0  0     -150.7561387479  -150.7561387479   0.827550536   0.491081586
   2  1  0     -151.4330114367    -0.6768726888   0.126959937   0.096100805
   3  2  0     -151.4722113736    -0.0391999369   0.062331548   0.073805431
   4  3  0     -151.4891652402    -0.0169538665   0.033620552   0.008902386
   5  4  0     -151.4903068520    -0.0011416118   0.024681319   0.003922090
   6  5  0     -151.4905158580    -0.0002090060   0.017593728   0.002292005
   7  6  0     -151.4905847149    -0.0000688569   0.010000683   0.000967137
   8  7  0     -151.4905981307    -0.0000134158   0.002025328   0.000241827
 CONVERGED TO SWOFF, SO DFT CALCULATION IS NOW SWITCHED ON.
          * * *   INITIATING DIIS PROCEDURE   * * *
   9  8  0     -152.3006666407    -0.8100685100   0.575870990   0.049590758
  10  9  0     -152.3120125103    -0.0113458696   0.208286232   0.031376858
  11 10  0     -152.3093772982     0.0026352121   0.046830247   0.043780599
  12 11  0     -152.3152073596    -0.0058300615   0.034849426   0.009528500
  13 12  0     -152.3154158431    -0.0002084834   0.011883485   0.000783990
  14 13  0     -152.3154185415    -0.0000026984   0.001192332   0.000097473
  15 14  0     -152.3154185836    -0.0000000421   0.000354618   0.000042381
  16 15  0     -152.3154185930    -0.0000000094   0.000029557   0.000008909
 DFT CODE IS SWITCHING BACK TO THE FINE GRID
          * * *   INITIATING DIIS PROCEDURE   * * *
  17 16  0     -152.3148903410     0.0005282520   0.004037585   0.001642050
  18 17  0     -152.3149003230    -0.0000099820   0.002329360   0.000290530
  19 18  0     -152.3148997106     0.0000006124   0.000568541   0.000493670
  20 19  0     -152.3149007088    -0.0000009982   0.000535630   0.000064623
  21 20  0     -152.3149007182    -0.0000000095   0.000178159   0.000011715
  22 21  0     -152.3149007191    -0.0000000009   0.000051187   0.000004806
  23 22  0     -152.3149007192    -0.0000000001   0.000005348   0.000000435
  24 23  0     -152.3149007192    -0.0000000000   0.000000625   0.000000204

          -----------------
          DENSITY CONVERGED
          -----------------
     TIME TO FORM FOCK OPERATORS=       6.3 SECONDS (       0.3 SEC/ITER)
     TIME TO SOLVE SCF EQUATIONS=       0.0 SECONDS (       0.0 SEC/ITER)

 FINAL R-B3LYP ENERGY IS     -152.3149007192 AFTER  24 ITERATIONS
 DFT EXCHANGE + CORRELATION ENERGY =       -16.9473414314
 TOTAL ELECTRON NUMBER             =        24.0001777330

          ------------
          EIGENVECTORS
          ------------

                      1          2          3          4          5
                  -19.1553   -10.2805   -10.2113    -1.0498    -0.9831
                     A          A          A          A          A   
    1  C  1  S   -0.000010   0.001085   0.995228  -0.026724  -0.108619
    2  C  1  S   -0.000511  -0.001043   0.035833   0.053103   0.216103
    3  C  1  X   -0.000265  -0.000935  -0.000905   0.015772  -0.078123
    4  C  1  Y    0.000051   0.000345  -0.002818  -0.014267  -0.058106
    5  C  1  Z    0.000025  -0.000009  -0.001352  -0.015937  -0.124335
    6  C  1  S    0.000721   0.005600  -0.028531   0.017270   0.075283
    7  C  1  X   -0.001108   0.002612   0.000209   0.001240  -0.021113
    8  C  1  Y   -0.001345  -0.002005   0.006224   0.005267   0.003819
    9  C  1  Z   -0.000037   0.000098   0.000370   0.000233   0.002109
   10  C  1 XX   -0.000386  -0.000938   0.000110   0.004317  -0.002943
   11  C  1 YY    0.000381   0.000238  -0.000207  -0.003552  -0.006866
   12  C  1 ZZ    0.000005   0.000699   0.000097  -0.000765   0.009809
   13  C  1 XY   -0.000155   0.000756  -0.000022  -0.001936   0.005966
   14  C  1 XZ    0.000009   0.000076   0.000156   0.000424   0.009173
   15  C  1 YZ    0.000023  -0.000039  -0.000023   0.001048   0.006989
   16  C  2  S    0.000231   0.995150  -0.001043  -0.117435  -0.004567
   17  C  2  S    0.000034   0.035672  -0.001332   0.223039  -0.003814
   18  C  2  X   -0.000053   0.001702   0.000497   0.152961  -0.071081
   19  C  2  Y   -0.000227   0.001328  -0.000408   0.095871  -0.009372
   20  C  2  Z   -0.000002   0.000036  -0.000022  -0.003173  -0.005203
   21  C  2  S    0.008872  -0.016009   0.006436   0.090379   0.051434
   22  C  2  X    0.005322   0.005847  -0.004999  -0.020066  -0.039279
   23  C  2  Y    0.004936   0.002387   0.000372  -0.018421   0.006765
   24  C  2  Z   -0.000061  -0.000226   0.000201  -0.002433  -0.016110
   25  C  2 XX   -0.000569   0.001383  -0.000890   0.017894   0.003176
   26  C  2 YY    0.000290  -0.000203   0.000415  -0.002761  -0.001755
   27  C  2 ZZ    0.000279  -0.001180   0.000475  -0.015132  -0.001421
   28  C  2 XY   -0.000770   0.001241   0.000777   0.021683  -0.008500
   29  C  2 XZ    0.000013  -0.000060   0.000031  -0.000334   0.002823
   30  C  2 YZ    0.000028  -0.000010  -0.000021  -0.000210  -0.000924
   31  O  3  S    0.995116  -0.000049  -0.000028  -0.192665   0.036999
   32  O  3  S    0.029425   0.000442  -0.000630   0.426643  -0.082659
   33  O  3  X   -0.001973   0.000976   0.000119  -0.139522   0.019671
   34  O  3  Y   -0.001168   0.000509  -0.000020  -0.082925   0.016855
   35  O  3  Z    0.000058  -0.000030   0.000010   0.002778  -0.002610
   36  O  3  S   -0.019383  -0.005829   0.002097   0.372393  -0.068880
   37  O  3  X    0.005132   0.003718  -0.000379  -0.040294   0.010238
   38  O  3  Y    0.002670   0.002645  -0.000678  -0.024947  -0.000855
   39  O  3  Z   -0.000126  -0.000054  -0.000031   0.001612   0.004687
   40  O  3 XX   -0.000189  -0.001164  -0.000041   0.005949  -0.001003
   41  O  3 YY    0.000107   0.000049   0.000236  -0.003493   0.000594
   42  O  3 ZZ    0.000082   0.001116  -0.000196  -0.002456   0.000409
   43  O  3 XY   -0.000110  -0.001477   0.000128   0.010100  -0.001609
   44  O  3 XZ    0.000011   0.000065  -0.000002  -0.000560  -0.000179
   45  O  3 YZ    0.000004   0.000027  -0.000000  -0.000160  -0.000143
   46  H  4  S   -0.000237  -0.000970  -0.000577   0.027518   0.001670
   47  H  4  S    0.001145   0.004963   0.000336  -0.013009  -0.001126
   48  H  5  S    0.000265  -0.000335  -0.000783   0.045233   0.361882
   49  H  5  S   -0.000622   0.002022  -0.003643   0.001298  -0.009043
   50  H  6  S   -0.000292  -0.000177  -0.000293   0.046667   0.370141
   51  H  6  S    0.000050  -0.001188   0.010234   0.001090   0.054993
   52  H  7  S   -0.000050  -0.000507  -0.000487   0.008146   0.037422
   53  H  7  S   -0.000519   0.000600   0.006273   0.000044   0.004325

                      6          7          8          9         10
                   -0.6661    -0.5334    -0.4703    -0.4328    -0.3844
                     A          A          A          A          A   
    1  C  1  S   -0.098268  -0.100694   0.012328   0.005398   0.023270
    2  C  1  S    0.186441   0.198113  -0.016732  -0.017099  -0.044033
    3  C  1  X    0.150601  -0.024950   0.237263   0.180806   0.087545
    4  C  1  Y   -0.100179  -0.025208   0.051787  -0.049817  -0.000895
    5  C  1  Z    0.111142   0.173502  -0.175417  -0.126220  -0.052616
    6  C  1  S    0.220116   0.269289  -0.055455   0.010034  -0.086732
    7  C  1  X    0.028069  -0.024505   0.092665   0.089861   0.047428
    8  C  1  Y   -0.042972  -0.025848   0.035565  -0.030313   0.008473
    9  C  1  Z    0.006418   0.038528  -0.051966  -0.050856  -0.006412
   10  C  1 XX    0.004082   0.003345   0.005651  -0.004609   0.000465
   11  C  1 YY    0.000238  -0.007426  -0.004572   0.007358   0.002562
   12  C  1 ZZ   -0.004320   0.004081  -0.001079  -0.002749  -0.003027
   13  C  1 XY   -0.011983   0.007582  -0.013254  -0.014285  -0.006719
   14  C  1 XZ   -0.009688  -0.007274   0.002121  -0.000582   0.011709
   15  C  1 YZ   -0.005065  -0.012734   0.011855   0.011208   0.002184
   16  C  2  S   -0.134237   0.080082  -0.038181   0.012706  -0.009415
   17  C  2  S    0.279732  -0.167479   0.089730  -0.041509   0.019893
   18  C  2  X   -0.207204  -0.109208  -0.071076  -0.332530  -0.065347
   19  C  2  Y   -0.061078   0.255938   0.327797  -0.108096  -0.004071
   20  C  2  Z    0.022956   0.060012  -0.065793  -0.090125   0.342512
   21  C  2  S    0.219867  -0.175008   0.061342   0.013602   0.030579
   22  C  2  X   -0.055740   0.003678  -0.059645  -0.068521  -0.024445
   23  C  2  Y   -0.044530   0.103778   0.078560  -0.024622  -0.006484
   24  C  2  Z    0.011397   0.034288  -0.041642  -0.057718   0.198511
   25  C  2 XX   -0.002587   0.008732  -0.000792  -0.009407  -0.003666
   26  C  2 YY    0.007285  -0.011916  -0.000787   0.007041   0.003551
   27  C  2 ZZ   -0.004698   0.003184   0.001578   0.002366   0.000115
   28  C  2 XY   -0.012418  -0.000186   0.001805  -0.011465  -0.001563
   29  C  2 XZ   -0.002719  -0.003743   0.002340  -0.000564   0.024589
   30  C  2 YZ    0.002262   0.001731  -0.003020  -0.003268   0.013374
   31  O  3  S    0.071944  -0.048880   0.044827  -0.068674  -0.005579
   32  O  3  S   -0.170491   0.115110  -0.103539   0.148519   0.009664
   33  O  3  X   -0.056502   0.043492  -0.297537   0.359622   0.043018
   34  O  3  Y   -0.014651   0.183614   0.085949   0.285625   0.070974
   35  O  3  Z    0.008693   0.032960  -0.047906  -0.102049   0.490431
   36  O  3  S   -0.175929   0.148782  -0.156938   0.302636   0.037852
   37  O  3  X   -0.040530   0.025141  -0.161649   0.181752   0.018832
   38  O  3  Y   -0.010107   0.093735   0.049161   0.150038   0.039292
   39  O  3  Z    0.002814   0.012933  -0.022707  -0.055741   0.304236
   40  O  3 XX    0.005424   0.004313   0.019628  -0.008169  -0.000115
   41  O  3 YY   -0.001229  -0.009121  -0.013550  -0.002220  -0.001946
   42  O  3 ZZ   -0.004194   0.004809  -0.006078   0.010389   0.002061
   43  O  3 XY    0.003372  -0.011501  -0.000155  -0.015916  -0.003037
   44  O  3 XZ   -0.000756  -0.002530   0.002873   0.006143  -0.026896
   45  O  3 YZ   -0.000344  -0.001005   0.001900   0.003711  -0.016571
   46  H  4  S    0.122109  -0.195037  -0.131903   0.050408   0.011674
   47  H  4  S    0.034540  -0.108759  -0.123258   0.047856   0.006586
   48  H  5  S   -0.156682  -0.092679   0.037146  -0.005586   0.053332
   49  H  5  S   -0.030398  -0.019035   0.119642   0.014278   0.015503
   50  H  6  S   -0.144332  -0.077183  -0.007936  -0.020303   0.043443
   51  H  6  S   -0.063501  -0.067354  -0.096312  -0.021046   0.043981
   52  H  7  S    0.097059   0.180336  -0.174878  -0.120987  -0.093409
   53  H  7  S    0.035983   0.106057  -0.130167  -0.098160  -0.085977

                     11         12         13         14         15
                   -0.2615    -0.2100    -0.0482     0.0549     0.1305
                     A          A          A          A          A   
    1  C  1  S    0.059037   0.067363   0.033571  -0.120627   0.030191
    2  C  1  S   -0.120749  -0.145424  -0.053527   0.169178  -0.035002
    3  C  1  X   -0.192947   0.018224   0.113894  -0.262370  -0.153861
    4  C  1  Y   -0.033174  -0.525826   0.053158  -0.130802   0.015317
    5  C  1  Z    0.073770   0.036086   0.134689  -0.284033   0.103180
    6  C  1  S   -0.339177  -0.209790  -0.291112   1.728390  -0.337150
    7  C  1  X   -0.109306   0.103591   0.129155  -0.552370  -0.377630
    8  C  1  Y    0.031654  -0.394152   0.046570  -0.336933   0.155293
    9  C  1  Z    0.032414  -0.020214   0.236577  -0.517770   0.345513
   10  C  1 XX    0.000298  -0.008940   0.003462   0.001820   0.006452
   11  C  1 YY    0.005914   0.026752   0.000587  -0.005274  -0.003570
   12  C  1 ZZ   -0.006213  -0.017812  -0.004049   0.003454  -0.002882
   13  C  1 XY    0.011995   0.006649  -0.008168   0.012127  -0.009880
   14  C  1 XZ    0.000663  -0.003442   0.021317   0.028132  -0.001061
   15  C  1 YZ   -0.003784   0.011577  -0.015887   0.013033  -0.006864
   16  C  2  S   -0.003621  -0.006024  -0.009671   0.012007  -0.117463
   17  C  2  S   -0.001500   0.029333   0.023346   0.018390   0.172735
   18  C  2  X    0.055592  -0.062424  -0.017096   0.037858  -0.057577
   19  C  2  Y   -0.098953   0.094454   0.004426  -0.074436  -0.310825
   20  C  2  Z    0.000310   0.009577   0.458077   0.158239  -0.036778
   21  C  2  S    0.019763  -0.143241   0.067371  -0.246318   1.814741
   22  C  2  X   -0.085338  -0.060997   0.028738   0.064579  -0.153127
   23  C  2  Y    0.017609  -0.092578  -0.000295  -0.084433  -0.671983
   24  C  2  Z    0.012071   0.007137   0.475551   0.270834  -0.110159
   25  C  2 XX   -0.035296   0.019995  -0.005231   0.009791  -0.006009
   26  C  2 YY    0.035968  -0.023541   0.001645   0.001514  -0.002826
   27  C  2 ZZ   -0.000672   0.003545   0.003586  -0.011305   0.008835
   28  C  2 XY    0.025326   0.014442  -0.004328   0.006014   0.004440
   29  C  2 XZ   -0.002346  -0.002675  -0.030201   0.001545  -0.000919
   30  C  2 YZ    0.000130  -0.000371  -0.013225  -0.010741   0.002750
   31  O  3  S   -0.002134  -0.010117   0.004022  -0.011872   0.010900
   32  O  3  S    0.002188   0.017323  -0.009732   0.029072  -0.021715
   33  O  3  X   -0.305819  -0.040322   0.022934  -0.075863   0.034081
   34  O  3  Y    0.504197  -0.084292  -0.004365   0.031326   0.108040
   35  O  3  Z   -0.017864  -0.018619  -0.428666  -0.102584   0.023129
   36  O  3  S    0.038672   0.132262  -0.036620   0.106575  -0.117606
   37  O  3  X   -0.220069  -0.058972   0.021805  -0.107733   0.035841
   38  O  3  Y    0.346009  -0.078036   0.001915   0.025341   0.198080
   39  O  3  Z   -0.015490  -0.014020  -0.429564  -0.133897   0.038770
   40  O  3 XX    0.014792   0.003572  -0.000369   0.002298  -0.005152
   41  O  3 YY   -0.015411  -0.003421   0.000012   0.000244  -0.001778
   42  O  3 ZZ    0.000619  -0.000151   0.000357  -0.002542   0.006930
   43  O  3 XY   -0.007692   0.004020  -0.000666   0.002782   0.003023
   44  O  3 XZ    0.000524   0.000357   0.000651  -0.000093   0.000162
   45  O  3 YZ    0.000927   0.000273   0.001778  -0.002421   0.000571
   46  H  4  S    0.155582  -0.115995  -0.000970   0.026587  -0.075738
   47  H  4  S    0.244991  -0.214794  -0.018681  -0.049147  -1.798292
   48  H  5  S    0.015368  -0.042856   0.125142  -0.097203   0.036529
   49  H  5  S   -0.247082  -0.768671   0.500915  -0.779950   1.543364
   50  H  6  S    0.059869   0.127632   0.117653  -0.074652   0.008284
   51  H  6  S    0.338317   0.815387  -0.121889  -0.820664  -1.335057
   52  H  7  S    0.058457   0.041014  -0.061509  -0.089300   0.009287
   53  H  7  S    0.108235   0.048709  -0.106703  -0.718460  -0.349147

                     16         17         18         19         20
                    0.1470     0.2070     0.2596     0.2861     0.3465
                     A          A          A          A          A   
    1  C  1  S   -0.054329   0.039668   0.033033   0.051537  -0.076571
    2  C  1  S    0.073645   0.008351  -0.000705  -0.076364   0.112470
    3  C  1  X   -0.040382  -0.054372  -0.154806  -0.209366  -0.002290
    4  C  1  Y   -0.016595   0.195288  -0.072017  -0.089225  -0.176458
    5  C  1  Z    0.407564  -0.162622   0.026477   0.007732  -0.112342
    6  C  1  S    0.789619  -1.308779  -1.216977  -0.214530   0.615428
    7  C  1  X   -0.210675  -0.651771  -1.118504  -1.052687   0.529516
    8  C  1  Y   -0.099913   0.960902   0.080812  -0.332548  -0.348967
    9  C  1  Z    1.104469  -0.547888   0.292445   0.080992  -0.192640
   10  C  1 XX    0.013807   0.025477   0.006725   0.046054  -0.022367
   11  C  1 YY    0.007314   0.009876   0.015632  -0.026988   0.040751
   12  C  1 ZZ   -0.021121  -0.035353  -0.022356  -0.019066  -0.018384
   13  C  1 XY    0.004554   0.001082  -0.017212   0.006212   0.016213
   14  C  1 XZ   -0.000606   0.005636  -0.013033   0.005302  -0.038702
   15  C  1 YZ   -0.003956   0.015914  -0.023005  -0.002666  -0.016169
   16  C  2  S    0.016853  -0.051205  -0.003088  -0.078206   0.033296
   17  C  2  S    0.005053   0.064592  -0.000605   0.096095  -0.191853
   18  C  2  X   -0.017112  -0.150181  -0.241764  -0.144581   0.276226
   19  C  2  Y    0.042212   0.049637   0.170476   0.370920  -0.143645
   20  C  2  Z   -0.077496   0.066651   0.102529   0.002414   0.261066
   21  C  2  S   -0.311868   1.005510   0.048980   1.907258   0.065381
   22  C  2  X   -0.018455  -0.972084  -1.507076   1.042725   1.138235
   23  C  2  Y    0.128804   0.130072   0.425615   1.568541  -0.114329
   24  C  2  Z   -0.321296   0.224385   0.038658  -0.012421  -0.022935
   25  C  2 XX    0.004017   0.001309   0.013620  -0.002678   0.025368
   26  C  2 YY    0.002645   0.000644  -0.012154  -0.013585  -0.019413
   27  C  2 ZZ   -0.006662  -0.001953  -0.001466   0.016263  -0.005955
   28  C  2 XY    0.000142  -0.000395   0.019899   0.004655  -0.002077
   29  C  2 XZ   -0.010987   0.007997   0.003936   0.000244   0.019892
   30  C  2 YZ    0.019855  -0.002284  -0.008787  -0.000891  -0.017083
   31  O  3  S   -0.005569  -0.008142  -0.046497   0.088848   0.031354
   32  O  3  S    0.012097  -0.006167   0.084377  -0.122034  -0.048097
   33  O  3  X   -0.013775   0.055287  -0.033025   0.164053  -0.050241
   34  O  3  Y   -0.018922  -0.054974  -0.121014   0.042575   0.094986
   35  O  3  Z    0.040198  -0.052877  -0.008457   0.003168  -0.046850
   36  O  3  S    0.060018   0.299715   0.827327  -1.836061  -0.710542
   37  O  3  X   -0.026696   0.024864  -0.174120   0.806066   0.154952
   38  O  3  Y   -0.044541  -0.169920  -0.397772   0.250833   0.305859
   39  O  3  Z    0.105613  -0.068254  -0.017953  -0.019016  -0.047730
   40  O  3 XX    0.001912   0.002145   0.010411  -0.018511  -0.023924
   41  O  3 YY    0.000434  -0.000823  -0.007225  -0.008287   0.012808
   42  O  3 ZZ   -0.002345  -0.001322  -0.003187   0.026798   0.011116
   43  O  3 XY    0.000435   0.005844   0.014825  -0.034810  -0.013122
   44  O  3 XZ   -0.004312  -0.000713  -0.003403   0.001695  -0.011446
   45  O  3 YZ    0.004607  -0.002068  -0.004896   0.000648  -0.013115
   46  H  4  S    0.028274  -0.046251  -0.006930  -0.070451  -0.099965
   47  H  4  S    0.290648  -0.177131   0.673589   0.815386  -0.227350
   48  H  5  S   -0.059479  -0.218401  -0.120020  -0.003854  -0.474628
   49  H  5  S   -1.236787  -6.414752   4.912268   1.092381   0.452978
   50  H  6  S    0.093412  -0.077760  -0.253753   0.040841  -0.452280
   51  H  6  S    1.932234   6.517921  -4.375870  -1.460796   0.675141
   52  H  7  S   -0.092486  -0.139587  -0.010182  -0.001637   0.012924
   53  H  7  S   -1.823067   0.587874  -0.406005  -0.343573  -0.121549

                     21         22         23         24         25
                    0.5327     0.5564     0.6022     0.6651     0.6900
                     A          A          A          A          A   
    1  C  1  S   -0.010115  -0.014936   0.019683  -0.008906  -0.022861
    2  C  1  S    0.146572  -0.116263  -0.213024   0.058962   0.379094
    3  C  1  X    0.514230  -0.608022  -0.465752  -0.184714   0.171254
    4  C  1  Y   -0.502314   0.323513  -0.686817   0.246893   0.158041
    5  C  1  Z   -0.122758   0.002353  -0.402818  -0.371072  -0.570030
    6  C  1  S   -0.116344   0.054822  -0.671707   0.708393  -0.701139
    7  C  1  X   -0.708536   0.767569   0.436093   0.754351  -0.400555
    8  C  1  Y    0.435903  -0.386644   1.002370  -0.410686  -0.221967
    9  C  1  Z    0.111122  -0.189464   0.929735   0.961211   1.524579
   10  C  1 XX    0.000048  -0.021044  -0.054257   0.002865  -0.012625
   11  C  1 YY    0.026734   0.011738   0.044000   0.015915  -0.017032
   12  C  1 ZZ   -0.026782   0.009306   0.010257  -0.018779   0.029657
   13  C  1 XY   -0.016898   0.017539   0.027460  -0.088755  -0.012383
   14  C  1 XZ   -0.001890  -0.011600   0.040179   0.029518   0.037967
   15  C  1 YZ    0.017025  -0.007776   0.052388   0.024209   0.025039
   16  C  2  S    0.037923  -0.026917  -0.000524   0.036526  -0.038346
   17  C  2  S    0.015646  -0.208749  -0.373736  -0.392342   0.149828
   18  C  2  X   -0.072824   0.116337   0.163531  -0.753200   0.608933
   19  C  2  Y   -0.074989   0.052319  -0.133982   0.059910   0.468096
   20  C  2  Z   -0.688364  -0.701175   0.146737   0.085201   0.034939
   21  C  2  S    0.321245  -0.076725   0.545388  -0.241563   0.672509
   22  C  2  X    0.304426  -0.176280  -0.741008   1.247730  -0.625776
   23  C  2  Y    0.070340  -0.109733   0.142868  -1.048585  -0.590405
   24  C  2  Z    0.811744   0.951978  -0.424388  -0.401766  -0.424961
   25  C  2 XX    0.081881  -0.059449   0.008263   0.061046  -0.030036
   26  C  2 YY   -0.010670  -0.016839  -0.035520  -0.057401  -0.030841
   27  C  2 ZZ   -0.071211   0.076288   0.027257  -0.003645   0.060876
   28  C  2 XY   -0.026366   0.039317   0.037382   0.104251  -0.084204
   29  C  2 XZ   -0.008700   0.010271  -0.000045  -0.007973  -0.010259
   30  C  2 YZ   -0.011581  -0.027586   0.019921   0.015789   0.029559
   31  O  3  S   -0.005934   0.011760   0.005474  -0.031595   0.026451
   32  O  3  S    0.062215  -0.083997  -0.073297   0.136508  -0.083052
   33  O  3  X   -0.120037   0.083262   0.074782  -0.346164   0.124312
   34  O  3  Y    0.046007  -0.041858  -0.163228   0.058879   0.278807
   35  O  3  Z   -0.043880  -0.075497  -0.004168   0.021587   0.008571
   36  O  3  S   -0.242177   0.130044   0.211795  -0.120717   0.111730
   37  O  3  X    0.014919   0.023661   0.008477  -0.235395   0.252368
   38  O  3  Y    0.075041  -0.014055  -0.023408   0.001657   0.096475
   39  O  3  Z   -0.080509  -0.099256   0.084128   0.071574   0.080415
   40  O  3 XX   -0.022671   0.012869  -0.010408  -0.052295   0.054672
   41  O  3 YY    0.016815  -0.012543   0.001704  -0.005561  -0.011890
   42  O  3 ZZ    0.005856  -0.000325   0.008704   0.057856  -0.042782
   43  O  3 XY   -0.013985   0.007258  -0.016840  -0.085654   0.097890
   44  O  3 XZ    0.042376   0.043645  -0.018239  -0.009625  -0.016788
   45  O  3 YZ    0.024383   0.019288   0.006785   0.012782   0.015617
   46  H  4  S    0.055844  -0.169834  -0.045188  -0.325711  -0.193112
   47  H  4  S    0.040624  -0.011304   0.098924  -0.456210  -0.269648
   48  H  5  S   -0.074082  -0.098186  -0.072596   0.006917   0.006920
   49  H  5  S    0.403261   0.421332  -0.509774   1.267675   2.634384
   50  H  6  S   -0.027630  -0.123950   0.081448  -0.058829  -0.068296
   51  H  6  S   -0.208930  -0.040920   1.107142  -0.590548  -1.880066
   52  H  7  S   -0.180583  -0.024289  -0.219636  -0.202802  -0.189295
   53  H  7  S   -0.059923  -0.044110   0.053804  -0.099064  -0.585552

                     26         27         28         29         30
                    0.7305     0.7626     0.8565     0.8903     0.9187
                     A          A          A          A          A   
    1  C  1  S   -0.012422  -0.005797  -0.012308  -0.034172   0.017935
    2  C  1  S   -0.426631   0.318107   0.069755   1.033308  -0.199645
    3  C  1  X    0.321672   0.222553   0.062892  -0.368330  -0.076497
    4  C  1  Y    0.086084   0.379063   0.093668  -0.079669  -0.069543
    5  C  1  Z    0.480418  -0.506165   0.097431   0.371102  -0.035954
    6  C  1  S    0.296720  -1.211616  -0.483259  -1.681474   0.542197
    7  C  1  X   -1.246480  -1.359204  -0.500535   0.750611   0.595579
    8  C  1  Y   -0.117046  -0.995632  -0.028816  -0.015159   0.286123
    9  C  1  Z   -0.673218   1.338308  -0.099096  -0.488523  -0.117538
   10  C  1 XX   -0.085793  -0.010327  -0.028453   0.076435  -0.050211
   11  C  1 YY    0.079433  -0.030599   0.011211   0.023873   0.028755
   12  C  1 ZZ    0.006360   0.040926   0.017241  -0.100307   0.021455
   13  C  1 XY   -0.009364   0.027120   0.035273  -0.039538  -0.073861
   14  C  1 XZ    0.063977   0.009667   0.030503   0.121427  -0.055853
   15  C  1 YZ    0.010993  -0.007667   0.008827   0.038813  -0.006967
   16  C  2  S   -0.012710   0.016175   0.051103   0.013399   0.018114
   17  C  2  S   -0.666869  -0.023014  -0.941177   0.719748   1.023205
   18  C  2  X    0.330850   0.079771   0.172474  -0.028940   0.048757
   19  C  2  Y   -0.286929  -0.738999   0.488003  -0.126021   0.008503
   20  C  2  Z    0.029634  -0.015250   0.007744   0.009962   0.002627
   21  C  2  S    1.678253   0.669807   2.898002  -1.173506  -1.043180
   22  C  2  X   -0.664281  -0.383439  -0.102092   0.340951   0.359452
   23  C  2  Y    0.681199   2.781226  -0.398842   0.467362  -0.148270
   24  C  2  Z    0.037700  -0.207203  -0.002614   0.034719  -0.002390
   25  C  2 XX    0.059773   0.051590   0.012829   0.051272   0.123549
   26  C  2 YY   -0.129319  -0.001892   0.092744   0.006099  -0.061006
   27  C  2 ZZ    0.069546  -0.049698  -0.105573  -0.057371  -0.062543
   28  C  2 XY    0.051864   0.042319   0.109858  -0.015777   0.132523
   29  C  2 XZ   -0.030311  -0.010373  -0.013815  -0.053329   0.020521
   30  C  2 YZ    0.005540   0.018046   0.008240   0.030948  -0.022499
   31  O  3  S    0.016309   0.009345   0.029280   0.009445   0.048855
   32  O  3  S   -0.078286   0.032409  -0.097930  -0.006558  -0.264594
   33  O  3  X   -0.130350  -0.120143  -0.346588  -0.045290  -0.554156
   34  O  3  Y    0.020526  -0.258586  -0.315178  -0.050241  -0.218875
   35  O  3  Z    0.087100  -0.004546   0.041721   0.218084  -0.112028
   36  O  3  S   -0.273493  -0.803580  -0.607540  -0.132605  -0.024257
   37  O  3  X    0.292281   0.436672   0.775566   0.175490   1.000452
   38  O  3  Y    0.038438  -0.058131   0.506143   0.090624   0.556065
   39  O  3  Z   -0.066988   0.044612  -0.049591  -0.229956   0.109887
   40  O  3 XX   -0.070391  -0.092408  -0.005794   0.002294   0.008534
   41  O  3 YY    0.028523   0.031396  -0.049031   0.018414   0.021894
   42  O  3 ZZ    0.041868   0.061012   0.054824  -0.020708  -0.030428
   43  O  3 XY    0.008501  -0.018170  -0.070976   0.014913   0.005333
   44  O  3 XZ    0.011495  -0.005875   0.002577   0.006618  -0.001286
   45  O  3 YZ   -0.004269   0.017139   0.000354   0.003529  -0.005692
   46  H  4  S   -0.656460   0.113790   0.716549   0.081362  -0.333991
   47  H  4  S    0.589537   1.472502  -1.569841   0.513217   0.498827
   48  H  5  S    0.102930   0.008590  -0.020955  -0.088011   0.083352
   49  H  5  S    0.276339   3.118996   0.234839   0.811198  -1.366973
   50  H  6  S    0.139427  -0.080065   0.027812   0.017420  -0.038041
   51  H  6  S   -1.627744  -2.654328  -0.462467  -0.365102   1.466106
   52  H  7  S   -0.426985   0.062345  -0.191566  -0.821469   0.303233
   53  H  7  S    0.126333  -1.003660   0.099036   1.710712  -0.060828

                     31         32         33         34         35
                    0.9875     1.0769     1.1192     1.4282     1.5311
                     A          A          A          A          A   
    1  C  1  S   -0.000429   0.027737  -0.066610   0.014713  -0.004047
    2  C  1  S    0.429104   0.726657  -1.641734   0.194157  -0.057976
    3  C  1  X   -0.037622   0.054426   0.086973  -0.019863   0.001437
    4  C  1  Y   -0.019407  -0.019510   0.270173  -0.109965   0.038042
    5  C  1  Z    0.156312   0.015918  -0.111629  -0.049174  -0.059449
    6  C  1  S   -1.036570  -1.202099   5.299290  -0.671488   0.185040
    7  C  1  X   -0.118002   0.171321   0.758867   0.045940  -0.014717
    8  C  1  Y    0.127467   0.590479  -1.796684   0.537493  -0.180529
    9  C  1  Z   -0.089250  -0.145219   0.468415  -0.409745   0.449137
   10  C  1 XX    0.011106   0.008965   0.061981   0.002521   0.004268
   11  C  1 YY   -0.013434  -0.040502   0.126224  -0.004373   0.006134
   12  C  1 ZZ    0.002328   0.031536  -0.188205   0.001851  -0.010402
   13  C  1 XY   -0.008408  -0.068419   0.022919  -0.025964   0.017617
   14  C  1 XZ    0.028194  -0.042528   0.102603   0.299709  -0.140010
   15  C  1 YZ    0.047149  -0.014084   0.000545  -0.500634   0.111790
   16  C  2  S   -0.002265  -0.007329   0.030833  -0.006074   0.001876
   17  C  2  S   -0.135784  -0.256483   0.741796  -0.099577   0.024734
   18  C  2  X    0.018738  -0.086545  -0.118469  -0.001679   0.011707
   19  C  2  Y   -0.023129   0.258481   0.104315   0.010787  -0.006973
   20  C  2  Z    0.114200  -0.000171   0.026601   0.051843   0.184620
   21  C  2  S    0.487567   1.137987  -3.232734   0.400209  -0.043697
   22  C  2  X   -0.236852   0.237849   2.084962  -0.316146   0.109202
   23  C  2  Y    0.199383  -1.427958  -0.922646  -0.145110   0.082586
   24  C  2  Z   -0.575377   0.053262  -0.342034   0.014484  -0.232721
   25  C  2 XX    0.007158   0.146825  -0.004769  -0.042029  -0.000540
   26  C  2 YY   -0.013895  -0.175496   0.078317  -0.011353   0.028967
   27  C  2 ZZ    0.006737   0.028671  -0.073548   0.053383  -0.028427
   28  C  2 XY   -0.014103  -0.064390  -0.025042   0.016304  -0.017774
   29  C  2 XZ   -0.054990   0.023058  -0.096956  -0.554971  -0.114222
   30  C  2 YZ    0.014752  -0.022701   0.064387   0.096231  -0.715446
   31  O  3  S   -0.003801  -0.004903   0.008425   0.000036  -0.001221
   32  O  3  S    0.044857   0.080435  -0.111096  -0.039019   0.058578
   33  O  3  X    0.001024   0.337489   0.245110  -0.022293   0.003747
   34  O  3  Y    0.026091  -0.650701  -0.289136   0.010202  -0.005450
   35  O  3  Z   -0.900626   0.019953  -0.095380   0.080649   0.082377
   36  O  3  S   -0.088201  -0.064624   0.097321   0.161019  -0.152911
   37  O  3  X    0.025741  -0.590129  -0.554007   0.017248   0.037613
   38  O  3  Y   -0.064987   1.207691   0.649753  -0.052725   0.026314
   39  O  3  Z    1.238587  -0.041768   0.222293   0.082551   0.119064
   40  O  3 XX   -0.012527  -0.100606   0.021815   0.017309   0.028776
   41  O  3 YY   -0.001080   0.077867   0.065640  -0.021045   0.006616
   42  O  3 ZZ    0.013607   0.022740  -0.087456   0.003736  -0.035391
   43  O  3 XY    0.002625   0.061148   0.018460  -0.006777  -0.004356
   44  O  3 XZ    0.031250   0.003135   0.005296   0.170769   0.498329
   45  O  3 YZ    0.022528  -0.014100   0.047687   0.258625  -0.071521
   46  H  4  S    0.012561  -0.299841   0.186042  -0.049919   0.012269
   47  H  4  S    0.028834  -0.731207  -0.249954  -0.113086   0.041337
   48  H  5  S    0.037447   0.120854  -0.219387   0.281964  -0.142144
   49  H  5  S    0.291501  -1.134535   3.351066  -2.506582   0.914374
   50  H  6  S    0.033316  -0.019670  -0.017830  -0.356272   0.201410
   51  H  6  S   -0.328185   1.447874  -3.900368   2.521568  -0.755437
   52  H  7  S   -0.198140   0.227487  -0.467610   0.245537  -0.104275
   53  H  7  S    0.536198   0.307104  -0.781514   0.194102  -0.225609

                     36         37         38         39         40
                    1.5994     1.6692     1.7216     1.7943     1.8063
                     A          A          A          A          A   
    1  C  1  S    0.009018   0.029131   0.021343  -0.004327  -0.006568
    2  C  1  S    0.158981   0.040186   0.585768   0.338860   0.158488
    3  C  1  X   -0.019094  -0.157973   0.172718   0.180818   0.104987
    4  C  1  Y   -0.007408   0.034811  -0.021373  -0.057242  -0.008131
    5  C  1  Z    0.008243  -0.017218  -0.056654  -0.049160   0.067248
    6  C  1  S   -0.573830  -1.050746  -1.239095  -0.300368  -0.042489
    7  C  1  X    0.104617  -0.195439   0.055056  -0.199499  -0.242562
    8  C  1  Y    0.354480   0.396051   0.479806   0.029903  -0.094860
    9  C  1  Z    0.078092   0.028900   0.006687   0.298010  -0.234318
   10  C  1 XX   -0.090084   0.510267   0.109800  -0.203231  -0.285147
   11  C  1 YY    0.030200  -0.284287   0.374829   0.181698   0.027705
   12  C  1 ZZ    0.059884  -0.225980  -0.484629   0.021533   0.257442
   13  C  1 XY   -0.228962   0.232092   0.542288   0.037615  -0.160341
   14  C  1 XZ   -0.044763  -0.011426  -0.020364   0.179086  -0.243868
   15  C  1 YZ   -0.026624   0.005734   0.158705  -0.265700   0.312120
   16  C  2  S   -0.015360  -0.015111  -0.014385  -0.018583  -0.012808
   17  C  2  S   -0.091248  -0.535287   0.048586   0.032876   0.023448
   18  C  2  X   -0.073161   0.075916  -0.146419   0.014642   0.051489
   19  C  2  Y    0.002429  -0.050296   0.003797  -0.074716  -0.054484
   20  C  2  Z    0.007131  -0.004904   0.022094  -0.055178   0.065421
   21  C  2  S   -1.792224   1.329737  -0.326297   0.518947   0.456079
   22  C  2  X   -1.510751  -0.962684  -0.715086   0.323274   0.372947
   23  C  2  Y   -0.883265  -0.316950  -0.959424  -0.231128   0.123106
   24  C  2  Z    0.000183   0.034453   0.050393  -0.176909   0.142798
   25  C  2 XX   -0.022130   0.079771  -0.246453  -0.177842  -0.071738
   26  C  2 YY    0.062208   0.252950   0.134472   0.310977   0.177624
   27  C  2 ZZ   -0.040077  -0.332721   0.111981  -0.133135  -0.105886
   28  C  2 XY   -0.248195  -0.312160   0.057698   0.198688   0.147991
   29  C  2 XZ    0.032808  -0.034378  -0.063493   0.126622  -0.103693
   30  C  2 YZ   -0.036733   0.039055   0.038890   0.007759  -0.045668
   31  O  3  S    0.035900  -0.012826   0.003564   0.004701   0.005656
   32  O  3  S   -1.601531   0.062777  -0.522208   0.049837   0.102097
   33  O  3  X    0.115096  -0.185513   0.014045   0.154253   0.138740
   34  O  3  Y    0.098521  -0.006679  -0.093625  -0.128970  -0.066616
   35  O  3  Z   -0.005655   0.007491   0.013790  -0.057453   0.047865
   36  O  3  S    3.694810   0.291209   1.534170  -0.349013  -0.555545
   37  O  3  X   -1.104683   0.131118  -0.462621  -0.072473   0.021191
   38  O  3  Y   -0.682826  -0.070369  -0.072482   0.283509   0.206919
   39  O  3  Z    0.030799  -0.009001  -0.004518   0.086465  -0.078199
   40  O  3 XX   -0.136753   0.019765   0.017176   0.410353   0.304192
   41  O  3 YY    0.120900   0.448006  -0.237781  -0.065828  -0.002640
   42  O  3 ZZ    0.015852  -0.467771   0.220605  -0.344525  -0.301552
   43  O  3 XY   -0.177899  -0.160413  -0.014685  -0.367451  -0.272983
   44  O  3 XZ    0.013422  -0.029871  -0.013469   0.073634  -0.181437
   45  O  3 YZ   -0.026648   0.048381   0.147915  -0.477416   0.628147
   46  H  4  S    0.063145  -0.368927  -0.318765  -0.387205  -0.183902
   47  H  4  S   -0.160315  -0.278513  -0.222441  -0.062200   0.050917
   48  H  5  S    0.325397  -0.194058  -0.651010   0.264473   0.046938
   49  H  5  S   -0.453326   0.465389   1.784212  -0.009013  -0.069109
   50  H  6  S   -0.254224   0.280227   0.808343  -0.245684  -0.083648
   51  H  6  S    0.610133  -0.421493  -1.495780   0.179156  -0.068679
   52  H  7  S    0.009416   0.136889   0.284976  -0.053152  -0.065410
   53  H  7  S    0.092949   0.009507   0.254653  -0.064862   0.081361

                     41         42         43         44         45
                    1.9380     1.9985     2.0666     2.2390     2.3315
                     A          A          A          A          A   
    1  C  1  S    0.044219  -0.021506  -0.002916   0.010696   0.034671
    2  C  1  S    0.282236  -0.166129   0.137261   0.028588   0.282538
    3  C  1  X   -0.075458  -0.010894   0.048360   0.008339  -0.105267
    4  C  1  Y    0.120571  -0.063301  -0.014126   0.021540   0.025628
    5  C  1  Z   -0.023994   0.039231   0.008700  -0.044743   0.022920
    6  C  1  S   -1.643907   0.786869  -0.256779  -0.231601  -1.471080
    7  C  1  X   -0.343879   0.308254  -0.329548  -0.004795  -0.755541
    8  C  1  Y    0.100874  -0.171183  -0.037326   0.128055   0.333967
    9  C  1  Z    0.290945   0.684455   0.345134  -0.211603   0.005643
   10  C  1 XX   -0.121985   0.235500  -0.280233   0.031638  -0.344159
   11  C  1 YY    0.743736  -0.133459   0.104935  -0.013721  -0.017657
   12  C  1 ZZ   -0.621751  -0.102041   0.175298  -0.017917   0.361816
   13  C  1 XY   -0.299780   0.055694   0.412856  -0.109947   0.437717
   14  C  1 XZ   -0.183676  -0.320894  -0.016338   0.934903   0.020646
   15  C  1 YZ   -0.202581  -0.591039  -0.290489   0.143419  -0.005075
   16  C  2  S   -0.023496   0.007811   0.008583  -0.006634  -0.081241
   17  C  2  S   -0.354970   0.010170   0.278056  -0.062411  -0.233838
   18  C  2  X    0.225123   0.043208  -0.277489   0.031159  -0.205442
   19  C  2  Y    0.025552  -0.077884   0.153634  -0.000648   0.178556
   20  C  2  Z   -0.009888  -0.013786  -0.004336  -0.090229   0.017369
   21  C  2  S    1.674958  -0.440159  -0.350250   0.202973   1.621045
   22  C  2  X   -0.216882   0.262734  -0.200426  -0.089676  -0.463341
   23  C  2  Y    1.255365  -0.519676   0.346578   0.009535   0.711324
   24  C  2  Z   -0.070307  -0.359634  -0.161127  -0.086590   0.048266
   25  C  2 XX    0.430989  -0.084419  -0.178447   0.104950   0.422551
   26  C  2 YY   -0.209308   0.272754  -0.363025   0.015569   0.323878
   27  C  2 ZZ   -0.221681  -0.188335   0.541472  -0.120519  -0.746429
   28  C  2 XY    0.134230  -0.064847   0.004907   0.001910   0.466704
   29  C  2 XZ    0.035568   0.265112   0.168568   0.254370  -0.034630
   30  C  2 YZ   -0.075865  -0.372187  -0.234653  -0.492736   0.028567
   31  O  3  S    0.015797  -0.003429  -0.008270   0.003504   0.028148
   32  O  3  S    0.173515   0.003772   0.011669  -0.043304  -0.337762
   33  O  3  X    0.128177  -0.002255  -0.137851   0.038764   0.329411
   34  O  3  Y    0.219138  -0.077480  -0.006363   0.030523   0.247916
   35  O  3  Z   -0.018375  -0.057207  -0.026384  -0.029943  -0.002917
   36  O  3  S   -1.188251   0.147432   0.245818  -0.004378  -0.284281
   37  O  3  X    0.451184  -0.117193   0.045685  -0.000477   0.100355
   38  O  3  Y   -0.147713   0.146485  -0.190301  -0.012413  -0.328556
   39  O  3  Z    0.028666   0.160549   0.083109   0.104281  -0.024064
   40  O  3 XX    0.014835   0.029151  -0.204740   0.009738  -0.320886
   41  O  3 YY    0.154489  -0.320171   0.583542  -0.054353   0.299316
   42  O  3 ZZ   -0.169324   0.291020  -0.378801   0.044616   0.021571
   43  O  3 XY   -0.007193   0.090094  -0.053762   0.008556   0.395142
   44  O  3 XZ   -0.091169  -0.319333  -0.181235  -0.325551   0.042269
   45  O  3 YZ    0.045959   0.219357   0.115958   0.179073  -0.000250
   46  H  4  S    0.276437  -0.260053   0.387601  -0.017151  -0.151464
   47  H  4  S    0.274143  -0.146397   0.135872  -0.015517   0.170737
   48  H  5  S    0.046026   0.692114   0.044433  -0.445260   0.200899
   49  H  5  S    0.289586  -0.127908   0.456840  -0.135691  -0.335715
   50  H  6  S    0.461508  -0.400349  -0.022679   0.089464  -0.262500
   51  H  6  S   -0.136036   0.245208  -0.363859   0.210388   0.393660
   52  H  7  S    0.254738  -0.534102  -0.300318   0.519957  -0.075587
   53  H  7  S   -0.000271  -0.156803  -0.050733  -0.048984   0.079794

                     46         47         48         49         50
                    2.5141     2.5664     2.7871     2.8564     2.9456
                     A          A          A          A          A   
    1  C  1  S    0.052034  -0.000393   0.006757   0.031204  -0.013668
    2  C  1  S    0.098494  -0.005593  -0.005789  -0.095460   0.070104
    3  C  1  X   -0.272158   0.006225  -0.055264  -0.204939   0.099179
    4  C  1  Y    0.065117  -0.025001   0.145982   0.136202  -0.040638
    5  C  1  Z    0.013403   0.033415  -0.035881   0.023534  -0.018353
    6  C  1  S   -1.541810   0.021935  -0.100052  -0.268712   0.125548
    7  C  1  X   -0.863659   0.016617  -0.095792  -0.201876   0.177029
    8  C  1  Y    0.239989   0.003675  -0.042876   0.157402   0.011134
    9  C  1  Z    0.029243   0.004108   0.090307   0.036798   0.034358
   10  C  1 XX   -0.758601   0.052103  -0.225032  -0.162757   0.051038
   11  C  1 YY    0.522351   0.058995  -0.224116  -0.014718  -0.010297
   12  C  1 ZZ    0.236250  -0.111099   0.449148   0.177475  -0.040741
   13  C  1 XY    0.121317   0.030166  -0.055291   0.554542  -0.231893
   14  C  1 XZ    0.061966   0.171162  -0.049245   0.020747  -0.016453
   15  C  1 YZ    0.020235  -0.064413  -0.418961   0.060046  -0.043392
   16  C  2  S   -0.029408   0.002203  -0.010081  -0.043943  -0.027998
   17  C  2  S   -0.058689  -0.012568   0.139181  -0.402630  -1.299600
   18  C  2  X   -0.227788   0.009148   0.034700  -0.421460  -1.070640
   19  C  2  Y    0.052325  -0.011853   0.053256  -0.193092  -0.646878
   20  C  2  Z    0.007610   0.240649   0.036109   0.006599   0.025041
   21  C  2  S    1.725695   0.004453   0.071049   0.120234  -1.771047
   22  C  2  X   -0.734452   0.029393  -0.064093  -0.362486  -0.684681
   23  C  2  Y    0.876484   0.012693  -0.147742  -0.487043  -0.533979
   24  C  2  Z    0.048529   0.244182   0.014196  -0.012326   0.004825
   25  C  2 XX   -0.138035   0.024501   0.339051   0.817078  -0.698762
   26  C  2 YY    0.421353  -0.022025  -0.165464  -0.763838   0.256818
   27  C  2 ZZ   -0.283318  -0.002476  -0.173587  -0.053240   0.441944
   28  C  2 XY   -0.873956  -0.006101  -0.090720  -0.573445  -0.395837
   29  C  2 XZ   -0.024719   0.887125   0.166313  -0.081561   0.058381
   30  C  2 YZ    0.043500   0.400994   0.107330  -0.016972   0.017629
   31  O  3  S   -0.020601  -0.001040   0.006537  -0.012956  -0.060746
   32  O  3  S    0.590280   0.023832  -0.079309  -0.338427  -0.683475
   33  O  3  X   -0.350503  -0.013922   0.061969  -0.026481  -0.242859
   34  O  3  Y   -0.151595  -0.005126   0.035596   0.035533  -0.166811
   35  O  3  Z    0.009164  -0.005614  -0.020950   0.005264   0.001179
   36  O  3  S   -0.758829  -0.034993   0.056580   1.063298   3.082459
   37  O  3  X    0.515910   0.000620  -0.053489  -0.690552  -1.510229
   38  O  3  Y   -0.015952   0.008139   0.129402   0.030229  -0.954120
   39  O  3  Z   -0.018751  -0.454457  -0.052102   0.036270   0.028585
   40  O  3 XX   -0.164578   0.047380   0.113000   0.845818   0.724138
   41  O  3 YY    0.011469  -0.008894  -0.180798  -0.638107  -0.020075
   42  O  3 ZZ    0.153109  -0.038487   0.067799  -0.207711  -0.704063
   43  O  3 XY    0.125604   0.007559  -0.184184  -0.055490   1.146259
   44  O  3 XZ    0.012514   0.832076   0.136220  -0.066022  -0.018491
   45  O  3 YZ   -0.006988   0.533186   0.090758  -0.026658  -0.012915
   46  H  4  S   -0.250503   0.012585   0.008277   0.261624  -0.035625
   47  H  4  S    0.340288  -0.005940  -0.047556  -0.407460   0.027605
   48  H  5  S    0.092470   0.575439  -2.808161   0.709876  -0.457759
   49  H  5  S   -0.093021  -0.549270   2.928189  -0.519346   0.676227
   50  H  6  S   -0.059032  -0.582919   2.784300  -0.779883   0.482690
   51  H  6  S    0.061215   0.584596  -2.913398   0.551659  -0.637016
   52  H  7  S    0.062269   0.046208  -0.210213  -0.075495   0.004784
   53  H  7  S   -0.044391  -0.054944   0.100587  -0.012166   0.023942
 ...... END OF RHF CALCULATION ......
 STEP CPU TIME =     6.47 TOTAL CPU TIME =          6.6 (      0.1 MIN)
 TOTAL WALL CLOCK TIME=          6.7 SECONDS, CPU UTILIZATION IS    98.21%

     ---------------------------------------------------------------------
     PROPERTIES FOR THE B3LYP    DFT FUNCTIONAL (RHF  TYPE) DENSITY MATRIX
     ---------------------------------------------------------------------

          -----------------
          ENERGY COMPONENTS
          -----------------

         WAVEFUNCTION NORMALIZATION =       1.0000000000

                ONE ELECTRON ENERGY =    -346.1725780504
                TWO ELECTRON ENERGY =     122.3672012389
           NUCLEAR REPULSION ENERGY =      71.4904760923
                                      ------------------
                       TOTAL ENERGY =    -152.3149007192

 ELECTRON-ELECTRON POTENTIAL ENERGY =     122.3672012389
  NUCLEUS-ELECTRON POTENTIAL ENERGY =    -499.7648985121
   NUCLEUS-NUCLEUS POTENTIAL ENERGY =      71.4904760923
                                      ------------------
             TOTAL POTENTIAL ENERGY =    -305.9072211810
               TOTAL KINETIC ENERGY =     153.5923204618
                 VIRIAL RATIO (V/T) =       1.9916830494

          ---------------------------------------
          MULLIKEN AND LOWDIN POPULATION ANALYSES
          ---------------------------------------

     ATOMIC MULLIKEN POPULATION IN EACH MOLECULAR ORBITAL

                      1          2          3          4          5

                  2.000000   2.000000   2.000000   2.000000   2.000000

    1            -0.000028   0.001239   1.995856   0.028153   0.474662
    2             0.002242   2.000582   0.001698   0.522063   0.078601
    3             1.997758  -0.002761   0.000011   1.427819   0.044669
    4             0.000029   0.000897   0.000009  -0.001760  -0.000089
    5            -0.000001   0.000061  -0.000783   0.011476   0.637408
    6             0.000000  -0.000036   0.002005   0.011723   0.751430
    7            -0.000001   0.000018   0.001205   0.000526   0.013318

                      6          7          8          9         10

                  2.000000   2.000000   2.000000   2.000000   2.000000

    1             0.628231   0.501574   0.476995   0.272213   0.073200
    2             0.842936   0.616035   0.540720   0.423722   0.659705
    3             0.181829   0.280778   0.564596   1.163922   1.197000
    4             0.120960   0.301781   0.159755   0.024419   0.000872
    5             0.078064   0.022051   0.002573   0.000220   0.004974
    6             0.063783   0.012246   0.007420   0.001085   0.000586
    7             0.084197   0.265535   0.247940   0.114418   0.063663

                     11         12

                  2.000000   2.000000

    1             0.252155   1.629112
    2             0.070374   0.100447
    3             1.423065   0.021112
    4             0.198840   0.102077
    5             0.003220   0.180405
    6             0.020512  -0.037089
    7             0.031835   0.003935

               ----- POPULATIONS IN EACH AO -----
                             MULLIKEN      LOWDIN
              1  C  1  S      1.99658     1.98005
              2  C  1  S      0.69618     0.38982
              3  C  1  X      0.60193     0.53669
              4  C  1  Y      0.93506     0.89581
              5  C  1  Z      0.46309     0.40634
              6  C  1  S      0.66808     0.36583
              7  C  1  X      0.21235     0.33864
              8  C  1  Y      0.62510     0.80253
              9  C  1  Z      0.10263     0.29253
             10  C  1 XX      0.00453     0.16963
             11  C  1 YY      0.00250     0.12623
             12  C  1 ZZ      0.00912     0.18287
             13  C  1 XY      0.01000     0.01488
             14  C  1 XZ      0.00621     0.03284
             15  C  1 YZ      0.00000     0.01079
             16  C  2  S      1.99650     1.97447
             17  C  2  S      0.70349     0.36386
             18  C  2  X      0.73727     0.64141
             19  C  2  Y      0.74672     0.64662
             20  C  2  Z      0.46479     0.41925
             21  C  2  S      0.47728     0.31602
             22  C  2  X      0.12340     0.28624
             23  C  2  Y      0.22533     0.38314
             24  C  2  Z      0.29679     0.33175
             25  C  2 XX      0.00469     0.22206
             26  C  2 YY      0.04264     0.19393
             27  C  2 ZZ      0.02705     0.10392
             28  C  2 XY      0.01001     0.05498
             29  C  2 XZ      0.00317     0.01829
             30  C  2 YZ      0.00000     0.00532
             31  O  3  S      1.99732     1.97779
             32  O  3  S      0.93418     0.72591
             33  O  3  X      0.99984     0.93570
             34  O  3  Y      1.10692     1.05829
             35  O  3  Z      0.73870     0.68724
             36  O  3  S      0.92691     0.46908
             37  O  3  X      0.48528     0.56506
             38  O  3  Y      0.59469     0.65769
             39  O  3  Z      0.48798     0.52610
             40  O  3 XX      0.00222     0.18413
             41  O  3 YY      0.00729     0.17317
             42  O  3 ZZ      0.00715     0.17432
             43  O  3 XY      0.00830     0.01575
             44  O  3 XZ      0.00302     0.01108
             45  O  3 YZ      0.00000     0.00397
             46  H  4  S      0.53609     0.50757
             47  H  4  S      0.37169     0.39747
             48  H  5  S      0.77643     0.63789
             49  H  5  S      0.16324     0.16053
             50  H  6  S      0.80256     0.66325
             51  H  6  S      0.03110     0.15409
             52  H  7  S      0.50989     0.45856
             53  H  7  S      0.31671     0.34864

          ----- MULLIKEN ATOMIC OVERLAP POPULATIONS -----
          (OFF-DIAGONAL ELEMENTS NEED TO BE MULTIPLIED BY 2)

             1           2           3           4           5

    1    5.7506410
    2    0.3755185   4.6009934
    3   -0.0642483   0.5510895   7.8858977
    4   -0.1555036   0.3538263  -0.0762412   0.7780341
    5    0.4698154   0.0259666  -0.0213895   0.0274184   1.7801878
    6   -0.3841778  -0.0159199   0.0220468  -0.0254626  -1.2513849
    7    0.3413168  -0.0323484   0.0026451   0.0057167  -0.0909463

             6           7

    6    2.4088373
    7    0.0797258   0.5204821

          TOTAL MULLIKEN AND LOWDIN ATOMIC POPULATIONS
       ATOM         MULL.POP.    CHARGE          LOW.POP.     CHARGE
    1 C             6.333362   -0.333362         6.545471   -0.545471
    2 C             5.859126    0.140874         5.961254    0.038746
    3 O             8.299800   -0.299800         8.165287   -0.165287
    4 H             0.907788    0.092212         0.905043    0.094957
    5 H             0.939667    0.060333         0.798411    0.201589
    6 H             0.833665    0.166335         0.817336    0.182664
    7 H             0.826592    0.173408         0.807199    0.192801

          MULLIKEN SPHERICAL HARMONIC POPULATIONS
       ATOM           S       P       D      F      G      H      I    TOTAL
    1 C             3.36    2.94    0.03   0.00   0.00   0.00   0.00    6.33
    2 C             3.18    2.59    0.09   0.00   0.00   0.00   0.00    5.86
    3 O             3.86    4.41    0.03   0.00   0.00   0.00   0.00    8.30
    4 H             0.91    0.00    0.00   0.00   0.00   0.00   0.00    0.91
    5 H             0.94    0.00    0.00   0.00   0.00   0.00   0.00    0.94
    6 H             0.83    0.00    0.00   0.00   0.00   0.00   0.00    0.83
    7 H             0.83    0.00    0.00   0.00   0.00   0.00   0.00    0.83

          -------------------------------
          BOND ORDER AND VALENCE ANALYSIS     BOND ORDER THRESHOLD=0.050
          -------------------------------

                   BOND                       BOND                       BOND
  ATOM PAIR DIST  ORDER      ATOM PAIR DIST  ORDER      ATOM PAIR DIST  ORDER
    1   2  1.509  1.116        1   5  1.093  0.640        1   7  1.098  0.929
    2   3  1.211  2.033        2   4  1.115  0.880        5   6  0.206  0.589

                       TOTAL       BONDED        FREE
      ATOM            VALENCE     VALENCE     VALENCE
    1 C                 2.756       2.756      -0.000
    2 C                 4.041       4.041       0.000
    3 O                 2.107       2.107       0.000
    4 H                 0.918       0.918      -0.000
    5 H                 1.235       1.235      -0.000
    6 H                 0.660       0.660      -0.000
    7 H                 0.942       0.942      -0.000

          ---------------------
          ELECTROSTATIC MOMENTS
          ---------------------

 POINT   1           X           Y           Z (BOHR)    CHARGE
                -0.000000   -0.000000    0.000000       -0.00 (A.U.)
         DX          DY          DZ         /D/  (DEBYE)
    -2.901111   -2.478303   -0.935929    3.928663
 ...... END OF PROPERTY EVALUATION ......
 STEP CPU TIME =     0.00 TOTAL CPU TIME =          6.6 (      0.1 MIN)
 TOTAL WALL CLOCK TIME=          6.7 SECONDS, CPU UTILIZATION IS    98.07%
                580000  WORDS OF DYNAMIC MEMORY USED
 EXECUTION OF GAMESS TERMINATED NORMALLY Thu Oct 17 12:46:46 2019
 DDI: 263640 bytes (0.3 MB / 0 MWords) used by master data server.

 ----------------------------------------
 CPU timing information for all processes
 ========================================
 0: 6.438 + 0.171 = 6.609
 ----------------------------------------
 ddikick.x: exited gracefully.
----- accounting info -----
Files used on the master node crcfe01.crc.nd.edu were:
-rw-r--r-- 1 cdrisko campus      490 Oct 17 12:46 /afs/crc.nd.edu/user/c/cdrisko/acetaldehyde.F05
-rw-r--r-- 1 cdrisko campus    45118 Oct 17 12:46 /afs/crc.nd.edu/user/c/cdrisko/acetaldehyde.F07
-rw-r--r-- 1 cdrisko campus 11881056 Oct 17 12:46 /afs/crc.nd.edu/user/c/cdrisko/acetaldehyde.F08
-rw-r--r-- 1 cdrisko campus  1701440 Oct 17 12:46 /afs/crc.nd.edu/user/c/cdrisko/acetaldehyde.F10
Thu Oct 17 12:46:50 EDT 2019
0.353u 0.431s 0:10.36 7.5%	0+0k 0+32io 0pf+0w
