----- GAMESS execution script 'rungms' -----
This job is running on host crcfe02.crc.nd.edu
under operating system Linux at Sun Sep 29 10:49:00 EDT 2019
Available scratch disk space (Kbyte units) at beginning of the job is
Filesystem      1K-blocks  Used  Available Use% Mounted on
AFS            2147483647     0 2147483647   0% /afs
GAMESS temporary binary files will be written to /afs/crc.nd.edu/user/c/cdrisko
GAMESS supplementary output files will be written to /afs/crc.nd.edu/user/c/cdrisko/scr
Copying input file SO2.inp to your run's scratch directory...

 Distributed Data Interface kickoff program.
 Initiating 1 compute processes on 1 nodes to run the following command:
 /afs/crc.nd.edu/x86_64_linux/g/gamess/nov-2017/gamess/gamess.00.x SO2 

          ******************************************************
          *         GAMESS VERSION = 11 NOV 2017 (R3)         *
          *             FROM IOWA STATE UNIVERSITY             *
          * M.W.SCHMIDT, K.K.BALDRIDGE, J.A.BOATZ, S.T.ELBERT, *
          *   M.S.GORDON, J.H.JENSEN, S.KOSEKI, N.MATSUNAGA,   *
          *          K.A.NGUYEN, S.J.SU, T.L.WINDUS,           *
          *       TOGETHER WITH M.DUPUIS, J.A.MONTGOMERY       *
          *         J.COMPUT.CHEM.  14, 1347-1363(1993)        *
          **************** 64 BIT INTEL VERSION ****************

  SINCE 1993, STUDENTS AND POSTDOCS WORKING AT IOWA STATE UNIVERSITY
  AND ALSO IN THEIR VARIOUS JOBS AFTER LEAVING ISU HAVE MADE IMPORTANT
  CONTRIBUTIONS TO THE CODE:
     IVANA ADAMOVIC, CHRISTINE AIKENS, YURI ALEXEEV, POOJA ARORA,
     ANDREY ASADCHEV, ROB BELL, PRADIPTA BANDYOPADHYAY, JONATHAN BENTZ,
     BRETT BODE, KURT BRORSEN, CALEB CARLIN, GALINA CHABAN, WEI CHEN,
     CHEOL HO CHOI, PAUL DAY, ALBERT DEFUSCO, NUWAN DESILVA, TIM DUDLEY,
     DMITRI FEDOROV, ALEX FINDLATER, GRAHAM FLETCHER, MARK FREITAG,
     KURT GLAESEMANN, ANASTASIA GUININA,
     DAN KEMP, GRANT MERRILL, NORIYUKI MINEZAWA, JONATHAN MULLIN,
     TAKESHI NAGATA, SEAN NEDD, HEATHER NETZLOFF, BOSILJKA NJEGIC, RYAN OLSON,
     MIKE PAK, BUU PHAM,
     SPENCER PRUITT, LUKE ROSKOP, JIM SHOEMAKER, LYUDMILA SLIPCHENKO,
     TONY SMITH, SAROM SOK LEANG, JIE SONG, TETSUYA TAKETSUGU, SIMON WEBB,
     PENG XU, SOOHAENG YOO, FEDERICO ZAHARIEV

  ADDITIONAL CODE HAS BEEN PROVIDED BY COLLABORATORS IN OTHER GROUPS:
     IOWA STATE UNIVERSITY:
          JOE IVANIC, AARON WEST, LAIMUTIS BYTAUTAS, KLAUS RUEDENBERG
     UNIVERSITY OF TOKYO: KIMIHIKO HIRAO, TAKAHITO NAKAJIMA,
          TAKAO TSUNEDA, MUNEAKI KAMIYA, SUSUMU YANAGISAWA,
          KIYOSHI YAGI, MAHITO CHIBA, SEIKEN TOKURA, NAOAKI KAWAKAMI
     UNIVERSITY OF AARHUS: FRANK JENSEN
     UNIVERSITY OF IOWA: VISVALDAS KAIRYS, HUI LI
     NATIONAL INST. OF STANDARDS AND TECHNOLOGY: WALT STEVENS, DAVID GARMER
     UNIVERSITY OF PISA: BENEDETTA MENNUCCI, JACOPO TOMASI
     UNIVERSITY OF MEMPHIS: HENRY KURTZ, PRAKASHAN KORAMBATH
     UNIVERSITY OF ALBERTA: TOBY ZENG, MARIUSZ KLOBUKOWSKI
     UNIVERSITY OF NEW ENGLAND: MARK SPACKMAN
     MIE UNIVERSITY: HIROAKI UMEDA
     NAT. INST. OF ADVANCED INDUSTRIAL SCIENCE AND TECHNOLOGY: KAZUO KITAURA
     MICHIGAN STATE UNIVERSITY:
          KAROL KOWALSKI, MARTA WLOCH, JEFFREY GOUR, JESSE LUTZ,
          WEI LI, PIOTR PIECUCH
     UNIVERSITY OF SILESIA: MONIKA MUSIAL, STANISLAW KUCHARSKI
     FACULTES UNIVERSITAIRES NOTRE-DAME DE LA PAIX:
          OLIVIER QUINET, BENOIT CHAMPAGNE
     UNIVERSITY OF CALIFORNIA - SANTA BARBARA: BERNARD KIRTMAN
     INSTITUTE FOR MOLECULAR SCIENCE:
          KAZUYA ISHIMURA, MICHIO KATOUDA, AND SHIGERU NAGASE
     UNIVERSITY OF NOTRE DAME: ANNA POMOGAEVA, DAN CHIPMAN
     KYUSHU UNIVERSITY:
          HARUYUKI NAKANO,
          FENG LONG GU, JACEK KORCHOWIEC, MARCIN MAKOWSKI, AND YURIKO AOKI,
          HIROTOSHI MORI AND EISAKU MIYOSHI
     PENNSYLVANIA STATE UNIVERSITY:
          TZVETELIN IORDANOV, CHET SWALINA, JONATHAN SKONE,
          SHARON HAMMES-SCHIFFER
     WASEDA UNIVERSITY:
          MASATO KOBAYASHI, TOMOKO AKAMA, TSUGUKI TOUMA,
          TAKESHI YOSHIKAWA, YASUHIRO IKABATA, JUNJI SEINO,
          YUYA NAKAJIMA, HIROMI NAKAI
     NANJING UNIVERSITY: SHUHUA LI
     UNIVERSITY OF NEBRASKA:
          PEIFENG SU, DEJUN SI, NANDUN THELLAMUREGE, YALI WANG, HUI LI
     UNIVERSITY OF ZURICH: ROBERTO PEVERATI, KIM BALDRIDGE
     N. COPERNICUS UNIVERSITY AND JACKSON STATE UNIVERSITY:
          MARIA BARYSZ
     UNIVERSITY OF COPENHAGEN: Jimmy Kromann, CASPER STEINMANN
     TOKYO INSTITUTE OF TECHNOLOGY: HIROYA NAKATA
     NAGOYA UNIVERSITY: YOSHIO NISHIMOTO, STEPHAN IRLE
     MOSCOW STATE UNIVERSITY: VLADIMIR MIRONOV

 EXECUTION OF GAMESS BEGUN Sun Sep 29 10:49:00 2019

            ECHO OF THE FIRST FEW INPUT CARDS -
 INPUT CARD> $BASIS GBASIS=PCSEG-1 $END                                                     
 INPUT CARD> $CONTRL COORD=ZMT ISPHER=1 RUNTYP=ENERGY DFTTYP=PBE MULT=1 $END                
 INPUT CARD>                                                                                
 INPUT CARD> $DATA                                                                          
 INPUT CARD>Title SO2 single-point calculation template with Z-Matrix                       
 INPUT CARD>C1                                                                              
 INPUT CARD>S                                                                               
 INPUT CARD>O 1 1.50                                                                        
 INPUT CARD>O 1 1.50 2 135                                                                  
 INPUT CARD> $END                                                                           
    1000000 WORDS OF MEMORY AVAILABLE

     BASIS OPTIONS
     -------------
     GBASIS=PCSEG-1      IGAUSS=       0      POLAR=NONE    
     NDFUNC=       0     NFFUNC=       0     DIFFSP=       F
     NPFUNC=       0      DIFFS=       F     BASNAM=        


     RUN TITLE
     ---------
 Title SO2 single-point calculation template with Z-Matrix                       

 THE POINT GROUP OF THE MOLECULE IS C1      
 THE ORDER OF THE PRINCIPAL AXIS IS     0

 YOUR FULLY SUBSTITUTED Z-MATRIX IS
 S   
 O      1   1.5000000
 O      1   1.5000000  2  135.0000

 THE MOMENTS OF INERTIA ARE (AMU-ANGSTROM**2)
 IXX=     5.269   IYY=    61.436   IZZ=    66.705

 ATOM      ATOMIC                      COORDINATES (BOHR)
           CHARGE         X                   Y                   Z
 S          16.0     0.0000000000       -0.5425256344        0.0000000000
 O           8.0     2.6188187432        0.5422246064        0.0000000000
 O           8.0    -2.6188187432        0.5422246064        0.0000000000

          INTERNUCLEAR DISTANCES (ANGS.)
          ------------------------------

                1 S          2 O          3 O     

   1 S       0.0000000    1.5000000 *  1.5000000 *
   2 O       1.5000000 *  0.0000000    2.7716386 *
   3 O       1.5000000 *  2.7716386 *  0.0000000  

  * ... LESS THAN  3.000


     ATOMIC BASIS SET
     ----------------
 THE CONTRACTED PRIMITIVE FUNCTIONS HAVE BEEN UNNORMALIZED
 THE CONTRACTED BASIS FUNCTIONS ARE NOW NORMALIZED TO UNITY

  SHELL TYPE  PRIMITIVE        EXPONENT          CONTRACTION COEFFICIENT(S)

 S         

      1   S       1         49299.4000000    0.000677492991
      1   S       2          7395.8400000    0.005232317766
      1   S       3          1683.3000000    0.026769459077
      1   S       4           476.1440000    0.102869580705
      1   S       5           154.3290000    0.286438127414
      1   S       6            55.0288000    0.454278639081
      1   S       7            20.5029000    0.271743121997

      2   S       8            45.9596000   -0.088421914560
      2   S       9             4.9274000    0.564350486135
      2   S      10             1.9179900    0.505415953466

      3   S      11             0.3684980    1.000000000000

      4   S      12             0.1291650    1.000000000000

      5   P      13           451.6620000    0.003707705453
      5   P      14           106.0980000    0.029219352245
      5   P      15            33.6996000    0.124444551509
      5   P      16            12.3054000    0.321808587656
      5   P      17             4.7141200    0.462822172957
      5   P      18             1.7810500    0.266513371364

      6   P      19             0.8722350    0.349265132972
      6   P      20             0.3102780    0.717115018770

      7   P      21             0.1001940    1.000000000000

      8   D      22             0.5500000    1.000000000000

 O         

      9   S      23          2288.6400000    0.005451138222
      9   S      24           344.4160000    0.040718922842
      9   S      25            78.2538000    0.181369420873
      9   S      26            21.7195000    0.465536820246
      9   S      27             6.5590700    0.451211321214

     10   S      28            10.4656000   -0.150211201174
     10   S      29             0.9643510    1.052867983385

     11   S      30             0.2851270    1.000000000000

     12   P      31            17.0590000    0.068749256972
     12   P      32             3.6899900    0.351671941499
     12   P      33             0.9929960    0.724532099722

     13   P      34             0.2449240    1.000000000000

     14   D      35             1.0000000    1.000000000000

 O         

     15   S      36          2288.6400000    0.005451138222
     15   S      37           344.4160000    0.040718922842
     15   S      38            78.2538000    0.181369420873
     15   S      39            21.7195000    0.465536820246
     15   S      40             6.5590700    0.451211321214

     16   S      41            10.4656000   -0.150211201174
     16   S      42             0.9643510    1.052867983385

     17   S      43             0.2851270    1.000000000000

     18   P      44            17.0590000    0.068749256972
     18   P      45             3.6899900    0.351671941499
     18   P      46             0.9929960    0.724532099722

     19   P      47             0.2449240    1.000000000000

     20   D      48             1.0000000    1.000000000000

 TOTAL NUMBER OF BASIS SET SHELLS             =   20
 NUMBER OF CARTESIAN GAUSSIAN BASIS FUNCTIONS =   49
 NOTE: THIS RUN WILL RESTRICT THE MO VARIATION SPACE TO SPHERICAL HARMONICS.
 THE NUMBER OF ORBITALS KEPT IN THE VARIATIONAL SPACE WILL BE PRINTED LATER.
 NUMBER OF ELECTRONS                          =   32
 CHARGE OF MOLECULE                           =    0
 SPIN MULTIPLICITY                            =    1
 NUMBER OF OCCUPIED ORBITALS (ALPHA)          =   16
 NUMBER OF OCCUPIED ORBITALS (BETA )          =   16
 TOTAL NUMBER OF ATOMS                        =    3
 THE NUCLEAR REPULSION ENERGY IS      102.5321668495

     LEBEDEV GRID-BASED DFT OPTIONS
     ------------------------------
     DFTTYP=PBE     
     NRAD  =      96     NLEB  =     302
     NRAD0 =      24     NLEB0 =     110
     SWOFF =    5.00E-03 (PURE SCF -> DFT)
     SWITCH=    3.00E-04 (COARSE -> TIGHT GRID)
     THRESH=    0.00E+00 GTHRE=    1.00E+00

 GRIMME'S EMPIRICAL DISPERSION CORRECTION= F

     $CONTRL OPTIONS
     ---------------
 SCFTYP=RHF          RUNTYP=ENERGY       EXETYP=RUN     
 MPLEVL=       0     CITYP =NONE         CCTYP =NONE         VBTYP =NONE    
 DFTTYP=PBE          TDDFT =NONE    
 MULT  =       1     ICHARG=       0     NZVAR =       0     COORD =ZMT     
 PP    =NONE         RELWFN=NONE         LOCAL =NONE         NUMGRD=       F
 ISPHER=       1     NOSYM =       0     MAXIT =      30     UNITS =ANGS    
 PLTORB=       F     MOLPLT=       F     AIMPAC=       F     FRIEND=        
 NPRINT=       7     IREST =       0     GEOM  =INPUT   
 NORMF =       0     NORMP =       0     ITOL  =      20     ICUT  =       9
 INTTYP=BEST         GRDTYP=BEST         QMTTOL= 1.0E-06

     $SYSTEM OPTIONS
     ---------------
  REPLICATED MEMORY=     1000000 WORDS (ON EVERY NODE).
 DISTRIBUTED MEMDDI=           0 MILLION WORDS IN AGGREGATE,
 MEMDDI DISTRIBUTED OVER   1 PROCESSORS IS           0 WORDS/PROCESSOR.
 TOTAL MEMORY REQUESTED ON EACH PROCESSOR=     1000000 WORDS.
 TIMLIM=      525600.00 MINUTES, OR     365.0 DAYS.
 PARALL= F  BALTYP=  DLB     KDIAG=    0  COREFL= F
 MXSEQ2=     300 MXSEQ3=     150  mem10=         0

          ----------------
          PROPERTIES INPUT
          ----------------

     MOMENTS            FIELD           POTENTIAL          DENSITY
 IEMOM =       1   IEFLD =       0   IEPOT =       0   IEDEN =       0
 WHERE =COMASS     WHERE =NUCLEI     WHERE =NUCLEI     WHERE =NUCLEI  
 OUTPUT=BOTH       OUTPUT=BOTH       OUTPUT=BOTH       OUTPUT=BOTH    
 IEMINT=       0   IEFINT=       0                     IEDINT=       0
                                                       MORB  =       0
          EXTRAPOLATION IN EFFECT
          DIIS IN EFFECT
 ORBITAL PRINTING OPTION: NPREO=     1    49     2     1

     -------------------------------
     INTEGRAL TRANSFORMATION OPTIONS
     -------------------------------
     NWORD  =            0
     CUTOFF = 1.0E-09     MPTRAN =       0
     DIRTRF =       F     AOINTS =DUP     

          ----------------------
          INTEGRAL INPUT OPTIONS
          ----------------------
 NOPK  =       1 NORDER=       0 SCHWRZ=       F

   --- ENCODED Z MATRIX ---
 COORD  TYPE   I   J   K   L   M   N
    1      1    2   1
    2      1    3   1
    3      2    3   1   2

 THE DETERMINANT OF THE G MATRIX IS 10**(    -4)

 THE DETERMINANT OF THE G MATRIX IS 10**(    -4)
 * * * WARNING * * *
 YOUR B MATRIX HAS A SMALL DETERMINANT.
 THIS SUGGESTS YOU MAY HAVE BADLY CHOSEN COORDINATES.

     ------------------------------------------
     THE POINT GROUP IS C1 , NAXIS= 0, ORDER= 1
     ------------------------------------------

 -- VARIATIONAL SPACE WILL BE RESTRICTED TO PURE SPHERICAL HARMONICS ONLY --
 AFTER EXCLUDING CONTAMINANT COMBINATIONS FROM THE CARTESIAN GAUSSIAN BASIS
 SET, THE NUMBER OF SPHERICAL HARMONICS KEPT IN THE VARIATION SPACE IS   46

     DIMENSIONS OF THE SYMMETRY SUBSPACES ARE
 A   =   46

 ..... DONE SETTING UP THE RUN .....
 STEP CPU TIME =     0.04 TOTAL CPU TIME =          0.0 (      0.0 MIN)
 TOTAL WALL CLOCK TIME=          0.0 SECONDS, CPU UTILIZATION IS   100.00%

          ********************
          1 ELECTRON INTEGRALS
          ********************
 ...... END OF ONE-ELECTRON INTEGRALS ......
 STEP CPU TIME =     0.00 TOTAL CPU TIME =          0.0 (      0.0 MIN)
 TOTAL WALL CLOCK TIME=          0.0 SECONDS, CPU UTILIZATION IS   100.00%

          -------------
          GUESS OPTIONS
          -------------
          GUESS =HUCKEL            NORB  =       0          NORDER=       0
          MIX   =       F          PRTMO =       F          PUNMO =       F
          TOLZ  = 1.0E-08          TOLE  = 1.0E-05
          SYMDEN=       F          PURIFY=       F

 INITIAL GUESS ORBITALS GENERATED BY HUCKEL   ROUTINE.
 HUCKEL GUESS REQUIRES     21634 WORDS.

 STATISTICS FOR GENERATION OF SYMMETRY ORBITAL -Q- MATRIX
 NUMBER OF CARTESIAN ATOMIC ORBITALS=         49
 NUMBER OF SPHERICAL CONTAMINANTS DROPPED=     3
 NUMBER OF LINEARLY DEPENDENT MOS DROPPED=     0
 TOTAL NUMBER OF MOS IN VARIATION SPACE=      46

 SYMMETRIES FOR INITIAL GUESS ORBITALS FOLLOW.   BOTH SET(S).
    16 ORBITALS ARE OCCUPIED (    7 CORE ORBITALS).
     8=A        9=A       10=A       11=A       12=A       13=A       14=A   
    15=A       16=A       17=A       18=A       19=A       20=A       21=A   
    22=A       23=A       24=A       25=A       26=A   
 ...... END OF INITIAL ORBITAL SELECTION ......
 STEP CPU TIME =     0.00 TOTAL CPU TIME =          0.0 (      0.0 MIN)
 TOTAL WALL CLOCK TIME=          0.0 SECONDS, CPU UTILIZATION IS    80.00%

                    ----------------------
                    AO INTEGRAL TECHNOLOGY
                    ----------------------
     S,P,L SHELL ROTATED AXIS INTEGRALS, REPROGRAMMED BY
        KAZUYA ISHIMURA (IMS) AND JOSE SIERRA (SYNSTAR).
     S,P,D,L SHELL ROTATED AXIS INTEGRALS PROGRAMMED BY
        KAZUYA ISHIMURA (INSTITUTE FOR MOLECULAR SCIENCE).
     S,P,D,F,G SHELL TO TOTAL QUARTET ANGULAR MOMENTUM SUM 5,
        ERIC PROGRAM BY GRAHAM FLETCHER (ELORET AND NASA ADVANCED
        SUPERCOMPUTING DIVISION, AMES RESEARCH CENTER).
     S,P,D,F,G,L SHELL GENERAL RYS QUADRATURE PROGRAMMED BY
        MICHEL DUPUIS (PACIFIC NORTHWEST NATIONAL LABORATORY).

          --------------------
          2 ELECTRON INTEGRALS
          --------------------

 THE -PK- OPTION IS OFF, THE INTEGRALS ARE NOT IN SUPERMATRIX FORM.
 STORING   15000 INTEGRALS/RECORD ON DISK, USING 12 BYTES/INTEGRAL.
 TWO ELECTRON INTEGRAL EVALUATION REQUIRES   90606 WORDS OF MEMORY.
 II,JST,KST,LST =  1  1  1  1 NREC =         1 INTLOC =    1
 II,JST,KST,LST =  2  1  1  1 NREC =         1 INTLOC =    2
 II,JST,KST,LST =  3  1  1  1 NREC =         1 INTLOC =    7
 II,JST,KST,LST =  4  1  1  1 NREC =         1 INTLOC =   22
 II,JST,KST,LST =  5  1  1  1 NREC =         1 INTLOC =   56
 II,JST,KST,LST =  6  1  1  1 NREC =         1 INTLOC =  125
 II,JST,KST,LST =  7  1  1  1 NREC =         1 INTLOC =  329
 II,JST,KST,LST =  8  1  1  1 NREC =         1 INTLOC =  776
 II,JST,KST,LST =  9  1  1  1 NREC =         1 INTLOC = 2864
 II,JST,KST,LST = 10  1  1  1 NREC =         1 INTLOC = 4968
 II,JST,KST,LST = 11  1  1  1 NREC =         1 INTLOC = 7634
 II,JST,KST,LST = 12  1  1  1 NREC =         1 INTLOC =10751
 II,JST,KST,LST = 13  1  1  1 NREC =         2 INTLOC = 6669
 II,JST,KST,LST = 14  1  1  1 NREC =         3 INTLOC = 6938
 II,JST,KST,LST = 15  1  1  1 NREC =         6 INTLOC = 8944
 II,JST,KST,LST = 16  1  1  1 NREC =         7 INTLOC = 1221
 II,JST,KST,LST = 17  1  1  1 NREC =         7 INTLOC =12658
 II,JST,KST,LST = 18  1  1  1 NREC =         8 INTLOC =11050
 II,JST,KST,LST = 19  1  1  1 NREC =        11 INTLOC = 5241
 II,JST,KST,LST = 20  1  1  1 NREC =        14 INTLOC =12186
 TOTAL NUMBER OF NONZERO TWO-ELECTRON INTEGRALS =              336895
         23 INTEGRAL RECORDS WERE STORED ON DISK FILE  8.
  ...... END OF TWO-ELECTRON INTEGRALS .....
 STEP CPU TIME =     0.10 TOTAL CPU TIME =          0.1 (      0.0 MIN)
 TOTAL WALL CLOCK TIME=          0.1 SECONDS, CPU UTILIZATION IS    93.33%

          --------------------------
               R-PBE SCF CALCULATION
          --------------------------

     NUCLEAR ENERGY =       102.5321668495
     MAXIT =   30     NPUNCH=    2
     EXTRAP=T  DAMP=F  SHIFT=F  RSTRCT=F  DIIS=T  DEM=F  SOSCF=F
         DENSITY MATRIX CONVERGENCE THRESHOLD=  1.00E-05
     COARSE -> FINE DFT GRID SWITCH THRESHOLD=  3.00E-04 (SWITCH IN $DFT)
                   HF -> DFT SWITCH THRESHOLD=  5.00E-03 (SWOFF IN $DFT)
     MEMORY REQUIRED FOR RHF ITERS=    183108 WORDS.

 DFT CODE IS SWITCHING FROM THE FINE GRID NRAD= 96,  NLEB=  302
                      TO THE COARSE GRID NRAD0= 24, NLEB0=  110

     EXCHANGE FUNCTIONAL   =PBE       
     CORRELATION FUNCTIONAL=PBE       
     DFT THRESHOLD         =.460E-07
     GRID CHANGE THRESHOLD =.300E-03
 FOR AN EULER-MACLAURIN QUADRATURE USING  96 RADIAL POINTS:
 SMALLEST GAUSSIAN PRIMITIVE EXPONENT=        0.1001940000 OF TYPE -P-
 ON ATOM NUMBER   1 HAS RADIAL NORMALIZATION=  1.000000
  LARGEST GAUSSIAN PRIMITIVE EXPONENT=    49299.4000000000 OF TYPE -S-
 ON ATOM NUMBER   1 HAS RADIAL NORMALIZATION=  1.000000
 DFT IS SWITCHED OFF, PERFORMING PURE SCF UNTIL SWOFF THRESHOLD IS REACHED.

 ITER EX DEM     TOTAL ENERGY        E CHANGE  DENSITY CHANGE    DIIS ERROR
   1  0  0     -546.0532608577  -546.0532608577   0.660694721   0.871058554
          * * *   INITIATING DIIS PROCEDURE   * * *
   2  1  0     -546.7968053653    -0.7435445076   0.545372307   0.270006931
   3  2  0     -546.8935444531    -0.0967390878   0.196697494   0.275153985
   4  3  0     -547.0701739691    -0.1766295161   0.035969172   0.010446969
   5  4  0     -547.0719484370    -0.0017744679   0.019678738   0.005913788
   6  5  0     -547.0723679708    -0.0004195338   0.009918985   0.002821230
   7  6  0     -547.0724705723    -0.0001026015   0.003493885   0.000843385
 CONVERGED TO SWOFF, SO DFT CALCULATION IS NOW SWITCHED ON.
          * * *   INITIATING DIIS PROCEDURE   * * *
   8  7  0     -548.2222023221    -1.1497317498   0.344373206   0.102526172
   9  8  0     -548.2303279278    -0.0081256057   0.293544926   0.091792639
  10  9  0     -548.2292315482     0.0010963797   0.110978007   0.101685594
  11 10  0     -548.2595131558    -0.0302816076   0.025595506   0.012676774
  12 11  0     -548.2601107446    -0.0005975889   0.001463906   0.000849662
  13 12  0     -548.2601129306    -0.0000021860   0.000440853   0.000188889
  14 13  0     -548.2601130729    -0.0000001423   0.000049965   0.000027965
 DFT CODE IS SWITCHING BACK TO THE FINE GRID
          * * *   INITIATING DIIS PROCEDURE   * * *
  15 14  0     -548.2362654003     0.0238476726   0.013107712   0.009283250
  16 15  0     -548.2365882139    -0.0003228136   0.005740960   0.002824969
  17 16  0     -548.2365869632     0.0000012507   0.004941864   0.002467347
  18 17  0     -548.2365987918    -0.0000118286   0.001500394   0.001438207
  19 18  0     -548.2366043378    -0.0000055460   0.000607505   0.000589808
  20 19  0     -548.2366048532    -0.0000005153   0.000259778   0.000338987
  21 20  0     -548.2366051208    -0.0000002676   0.000022626   0.000007961
  22 21  0     -548.2366051211    -0.0000000003   0.000003312   0.000001391
  23 22  0     -548.2366051211    -0.0000000000   0.000000510   0.000000156

          -----------------
          DENSITY CONVERGED
          -----------------
     TIME TO FORM FOCK OPERATORS=       2.4 SECONDS (       0.1 SEC/ITER)
     TIME TO SOLVE SCF EQUATIONS=       0.0 SECONDS (       0.0 SEC/ITER)

 FINAL R-PBE ENERGY IS     -548.2366051211 AFTER  23 ITERATIONS
 DFT EXCHANGE + CORRELATION ENERGY =       -42.4572312152
 TOTAL ELECTRON NUMBER             =        32.0000173321

          ------------
          EIGENVECTORS
          ------------

                      1          2          3          4          5
                  -88.2269   -18.8148   -18.8148    -7.8401    -5.8667
                     A          A          A          A          A   
    1  S  1  S    0.997753  -0.000020  -0.000001  -0.308364  -0.000000
    2  S  1  S    0.008308   0.000037   0.000001   1.031637   0.000000
    3  S  1  S   -0.003224   0.000467   0.000014   0.028032  -0.000000
    4  S  1  S    0.000589   0.007451   0.000217  -0.005311  -0.000000
    5  S  1  X   -0.000000  -0.000000   0.000006  -0.000000   0.994488
    6  S  1  Y    0.000149  -0.000090  -0.000003   0.012814  -0.000001
    7  S  1  Z    0.000000   0.000000   0.000000   0.000000   0.000000
    8  S  1  X    0.000000   0.000051  -0.001746   0.000000   0.017590
    9  S  1  Y   -0.000403   0.001215   0.000035   0.001349  -0.000000
   10  S  1  Z    0.000000   0.000000   0.000000   0.000000   0.000000
   11  S  1  X    0.000000   0.000139  -0.004780   0.000000  -0.002361
   12  S  1  Y   -0.000030   0.002420   0.000070  -0.000234  -0.000000
   13  S  1  Z    0.000000   0.000000   0.000000   0.000000   0.000000
   14  S  1 XX   -0.000419   0.000213   0.000006   0.001066  -0.000000
   15  S  1 YY    0.000154   0.000120   0.000004  -0.000514   0.000000
   16  S  1 ZZ    0.000264  -0.000333  -0.000010  -0.000552   0.000000
   17  S  1 XY    0.000000  -0.000002   0.000066  -0.000000   0.001496
   18  S  1 XZ    0.000000   0.000000   0.000000   0.000000   0.000000
   19  S  1 YZ    0.000000   0.000000   0.000000   0.000000   0.000000
   20  O  2  S   -0.000021   0.722464  -0.681550  -0.000081  -0.000410
   21  O  2  S   -0.000195   0.024686  -0.023192  -0.000105   0.000081
   22  O  2  S    0.000634  -0.012242   0.011356  -0.000633  -0.001000
   23  O  2  X   -0.000079  -0.001080   0.000832   0.000181  -0.000559
   24  O  2  Y   -0.000037  -0.000194   0.000432   0.000075  -0.000246
   25  O  2  Z    0.000000   0.000000   0.000000   0.000000   0.000000
   26  O  2  X   -0.000554   0.003248  -0.001627   0.001031   0.001073
   27  O  2  Y   -0.000232   0.000383  -0.001485   0.000491   0.000463
   28  O  2  Z    0.000000   0.000000   0.000000   0.000000   0.000000
   29  O  2 XX    0.000240  -0.000349   0.000057   0.000077   0.000774
   30  O  2 YY   -0.000075   0.000171   0.000056  -0.000050  -0.000226
   31  O  2 ZZ   -0.000164   0.000177  -0.000112  -0.000027  -0.000548
   32  O  2 XY    0.000210  -0.000102   0.000207   0.000006   0.000730
   33  O  2 XZ    0.000000   0.000000   0.000000   0.000000   0.000000
   34  O  2 YZ    0.000000   0.000000   0.000000   0.000000   0.000000
   35  O  3  S   -0.000021   0.681558   0.722456  -0.000081   0.000410
   36  O  3  S   -0.000195   0.023294   0.024589  -0.000105  -0.000082
   37  O  3  S    0.000634  -0.011560  -0.012049  -0.000633   0.001001
   38  O  3  X    0.000079   0.001030   0.000894  -0.000181  -0.000559
   39  O  3  Y   -0.000037  -0.000169  -0.000443   0.000075   0.000246
   40  O  3  Z    0.000000   0.000000   0.000000   0.000000   0.000000
   41  O  3  X    0.000554  -0.003148  -0.001813  -0.001031   0.001073
   42  O  3  Y   -0.000232   0.000296   0.001505   0.000491  -0.000463
   43  O  3  Z    0.000000   0.000000   0.000000   0.000000   0.000000
   44  O  3 XX    0.000240  -0.000345  -0.000077   0.000077  -0.000774
   45  O  3 YY   -0.000075   0.000174  -0.000046  -0.000050   0.000226
   46  O  3 ZZ   -0.000164   0.000170   0.000122  -0.000027   0.000548
   47  O  3 XY   -0.000210   0.000090   0.000213  -0.000006   0.000730
   48  O  3 XZ    0.000000   0.000000   0.000000   0.000000   0.000000
   49  O  3 YZ    0.000000   0.000000   0.000000   0.000000   0.000000

                      6          7          8          9         10
                   -5.8650    -5.8600    -1.0353    -0.9675    -0.5906
                     A          A          A          A          A   
    1  S  1  S    0.000000   0.004042   0.050853   0.000000   0.065028
    2  S  1  S    0.000000  -0.013935  -0.312111  -0.000000  -0.416779
    3  S  1  S    0.000000   0.000288   0.434349  -0.000000   0.646033
    4  S  1  S    0.000000   0.000379   0.063275   0.000005   0.223197
    5  S  1  X    0.000000   0.000001  -0.000000   0.133265   0.000000
    6  S  1  Y    0.000000   0.994917  -0.049862  -0.000000   0.020089
    7  S  1  Z    0.994990   0.000000   0.000000   0.000000   0.000000
    8  S  1  X    0.000000   0.000000   0.000002  -0.296947  -0.000000
    9  S  1  Y    0.000000   0.015775   0.109411   0.000001  -0.041457
   10  S  1  Z    0.015841   0.000000   0.000000   0.000000   0.000000
   11  S  1  X    0.000000   0.000000   0.000003   0.014687  -0.000002
   12  S  1  Y    0.000000  -0.002782  -0.014510   0.000002  -0.032054
   13  S  1  Z   -0.003011   0.000000   0.000000   0.000000   0.000000
   14  S  1 XX    0.000000  -0.000459   0.059161   0.000001  -0.017429
   15  S  1 YY    0.000000   0.001010  -0.021539  -0.000000   0.000585
   16  S  1 ZZ    0.000000  -0.000550  -0.037622  -0.000001   0.016845
   17  S  1 XY    0.000000   0.000000   0.000001  -0.065780  -0.000000
   18  S  1 XZ    0.000000   0.000000   0.000000   0.000000   0.000000
   19  S  1 YZ    0.000849   0.000000   0.000000   0.000000   0.000000
   20  O  2  S    0.000000  -0.000178  -0.136735   0.160428   0.116063
   21  O  2  S    0.000000   0.000041   0.278737  -0.332468  -0.247883
   22  O  2  S    0.000000  -0.000120   0.245349  -0.289451  -0.327114
   23  O  2  X    0.000000  -0.000332  -0.107046   0.100345  -0.162019
   24  O  2  Y    0.000000  -0.000158  -0.038306   0.041216  -0.075530
   25  O  2  Z   -0.000033   0.000000   0.000000   0.000000   0.000000
   26  O  2  X    0.000000   0.000417  -0.035934   0.018234  -0.077475
   27  O  2  Y    0.000000  -0.000141  -0.008886   0.008800  -0.030311
   28  O  2  Z   -0.000190   0.000000   0.000000   0.000000   0.000000
   29  O  2 XX    0.000000   0.000375   0.011205  -0.007115   0.007039
   30  O  2 YY    0.000000  -0.000120  -0.006356   0.003336  -0.001184
   31  O  2 ZZ    0.000000  -0.000256  -0.004849   0.003779  -0.005855
   32  O  2 XY    0.000000   0.000404   0.005329  -0.007169   0.006786
   33  O  2 XZ    0.000050   0.000000   0.000000   0.000000   0.000000
   34  O  2 YZ   -0.000004   0.000000   0.000000   0.000000   0.000000
   35  O  3  S    0.000000  -0.000178  -0.136735  -0.160428   0.116063
   36  O  3  S    0.000000   0.000041   0.278735   0.332470  -0.247883
   37  O  3  S    0.000000  -0.000120   0.245356   0.289444  -0.327117
   38  O  3  X    0.000000   0.000332   0.107046   0.100345   0.162019
   39  O  3  Y    0.000000  -0.000158  -0.038305  -0.041215  -0.075531
   40  O  3  Z   -0.000033   0.000000   0.000000   0.000000   0.000000
   41  O  3  X    0.000000  -0.000417   0.035936   0.018231   0.077475
   42  O  3  Y    0.000000  -0.000141  -0.008888  -0.008800  -0.030310
   43  O  3  Z   -0.000190   0.000000   0.000000   0.000000   0.000000
   44  O  3 XX    0.000000   0.000375   0.011206   0.007115   0.007039
   45  O  3 YY    0.000000  -0.000120  -0.006356  -0.003336  -0.001184
   46  O  3 ZZ    0.000000  -0.000256  -0.004849  -0.003779  -0.005855
   47  O  3 XY    0.000000  -0.000404  -0.005329  -0.007169  -0.006786
   48  O  3 XZ   -0.000050   0.000000   0.000000   0.000000   0.000000
   49  O  3 YZ   -0.000004   0.000000   0.000000   0.000000   0.000000

                     11         12         13         14         15
                   -0.4485    -0.4391    -0.4317    -0.3406    -0.3260
                     A          A          A          A          A   
    1  S  1  S   -0.000000   0.000000  -0.009921   0.000000  -0.000000
    2  S  1  S    0.000000   0.000000   0.063232   0.000000   0.000000
    3  S  1  S   -0.000001   0.000000  -0.082389   0.000000  -0.000000
    4  S  1  S   -0.000000   0.000000  -0.129672   0.000000   0.000001
    5  S  1  X   -0.174490   0.000000   0.000000   0.000000  -0.016234
    6  S  1  Y   -0.000000   0.000000  -0.206088   0.000000   0.000000
    7  S  1  Z    0.000000  -0.212439   0.000000  -0.000000   0.000000
    8  S  1  X    0.472947   0.000000  -0.000000   0.000000   0.039488
    9  S  1  Y    0.000000   0.000000   0.548372   0.000000  -0.000000
   10  S  1  Z    0.000000   0.568949   0.000000   0.000000   0.000000
   11  S  1  X   -0.028784   0.000000   0.000001   0.000000   0.081353
   12  S  1  Y    0.000000   0.000000   0.112236   0.000000   0.000001
   13  S  1  Z    0.000000   0.133998   0.000000  -0.000000   0.000000
   14  S  1 XX   -0.000000   0.000000  -0.041639   0.000000   0.000000
   15  S  1 YY    0.000000   0.000000   0.058602   0.000000  -0.000000
   16  S  1 ZZ    0.000000   0.000000  -0.016963   0.000000  -0.000000
   17  S  1 XY    0.043656   0.000000   0.000000   0.000000  -0.120984
   18  S  1 XZ    0.000000   0.000000   0.000000   0.127428   0.000000
   19  S  1 YZ    0.000000   0.044975   0.000000  -0.000000   0.000000
   20  O  2  S    0.073297   0.000000   0.019339   0.000000  -0.000121
   21  O  2  S   -0.154203   0.000000  -0.041471   0.000000   0.000799
   22  O  2  S   -0.250438   0.000000  -0.065511   0.000000  -0.020894
   23  O  2  X   -0.330407   0.000000  -0.221878   0.000000   0.252180
   24  O  2  Y   -0.185718   0.000000   0.224264   0.000000  -0.391531
   25  O  2  Z    0.000000   0.309548   0.000000   0.463186   0.000000
   26  O  2  X   -0.153353   0.000000  -0.132544   0.000000   0.163226
   27  O  2  Y   -0.099671   0.000000   0.138814   0.000000  -0.274466
   28  O  2  Z    0.000000   0.184711   0.000000   0.325061   0.000000
   29  O  2 XX    0.009142   0.000000   0.018557   0.000000  -0.010651
   30  O  2 YY   -0.000689   0.000000  -0.013610   0.000000   0.011810
   31  O  2 ZZ   -0.008453   0.000000  -0.004947   0.000000  -0.001159
   32  O  2 XY    0.013141   0.000000  -0.009576   0.000000   0.015752
   33  O  2 XZ    0.000000  -0.020602   0.000000  -0.018510   0.000000
   34  O  2 YZ    0.000000  -0.007556   0.000000  -0.007574   0.000000
   35  O  3  S   -0.073297   0.000000   0.019339   0.000000   0.000121
   36  O  3  S    0.154201   0.000000  -0.041472   0.000000  -0.000799
   37  O  3  S    0.250438   0.000000  -0.065511   0.000000   0.020892
   38  O  3  X   -0.330407   0.000000   0.221879   0.000000   0.252179
   39  O  3  Y    0.185719   0.000000   0.224264   0.000000   0.391531
   40  O  3  Z    0.000000   0.309549   0.000000  -0.463186   0.000000
   41  O  3  X   -0.153352   0.000000   0.132546   0.000000   0.163225
   42  O  3  Y    0.099671   0.000000   0.138814   0.000000   0.274466
   43  O  3  Z    0.000000   0.184711   0.000000  -0.325061   0.000000
   44  O  3 XX   -0.009142   0.000000   0.018557   0.000000   0.010651
   45  O  3 YY    0.000689   0.000000  -0.013610   0.000000  -0.011810
   46  O  3 ZZ    0.008453   0.000000  -0.004947   0.000000   0.001159
   47  O  3 XY    0.013141   0.000000   0.009576   0.000000   0.015752
   48  O  3 XZ    0.000000   0.020602   0.000000  -0.018510   0.000000
   49  O  3 YZ    0.000000  -0.007556   0.000000   0.007574   0.000000

                     16         17         18         19         20
                   -0.2719    -0.1711    -0.0618     0.0747     0.2102
                     A          A          A          A          A   
    1  S  1  S    0.025481   0.000000   0.023469  -0.000000   0.000000
    2  S  1  S   -0.165258   0.000000  -0.157083   0.000000   0.000000
    3  S  1  S    0.200966   0.000000   0.206510  -0.000003   0.000000
    4  S  1  S    0.515984   0.000000   0.640320  -0.000005   0.000000
    5  S  1  X   -0.000000   0.000000  -0.000000  -0.149409   0.000000
    6  S  1  Y    0.111294   0.000000  -0.192748  -0.000000   0.000000
    7  S  1  Z    0.000000  -0.229230   0.000000   0.000000   0.245381
    8  S  1  X    0.000000   0.000000   0.000001   0.471561   0.000000
    9  S  1  Y   -0.307636   0.000000   0.605798  -0.000001   0.000000
   10  S  1  Z    0.000000   0.682977   0.000000   0.000000  -0.970091
   11  S  1  X   -0.000001   0.000000  -0.000007   1.249503   0.000000
   12  S  1  Y   -0.035069   0.000000   0.498893   0.000000   0.000000
   13  S  1  Z    0.000000   0.316812   0.000000   0.000000   1.312491
   14  S  1 XX   -0.164344   0.000000  -0.155776  -0.000004   0.000000
   15  S  1 YY    0.086664   0.000000   0.012413   0.000001   0.000000
   16  S  1 ZZ    0.077680   0.000000   0.143362   0.000003   0.000000
   17  S  1 XY    0.000000   0.000000   0.000001  -0.188853   0.000000
   18  S  1 XZ    0.000000   0.000000   0.000000   0.000000   0.000000
   19  S  1 YZ    0.000000  -0.041855   0.000000   0.000000  -0.088829
   20  O  2  S    0.007654   0.000000   0.044733   0.065984   0.000000
   21  O  2  S   -0.018967   0.000000  -0.101592  -0.125363   0.000000
   22  O  2  S   -0.071320   0.000000  -0.321941  -0.671644   0.000000
   23  O  2  X    0.175997   0.000000   0.357281   0.089234   0.000000
   24  O  2  Y    0.386752   0.000000  -0.147526   0.225514   0.000000
   25  O  2  Z    0.000000  -0.392271   0.000000   0.000000  -0.044394
   26  O  2  X    0.117803   0.000000   0.334682   0.145169   0.000000
   27  O  2  Y    0.277861   0.000000  -0.133515   0.229838   0.000000
   28  O  2  Z    0.000000  -0.323985   0.000000   0.000000  -0.122158
   29  O  2 XX   -0.000986   0.000000   0.001388  -0.005127   0.000000
   30  O  2 YY   -0.001961   0.000000  -0.003798   0.006116   0.000000
   31  O  2 ZZ    0.002946   0.000000   0.002410  -0.000989   0.000000
   32  O  2 XY   -0.008704   0.000000  -0.003345   0.003285   0.000000
   33  O  2 XZ    0.000000   0.001695   0.000000   0.000000   0.019860
   34  O  2 YZ    0.000000  -0.000539   0.000000   0.000000   0.005877
   35  O  3  S    0.007654   0.000000   0.044734  -0.065982   0.000000
   36  O  3  S   -0.018968   0.000000  -0.101595   0.125352   0.000000
   37  O  3  S   -0.071320   0.000000  -0.321945   0.671660   0.000000
   38  O  3  X   -0.175997   0.000000  -0.357282   0.089228   0.000000
   39  O  3  Y    0.386752   0.000000  -0.147525  -0.225515   0.000000
   40  O  3  Z    0.000000  -0.392271   0.000000   0.000000  -0.044394
   41  O  3  X   -0.117803   0.000000  -0.334680   0.145179   0.000000
   42  O  3  Y    0.277861   0.000000  -0.133514  -0.229842   0.000000
   43  O  3  Z    0.000000  -0.323985   0.000000   0.000000  -0.122158
   44  O  3 XX   -0.000986   0.000000   0.001388   0.005128   0.000000
   45  O  3 YY   -0.001960   0.000000  -0.003798  -0.006116   0.000000
   46  O  3 ZZ    0.002946   0.000000   0.002410   0.000988   0.000000
   47  O  3 XY    0.008704   0.000000   0.003345   0.003285   0.000000
   48  O  3 XZ    0.000000  -0.001695   0.000000   0.000000  -0.019860
   49  O  3 YZ    0.000000  -0.000539   0.000000   0.000000   0.005877

                     21         22         23         24         25
                    0.2215     0.2516     0.3140     0.5111     0.5159
                     A          A          A          A          A   
    1  S  1  S    0.015862  -0.068037  -0.000000   0.000000   0.001214
    2  S  1  S   -0.115900   0.497518   0.000003   0.000000  -0.008389
    3  S  1  S    0.390709  -1.867013  -0.000013   0.000000   0.004242
    4  S  1  S   -0.334470   2.182856   0.000003   0.000000   0.093145
    5  S  1  X   -0.000001  -0.000003   0.301104   0.000000  -0.000000
    6  S  1  Y    0.246240   0.041252   0.000001   0.000000   0.020085
    7  S  1  Z    0.000000   0.000000   0.000000   0.024977   0.000000
    8  S  1  X    0.000003   0.000012  -1.146278   0.000000   0.000001
    9  S  1  Y   -0.967382  -0.140275  -0.000004   0.000000  -0.085248
   10  S  1  Z    0.000000   0.000000   0.000000  -0.106652   0.000000
   11  S  1  X   -0.000001  -0.000005   1.259226   0.000000   0.000000
   12  S  1  Y    1.276570   0.421895   0.000002   0.000000   0.126767
   13  S  1  Z    0.000000   0.000000   0.000000   0.108045   0.000000
   14  S  1 XX    0.120226   0.091349  -0.000004   0.000000  -0.078513
   15  S  1 YY   -0.119059  -0.067049   0.000001   0.000000   0.862107
   16  S  1 ZZ   -0.001168  -0.024300   0.000003   0.000000  -0.783594
   17  S  1 XY    0.000000   0.000001   0.292847   0.000000   0.000001
   18  S  1 XZ    0.000000   0.000000   0.000000  -0.000000   0.000000
   19  S  1 YZ    0.000000   0.000000   0.000000   0.962528   0.000000
   20  O  2  S    0.003102   0.017790  -0.003174   0.000000   0.007156
   21  O  2  S    0.016389  -0.002832   0.070352   0.000000  -0.028041
   22  O  2  S   -0.125014  -0.472131  -0.342355   0.000000  -0.039607
   23  O  2  X   -0.049019  -0.173782  -0.262947   0.000000   0.082074
   24  O  2  Y   -0.032084  -0.105160  -0.158077   0.000000  -0.197091
   25  O  2  Z    0.000000   0.000000   0.000000  -0.188391   0.000000
   26  O  2  X    0.007701   0.118471  -0.121309   0.000000   0.014068
   27  O  2  Y   -0.104380   0.012224  -0.046383   0.000000   0.073354
   28  O  2  Z    0.000000   0.000000   0.000000   0.052033   0.000000
   29  O  2 XX   -0.019018  -0.037181  -0.023329   0.000000   0.016284
   30  O  2 YY    0.013913   0.013578  -0.001322   0.000000   0.008500
   31  O  2 ZZ    0.005105   0.023602   0.024651   0.000000  -0.024784
   32  O  2 XY    0.010890  -0.024921  -0.039404   0.000000  -0.032835
   33  O  2 XZ    0.000000   0.000000   0.000000  -0.033767   0.000000
   34  O  2 YZ    0.000000   0.000000   0.000000   0.020591   0.000000
   35  O  3  S    0.003102   0.017790   0.003175   0.000000   0.007156
   36  O  3  S    0.016388  -0.002840  -0.070360   0.000000  -0.028042
   37  O  3  S   -0.125011  -0.472119   0.342367   0.000000  -0.039605
   38  O  3  X    0.049019   0.173782  -0.262949   0.000000  -0.082074
   39  O  3  Y   -0.032085  -0.105162   0.158076   0.000000  -0.197091
   40  O  3  Z    0.000000   0.000000   0.000000  -0.188392   0.000000
   41  O  3  X   -0.007698  -0.118458  -0.121298   0.000000  -0.014066
   42  O  3  Y   -0.104381   0.012220   0.046380   0.000000   0.073354
   43  O  3  Z    0.000000   0.000000   0.000000   0.052033   0.000000
   44  O  3 XX   -0.019018  -0.037180   0.023329   0.000000   0.016284
   45  O  3 YY    0.013913   0.013578   0.001322   0.000000   0.008500
   46  O  3 ZZ    0.005105   0.023602  -0.024651   0.000000  -0.024784
   47  O  3 XY   -0.010890   0.024921  -0.039404   0.000000   0.032835
   48  O  3 XZ    0.000000   0.000000   0.000000   0.033767   0.000000
   49  O  3 YZ    0.000000   0.000000   0.000000   0.020591   0.000000

                     26         27         28         29         30
                    0.5389     0.6476     0.6521     0.7703     0.8013
                     A          A          A          A          A   
    1  S  1  S    0.000000   0.000000   0.019811   0.000000   0.000000
    2  S  1  S    0.000000  -0.000001  -0.159725   0.000000  -0.000000
    3  S  1  S    0.000000   0.000001   0.647297   0.000000   0.000002
    4  S  1  S    0.000000  -0.000009   0.835868   0.000000   0.000003
    5  S  1  X    0.000000  -0.182149   0.000000   0.000000   0.031599
    6  S  1  Y    0.000000   0.000000  -0.080052   0.000000  -0.000000
    7  S  1  Z    0.000000   0.000000   0.000000   0.000000   0.000000
    8  S  1  X    0.000000   0.984444   0.000002   0.000000  -0.237326
    9  S  1  Y    0.000000  -0.000001   0.449795   0.000000   0.000001
   10  S  1  Z   -0.000000   0.000000   0.000000  -0.000000   0.000000
   11  S  1  X    0.000000   0.111680   0.000006   0.000000   0.271350
   12  S  1  Y    0.000000  -0.000002   0.083124   0.000000  -0.000002
   13  S  1  Z    0.000000   0.000000   0.000000   0.000000   0.000000
   14  S  1 XX    0.000000  -0.000000   0.629293   0.000000   0.000001
   15  S  1 YY    0.000000  -0.000000  -0.216827   0.000000  -0.000001
   16  S  1 ZZ    0.000000   0.000000  -0.412466   0.000000   0.000001
   17  S  1 XY    0.000000   0.664368   0.000001   0.000000  -0.249669
   18  S  1 XZ    0.872416   0.000000   0.000000  -0.515507   0.000000
   19  S  1 YZ    0.000001   0.000000   0.000000   0.000000   0.000000
   20  O  2  S    0.000000   0.065612   0.070417   0.000000   0.006503
   21  O  2  S    0.000000  -0.204982  -0.220267   0.000000  -0.114864
   22  O  2  S    0.000000  -0.375717  -0.418710   0.000000   0.132742
   23  O  2  X    0.000000  -0.097585  -0.333531   0.000000   0.316760
   24  O  2  Y    0.000000  -0.256836   0.012930   0.000000  -0.519122
   25  O  2  Z   -0.373165   0.000000   0.000000  -0.540329   0.000000
   26  O  2  X    0.000000   0.820563   1.010407   0.000000  -0.592422
   27  O  2  Y    0.000000   0.475570   0.298885   0.000000   0.615832
   28  O  2  Z    0.104638   0.000000   0.000000   0.790566   0.000000
   29  O  2 XX    0.000000   0.042815   0.001888   0.000000  -0.034734
   30  O  2 YY    0.000000  -0.030904   0.008623   0.000000   0.023110
   31  O  2 ZZ    0.000000  -0.011911  -0.010511   0.000000   0.011625
   32  O  2 XY    0.000000   0.004864   0.015276   0.000000   0.008702
   33  O  2 XZ   -0.053551   0.000000   0.000000   0.054126   0.000000
   34  O  2 YZ   -0.035585   0.000000   0.000000   0.029848   0.000000
   35  O  3  S    0.000000  -0.065612   0.070417   0.000000  -0.006502
   36  O  3  S    0.000000   0.204978  -0.220271   0.000000   0.114854
   37  O  3  S    0.000000   0.375727  -0.418697   0.000000  -0.132734
   38  O  3  X    0.000000  -0.097590   0.333520   0.000000   0.316767
   39  O  3  Y    0.000000   0.256839   0.012927   0.000000   0.519114
   40  O  3  Z    0.373164   0.000000   0.000000   0.540329   0.000000
   41  O  3  X    0.000000   0.820572  -1.010390   0.000000  -0.592432
   42  O  3  Y    0.000000  -0.475575   0.298887   0.000000  -0.615821
   43  O  3  Z   -0.104638   0.000000   0.000000  -0.790566   0.000000
   44  O  3 XX    0.000000  -0.042815   0.001888   0.000000   0.034734
   45  O  3 YY    0.000000   0.030904   0.008623   0.000000  -0.023110
   46  O  3 ZZ    0.000000   0.011911  -0.010511   0.000000  -0.011625
   47  O  3 XY    0.000000   0.004864  -0.015276   0.000000   0.008702
   48  O  3 XZ   -0.053551   0.000000   0.000000   0.054126   0.000000
   49  O  3 YZ    0.035585   0.000000   0.000000  -0.029848   0.000000

                     31         32         33         34         35
                    0.8271     0.8579     0.9198     0.9859     1.4548
                     A          A          A          A          A   
    1  S  1  S    0.005275   0.000000  -0.000000   0.003019  -0.000000
    2  S  1  S   -0.046172   0.000000   0.000000  -0.006567   0.000003
    3  S  1  S    0.261637   0.000000   0.000002  -0.363880   0.000005
    4  S  1  S    0.020645   0.000000  -0.000007   0.570399  -0.000192
    5  S  1  X   -0.000000   0.000000  -0.067847  -0.000000  -0.068986
    6  S  1  Y   -0.006630   0.000000   0.000000  -0.055060   0.000005
    7  S  1  Z    0.000000   0.003374   0.000000   0.000000   0.000000
    8  S  1  X    0.000002   0.000000   0.046980   0.000001   0.559589
    9  S  1  Y    0.042058   0.000000  -0.000001   0.156829  -0.000033
   10  S  1  Z    0.000000  -0.044775   0.000000   0.000000   0.000000
   11  S  1  X   -0.000002   0.000000   0.271655   0.000007   1.143422
   12  S  1  Y   -0.567668   0.000000  -0.000003   0.020528  -0.000064
   13  S  1  Z    0.000000  -0.620660   0.000000   0.000000   0.000000
   14  S  1 XX    0.209152   0.000000  -0.000003   0.945374  -0.000034
   15  S  1 YY   -0.337456   0.000000   0.000000  -0.366940   0.000006
   16  S  1 ZZ    0.128305   0.000000   0.000002  -0.578434   0.000028
   17  S  1 XY    0.000001   0.000000   0.764905   0.000002   0.189982
   18  S  1 XZ    0.000000  -0.000000   0.000000   0.000000   0.000000
   19  S  1 YZ    0.000000  -0.267147   0.000000   0.000000   0.000000
   20  O  2  S   -0.010726   0.000000   0.022225   0.031335  -0.075515
   21  O  2  S    0.135045   0.000000  -0.068292  -0.081808   1.257312
   22  O  2  S   -0.122985   0.000000  -0.221299  -0.321346  -2.061605
   23  O  2  X    0.142493   0.000000   0.564585   0.508173   0.038342
   24  O  2  Y   -0.570160   0.000000   0.212097   0.239071  -0.098165
   25  O  2  Z    0.000000  -0.613667   0.000000   0.000000   0.000000
   26  O  2  X   -0.110263   0.000000  -0.405255  -0.270542   0.333161
   27  O  2  Y    0.912581   0.000000  -0.287028  -0.001964   0.403623
   28  O  2  Z    0.000000   0.941361   0.000000   0.000000   0.000000
   29  O  2 XX   -0.012227   0.000000   0.041536  -0.052128   0.090241
   30  O  2 YY    0.013370   0.000000  -0.060947   0.064468  -0.017622
   31  O  2 ZZ   -0.001143   0.000000   0.019412  -0.012340  -0.072619
   32  O  2 XY    0.043993   0.000000  -0.055676   0.046202   0.115902
   33  O  2 XZ    0.000000   0.043620   0.000000   0.000000   0.000000
   34  O  2 YZ    0.000000   0.005724   0.000000   0.000000   0.000000
   35  O  3  S   -0.010726   0.000000  -0.022224   0.031336   0.075529
   36  O  3  S    0.135047   0.000000   0.068277  -0.081823  -1.257562
   37  O  3  S   -0.122987   0.000000   0.221320  -0.321323   2.062026
   38  O  3  X   -0.142498   0.000000   0.564590  -0.508166   0.038330
   39  O  3  Y   -0.570163   0.000000  -0.212101   0.239073   0.098146
   40  O  3  Z    0.000000  -0.613668   0.000000   0.000000   0.000000
   41  O  3  X    0.110271   0.000000  -0.405256   0.270536   0.333310
   42  O  3  Y    0.912585   0.000000   0.287033  -0.001968  -0.403623
   43  O  3  Z    0.000000   0.941361   0.000000   0.000000   0.000000
   44  O  3 XX   -0.012227   0.000000  -0.041535  -0.052128  -0.090271
   45  O  3 YY    0.013370   0.000000   0.060947   0.064468   0.017635
   46  O  3 ZZ   -0.001143   0.000000  -0.019412  -0.012341   0.072636
   47  O  3 XY   -0.043993   0.000000  -0.055676  -0.046203   0.115914
   48  O  3 XZ    0.000000  -0.043621   0.000000   0.000000   0.000000
   49  O  3 YZ    0.000000   0.005724   0.000000   0.000000   0.000000

                     36         37         38         39         40
                    1.4681     2.0557     2.0557     2.0665     2.0772
                     A          A          A          A          A   
    1  S  1  S   -0.003140   0.000000  -0.000000   0.000000  -0.001066
    2  S  1  S    0.036643   0.000000   0.000000   0.000000   0.009835
    3  S  1  S   -0.008867   0.000000  -0.000000   0.000000  -0.049554
    4  S  1  S   -1.789422   0.000000   0.000000   0.000000   0.020748
    5  S  1  X    0.000007   0.000000  -0.001409   0.000000  -0.000000
    6  S  1  Y    0.040724   0.000000   0.000000   0.000000   0.006297
    7  S  1  Z    0.000000  -0.000000   0.000000  -0.024384   0.000000
    8  S  1  X   -0.000056   0.000000  -0.001532   0.000000   0.000000
    9  S  1  Y   -0.310810   0.000000  -0.000000   0.000000  -0.031112
   10  S  1  Z    0.000000   0.000000   0.000000   0.090138   0.000000
   11  S  1  X   -0.000127   0.000000   0.021139   0.000000  -0.000001
   12  S  1  Y   -0.595027   0.000000   0.000000   0.000000   0.010906
   13  S  1  Z    0.000000  -0.000000   0.000000   0.004690   0.000000
   14  S  1 XX   -0.276093   0.000000   0.000000   0.000000   0.046681
   15  S  1 YY    0.040691   0.000000   0.000000   0.000000   0.061732
   16  S  1 ZZ    0.235402   0.000000  -0.000000   0.000000  -0.108413
   17  S  1 XY   -0.000023   0.000000  -0.031171   0.000000  -0.000000
   18  S  1 XZ    0.000000   0.026191   0.000000  -0.000000   0.000000
   19  S  1 YZ    0.000000  -0.000000   0.000000  -0.036858   0.000000
   20  O  2  S    0.070696   0.000000  -0.001002   0.000000   0.003087
   21  O  2  S   -1.235627   0.000000   0.008859   0.000000  -0.025679
   22  O  2  S    2.038698   0.000000  -0.010779   0.000000   0.011716
   23  O  2  X    0.077468   0.000000   0.006447   0.000000   0.023928
   24  O  2  Y   -0.079744   0.000000  -0.011844   0.000000   0.006190
   25  O  2  Z    0.000000   0.007233   0.000000   0.019806   0.000000
   26  O  2  X   -0.727660   0.000000  -0.017557   0.000000  -0.023191
   27  O  2  Y   -0.004318   0.000000   0.016514   0.000000  -0.005467
   28  O  2  Z    0.000000  -0.011769   0.000000  -0.032000   0.000000
   29  O  2 XX   -0.160590   0.000000   0.185927   0.000000  -0.027596
   30  O  2 YY    0.074029   0.000000   0.423318   0.000000  -0.565973
   31  O  2 ZZ    0.086562   0.000000  -0.609245   0.000000   0.593569
   32  O  2 XY   -0.052836   0.000000  -0.332389   0.000000   0.226598
   33  O  2 XZ    0.000000   0.371979   0.000000  -0.016545   0.000000
   34  O  2 YZ    0.000000  -0.601608   0.000000   0.708245   0.000000
   35  O  3  S    0.070681   0.000000   0.001002   0.000000   0.003087
   36  O  3  S   -1.235374   0.000000  -0.008859   0.000000  -0.025678
   37  O  3  S    2.038272   0.000000   0.010778   0.000000   0.011715
   38  O  3  X   -0.077481   0.000000   0.006447   0.000000  -0.023928
   39  O  3  Y   -0.079765   0.000000   0.011845   0.000000   0.006190
   40  O  3  Z    0.000000  -0.007233   0.000000   0.019806   0.000000
   41  O  3  X    0.727598   0.000000  -0.017557   0.000000   0.023191
   42  O  3  Y   -0.004232   0.000000  -0.016514   0.000000  -0.005466
   43  O  3  Z    0.000000   0.011769   0.000000  -0.032000   0.000000
   44  O  3 XX   -0.160571   0.000000  -0.185926   0.000000  -0.027596
   45  O  3 YY    0.074024   0.000000  -0.423319   0.000000  -0.565972
   46  O  3 ZZ    0.086547   0.000000   0.609246   0.000000   0.593568
   47  O  3 XY    0.052813   0.000000  -0.332389   0.000000  -0.226598
   48  O  3 XZ    0.000000   0.371979   0.000000   0.016544   0.000000
   49  O  3 YZ    0.000000   0.601610   0.000000   0.708243   0.000000

                     41         42         43         44         45
                    2.1573     2.2024     2.2990     2.3103     2.7459
                     A          A          A          A          A   
    1  S  1  S    0.000000  -0.000000  -0.005597   0.000000  -0.038508
    2  S  1  S    0.000000   0.000000   0.050475   0.000000   0.321919
    3  S  1  S    0.000000  -0.000001  -0.186637   0.000000  -0.985024
    4  S  1  S    0.000000   0.000001  -0.238304   0.000000  -0.899452
    5  S  1  X    0.000000   0.045069  -0.000000   0.000000  -0.000000
    6  S  1  Y    0.000000   0.000000   0.076933   0.000000   0.088947
    7  S  1  Z    0.064241   0.000000   0.000000  -0.000000   0.000000
    8  S  1  X    0.000000  -0.257669   0.000001   0.000000   0.000002
    9  S  1  Y    0.000000  -0.000000  -0.337236   0.000000  -0.546845
   10  S  1  Z   -0.237347   0.000000   0.000000   0.000000   0.000000
   11  S  1  X    0.000000  -0.035700  -0.000002   0.000000  -0.000003
   12  S  1  Y    0.000000   0.000000  -0.149657   0.000000  -0.089866
   13  S  1  Z   -0.063806   0.000000   0.000000  -0.000000   0.000000
   14  S  1 XX    0.000000   0.000000   0.259046   0.000000  -0.765400
   15  S  1 YY    0.000000  -0.000000  -0.318574   0.000000   0.314643
   16  S  1 ZZ    0.000000  -0.000000   0.059527   0.000000   0.450758
   17  S  1 XY    0.000000   0.347298  -0.000000   0.000000  -0.000000
   18  S  1 XZ    0.000000   0.000000   0.000000   0.498290   0.000000
   19  S  1 YZ   -0.228111   0.000000   0.000000   0.000000   0.000000
   20  O  2  S    0.000000   0.011210   0.013531   0.000000  -0.001893
   21  O  2  S    0.000000  -0.162346  -0.240101   0.000000  -0.513121
   22  O  2  S    0.000000   0.205306   0.365698   0.000000   1.241964
   23  O  2  X    0.000000   0.057739   0.098192   0.000000  -0.029494
   24  O  2  Y    0.000000   0.071410  -0.026100   0.000000  -0.022075
   25  O  2  Z   -0.060793   0.000000   0.000000   0.035507   0.000000
   26  O  2  X    0.000000  -0.074513  -0.257554   0.000000  -0.689687
   27  O  2  Y    0.000000  -0.166261   0.120864   0.000000  -0.302877
   28  O  2  Z    0.143376   0.000000   0.000000  -0.154701   0.000000
   29  O  2 XX    0.000000  -0.336873   0.547394   0.000000   0.541132
   30  O  2 YY    0.000000   0.500857  -0.424390   0.000000  -0.111235
   31  O  2 ZZ    0.000000  -0.163984  -0.123003   0.000000  -0.429897
   32  O  2 XY    0.000000   0.509876  -0.451372   0.000000   0.613304
   33  O  2 XZ   -0.724440   0.000000   0.000000   0.635328   0.000000
   34  O  2 YZ   -0.025058   0.000000   0.000000   0.385662   0.000000
   35  O  3  S    0.000000  -0.011210   0.013531   0.000000  -0.001893
   36  O  3  S    0.000000   0.162346  -0.240099   0.000000  -0.513122
   37  O  3  S    0.000000  -0.205307   0.365695   0.000000   1.241964
   38  O  3  X    0.000000   0.057739  -0.098193   0.000000   0.029493
   39  O  3  Y    0.000000  -0.071410  -0.026100   0.000000  -0.022075
   40  O  3  Z   -0.060793   0.000000   0.000000  -0.035507   0.000000
   41  O  3  X    0.000000  -0.074513   0.257555   0.000000   0.689690
   42  O  3  Y    0.000000   0.166261   0.120864   0.000000  -0.302877
   43  O  3  Z    0.143376   0.000000   0.000000   0.154701   0.000000
   44  O  3 XX    0.000000   0.336875   0.547395   0.000000   0.541133
   45  O  3 YY    0.000000  -0.500858  -0.424391   0.000000  -0.111235
   46  O  3 ZZ    0.000000   0.163984  -0.123004   0.000000  -0.429898
   47  O  3 XY    0.000000   0.509876   0.451371   0.000000  -0.613306
   48  O  3 XZ    0.724440   0.000000   0.000000   0.635328   0.000000
   49  O  3 YZ   -0.025058   0.000000   0.000000  -0.385662   0.000000

                     46
                    2.7889
                     A   
    1  S  1  S    0.000000
    2  S  1  S   -0.000001
    3  S  1  S    0.000003
    4  S  1  S   -0.000001
    5  S  1  X   -0.237557
    6  S  1  Y   -0.000000
    7  S  1  Z    0.000000
    8  S  1  X    1.384291
    9  S  1  Y    0.000001
   10  S  1  Z    0.000000
   11  S  1  X    0.170072
   12  S  1  Y   -0.000000
   13  S  1  Z    0.000000
   14  S  1 XX   -0.000000
   15  S  1 YY    0.000000
   16  S  1 ZZ    0.000000
   17  S  1 XY    0.586503
   18  S  1 XZ    0.000000
   19  S  1 YZ    0.000000
   20  O  2  S    0.002819
   21  O  2  S    0.450715
   22  O  2  S   -1.129936
   23  O  2  X    0.037140
   24  O  2  Y    0.004447
   25  O  2  Z    0.000000
   26  O  2  X    0.671837
   27  O  2  Y    0.268435
   28  O  2  Z    0.000000
   29  O  2 XX   -0.715225
   30  O  2 YY    0.335583
   31  O  2 ZZ    0.379642
   32  O  2 XY   -0.427800
   33  O  2 XZ    0.000000
   34  O  2 YZ    0.000000
   35  O  3  S   -0.002820
   36  O  3  S   -0.450712
   37  O  3  S    1.129932
   38  O  3  X    0.037141
   39  O  3  Y   -0.004447
   40  O  3  Z    0.000000
   41  O  3  X    0.671835
   42  O  3  Y   -0.268435
   43  O  3  Z    0.000000
   44  O  3 XX    0.715223
   45  O  3 YY   -0.335582
   46  O  3 ZZ   -0.379641
   47  O  3 XY   -0.427799
   48  O  3 XZ    0.000000
   49  O  3 YZ    0.000000
 ...... END OF RHF CALCULATION ......
 STEP CPU TIME =     2.52 TOTAL CPU TIME =          2.7 (      0.0 MIN)
 TOTAL WALL CLOCK TIME=          2.7 SECONDS, CPU UTILIZATION IS    98.88%

     ---------------------------------------------------------------------
     PROPERTIES FOR THE PBE      DFT FUNCTIONAL (RHF  TYPE) DENSITY MATRIX
     ---------------------------------------------------------------------

          -----------------
          ENERGY COMPONENTS
          -----------------

         WAVEFUNCTION NORMALIZATION =       1.0000000000

                ONE ELECTRON ENERGY =    -959.1090274348
                TWO ELECTRON ENERGY =     308.3402554642
           NUCLEAR REPULSION ENERGY =     102.5321668495
                                      ------------------
                       TOTAL ENERGY =    -548.2366051211

 ELECTRON-ELECTRON POTENTIAL ENERGY =     308.3402554642
  NUCLEUS-ELECTRON POTENTIAL ENERGY =   -1506.4184401678
   NUCLEUS-NUCLEUS POTENTIAL ENERGY =     102.5321668495
                                      ------------------
             TOTAL POTENTIAL ENERGY =   -1095.5460178541
               TOTAL KINETIC ENERGY =     547.3094127330
                 VIRIAL RATIO (V/T) =       2.0016940918

          ---------------------------------------
          MULLIKEN AND LOWDIN POPULATION ANALYSES
          ---------------------------------------

     ATOMIC MULLIKEN POPULATION IN EACH MOLECULAR ORBITAL

                      1          2          3          4          5

                  2.000000   2.000000   2.000000   2.000000   2.000000

    1             1.999926   0.001091   0.001065   2.000991   2.000281
    2             0.000037   1.057644   0.941278  -0.000496  -0.000141
    3             0.000037   0.941265   1.057657  -0.000496  -0.000141

                      6          7          8          9         10

                  2.000000   2.000000   2.000000   2.000000   2.000000

    1             2.000025   2.000035   0.686198   0.404820   0.883705
    2            -0.000012  -0.000018   0.656897   0.797594   0.558146
    3            -0.000012  -0.000018   0.656905   0.797586   0.558149

                     11         12         13         14         15

                  2.000000   2.000000   2.000000   2.000000   2.000000

    1             0.426559   1.026285   0.976532   0.100933   0.129077
    2             0.786722   0.486857   0.511733   0.949534   0.935462
    3             0.786719   0.486858   0.511735   0.949533   0.935461

                     16

                  2.000000

    1             0.734125
    2             0.632938
    3             0.632938

               ----- POPULATIONS IN EACH AO -----
                             MULLIKEN      LOWDIN
              1  S  1  S      1.99981     1.99925
              2  S  1  S      1.99214     1.88508
              3  S  1  S      1.30887     0.65598
              4  S  1  S      0.61414     0.49345
              5  S  1  X      1.99404     1.95732
              6  S  1  Y      1.99492     1.96589
              7  S  1  Z      1.99378     1.95966
              8  S  1  X      0.82092     0.66832
              9  S  1  Y      1.00971     0.92637
             10  S  1  Z      0.83920     0.74608
             11  S  1  X      0.01839     0.18981
             12  S  1  Y      0.14535     0.28275
             13  S  1  Z      0.18306     0.29260
             14  S  1 XX      0.05052     0.35062
             15  S  1 YY      0.16714     0.31544
             16  S  1 ZZ      0.12845     0.30722
             17  S  1 XY      0.10093     0.14828
             18  S  1 XZ      0.01027     0.12154
             19  S  1 YZ      0.00000     0.00989
             20  O  2  S      1.99555     1.97270
             21  O  2  S      0.95562     0.69740
             22  O  2  S      0.92105     0.52337
             23  O  2  X      0.87433     0.83334
             24  O  2  Y      1.08155     1.04997
             25  O  2  Z      0.85935     0.82138
             26  O  2  X      0.39994     0.54390
             27  O  2  Y      0.63589     0.68394
             28  O  2  Z      0.57078     0.60544
             29  O  2 XX      0.00204     0.21161
             30  O  2 YY      0.00633     0.19855
             31  O  2 ZZ      0.00549     0.20232
             32  O  2 XY      0.00541     0.01000
             33  O  2 XZ      0.00084     0.00720
             34  O  2 YZ      0.00000     0.00110
             35  O  3  S      1.99555     1.97270
             36  O  3  S      0.95562     0.69740
             37  O  3  S      0.92106     0.52337
             38  O  3  X      0.87433     0.83334
             39  O  3  Y      1.08155     1.04997
             40  O  3  Z      0.85935     0.82138
             41  O  3  X      0.39994     0.54390
             42  O  3  Y      0.63589     0.68394
             43  O  3  Z      0.57078     0.60544
             44  O  3 XX      0.00204     0.21161
             45  O  3 YY      0.00633     0.19855
             46  O  3 ZZ      0.00549     0.20232
             47  O  3 XY      0.00541     0.01000
             48  O  3 XZ      0.00084     0.00720
             49  O  3 YZ      0.00000     0.00110

          ----- MULLIKEN ATOMIC OVERLAP POPULATIONS -----
          (OFF-DIAGONAL ELEMENTS NEED TO BE MULTIPLIED BY 2)

             1           2           3

    1   14.7893159
    2    0.2911661   8.0288986
    3    0.2911654  -0.0058883   8.0288990

          TOTAL MULLIKEN AND LOWDIN ATOMIC POPULATIONS
       ATOM         MULL.POP.    CHARGE          LOW.POP.     CHARGE
    1 S            15.371647    0.628353        15.275546    0.724454
    2 O             8.314176   -0.314176         8.362227   -0.362227
    3 O             8.314176   -0.314176         8.362227   -0.362227

          MULLIKEN SPHERICAL HARMONIC POPULATIONS
       ATOM           S       P       D      F      G      H      I    TOTAL
    1 S             5.91    9.00    0.46   0.00   0.00   0.00   0.00   15.37
    2 O             3.87    4.42    0.02   0.00   0.00   0.00   0.00    8.31
    3 O             3.87    4.42    0.02   0.00   0.00   0.00   0.00    8.31

          -------------------------------
          BOND ORDER AND VALENCE ANALYSIS     BOND ORDER THRESHOLD=0.050
          -------------------------------

                   BOND                       BOND                       BOND
  ATOM PAIR DIST  ORDER      ATOM PAIR DIST  ORDER      ATOM PAIR DIST  ORDER
    1   2  1.500  1.853        1   3  1.500  1.853        2   3  2.772  0.298

                       TOTAL       BONDED        FREE
      ATOM            VALENCE     VALENCE     VALENCE
    1 S                 3.707       3.707       0.000
    2 O                 2.152       2.152      -0.000
    3 O                 2.152       2.152      -0.000

          ---------------------
          ELECTROSTATIC MOMENTS
          ---------------------

 POINT   1           X           Y           Z (BOHR)    CHARGE
                 0.000000   -0.000000    0.000000       -0.00 (A.U.)
         DX          DY          DZ         /D/  (DEBYE)
    -0.000001   -0.993385    0.000000    0.993385
 ...... END OF PROPERTY EVALUATION ......
 STEP CPU TIME =     0.00 TOTAL CPU TIME =          2.7 (      0.0 MIN)
 TOTAL WALL CLOCK TIME=          2.7 SECONDS, CPU UTILIZATION IS    98.52%
                580000  WORDS OF DYNAMIC MEMORY USED
 EXECUTION OF GAMESS TERMINATED NORMALLY Sun Sep 29 10:49:02 2019
 DDI: 263640 bytes (0.3 MB / 0 MWords) used by master data server.

 ----------------------------------------
 CPU timing information for all processes
 ========================================
 0: 2.595 + 0.74 = 2.669
 ----------------------------------------
 ddikick.x: exited gracefully.
----- accounting info -----
Files used on the master node crcfe02.crc.nd.edu were:
-rw-r--r-- 1 cdrisko campus     208 Sep 29 10:49 /afs/crc.nd.edu/user/c/cdrisko/SO2.F05
-rw-r--r-- 1 cdrisko campus   37566 Sep 29 10:49 /afs/crc.nd.edu/user/c/cdrisko/SO2.F07
-rw-r--r-- 1 cdrisko campus 4140368 Sep 29 10:49 /afs/crc.nd.edu/user/c/cdrisko/SO2.F08
-rw-r--r-- 1 cdrisko campus 1766880 Sep 29 10:49 /afs/crc.nd.edu/user/c/cdrisko/SO2.F10
Sun Sep 29 10:49:06 EDT 2019
0.452u 0.242s 0:06.37 10.8%	0+0k 0+24io 0pf+0w
