   1   1   0   0
  0.7200000E+03  0.8000000E-09  0.9000000E-09  0.1000000E-08  0.5000000E-15
  1.000000000000000E-004
  CAR 
 unknown system                          
      4.54590317     -5.84269186  301     -4.42453331      1.00000000
     -5.843  0.0000E+00  0.0000E+00
     -5.808  0.0000E+00  0.0000E+00
     -5.773  0.0000E+00  0.0000E+00
     -5.739  0.0000E+00  0.0000E+00
     -5.704  0.0000E+00  0.0000E+00
     -5.670 -0.1272E-26 -0.4406E-28
     -5.635 -0.3316E-24 -0.1153E-25
     -5.600 -0.6805E-22 -0.2368E-23
     -5.566 -0.1096E-19 -0.3819E-21
     -5.531 -0.1385E-17 -0.4836E-19
     -5.496 -0.1374E-15 -0.4805E-17
     -5.462 -0.1068E-13 -0.3746E-15
     -5.427 -0.6345E-12 -0.2235E-13
     -5.393 -0.3003E-10 -0.1062E-11
     -5.358 -0.1116E-08 -0.3972E-10
     -5.323 -0.3241E-07 -0.1162E-08
     -5.289 -0.7338E-06 -0.2657E-07
     -5.254 -0.1293E-04 -0.4743E-06
     -5.219 -0.1768E-03 -0.6597E-05
     -5.185 -0.1869E-02 -0.7133E-04
     -5.150 -0.1519E-01 -0.5972E-03
     -5.115 -0.9399E-01 -0.3852E-02
     -5.081 -0.4364E+00 -0.1896E-01
     -5.046 -0.1477E+01 -0.7012E-01
     -5.012 -0.3411E+01 -0.1883E+00
     -4.977 -0.4240E+01 -0.3351E+00
     -4.942  0.2389E+01 -0.2523E+00
     -4.908  0.2372E+02  0.5692E+00
     -4.873  0.5639E+02  0.2522E+01
     -4.838  0.8079E+02  0.5320E+01
     -4.804  0.7740E+02  0.8000E+01
     -4.769  0.4911E+02  0.9700E+01
     -4.735  0.1771E+02  0.1031E+02
     -4.700 -0.1482E+00  0.1031E+02
     -4.665 -0.4487E+01  0.1015E+02
     -4.631 -0.3232E+01  0.1004E+02
     -4.596 -0.1822E+01  0.9978E+01
     -4.561 -0.1184E+01  0.9937E+01
     -4.527  0.2541E+00  0.9946E+01
     -4.492  0.4377E+01  0.1010E+02
     -4.458  0.1087E+02  0.1047E+02
     -4.423  0.1599E+02  0.1103E+02
     -4.388  0.1570E+02  0.1157E+02
     -4.354  0.1024E+02  0.1193E+02
     -4.319  0.3872E+01  0.1206E+02
     -4.284  0.1033E+00  0.1206E+02
     -4.250 -0.8779E+00  0.1203E+02
     -4.215 -0.6174E+00  0.1201E+02
     -4.181 -0.2499E+00  0.1200E+02
     -4.146 -0.7008E-01  0.1200E+02
     -4.111 -0.1441E-01  0.1200E+02
     -4.077 -0.2230E-02  0.1200E+02
     -4.042 -0.2633E-03  0.1200E+02
     -4.007 -0.2392E-04  0.1200E+02
     -3.973 -0.1681E-05  0.1200E+02
     -3.938 -0.9172E-07  0.1200E+02
     -3.903 -0.3896E-08  0.1200E+02
     -3.869 -0.1291E-09  0.1200E+02
     -3.834 -0.3334E-11  0.1200E+02
     -3.800 -0.7695E-13  0.1200E+02
     -3.765  0.0000E+00  0.1200E+02
     -3.730  0.0000E+00  0.1200E+02
     -3.696  0.0000E+00  0.1200E+02
     -3.661  0.0000E+00  0.1200E+02
     -3.626  0.0000E+00  0.1200E+02
     -3.592  0.0000E+00  0.1200E+02
     -3.557  0.0000E+00  0.1200E+02
     -3.523  0.0000E+00  0.1200E+02
     -3.488  0.0000E+00  0.1200E+02
     -3.453  0.0000E+00  0.1200E+02
     -3.419  0.0000E+00  0.1200E+02
     -3.384  0.0000E+00  0.1200E+02
     -3.349  0.0000E+00  0.1200E+02
     -3.315  0.0000E+00  0.1200E+02
     -3.280  0.0000E+00  0.1200E+02
     -3.246  0.0000E+00  0.1200E+02
     -3.211  0.0000E+00  0.1200E+02
     -3.176  0.0000E+00  0.1200E+02
     -3.142  0.0000E+00  0.1200E+02
     -3.107  0.0000E+00  0.1200E+02
     -3.072  0.0000E+00  0.1200E+02
     -3.038  0.0000E+00  0.1200E+02
     -3.003  0.0000E+00  0.1200E+02
     -2.969  0.0000E+00  0.1200E+02
     -2.934  0.0000E+00  0.1200E+02
     -2.899  0.0000E+00  0.1200E+02
     -2.865  0.0000E+00  0.1200E+02
     -2.830  0.0000E+00  0.1200E+02
     -2.795  0.0000E+00  0.1200E+02
     -2.761  0.0000E+00  0.1200E+02
     -2.726  0.0000E+00  0.1200E+02
     -2.691  0.0000E+00  0.1200E+02
     -2.657  0.0000E+00  0.1200E+02
     -2.622  0.0000E+00  0.1200E+02
     -2.588  0.0000E+00  0.1200E+02
     -2.553  0.0000E+00  0.1200E+02
     -2.518  0.0000E+00  0.1200E+02
     -2.484  0.0000E+00  0.1200E+02
     -2.449  0.0000E+00  0.1200E+02
     -2.414  0.0000E+00  0.1200E+02
     -2.380  0.0000E+00  0.1200E+02
     -2.345  0.0000E+00  0.1200E+02
     -2.311  0.0000E+00  0.1200E+02
     -2.276  0.0000E+00  0.1200E+02
     -2.241  0.0000E+00  0.1200E+02
     -2.207  0.0000E+00  0.1200E+02
     -2.172  0.0000E+00  0.1200E+02
     -2.137  0.0000E+00  0.1200E+02
     -2.103  0.0000E+00  0.1200E+02
     -2.068  0.0000E+00  0.1200E+02
     -2.034  0.0000E+00  0.1200E+02
     -1.999  0.0000E+00  0.1200E+02
     -1.964  0.0000E+00  0.1200E+02
     -1.930  0.0000E+00  0.1200E+02
     -1.895  0.0000E+00  0.1200E+02
     -1.860  0.0000E+00  0.1200E+02
     -1.826  0.0000E+00  0.1200E+02
     -1.791  0.0000E+00  0.1200E+02
     -1.757  0.0000E+00  0.1200E+02
     -1.722  0.0000E+00  0.1200E+02
     -1.687  0.0000E+00  0.1200E+02
     -1.653  0.0000E+00  0.1200E+02
     -1.618  0.0000E+00  0.1200E+02
     -1.583  0.0000E+00  0.1200E+02
     -1.549  0.0000E+00  0.1200E+02
     -1.514  0.0000E+00  0.1200E+02
     -1.479  0.0000E+00  0.1200E+02
     -1.445  0.0000E+00  0.1200E+02
     -1.410  0.0000E+00  0.1200E+02
     -1.376  0.0000E+00  0.1200E+02
     -1.341  0.0000E+00  0.1200E+02
     -1.306  0.0000E+00  0.1200E+02
     -1.272 -0.2440E-26  0.1200E+02
     -1.237 -0.5769E-24  0.1200E+02
     -1.202 -0.1075E-21  0.1200E+02
     -1.168 -0.1571E-19  0.1200E+02
     -1.133 -0.1801E-17  0.1200E+02
     -1.099 -0.1620E-15  0.1200E+02
     -1.064 -0.1142E-13  0.1200E+02
     -1.029 -0.6119E-12  0.1200E+02
     -0.995 -0.2637E-10  0.1200E+02
     -0.960 -0.8878E-09  0.1200E+02
     -0.925 -0.2334E-07  0.1200E+02
     -0.891 -0.4780E-06  0.1200E+02
     -0.856 -0.7613E-05  0.1200E+02
     -0.822 -0.9398E-04  0.1200E+02
     -0.787 -0.8951E-03  0.1200E+02
     -0.752 -0.6536E-02  0.1200E+02
     -0.718 -0.3621E-01  0.1200E+02
     -0.683 -0.1495E+00  0.1199E+02
     -0.648 -0.4448E+00  0.1198E+02
     -0.614 -0.8743E+00  0.1195E+02
     -0.579 -0.7799E+00  0.1192E+02
     -0.545  0.1285E+01  0.1197E+02
     -0.510  0.6383E+01  0.1219E+02
     -0.475  0.1335E+02  0.1265E+02
     -0.441  0.1920E+02  0.1331E+02
     -0.406  0.2189E+02  0.1407E+02
     -0.371  0.2116E+02  0.1480E+02
     -0.337  0.1719E+02  0.1540E+02
     -0.302  0.1146E+02  0.1580E+02
     -0.267  0.7979E+01  0.1607E+02
     -0.233  0.1020E+02  0.1643E+02
     -0.198  0.1682E+02  0.1701E+02
     -0.164  0.2301E+02  0.1780E+02
     -0.129  0.2475E+02  0.1866E+02
     -0.094  0.2101E+02  0.1939E+02
     -0.060  0.1352E+02  0.1986E+02
     -0.025  0.5769E+01  0.2006E+02
      0.010  0.7716E+00  0.2008E+02
      0.044 -0.9630E+00  0.2005E+02
      0.079 -0.8793E+00  0.2002E+02
      0.113 -0.4171E+00  0.2001E+02
      0.148 -0.1341E+00  0.2000E+02
      0.183 -0.3138E-01  0.2000E+02
      0.217 -0.5496E-02  0.2000E+02
      0.252 -0.7324E-03  0.2000E+02
      0.287 -0.7494E-04  0.2000E+02
      0.321 -0.5921E-05  0.2000E+02
      0.356 -0.3628E-06  0.2000E+02
      0.390 -0.1729E-07  0.2000E+02
      0.425 -0.6425E-09  0.2000E+02
      0.460 -0.1917E-10  0.2000E+02
      0.494 -0.2359E-10  0.2000E+02
      0.529 -0.7869E-09  0.2000E+02
      0.564 -0.2087E-07  0.2000E+02
      0.598 -0.4312E-06  0.2000E+02
      0.633 -0.6929E-05  0.2000E+02
      0.667 -0.8630E-04  0.2000E+02
      0.702 -0.8293E-03  0.2000E+02
      0.737 -0.6107E-02  0.2000E+02
      0.771 -0.3410E-01  0.2000E+02
      0.806 -0.1417E+00  0.1999E+02
      0.841 -0.4219E+00  0.1998E+02
      0.875 -0.8156E+00  0.1995E+02
      0.910 -0.6274E+00  0.1993E+02
      0.945  0.1660E+01  0.1999E+02
      0.979  0.7019E+01  0.2023E+02
      1.014  0.1351E+02  0.2070E+02
      1.048  0.1661E+02  0.2127E+02
      1.083  0.1365E+02  0.2175E+02
      1.118  0.6920E+01  0.2198E+02
      1.152  0.1034E+01  0.2202E+02
      1.187 -0.1178E+01  0.2198E+02
      1.222  0.9350E+00  0.2201E+02
      1.256  0.6757E+01  0.2225E+02
      1.291  0.1352E+02  0.2271E+02
      1.325  0.1661E+02  0.2329E+02
      1.360  0.1364E+02  0.2376E+02
      1.395  0.7173E+01  0.2401E+02
      1.429  0.1750E+01  0.2407E+02
      1.464 -0.6047E+00  0.2405E+02
      1.499 -0.8224E+00  0.2402E+02
      1.533 -0.4309E+00  0.2401E+02
      1.568 -0.1461E+00  0.2400E+02
      1.602 -0.3636E-01  0.2400E+02
      1.637 -0.1342E-01  0.2400E+02
      1.672 -0.3933E-01  0.2400E+02
      1.706 -0.1561E+00  0.2399E+02
      1.741 -0.4516E+00  0.2398E+02
      1.776 -0.8369E+00  0.2395E+02
      1.810 -0.5482E+00  0.2393E+02
      1.845  0.1963E+01  0.2400E+02
      1.879  0.7520E+01  0.2426E+02
      1.914  0.1389E+02  0.2474E+02
      1.949  0.1647E+02  0.2531E+02
      1.983  0.1290E+02  0.2576E+02
      2.018  0.5998E+01  0.2596E+02
      2.053  0.1072E+01  0.2600E+02
      2.087  0.1516E+01  0.2605E+02
      2.122  0.6975E+01  0.2629E+02
      2.157  0.1342E+02  0.2676E+02
      2.191  0.1546E+02  0.2729E+02
      2.226  0.1138E+02  0.2769E+02
      2.260  0.6001E+01  0.2790E+02
      2.295  0.6724E+01  0.2813E+02
      2.330  0.1597E+02  0.2868E+02
      2.364  0.2738E+02  0.2963E+02
      2.399  0.3112E+02  0.3071E+02
      2.434  0.2429E+02  0.3155E+02
      2.468  0.1438E+02  0.3205E+02
      2.503  0.1037E+02  0.3241E+02
      2.537  0.1280E+02  0.3285E+02
      2.572  0.1495E+02  0.3337E+02
      2.607  0.1190E+02  0.3378E+02
      2.641  0.5483E+01  0.3397E+02
      2.676  0.9499E+00  0.3400E+02
      2.711  0.1736E+01  0.3406E+02
      2.745  0.7372E+01  0.3432E+02
      2.780  0.1368E+02  0.3479E+02
      2.814  0.1543E+02  0.3533E+02
      2.849  0.1144E+02  0.3572E+02
      2.884  0.6569E+01  0.3595E+02
      2.918  0.7069E+01  0.3619E+02
      2.953  0.1413E+02  0.3668E+02
      2.988  0.2305E+02  0.3748E+02
      3.022  0.2857E+02  0.3847E+02
      3.057  0.3017E+02  0.3952E+02
      3.091  0.3108E+02  0.4059E+02
      3.126  0.3239E+02  0.4171E+02
      3.161  0.3070E+02  0.4278E+02
      3.195  0.2309E+02  0.4358E+02
      3.230  0.1200E+02  0.4399E+02
      3.265  0.2744E+01  0.4409E+02
      3.299 -0.1727E+01  0.4403E+02
      3.334 -0.1577E+01  0.4397E+02
      3.369  0.2361E+01  0.4405E+02
      3.403  0.8926E+01  0.4436E+02
      3.438  0.1550E+02  0.4490E+02
      3.472  0.1950E+02  0.4557E+02
      3.507  0.2072E+02  0.4629E+02
      3.542  0.1992E+02  0.4698E+02
      3.576  0.1655E+02  0.4756E+02
      3.611  0.1050E+02  0.4792E+02
      3.646  0.4157E+01  0.4806E+02
      3.680  0.2303E+00  0.4807E+02
      3.715 -0.9261E+00  0.4804E+02
      3.749 -0.7051E+00  0.4801E+02
      3.784 -0.3023E+00  0.4800E+02
      3.819 -0.8920E-01  0.4800E+02
      3.853 -0.1924E-01  0.4800E+02
      3.888 -0.3118E-02  0.4800E+02
      3.923 -0.3849E-03  0.4800E+02
      3.957 -0.3652E-04  0.4800E+02
      3.992 -0.2679E-05  0.4800E+02
      4.026 -0.1525E-06  0.4800E+02
      4.061 -0.6758E-08  0.4800E+02
      4.096 -0.2335E-09  0.4800E+02
      4.130 -0.6297E-11  0.4800E+02
      4.165 -0.1411E-12  0.4800E+02
      4.200  0.0000E+00  0.4800E+02
      4.234  0.0000E+00  0.4800E+02
      4.269  0.0000E+00  0.4800E+02
      4.304  0.0000E+00  0.4800E+02
      4.338  0.0000E+00  0.4800E+02
      4.373  0.0000E+00  0.4800E+02
      4.407  0.0000E+00  0.4800E+02
      4.442  0.0000E+00  0.4800E+02
      4.477  0.0000E+00  0.4800E+02
      4.511  0.0000E+00  0.4800E+02
      4.546  0.0000E+00  0.4800E+02
