       N       E                     dE             d eps       ncg     rms          rms(c)
DAV:   1     0.485431073042E+02    0.48543E+02   -0.20430E+03    48   0.209E+02
DAV:   2     0.585977714194E+00   -0.47957E+02   -0.48171E+02    48   0.457E+01
DAV:   3    -0.464691586321E-01   -0.63245E+00   -0.63245E+00    48   0.666E+00
DAV:   4    -0.515557034873E-01   -0.50865E-02   -0.50865E-02    48   0.149E+00
DAV:   5    -0.516314804320E-01   -0.75777E-04   -0.75777E-04    48   0.101E-01    0.631E-02
DAV:   6    -0.519470871432E-01   -0.31561E-03   -0.65453E-05    48   0.411E-02    0.349E-02
DAV:   7    -0.521557387415E-01   -0.20865E-03   -0.98942E-05    48   0.367E-02    0.571E-03
DAV:   8    -0.522039439509E-01   -0.48205E-04   -0.20490E-05    48   0.336E-02
   1 F= -.52203944E-01 E0= -.42800826E-01  d E =-.282094E-01
