 vasp.5.4.1 05Feb16 (build Feb 08 2018 09:21:51) complex                        
  
 executed on             LinuxIFC date 2019.11.21  11:54:49
 running on   24 total cores
 distrk:  each k-point on   24 cores,    1 groups
 distr:  one band on NCORES_PER_BAND=   1 cores,   24 groups


--------------------------------------------------------------------------------------------------------


 INCAR:
 POTCAR:    PAW_PBE Cu 22Jun2005                  

 ----------------------------------------------------------------------------- 
|                                                                             |
|           W    W    AA    RRRRR   N    N  II  N    N   GGGG   !!!           |
|           W    W   A  A   R    R  NN   N  II  NN   N  G    G  !!!           |
|           W    W  A    A  R    R  N N  N  II  N N  N  G       !!!           |
|           W WW W  AAAAAA  RRRRR   N  N N  II  N  N N  G  GGG   !            |
|           WW  WW  A    A  R   R   N   NN  II  N   NN  G    G                |
|           W    W  A    A  R    R  N    N  II  N    N   GGGG   !!!           |
|                                                                             |
|      For optimal performance we recommend to set                            |
|        NCORE= 4 - approx SQRT( number of cores)                             |
|      NCORE specifies how many cores store one orbital (NPAR=cpu/NCORE).     |
|      This setting can  greatly improve the performance of VASP for DFT.     |
|      The default, NPAR=number of cores might be grossly inefficient         |
|      on modern multi-core architectures or massively parallel machines.     |
|      Do your own testing !!!!                                               |
|      Unfortunately you need to use the default for GW and RPA calculations. |
|      (for HF NCORE is supported but not extensively tested yet)             |
|                                                                             |
 ----------------------------------------------------------------------------- 

 POTCAR:    PAW_PBE Cu 22Jun2005                  
   VRHFIN =Cu: d10 p1                                                           
   LEXCH  = PE                                                                  
   EATOM  =  1390.9808 eV,  102.2342 Ry                                         
                                                                                
   TITEL  = PAW_PBE Cu 22Jun2005                                                
   LULTRA =        F    use ultrasoft PP ?                                      
   IUNSCR =        1    unscreen: 0-lin 1-nonlin 2-no                           
   RPACOR =    2.000    partial core radius                                     
   POMASS =   63.546; ZVAL   =   11.000    mass and valenz                      
   RCORE  =    2.300    outmost cutoff radius                                   
   RWIGS  =    2.200; RWIGS  =    1.164    wigner-seitz radius (au A)           
   ENMAX  =  295.446; ENMIN  =  221.585 eV                                      
   ICORE  =        3    local potential                                         
   LCOR   =        T    correct aug charges                                     
   LPAW   =        T    paw PP                                                  
   EAUG   =  586.980                                                            
   DEXC   =    0.000                                                            
   RMAX   =    2.344    core radius for proj-oper                               
   RAUG   =    1.300    factor for augmentation sphere                          
   RDEP   =    2.302    radius for radial grids                                 
   RDEPT  =    1.771    core radius for aug-charge                              
                                                                                
   Atomic configuration                                                         
    9 entries                                                                   
     n  l   j            E        occ.                                          
     1  0  0.50     -8850.2468   2.0000                                         
     2  0  0.50     -1062.3498   2.0000                                         
     2  1  1.50      -916.8226   6.0000                                         
     3  0  0.50      -114.6929   2.0000                                         
     3  1  1.50       -72.1325   6.0000                                         
     3  2  2.50        -5.0394  10.0000                                         
     4  0  0.50        -4.6097   1.0000                                         
     4  1  0.50        -4.0817   0.0000                                         
     4  3  2.50        -1.3606   0.0000                                         
   Description                                                                  
     l       E           TYP  RCUT    TYP  RCUT                                 
     2     -5.0393973     23  2.200                                             
     2     10.8846608     23  2.200                                             
     0     -4.6097109     23  2.200                                             
     0      8.2520465     23  2.200                                             
     1     -2.7211652     23  2.200                                             
     1     21.7055443     23  2.200                                             
     3      2.7211652     23  2.300                                             
  local pseudopotential read in
  partial core-charges read in
  partial kinetic energy density read in
  atomic valenz-charges read in
  non local Contribution for L=           2  read in
    real space projection operators read in
  non local Contribution for L=           2  read in
    real space projection operators read in
  non local Contribution for L=           0  read in
    real space projection operators read in
  non local Contribution for L=           0  read in
    real space projection operators read in
  non local Contribution for L=           1  read in
    real space projection operators read in
  non local Contribution for L=           1  read in
    real space projection operators read in
    PAW grid and wavefunctions read in
 
   number of l-projection  operators is LMAX  =           6
   number of lm-projection operators is LMMAX =          18
 
  PAW_PBE Cu 22Jun2005                  :
 energy of atom  1       EATOM=-1390.9808
 kinetic energy error for atom=    0.0232 (will be added to EATOM!!)
 
 
 POSCAR: Cu                                      
  positions in cartesian coordinates
  No initial velocities read in
 exchange correlation table for  LEXCH =        8
   RHO(1)=    0.500       N(1)  =     2000
   RHO(2)=  100.500       N(2)  =     4000
 


--------------------------------------------------------------------------------------------------------


 ion  position               nearest neighbor table
   1  0.500  0.500  0.500-
 
  LATTYP: Found a simple orthorhombic cell.
 ALAT       =     8.0000000000
 B/A-ratio  =     1.1250000000
 C/A-ratio  =     1.2500000000
  
  Lattice vectors:
  
 A1 = (   8.0000000000,   0.0000000000,   0.0000000000)
 A2 = (   0.0000000000,   9.0000000000,   0.0000000000)
 A3 = (   0.0000000000,   0.0000000000,  10.0000000000)


Analysis of symmetry for initial positions (statically):
=====================================================================
 Subroutine PRICEL returns:
 Original cell was already a primitive cell.
 

 Routine SETGRP: Setting up the symmetry group for a 
 simple orthorhombic supercell.


 Subroutine GETGRP returns: Found  8 space group operations
 (whereof  8 operations were pure point group operations)
 out of a pool of  8 trial point group operations.


The static configuration has the point symmetry D_2h.


Analysis of symmetry for dynamics (positions and initial velocities):
=====================================================================
 Subroutine PRICEL returns:
 Original cell was already a primitive cell.
 

 Routine SETGRP: Setting up the symmetry group for a 
 simple orthorhombic supercell.


 Subroutine GETGRP returns: Found  8 space group operations
 (whereof  8 operations were pure point group operations)
 out of a pool of  8 trial point group operations.


The dynamic configuration has the point symmetry D_2h.


 Subroutine INISYM returns: Found  8 space group operations
 (whereof  8 operations are pure point group operations),
 and found     1 'primitive' translations

 
 
 KPOINTS: KPOINTS created by Atomic Simulation Env

Automatic generation of k-mesh.
Space group operators:
 irot       det(A)        alpha          n_x          n_y          n_z        tau_x        tau_y        tau_z
    1     1.000000     0.000000     1.000000     0.000000     0.000000     0.000000     0.000000     0.000000
    2    -1.000000     0.000000     1.000000     0.000000     0.000000     0.000000     0.000000     0.000000
    3     1.000000   180.000000     0.000000     0.000000     1.000000     0.000000     0.000000     0.000000
    4    -1.000000   180.000000     0.000000     0.000000     1.000000     0.000000     0.000000     0.000000
    5     1.000000   180.000000     0.000000     1.000000     0.000000     0.000000     0.000000     0.000000
    6    -1.000000   180.000000     0.000000     1.000000     0.000000     0.000000     0.000000     0.000000
    7     1.000000   180.000000     1.000000     0.000000     0.000000     0.000000     0.000000     0.000000
    8    -1.000000   180.000000     1.000000     0.000000     0.000000     0.000000     0.000000     0.000000
 
 Subroutine IBZKPT returns following result:
 ===========================================
 
 Found      1 irreducible k-points:
 
 Following reciprocal coordinates:
            Coordinates               Weight
  0.000000  0.000000  0.000000      1.000000
 
 Following cartesian coordinates:
            Coordinates               Weight
  0.000000  0.000000  0.000000      1.000000
 


--------------------------------------------------------------------------------------------------------




 Dimension of arrays:
   k-points           NKPTS =      1   k-points in BZ     NKDIM =      1   number of bands    NBANDS=     24
   number of dos      NEDOS =    301   number of ions     NIONS =      1
   non local maximal  LDIM  =      6   non local SUM 2l+1 LMDIM =     18
   total plane-waves  NPLWV =  96000
   max r-space proj   IRMAX =      1   max aug-charges    IRDMAX=   4061
   dimension x,y,z NGX =    40 NGY =   48 NGZ =   50
   dimension x,y,z NGXF=    80 NGYF=   96 NGZF=  100
   support grid    NGXF=    80 NGYF=   96 NGZF=  100
   ions per type =               1
 NGX,Y,Z   is equivalent  to a cutoff of   8.31,  8.87,  8.31 a.u.
 NGXF,Y,Z  is equivalent  to a cutoff of  16.62, 17.73, 16.62 a.u.


 I would recommend the setting:
   dimension x,y,z NGX =    39 NGY =   44 NGZ =   49
 SYSTEM =  unknown system                          
 POSCAR =  Cu                                      

 Startparameter for this run:
   NWRITE =      2    write-flag & timer
   PREC   = normal    normal or accurate (medium, high low for compatibility)
   ISTART =      0    job   : 0-new  1-cont  2-samecut
   ICHARG =      2    charge: 1-file 2-atom 10-const
   ISPIN  =      1    spin polarized calculation?
   LNONCOLLINEAR =      F non collinear calculations
   LSORBIT =      F    spin-orbit coupling
   INIWAV =      1    electr: 0-lowe 1-rand  2-diag
   LASPH  =      F    aspherical Exc in radial PAW
   METAGGA=      F    non-selfconsistent MetaGGA calc.

 Electronic Relaxation 1
   ENCUT  =  400.0 eV  29.40 Ry    5.42 a.u.  13.05 14.68 16.31*2*pi/ulx,y,z
   ENINI  =  400.0     initial cutoff
   ENAUG  =  587.0 eV  augmentation charge cutoff
   NELM   =     60;   NELMIN=  2; NELMDL= -5     # of ELM steps 
   EDIFF  = 0.1E-03   stopping-criterion for ELM
   LREAL  =      F    real-space projection
   NLSPLINE    = F    spline interpolate recip. space projectors
   LCOMPAT=      F    compatible to vasp.4.4
   GGA_COMPAT  = T    GGA compatible to vasp.4.4-vasp.4.6
   LMAXPAW     = -100 max onsite density
   LMAXMIX     =    2 max onsite mixed and CHGCAR
   VOSKOWN=      0    Vosko Wilk Nusair interpolation
   ROPT   =    0.00000
 Ionic relaxation
   EDIFFG = 0.1E-02   stopping-criterion for IOM
   NSW    =      0    number of steps for IOM
   NBLOCK =      1;   KBLOCK =      1    inner block; outer block 
   IBRION =     -1    ionic relax: 0-MD 1-quasi-New 2-CG
   NFREE  =      0    steps in history (QN), initial steepest desc. (CG)
   ISIF   =      2    stress and relaxation
   IWAVPR =     10    prediction:  0-non 1-charg 2-wave 3-comb
   ISYM   =      2    0-nonsym 1-usesym 2-fastsym
   LCORR  =      T    Harris-Foulkes like correction to forces

   POTIM  = 0.5000    time-step for ionic-motion
   TEIN   =    0.0    initial temperature
   TEBEG  =    0.0;   TEEND  =   0.0 temperature during run
   SMASS  =  -3.00    Nose mass-parameter (am)
   estimated Nose-frequenzy (Omega)   =  0.10E-29 period in steps =****** mass=  -0.146E-26a.u.
   SCALEE = 1.0000    scale energy and forces
   NPACO  =    256;   APACO  = 16.0  distance and # of slots for P.C.
   PSTRESS=    0.0 pullay stress

  Mass of Ions in am
   POMASS =  63.55
  Ionic Valenz
   ZVAL   =  11.00
  Atomic Wigner-Seitz radii
   RWIGS  =  -1.00
  virtual crystal weights 
   VCA    =   1.00
   NELECT =      11.0000    total number of electrons
   NUPDOWN=      -1.0000    fix difference up-down

 DOS related values:
   EMIN   =  10.00;   EMAX   =-10.00  energy-range for DOS
   EFERMI =   0.00
   ISMEAR =     1;   SIGMA  =   0.10  broadening in eV -4-tet -1-fermi 0-gaus

 Electronic relaxation 2 (details)
   IALGO  =     38    algorithm
   LDIAG  =      T    sub-space diagonalisation (order eigenvalues)
   LSUBROT=      F    optimize rotation matrix (better conditioning)
   TURBO    =      0    0=normal 1=particle mesh
   IRESTART =      0    0=no restart 2=restart with 2 vectors
   NREBOOT  =      0    no. of reboots
   NMIN     =      0    reboot dimension
   EREF     =   0.00    reference energy to select bands
   IMIX   =      4    mixing-type and parameters
     AMIX     =   0.40;   BMIX     =  1.00
     AMIX_MAG =   1.60;   BMIX_MAG =  1.00
     AMIN     =   0.10
     WC   =   100.;   INIMIX=   1;  MIXPRE=   1;  MAXMIX= -45

 Intra band minimization:
   WEIMIN = 0.0000     energy-eigenvalue tresh-hold
   EBREAK =  0.10E-05  absolut break condition
   DEPER  =   0.30     relativ break condition  

   TIME   =   0.40     timestep for ELM

  volume/ion in A,a.u.               =     720.00      4858.80
  Fermi-wavevector in a.u.,A,eV,Ry     =   0.406220  0.767645  2.245164  0.165015
  Thomas-Fermi vector in A             =   1.359048
 
 Write flags
   LWAVE  =      F    write WAVECAR
   LCHARG =      F    write CHGCAR
   LVTOT  =      F    write LOCPOT, total local potential
   LVHAR  =      F    write LOCPOT, Hartree potential only
   LELF   =      F    write electronic localiz. function (ELF)
   LORBIT =      0    0 simple, 1 ext, 2 COOP (PROOUT)


 Dipole corrections
   LMONO  =      F    monopole corrections only (constant potential shift)
   LDIPOL =      F    correct potential (dipole corrections)
   IDIPOL =      0    1-x, 2-y, 3-z, 4-all directions 
   EPSILON=  1.0000000 bulk dielectric constant

 Exchange correlation treatment:
   GGA     =    --    GGA type
   LEXCH   =     8    internal setting for exchange type
   VOSKOWN=      0    Vosko Wilk Nusair interpolation
   LHFCALC =     F    Hartree Fock is set to
   LHFONE  =     F    Hartree Fock one center treatment
   AEXX    =    0.0000 exact exchange contribution

 Linear response parameters
   LEPSILON=     F    determine dielectric tensor
   LRPA    =     F    only Hartree local field effects (RPA)
   LNABLA  =     F    use nabla operator in PAW spheres
   LVEL    =     F    velocity operator in full k-point grid
   LINTERFAST=   F  fast interpolation
   KINTER  =     0    interpolate to denser k-point grid
   CSHIFT  =0.1000    complex shift for real part using Kramers Kronig
   OMEGAMAX=  -1.0    maximum frequency
   DEG_THRESHOLD= 0.2000000E-02 threshold for treating states as degnerate
   RTIME   =    0.100 relaxation time in fs

 Orbital magnetization related:
   ORBITALMAG=     F  switch on orbital magnetization
   LCHIMAG   =     F  perturbation theory with respect to B field
   DQ        =  0.001000  dq finite difference perturbation B field



--------------------------------------------------------------------------------------------------------


 Static calculation
 charge density and potential will be updated during run
 non-spin polarized calculation
 Variant of blocked Davidson
 Davidson routine will perform the subspace rotation
 perform sub-space diagonalisation
    after iterative eigenvector-optimisation
 modified Broyden-mixing scheme, WC =      100.0
 initial mixing is a Kerker type mixing with AMIX =  0.4000 and BMIX =      1.0000
 Hartree-type preconditioning will be used
 using additional bands           18
 reciprocal scheme for non local part
 use partial core corrections
 calculate Harris-corrections to forces 
   (improved forces if not selfconsistent)
 use gradient corrections 
 use of overlap-Matrix (Vanderbilt PP)
 Methfessel and Paxton  Order N= 1 SIGMA  =   0.10


--------------------------------------------------------------------------------------------------------


  energy-cutoff  :      400.00
  volume of cell :      720.00
      direct lattice vectors                 reciprocal lattice vectors
     8.000000000  0.000000000  0.000000000     0.125000000  0.000000000  0.000000000
     0.000000000  9.000000000  0.000000000     0.000000000  0.111111111  0.000000000
     0.000000000  0.000000000 10.000000000     0.000000000  0.000000000  0.100000000

  length of vectors
     8.000000000  9.000000000 10.000000000     0.125000000  0.111111111  0.100000000


 
 k-points in units of 2pi/SCALE and weight: KPOINTS created by Atomic Simulation Env
   0.00000000  0.00000000  0.00000000       1.000
 
 k-points in reciprocal lattice and weights: KPOINTS created by Atomic Simulation Env
   0.00000000  0.00000000  0.00000000       1.000
 
 position of ions in fractional coordinates (direct lattice) 
   0.50000000  0.50000000  0.50000000
 
 position of ions in cartesian coordinates  (Angst):
   4.00000000  4.50000000  5.00000000
 


--------------------------------------------------------------------------------------------------------


 k-point  1 :   0.0000 0.0000 0.0000  plane waves:   13091

 maximum and minimum number of plane-waves per node :     13091    13091

 maximum number of plane-waves:     13091
 maximum index in each direction: 
   IXMAX=   13   IYMAX=   14   IZMAX=   16
   IXMIN=  -13   IYMIN=  -14   IZMIN=  -16

 WARNING: aliasing errors must be expected set NGX to  54 to avoid them
 WARNING: aliasing errors must be expected set NGY to  58 to avoid them
 WARNING: aliasing errors must be expected set NGZ to  66 to avoid them
 aliasing errors are usually negligible using standard VASP settings
 and one can safely disregard these warnings

 serial   3D FFT for wavefunctions
 parallel 3D FFT for charge:
    minimum data exchange during FFTs selected (reduces bandwidth)


 total amount of memory used by VASP on root node    39719. kBytes
========================================================================

   base      :      30000. kBytes
   nonl-proj :       2096. kBytes
   fftplans  :       1660. kBytes
   grid      :       5738. kBytes
   one-center:         15. kBytes
   wavefun   :        210. kBytes
 
     INWAV:  cpu time    0.0000: real time    0.0001
 Broyden mixing: mesh for mixing (old mesh)
   NGX = 27   NGY = 29   NGZ = 33
  (NGX  = 80   NGY  = 96   NGZ  =100)
  gives a total of  25839 points

 initial charge density was supplied:
 charge density of overlapping atoms calculated
 number of electron      11.0000000 magnetization 
 keeping initial charge density in first step


--------------------------------------------------------------------------------------------------------


 Maximum index for augmentation-charges           83 (set IRDMAX)


--------------------------------------------------------------------------------------------------------


 First call to EWALD:  gamma=   0.198
 Maximum number of real-space cells 3x 3x 3
 Maximum number of reciprocal cells 3x 3x 3

 FEWALD executed in parallel
    FEWALD:  cpu time    0.0017: real time    0.0017


----------------------------------------- Iteration    1(   1)  ---------------------------------------


    POTLOK:  cpu time    0.0366: real time    0.0366
    SETDIJ:  cpu time    0.0026: real time    0.0026
     EDDAV:  cpu time    0.0428: real time    0.0428
       DOS:  cpu time    0.0004: real time    0.0005
    --------------------------------------------
      LOOP:  cpu time    0.0840: real time    0.0871

 eigenvalue-minimisations  :    48
 total energy-change (2. order) : 0.4854311E+02  (-0.2043026E+03)
 number of electron      11.0000000 magnetization 
 augmentation part       11.0000000 magnetization 

 Free energy of the ion-electron system (eV)
  ---------------------------------------------------
  alpha Z        PSCENC =         1.01573338
  Ewald energy   TEWEN  =      -272.25557010
  -Hartree energ DENC   =     -1005.09725635
  -exchange      EXHF   =         0.00000000
  -V(xc)+E(xc)   XCENC  =        43.74561012
  PAW double counting   =      1228.20665988    -1334.04846713
  entropy T*S    EENTRO =        -0.01048128
  eigenvalues    EBANDS =        -3.97076142
  atomic energy  EATOM  =      1390.95764020
  Solvation  Ediel_sol  =         0.00000000
  ---------------------------------------------------
  free energy    TOTEN  =        48.54310730 eV

  energy without entropy =       48.55358859  energy(sigma->0) =       48.54660106


--------------------------------------------------------------------------------------------------------




----------------------------------------- Iteration    1(   2)  ---------------------------------------


     EDDAV:  cpu time    0.0366: real time    0.0366
       DOS:  cpu time    0.0003: real time    0.0003
    --------------------------------------------
      LOOP:  cpu time    0.0383: real time    0.0519

 eigenvalue-minimisations  :    48
 total energy-change (2. order) :-0.4795713E+02  (-0.4817097E+02)
 number of electron      11.0000000 magnetization 
 augmentation part       11.0000000 magnetization 

 Free energy of the ion-electron system (eV)
  ---------------------------------------------------
  alpha Z        PSCENC =         1.01573338
  Ewald energy   TEWEN  =      -272.25557010
  -Hartree energ DENC   =     -1005.09725635
  -exchange      EXHF   =         0.00000000
  -V(xc)+E(xc)   XCENC  =        43.74561012
  PAW double counting   =      1228.20665988    -1334.04846713
  entropy T*S    EENTRO =        -0.02817758
  eigenvalues    EBANDS =       -51.91019471
  atomic energy  EATOM  =      1390.95764020
  Solvation  Ediel_sol  =         0.00000000
  ---------------------------------------------------
  free energy    TOTEN  =         0.58597771 eV

  energy without entropy =        0.61415530  energy(sigma->0) =        0.59537024


--------------------------------------------------------------------------------------------------------




----------------------------------------- Iteration    1(   3)  ---------------------------------------


     EDDAV:  cpu time    0.0362: real time    0.0362
       DOS:  cpu time    0.0003: real time    0.0003
    --------------------------------------------
      LOOP:  cpu time    0.0375: real time    0.0487

 eigenvalue-minimisations  :    48
 total energy-change (2. order) :-0.6324469E+00  (-0.6324538E+00)
 number of electron      11.0000000 magnetization 
 augmentation part       11.0000000 magnetization 

 Free energy of the ion-electron system (eV)
  ---------------------------------------------------
  alpha Z        PSCENC =         1.01573338
  Ewald energy   TEWEN  =      -272.25557010
  -Hartree energ DENC   =     -1005.09725635
  -exchange      EXHF   =         0.00000000
  -V(xc)+E(xc)   XCENC  =        43.74561012
  PAW double counting   =      1228.20665988    -1334.04846713
  entropy T*S    EENTRO =        -0.02820930
  eigenvalues    EBANDS =       -52.54260987
  atomic energy  EATOM  =      1390.95764020
  Solvation  Ediel_sol  =         0.00000000
  ---------------------------------------------------
  free energy    TOTEN  =        -0.04646916 eV

  energy without entropy =       -0.01825986  energy(sigma->0) =       -0.03706606


--------------------------------------------------------------------------------------------------------




----------------------------------------- Iteration    1(   4)  ---------------------------------------


     EDDAV:  cpu time    0.0363: real time    0.0364
       DOS:  cpu time    0.0003: real time    0.0003
    --------------------------------------------
      LOOP:  cpu time    0.0376: real time    0.0394

 eigenvalue-minimisations  :    48
 total energy-change (2. order) :-0.5086545E-02  (-0.5086545E-02)
 number of electron      11.0000000 magnetization 
 augmentation part       11.0000000 magnetization 

 Free energy of the ion-electron system (eV)
  ---------------------------------------------------
  alpha Z        PSCENC =         1.01573338
  Ewald energy   TEWEN  =      -272.25557010
  -Hartree energ DENC   =     -1005.09725635
  -exchange      EXHF   =         0.00000000
  -V(xc)+E(xc)   XCENC  =        43.74561012
  PAW double counting   =      1228.20665988    -1334.04846713
  entropy T*S    EENTRO =        -0.02820930
  eigenvalues    EBANDS =       -52.54769641
  atomic energy  EATOM  =      1390.95764020
  Solvation  Ediel_sol  =         0.00000000
  ---------------------------------------------------
  free energy    TOTEN  =        -0.05155570 eV

  energy without entropy =       -0.02334640  energy(sigma->0) =       -0.04215260


--------------------------------------------------------------------------------------------------------




----------------------------------------- Iteration    1(   5)  ---------------------------------------


     EDDAV:  cpu time    0.0360: real time    0.0365
       DOS:  cpu time    0.0003: real time    0.0003
    CHARGE:  cpu time    0.0198: real time    0.0199
    MIXING:  cpu time    0.0014: real time    0.0015
    --------------------------------------------
      LOOP:  cpu time    0.0585: real time    0.0606

 eigenvalue-minimisations  :    48
 total energy-change (2. order) :-0.7577694E-04  (-0.7577748E-04)
 number of electron      11.0000064 magnetization 
 augmentation part        7.1928098 magnetization 

 Broyden mixing:
  rms(total) = 0.63063E-02    rms(broyden)= 0.57230E-02
  rms(prec ) = 0.71858E-02
  weight for this iteration     100.00

 Free energy of the ion-electron system (eV)
  ---------------------------------------------------
  alpha Z        PSCENC =         1.01573338
  Ewald energy   TEWEN  =      -272.25557010
  -Hartree energ DENC   =     -1005.09725635
  -exchange      EXHF   =         0.00000000
  -V(xc)+E(xc)   XCENC  =        43.74561012
  PAW double counting   =      1228.20665988    -1334.04846713
  entropy T*S    EENTRO =        -0.02820930
  eigenvalues    EBANDS =       -52.54777219
  atomic energy  EATOM  =      1390.95764020
  Solvation  Ediel_sol  =         0.00000000
  ---------------------------------------------------
  free energy    TOTEN  =        -0.05163148 eV

  energy without entropy =       -0.02342218  energy(sigma->0) =       -0.04222838


--------------------------------------------------------------------------------------------------------




----------------------------------------- Iteration    1(   6)  ---------------------------------------


    POTLOK:  cpu time    0.0252: real time    0.0253
    SETDIJ:  cpu time    0.0021: real time    0.0021
     EDDAV:  cpu time    0.0370: real time    0.0372
       DOS:  cpu time    0.0003: real time    0.0003
    CHARGE:  cpu time    0.0180: real time    0.0180
    MIXING:  cpu time    0.0017: real time    0.0017
    --------------------------------------------
      LOOP:  cpu time    0.0854: real time    0.0912

 eigenvalue-minimisations  :    48
 total energy-change (2. order) :-0.3156067E-03  (-0.6545297E-05)
 number of electron      11.0000064 magnetization 
 augmentation part        7.1927736 magnetization 

 Broyden mixing:
  rms(total) = 0.34914E-02    rms(broyden)= 0.34512E-02
  rms(prec ) = 0.46273E-02
  weight for this iteration     100.00

 eigenvalues of (default mixing * dielectric matrix)
  average eigenvalue GAMMA=   2.4520
  2.4520

 Free energy of the ion-electron system (eV)
  ---------------------------------------------------
  alpha Z        PSCENC =         1.01573338
  Ewald energy   TEWEN  =      -272.25557010
  -Hartree energ DENC   =     -1005.00727458
  -exchange      EXHF   =         0.00000000
  -V(xc)+E(xc)   XCENC  =        43.74522734
  PAW double counting   =      1227.50940914    -1333.34007388
  entropy T*S    EENTRO =        -0.02820933
  eigenvalues    EBANDS =       -52.64882927
  atomic energy  EATOM  =      1390.95764020
  Solvation  Ediel_sol  =         0.00000000
  ---------------------------------------------------
  free energy    TOTEN  =        -0.05194709 eV

  energy without entropy =       -0.02373776  energy(sigma->0) =       -0.04254398


--------------------------------------------------------------------------------------------------------




----------------------------------------- Iteration    1(   7)  ---------------------------------------


    POTLOK:  cpu time    0.0240: real time    0.0241
    SETDIJ:  cpu time    0.0020: real time    0.0020
     EDDAV:  cpu time    0.0581: real time    0.0598
       DOS:  cpu time    0.0008: real time    0.0008
    CHARGE:  cpu time    0.0200: real time    0.0200
    MIXING:  cpu time    0.0011: real time    0.0011
    --------------------------------------------
      LOOP:  cpu time    0.1072: real time    0.1106

 eigenvalue-minimisations  :    48
 total energy-change (2. order) :-0.2086516E-03  (-0.9894217E-05)
 number of electron      11.0000064 magnetization 
 augmentation part        7.1929842 magnetization 

 Broyden mixing:
  rms(total) = 0.57101E-03    rms(broyden)= 0.56019E-03
  rms(prec ) = 0.13345E-02
  weight for this iteration     100.00

 eigenvalues of (default mixing * dielectric matrix)
  average eigenvalue GAMMA=   1.9020
  1.1878  2.6163

 Free energy of the ion-electron system (eV)
  ---------------------------------------------------
  alpha Z        PSCENC =         1.01573338
  Ewald energy   TEWEN  =      -272.25557010
  -Hartree energ DENC   =     -1004.84348121
  -exchange      EXHF   =         0.00000000
  -V(xc)+E(xc)   XCENC  =        43.74312056
  PAW double counting   =      1226.56540227    -1332.37756897
  entropy T*S    EENTRO =        -0.02820937
  eigenvalues    EBANDS =       -52.82922251
  atomic energy  EATOM  =      1390.95764020
  Solvation  Ediel_sol  =         0.00000000
  ---------------------------------------------------
  free energy    TOTEN  =        -0.05215574 eV

  energy without entropy =       -0.02394637  energy(sigma->0) =       -0.04275262


--------------------------------------------------------------------------------------------------------




----------------------------------------- Iteration    1(   8)  ---------------------------------------


    POTLOK:  cpu time    0.0281: real time    0.0281
    SETDIJ:  cpu time    0.0027: real time    0.0027
     EDDAV:  cpu time    0.0380: real time    0.0380
       DOS:  cpu time    0.0003: real time    0.0003
    --------------------------------------------
      LOOP:  cpu time    0.0701: real time    0.0716

 eigenvalue-minimisations  :    48
 total energy-change (2. order) :-0.4820521E-04  (-0.2049019E-05)
 number of electron      11.0000064 magnetization 
 augmentation part        7.1929842 magnetization 

 Free energy of the ion-electron system (eV)
  ---------------------------------------------------
  alpha Z        PSCENC =         1.01573338
  Ewald energy   TEWEN  =      -272.25557010
  -Hartree energ DENC   =     -1004.81574867
  -exchange      EXHF   =         0.00000000
  -V(xc)+E(xc)   XCENC  =        43.74295243
  PAW double counting   =      1226.75645852    -1332.57853186
  entropy T*S    EENTRO =        -0.02820935
  eigenvalues    EBANDS =       -52.84692849
  atomic energy  EATOM  =      1390.95764020
  Solvation  Ediel_sol  =         0.00000000
  ---------------------------------------------------
  free energy    TOTEN  =        -0.05220394 eV

  energy without entropy =       -0.02399459  energy(sigma->0) =       -0.04280083


--------------------------------------------------------------------------------------------------------




 average (electrostatic) potential at core
  the test charge radii are     0.9430
  (the norm of the test charge is              1.0000)
       1 -73.3721
 
 
 
 E-fermi :  -4.4245     XC(G=0):  -1.1465     alpha+bet : -0.2202


 k-point     1 :       0.0000    0.0000    0.0000
  band No.  band energies     occupation 
      1      -4.8427      2.00000
      2      -4.8426      2.00000
      3      -4.8422      2.00000
      4      -4.8419      2.00000
      5      -4.8417      2.00000
      6      -4.4245      1.00000
      7      -0.4583      0.00000
      8      -0.3611      0.00000
      9      -0.1959      0.00000
     10      -0.1146      0.00000
     11       1.0320      0.00000
     12       1.3081      0.00000
     13       1.9297      0.00000
     14       2.1702      0.00000
     15       2.3636      0.00000
     16       2.3872      0.00000
     17       2.5516      0.00000
     18       2.7913      0.00000
     19       2.9729      0.00000
     20       3.0323      0.00000
     21       3.1158      0.00000
     22       3.1607      0.00000
     23       3.4400      0.00000
     24       3.5459      0.00000


--------------------------------------------------------------------------------------------------------


 soft charge-density along one line, spin component           1
         0         1         2         3         4         5         6         7         8         9
 total charge-density along one line
 
 pseudopotential strength for first ion, spin component:           1
 -9.830  -0.000   0.000   0.000  -0.000   0.453   0.000  -0.000
 -0.000  -9.830   0.000   0.000  -0.000   0.000   0.453  -0.000
  0.000   0.000  -9.831  -0.000   0.000  -0.000  -0.000   0.453
  0.000   0.000  -0.000  -9.830  -0.000  -0.000  -0.000   0.000
 -0.000  -0.000   0.000  -0.000  -9.831   0.000   0.000  -0.000
  0.453   0.000  -0.000  -0.000   0.000   6.734  -0.000  -0.000
  0.000   0.453  -0.000  -0.000   0.000  -0.000   6.734   0.000
 -0.000  -0.000   0.453   0.000  -0.000  -0.000   0.000   6.734
 -0.000  -0.000   0.000   0.453   0.000   0.000   0.000  -0.000
  0.000   0.000  -0.000   0.000   0.453  -0.000  -0.000   0.000
 -0.000  -0.000  -0.000   0.000   0.000  -0.000  -0.000   0.000
 -0.000  -0.000  -0.000   0.000   0.000  -0.000  -0.000   0.000
  0.000   0.000   0.000   0.000   0.000   0.000  -0.000  -0.000
  0.000  -0.000   0.000   0.000   0.000   0.000   0.000   0.000
 -0.000   0.000  -0.000   0.000   0.000   0.000   0.000   0.000
  0.000   0.000   0.000  -0.000   0.000   0.000  -0.000   0.000
 -0.000  -0.000   0.000   0.000  -0.000   0.000  -0.000   0.000
 -0.000  -0.000  -0.000   0.000   0.000  -0.000   0.000   0.000
 total augmentation occupancy for first ion, spin component:           1
  2.000   0.000  -0.000   0.000   0.000  -0.000   0.000   0.000   0.000   0.000   0.000   0.000   0.000   0.000   0.000   0.000
  0.000   2.000   0.000   0.000   0.000   0.000  -0.000   0.000   0.000   0.000   0.000   0.000   0.000   0.000   0.000   0.000
 -0.000   0.000   1.999   0.000   0.000   0.000   0.000  -0.000   0.000   0.000  -0.001   0.000   0.000   0.000   0.000   0.000
  0.000   0.000   0.000   2.000   0.000   0.000   0.000   0.000  -0.000   0.000   0.000   0.000   0.000   0.000   0.000   0.000
  0.000   0.000   0.000   0.000   1.999  -0.000   0.000   0.000   0.000  -0.000   0.001  -0.000   0.000   0.000   0.000   0.000
 -0.000   0.000   0.000   0.000  -0.000   0.000   0.000  -0.000   0.000  -0.000  -0.000   0.000   0.000   0.000   0.000   0.000
  0.000  -0.000   0.000   0.000   0.000   0.000   0.000   0.000   0.000   0.000   0.000   0.000   0.000   0.000   0.000   0.000
  0.000   0.000  -0.000   0.000   0.000  -0.000   0.000   0.000   0.000  -0.000  -0.000  -0.000   0.000   0.000   0.000   0.000
  0.000   0.000   0.000  -0.000   0.000   0.000   0.000   0.000   0.000   0.000   0.000   0.000   0.000   0.000   0.000   0.000
  0.000   0.000   0.000   0.000  -0.000   0.000   0.000  -0.000   0.000   0.000   0.000   0.000   0.000   0.000   0.000   0.000
  0.000   0.000  -0.001   0.000   0.001  -0.000   0.000  -0.000   0.000   0.000   0.988   0.001   0.000   0.000   0.000   0.000
 -0.000   0.000   0.000   0.000  -0.000   0.000   0.000  -0.000   0.000   0.000   0.001   0.000   0.000   0.000   0.000   0.000
  0.000   0.000   0.000   0.000   0.000   0.000   0.000   0.000   0.000   0.000   0.000   0.000   0.000   0.000   0.000  -0.000
  0.000   0.000   0.000   0.000   0.000   0.000   0.000   0.000   0.000   0.000   0.000   0.000   0.000   0.000   0.000   0.000
  0.000   0.000   0.000   0.000   0.000   0.000   0.000   0.000   0.000   0.000   0.000   0.000   0.000   0.000   0.000   0.000
  0.000   0.000   0.000   0.000   0.000   0.000   0.000   0.000   0.000   0.000   0.000   0.000  -0.000   0.000   0.000   0.000
  0.000   0.000   0.000   0.000   0.000   0.000   0.000   0.000   0.000   0.000   0.000   0.000   0.000  -0.000   0.000   0.000
  0.000   0.000   0.000   0.000   0.000   0.000   0.000   0.000   0.000   0.000   0.000   0.000   0.000   0.000  -0.000   0.000


------------------------ aborting loop because EDIFF is reached ----------------------------------------


    CHARGE:  cpu time    0.0176: real time    0.0176
    FORLOC:  cpu time    0.0007: real time    0.0007
    FORNL :  cpu time    0.0077: real time    0.0077
    STRESS:  cpu time    0.0676: real time    0.0676
    FORCOR:  cpu time    0.0228: real time    0.0235
    FORHAR:  cpu time    0.0061: real time    0.0061
    MIXING:  cpu time    0.0018: real time    0.0018
    OFIELD:  cpu time    0.0001: real time    0.0001

  FORCE on cell =-STRESS in cart. coord.  units (eV):
  Direction    XX          YY          ZZ          XY          YZ          ZX
  --------------------------------------------------------------------------------------
  Alpha Z     1.01573     1.01573     1.01573
  Ewald     -58.49678   -91.23187  -122.52691    -0.00000     0.00000    -0.00000
  Hartree   366.00200   334.50071   304.17330    -0.00000    -0.00000    -0.00000
  E(xc)     -64.09469   -64.09535   -64.09514    -0.00000    -0.00000    -0.00000
  Local    -398.17407  -333.89944  -272.26499    -0.00000    -0.00000    -0.00000
  n-local   -30.48370   -30.50444   -30.51005    -0.00001    -0.00003    -0.00002
  augment    91.86129    91.83642    91.85302     0.00000     0.00000     0.00000
  Kinetic    92.11479    92.16220    92.17977     0.00001     0.00004     0.00003
  Fock        0.00000     0.00000     0.00000     0.00000     0.00000     0.00000
  -------------------------------------------------------------------------------------
  Total      -0.25542    -0.21605    -0.17527    -0.00000     0.00000     0.00000
  in kB      -0.56838    -0.48076    -0.39003    -0.00000     0.00000     0.00000
  external pressure =       -0.48 kB  Pullay stress =        0.00 kB


 VOLUME and BASIS-vectors are now :
 -----------------------------------------------------------------------------
  energy-cutoff  :      400.00
  volume of cell :      720.00
      direct lattice vectors                 reciprocal lattice vectors
     8.000000000  0.000000000  0.000000000     0.125000000  0.000000000  0.000000000
     0.000000000  9.000000000  0.000000000     0.000000000  0.111111111  0.000000000
     0.000000000  0.000000000 10.000000000     0.000000000  0.000000000  0.100000000

  length of vectors
     8.000000000  9.000000000 10.000000000     0.125000000  0.111111111  0.100000000


 FORCES acting on ions
    electron-ion (+dipol)            ewald-force                    non-local-force                 convergence-correction
 -----------------------------------------------------------------------------------------------
   -.249E-13 0.574E-11 -.205E-11   -.376E-15 0.199E-15 0.208E-16   0.000E+00 0.000E+00 0.000E+00   -.729E-14 0.235E-12 0.441E-12
 -----------------------------------------------------------------------------------------------
   -.249E-13 0.574E-11 -.205E-11   -.376E-15 0.199E-15 0.208E-16   0.000E+00 0.000E+00 0.000E+00   -.729E-14 0.235E-12 0.441E-12
 
 
 POSITION                                       TOTAL-FORCE (eV/Angst)
 -----------------------------------------------------------------------------------
      4.00000      4.50000      5.00000         0.000000      0.000000      0.000000
 -----------------------------------------------------------------------------------
    total drift:                               -0.000000      0.000000     -0.000000


--------------------------------------------------------------------------------------------------------



  FREE ENERGIE OF THE ION-ELECTRON SYSTEM (eV)
  ---------------------------------------------------
  free  energy   TOTEN  =        -0.05220394 eV

  energy  without entropy=       -0.02399459  energy(sigma->0) =       -0.04280083
 


--------------------------------------------------------------------------------------------------------


    POTLOK:  cpu time    0.0267: real time    0.0275


--------------------------------------------------------------------------------------------------------


     LOOP+:  cpu time    0.6806: real time    0.7334
    4ORBIT:  cpu time    0.0000: real time    0.0000

 total amount of memory used by VASP on root node    39719. kBytes
========================================================================

   base      :      30000. kBytes
   nonl-proj :       2096. kBytes
   fftplans  :       1660. kBytes
   grid      :       5738. kBytes
   one-center:         15. kBytes
   wavefun   :        210. kBytes
 
  
  
 General timing and accounting informations for this job:
 ========================================================
  
                  Total CPU time used (sec):        1.151
                            User time (sec):        1.039
                          System time (sec):        0.112
                         Elapsed time (sec):        1.421
  
                   Maximum memory used (kb):       71140.
                   Average memory used (kb):           0.
  
                          Minor page faults:        13409
                          Major page faults:           10
                 Voluntary context switches:         1529
