----- GAMESS execution script 'rungms' -----
This job is running on host crcfe01.crc.nd.edu
under operating system Linux at Thu Oct 17 23:38:48 EDT 2019
Available scratch disk space (Kbyte units) at beginning of the job is
Filesystem      1K-blocks  Used  Available Use% Mounted on
AFS            2147483647     0 2147483647   0% /afs
GAMESS temporary binary files will be written to /afs/crc.nd.edu/user/c/cdrisko
GAMESS supplementary output files will be written to /afs/crc.nd.edu/user/c/cdrisko/scr
Copying input file acetaldehyde.inp to your run's scratch directory...

 Distributed Data Interface kickoff program.
 Initiating 1 compute processes on 1 nodes to run the following command:
 /afs/crc.nd.edu/x86_64_linux/g/gamess/nov-2017/gamess/gamess.00.x acetaldehyde 

          ******************************************************
          *         GAMESS VERSION = 11 NOV 2017 (R3)         *
          *             FROM IOWA STATE UNIVERSITY             *
          * M.W.SCHMIDT, K.K.BALDRIDGE, J.A.BOATZ, S.T.ELBERT, *
          *   M.S.GORDON, J.H.JENSEN, S.KOSEKI, N.MATSUNAGA,   *
          *          K.A.NGUYEN, S.J.SU, T.L.WINDUS,           *
          *       TOGETHER WITH M.DUPUIS, J.A.MONTGOMERY       *
          *         J.COMPUT.CHEM.  14, 1347-1363(1993)        *
          **************** 64 BIT INTEL VERSION ****************

  SINCE 1993, STUDENTS AND POSTDOCS WORKING AT IOWA STATE UNIVERSITY
  AND ALSO IN THEIR VARIOUS JOBS AFTER LEAVING ISU HAVE MADE IMPORTANT
  CONTRIBUTIONS TO THE CODE:
     IVANA ADAMOVIC, CHRISTINE AIKENS, YURI ALEXEEV, POOJA ARORA,
     ANDREY ASADCHEV, ROB BELL, PRADIPTA BANDYOPADHYAY, JONATHAN BENTZ,
     BRETT BODE, KURT BRORSEN, CALEB CARLIN, GALINA CHABAN, WEI CHEN,
     CHEOL HO CHOI, PAUL DAY, ALBERT DEFUSCO, NUWAN DESILVA, TIM DUDLEY,
     DMITRI FEDOROV, ALEX FINDLATER, GRAHAM FLETCHER, MARK FREITAG,
     KURT GLAESEMANN, ANASTASIA GUININA,
     DAN KEMP, GRANT MERRILL, NORIYUKI MINEZAWA, JONATHAN MULLIN,
     TAKESHI NAGATA, SEAN NEDD, HEATHER NETZLOFF, BOSILJKA NJEGIC, RYAN OLSON,
     MIKE PAK, BUU PHAM,
     SPENCER PRUITT, LUKE ROSKOP, JIM SHOEMAKER, LYUDMILA SLIPCHENKO,
     TONY SMITH, SAROM SOK LEANG, JIE SONG, TETSUYA TAKETSUGU, SIMON WEBB,
     PENG XU, SOOHAENG YOO, FEDERICO ZAHARIEV

  ADDITIONAL CODE HAS BEEN PROVIDED BY COLLABORATORS IN OTHER GROUPS:
     IOWA STATE UNIVERSITY:
          JOE IVANIC, AARON WEST, LAIMUTIS BYTAUTAS, KLAUS RUEDENBERG
     UNIVERSITY OF TOKYO: KIMIHIKO HIRAO, TAKAHITO NAKAJIMA,
          TAKAO TSUNEDA, MUNEAKI KAMIYA, SUSUMU YANAGISAWA,
          KIYOSHI YAGI, MAHITO CHIBA, SEIKEN TOKURA, NAOAKI KAWAKAMI
     UNIVERSITY OF AARHUS: FRANK JENSEN
     UNIVERSITY OF IOWA: VISVALDAS KAIRYS, HUI LI
     NATIONAL INST. OF STANDARDS AND TECHNOLOGY: WALT STEVENS, DAVID GARMER
     UNIVERSITY OF PISA: BENEDETTA MENNUCCI, JACOPO TOMASI
     UNIVERSITY OF MEMPHIS: HENRY KURTZ, PRAKASHAN KORAMBATH
     UNIVERSITY OF ALBERTA: TOBY ZENG, MARIUSZ KLOBUKOWSKI
     UNIVERSITY OF NEW ENGLAND: MARK SPACKMAN
     MIE UNIVERSITY: HIROAKI UMEDA
     NAT. INST. OF ADVANCED INDUSTRIAL SCIENCE AND TECHNOLOGY: KAZUO KITAURA
     MICHIGAN STATE UNIVERSITY:
          KAROL KOWALSKI, MARTA WLOCH, JEFFREY GOUR, JESSE LUTZ,
          WEI LI, PIOTR PIECUCH
     UNIVERSITY OF SILESIA: MONIKA MUSIAL, STANISLAW KUCHARSKI
     FACULTES UNIVERSITAIRES NOTRE-DAME DE LA PAIX:
          OLIVIER QUINET, BENOIT CHAMPAGNE
     UNIVERSITY OF CALIFORNIA - SANTA BARBARA: BERNARD KIRTMAN
     INSTITUTE FOR MOLECULAR SCIENCE:
          KAZUYA ISHIMURA, MICHIO KATOUDA, AND SHIGERU NAGASE
     UNIVERSITY OF NOTRE DAME: ANNA POMOGAEVA, DAN CHIPMAN
     KYUSHU UNIVERSITY:
          HARUYUKI NAKANO,
          FENG LONG GU, JACEK KORCHOWIEC, MARCIN MAKOWSKI, AND YURIKO AOKI,
          HIROTOSHI MORI AND EISAKU MIYOSHI
     PENNSYLVANIA STATE UNIVERSITY:
          TZVETELIN IORDANOV, CHET SWALINA, JONATHAN SKONE,
          SHARON HAMMES-SCHIFFER
     WASEDA UNIVERSITY:
          MASATO KOBAYASHI, TOMOKO AKAMA, TSUGUKI TOUMA,
          TAKESHI YOSHIKAWA, YASUHIRO IKABATA, JUNJI SEINO,
          YUYA NAKAJIMA, HIROMI NAKAI
     NANJING UNIVERSITY: SHUHUA LI
     UNIVERSITY OF NEBRASKA:
          PEIFENG SU, DEJUN SI, NANDUN THELLAMUREGE, YALI WANG, HUI LI
     UNIVERSITY OF ZURICH: ROBERTO PEVERATI, KIM BALDRIDGE
     N. COPERNICUS UNIVERSITY AND JACKSON STATE UNIVERSITY:
          MARIA BARYSZ
     UNIVERSITY OF COPENHAGEN: Jimmy Kromann, CASPER STEINMANN
     TOKYO INSTITUTE OF TECHNOLOGY: HIROYA NAKATA
     NAGOYA UNIVERSITY: YOSHIO NISHIMOTO, STEPHAN IRLE
     MOSCOW STATE UNIVERSITY: VLADIMIR MIRONOV

 EXECUTION OF GAMESS BEGUN Thu Oct 17 23:38:48 2019

            ECHO OF THE FIRST FEW INPUT CARDS -
 INPUT CARD> $CONTRL SCFTYP=RHF DFTTYP=B3LYP RUNTYP=ENERGY                                  
 INPUT CARD>       ISPHER=1 MULT=1 COORD=ZMT NZVAR=15 $END                                  
 INPUT CARD> $BASIS GBASIS=N31 NGAUSS=6 NDFUNC=1 $END                                       
 INPUT CARD> $STATPT IFREEZ(1)=9 $END                                                       
 INPUT CARD> $DATA                                                                          
 INPUT CARD>Title Single Point Energy Calculation of Acetaldehyde                           
 INPUT CARD>C1                                                                              
 INPUT CARD>C                                                                               
 INPUT CARD>C      1   1.5086892                                                            
 INPUT CARD>O      2   1.2107245  1  124.7161                                               
 INPUT CARD>H      2   1.1145804  1  114.7739  3  180.0000  0                               
 INPUT CARD>H      1   1.0926781  2  110.5176  3  -150.      0                              
 INPUT CARD>H      1   1.0983769  2  109.8265  3  121.4889  0                               
 INPUT CARD>H      1   1.0983769  2  109.8265  3 -121.4889  0                               
 INPUT CARD> $END                                                                           
    1000000 WORDS OF MEMORY AVAILABLE

     BASIS OPTIONS
     -------------
     GBASIS=N31          IGAUSS=       6      POLAR=POPN31  
     NDFUNC=       1     NFFUNC=       0     DIFFSP=       F
     NPFUNC=       0      DIFFS=       F     BASNAM=        


     RUN TITLE
     ---------
 Title Single Point Energy Calculation of Acetaldehyde                           

 THE POINT GROUP OF THE MOLECULE IS C1      
 THE ORDER OF THE PRINCIPAL AXIS IS     0

 YOUR FULLY SUBSTITUTED Z-MATRIX IS
 C   
 C      1   1.5086892
 O      2   1.2107245  1  124.7161
 H      2   1.1145804  1  114.7739  3  180.0000  0
 H      1   1.0926781  2  110.5176  3 -150.0000  0
 H      1   1.0983769  2  109.8265  3  121.4889  0
 H      1   1.0983769  2  109.8265  3 -121.4889  0

 THE MOMENTS OF INERTIA ARE (AMU-ANGSTROM**2)
 IXX=     7.579   IYY=    52.940   IZZ=    56.932

 ATOM      ATOMIC                      COORDINATES (BOHR)
           CHARGE         X                   Y                   Z
 C           6.0    -2.3303084112        0.5209653833       -0.0461662046
 C           6.0     0.2325217780       -0.7280874396       -0.0508417304
 O           8.0     2.2268468860        0.3894047482        0.0415531494
 H           1.0     0.1889816048       -2.8316270321       -0.1484174273
 H           1.0    -3.7336853942       -0.7098873770        0.8365514390
 H           1.0    -3.3752720163       -0.0097962992       -1.7592303289
 H           1.0    -3.4437043252       -0.1626567219        1.5666747514

          INTERNUCLEAR DISTANCES (ANGS.)
          ------------------------------

                1 C          2 C          3 O          4 H          5 H     

   1 C       0.0000000    1.5086892 *  2.4129941 *  2.2198436 *  1.0926781 *
   2 C       1.5086892 *  0.0000000    1.2107245 *  1.1145804 *  2.1507392 *
   3 O       2.4129941 *  1.2107245 *  0.0000000    2.0194911 *  3.2348450  
   4 H       2.2198436 *  1.1145804 *  2.0194911 *  0.0000000    2.4168551 *
   5 H       1.0926781 *  2.1507392 *  3.2348450    2.4168551 *  0.0000000  
   6 H       1.0983769 *  2.1463151 *  3.1210656    2.5522231 *  1.4352971 *
   7 H       1.0983769 *  2.1463151 *  3.1210656    2.5522231 *  0.5066386 *

                6 H          7 H     

   1 C       1.0983769 *  1.0983769 *
   2 C       2.1463151 *  2.1463151 *
   3 O       3.1210656    3.1210656  
   4 H       2.5522231 *  2.5522231 *
   5 H       1.4352971 *  0.5066386 *
   6 H       0.0000000    1.7622233 *
   7 H       1.7622233 *  0.0000000  

  * ... LESS THAN  3.000


     ATOMIC BASIS SET
     ----------------
 THE CONTRACTED PRIMITIVE FUNCTIONS HAVE BEEN UNNORMALIZED
 THE CONTRACTED BASIS FUNCTIONS ARE NOW NORMALIZED TO UNITY

  SHELL TYPE  PRIMITIVE        EXPONENT          CONTRACTION COEFFICIENT(S)

 C         

      1   S       1          3047.5248800    0.001834737132
      1   S       2           457.3695180    0.014037322813
      1   S       3           103.9486850    0.068842622264
      1   S       4            29.2101553    0.232184443216
      1   S       5             9.2866630    0.467941348435
      1   S       6             3.1639270    0.362311985337

      2   L       7             7.8682723   -0.119332419775    0.068999066591
      2   L       8             1.8812885   -0.160854151696    0.316423960957
      2   L       9             0.5442493    1.143456437840    0.744308290898

      3   L      10             0.1687145    1.000000000000    1.000000000000

      4   D      11             0.8000000    1.000000000000

 C         

      5   S      12          3047.5248800    0.001834737132
      5   S      13           457.3695180    0.014037322813
      5   S      14           103.9486850    0.068842622264
      5   S      15            29.2101553    0.232184443216
      5   S      16             9.2866630    0.467941348435
      5   S      17             3.1639270    0.362311985337

      6   L      18             7.8682723   -0.119332419775    0.068999066591
      6   L      19             1.8812885   -0.160854151696    0.316423960957
      6   L      20             0.5442493    1.143456437840    0.744308290898

      7   L      21             0.1687145    1.000000000000    1.000000000000

      8   D      22             0.8000000    1.000000000000

 O         

      9   S      23          5484.6716600    0.001831074430
      9   S      24           825.2349460    0.013950172200
      9   S      25           188.0469580    0.068445078098
      9   S      26            52.9645000    0.232714335992
      9   S      27            16.8975704    0.470192897984
      9   S      28             5.7996353    0.358520852987

     10   L      29            15.5396162   -0.110777549525    0.070874268231
     10   L      30             3.5999336   -0.148026262701    0.339752839147
     10   L      31             1.0137618    1.130767015354    0.727158577316

     11   L      32             0.2700058    1.000000000000    1.000000000000

     12   D      33             0.8000000    1.000000000000

 H         

     13   S      34            18.7311370    0.033494604338
     13   S      35             2.8253944    0.234726953484
     13   S      36             0.6401217    0.813757326146

     14   S      37             0.1612778    1.000000000000

 H         

     15   S      38            18.7311370    0.033494604338
     15   S      39             2.8253944    0.234726953484
     15   S      40             0.6401217    0.813757326146

     16   S      41             0.1612778    1.000000000000

 H         

     17   S      42            18.7311370    0.033494604338
     17   S      43             2.8253944    0.234726953484
     17   S      44             0.6401217    0.813757326146

     18   S      45             0.1612778    1.000000000000

 H         

     19   S      46            18.7311370    0.033494604338
     19   S      47             2.8253944    0.234726953484
     19   S      48             0.6401217    0.813757326146

     20   S      49             0.1612778    1.000000000000

 TOTAL NUMBER OF BASIS SET SHELLS             =   20
 NUMBER OF CARTESIAN GAUSSIAN BASIS FUNCTIONS =   53
 NOTE: THIS RUN WILL RESTRICT THE MO VARIATION SPACE TO SPHERICAL HARMONICS.
 THE NUMBER OF ORBITALS KEPT IN THE VARIATIONAL SPACE WILL BE PRINTED LATER.
 NUMBER OF ELECTRONS                          =   24
 CHARGE OF MOLECULE                           =    0
 SPIN MULTIPLICITY                            =    1
 NUMBER OF OCCUPIED ORBITALS (ALPHA)          =   12
 NUMBER OF OCCUPIED ORBITALS (BETA )          =   12
 TOTAL NUMBER OF ATOMS                        =    7
 THE NUCLEAR REPULSION ENERGY IS       69.9991179002

     LEBEDEV GRID-BASED DFT OPTIONS
     ------------------------------
     DFTTYP=B3LYP   
     NRAD  =      96     NLEB  =     302
     NRAD0 =      24     NLEB0 =     110
     SWOFF =    5.00E-03 (PURE SCF -> DFT)
     SWITCH=    3.00E-04 (COARSE -> TIGHT GRID)
     THRESH=    0.00E+00 GTHRE=    1.00E+00

 GRIMME'S EMPIRICAL DISPERSION CORRECTION= F

     $CONTRL OPTIONS
     ---------------
 SCFTYP=RHF          RUNTYP=ENERGY       EXETYP=RUN     
 MPLEVL=       0     CITYP =NONE         CCTYP =NONE         VBTYP =NONE    
 DFTTYP=B3LYP        TDDFT =NONE    
 MULT  =       1     ICHARG=       0     NZVAR =      15     COORD =ZMT     
 PP    =NONE         RELWFN=NONE         LOCAL =NONE         NUMGRD=       F
 ISPHER=       1     NOSYM =       0     MAXIT =      30     UNITS =ANGS    
 PLTORB=       F     MOLPLT=       F     AIMPAC=       F     FRIEND=        
 NPRINT=       7     IREST =       0     GEOM  =INPUT   
 NORMF =       0     NORMP =       0     ITOL  =      20     ICUT  =       9
 INTTYP=BEST         GRDTYP=BEST         QMTTOL= 1.0E-06

     $SYSTEM OPTIONS
     ---------------
  REPLICATED MEMORY=     1000000 WORDS (ON EVERY NODE).
 DISTRIBUTED MEMDDI=           0 MILLION WORDS IN AGGREGATE,
 MEMDDI DISTRIBUTED OVER   1 PROCESSORS IS           0 WORDS/PROCESSOR.
 TOTAL MEMORY REQUESTED ON EACH PROCESSOR=     1000000 WORDS.
 TIMLIM=      525600.00 MINUTES, OR     365.0 DAYS.
 PARALL= F  BALTYP=  DLB     KDIAG=    0  COREFL= F
 MXSEQ2=     300 MXSEQ3=     150  mem10=         0

          ----------------
          PROPERTIES INPUT
          ----------------

     MOMENTS            FIELD           POTENTIAL          DENSITY
 IEMOM =       1   IEFLD =       0   IEPOT =       0   IEDEN =       0
 WHERE =COMASS     WHERE =NUCLEI     WHERE =NUCLEI     WHERE =NUCLEI  
 OUTPUT=BOTH       OUTPUT=BOTH       OUTPUT=BOTH       OUTPUT=BOTH    
 IEMINT=       0   IEFINT=       0                     IEDINT=       0
                                                       MORB  =       0
          EXTRAPOLATION IN EFFECT
          DIIS IN EFFECT
 ORBITAL PRINTING OPTION: NPREO=     1    53     2     1

     -------------------------------
     INTEGRAL TRANSFORMATION OPTIONS
     -------------------------------
     NWORD  =            0
     CUTOFF = 1.0E-09     MPTRAN =       0
     DIRTRF =       F     AOINTS =DUP     

          ----------------------
          INTEGRAL INPUT OPTIONS
          ----------------------
 NOPK  =       1 NORDER=       0 SCHWRZ=       T

   --- ENCODED Z MATRIX ---
 COORD  TYPE   I   J   K   L   M   N
    1      1    2   1
    2      1    3   2
    3      2    3   2   1
    4      1    4   2
    5      2    4   2   1
    6      3    4   2   1   3
    7      1    5   1
    8      2    5   1   2
    9      3    5   1   2   3
   10      1    6   1
   11      2    6   1   2
   12      3    6   1   2   3
   13      1    7   1
   14      2    7   1   2
   15      3    7   1   2   3

 THE DETERMINANT OF THE G MATRIX IS 10**(    -8)


                     --------------------
                     INTERNAL COORDINATES
                     --------------------

                 - - ATOMS - -         COORDINATE      COORDINATE
 NO.   TYPE    I  J  K  L  M  N        (BOHR,RAD)       (ANG,DEG)
 ----------------------------------------------------------------
   1 STRETCH   2  1                     2.8510092       1.5086892
   2 STRETCH   3  2                     2.2879376       1.2107245
   3 BEND      3  2  1                  2.1767066     124.7161000
   4 STRETCH   4  2                     2.1062515       1.1145804
   5 BEND      4  2  1                  2.0031825     114.7739000
   6 TORSION   4  2  1  3               3.1415927     180.0000000
   7 STRETCH   5  1                     2.0648622       1.0926781
   8 BEND      5  1  2                  1.9288960     110.5176000
   9 TORSION   5  1  2  3              -2.6179939    -150.0000000
  10 STRETCH   6  1                     2.0756314       1.0983769
  11 BEND      6  1  2                  1.9168340     109.8265000
  12 TORSION   6  1  2  3               2.1203813     121.4889000
  13 STRETCH   7  1                     2.0756314       1.0983769
  14 BEND      7  1  2                  1.9168340     109.8265000
  15 TORSION   7  1  2  3              -2.1203813    -121.4889000

     ------------------------------------------
     THE POINT GROUP IS C1 , NAXIS= 0, ORDER= 1
     ------------------------------------------

 -- VARIATIONAL SPACE WILL BE RESTRICTED TO PURE SPHERICAL HARMONICS ONLY --
 AFTER EXCLUDING CONTAMINANT COMBINATIONS FROM THE CARTESIAN GAUSSIAN BASIS
 SET, THE NUMBER OF SPHERICAL HARMONICS KEPT IN THE VARIATION SPACE IS   50

     DIMENSIONS OF THE SYMMETRY SUBSPACES ARE
 A   =   50

 ..... DONE SETTING UP THE RUN .....
 STEP CPU TIME =     0.02 TOTAL CPU TIME =          0.0 (      0.0 MIN)
 TOTAL WALL CLOCK TIME=          0.0 SECONDS, CPU UTILIZATION IS    66.67%

          ********************
          1 ELECTRON INTEGRALS
          ********************
 ...... END OF ONE-ELECTRON INTEGRALS ......
 STEP CPU TIME =     0.00 TOTAL CPU TIME =          0.0 (      0.0 MIN)
 TOTAL WALL CLOCK TIME=          0.0 SECONDS, CPU UTILIZATION IS    50.00%

          -------------
          GUESS OPTIONS
          -------------
          GUESS =HUCKEL            NORB  =       0          NORDER=       0
          MIX   =       F          PRTMO =       F          PUNMO =       F
          TOLZ  = 1.0E-08          TOLE  = 1.0E-05
          SYMDEN=       F          PURIFY=       F

 INITIAL GUESS ORBITALS GENERATED BY HUCKEL   ROUTINE.
 HUCKEL GUESS REQUIRES     27154 WORDS.

 STATISTICS FOR GENERATION OF SYMMETRY ORBITAL -Q- MATRIX
 NUMBER OF CARTESIAN ATOMIC ORBITALS=         53
 NUMBER OF SPHERICAL CONTAMINANTS DROPPED=     3
 NUMBER OF LINEARLY DEPENDENT MOS DROPPED=     0
 TOTAL NUMBER OF MOS IN VARIATION SPACE=      50

 SYMMETRIES FOR INITIAL GUESS ORBITALS FOLLOW.   BOTH SET(S).
    12 ORBITALS ARE OCCUPIED (    3 CORE ORBITALS).
     4=A        5=A        6=A        7=A        8=A        9=A       10=A   
    11=A       12=A       13=A       14=A       15=A       16=A       17=A   
    18=A       19=A       20=A       21=A       22=A   
 ...... END OF INITIAL ORBITAL SELECTION ......
 STEP CPU TIME =     0.01 TOTAL CPU TIME =          0.0 (      0.0 MIN)
 TOTAL WALL CLOCK TIME=          0.0 SECONDS, CPU UTILIZATION IS    75.00%

                    ----------------------
                    AO INTEGRAL TECHNOLOGY
                    ----------------------
     S,P,L SHELL ROTATED AXIS INTEGRALS, REPROGRAMMED BY
        KAZUYA ISHIMURA (IMS) AND JOSE SIERRA (SYNSTAR).
     S,P,D,L SHELL ROTATED AXIS INTEGRALS PROGRAMMED BY
        KAZUYA ISHIMURA (INSTITUTE FOR MOLECULAR SCIENCE).
     S,P,D,F,G SHELL TO TOTAL QUARTET ANGULAR MOMENTUM SUM 5,
        ERIC PROGRAM BY GRAHAM FLETCHER (ELORET AND NASA ADVANCED
        SUPERCOMPUTING DIVISION, AMES RESEARCH CENTER).
     S,P,D,F,G,L SHELL GENERAL RYS QUADRATURE PROGRAMMED BY
        MICHEL DUPUIS (PACIFIC NORTHWEST NATIONAL LABORATORY).

          --------------------
          2 ELECTRON INTEGRALS
          --------------------

 THE -PK- OPTION IS OFF, THE INTEGRALS ARE NOT IN SUPERMATRIX FORM.
 STORING   15000 INTEGRALS/RECORD ON DISK, USING 12 BYTES/INTEGRAL.
 TWO ELECTRON INTEGRAL EVALUATION REQUIRES   90606 WORDS OF MEMORY.
 SCHWARZ INEQUALITY OVERHEAD:      1430 INTEGRALS, T=        0.00
 II,JST,KST,LST =  1  1  1  1 NREC =         1 INTLOC =    1
 II,JST,KST,LST =  2  1  1  1 NREC =         1 INTLOC =    2
 II,JST,KST,LST =  3  1  1  1 NREC =         1 INTLOC =   34
 II,JST,KST,LST =  4  1  1  1 NREC =         1 INTLOC =  214
 II,JST,KST,LST =  5  1  1  1 NREC =         1 INTLOC = 1189
 II,JST,KST,LST =  6  1  1  1 NREC =         1 INTLOC = 3195
 II,JST,KST,LST =  7  1  1  1 NREC =         2 INTLOC =  920
 II,JST,KST,LST =  8  1  1  1 NREC =         3 INTLOC = 8146
 II,JST,KST,LST =  9  1  1  1 NREC =         7 INTLOC = 6019
 II,JST,KST,LST = 10  1  1  1 NREC =         8 INTLOC = 3281
 II,JST,KST,LST = 11  1  1  1 NREC =        13 INTLOC =  706
 II,JST,KST,LST = 12  1  1  1 NREC =        19 INTLOC =14483
 II,JST,KST,LST = 13  1  1  1 NREC =        34 INTLOC =10161
 II,JST,KST,LST = 14  1  1  1 NREC =        37 INTLOC =13072
 II,JST,KST,LST = 15  1  1  1 NREC =        41 INTLOC = 4617
 II,JST,KST,LST = 16  1  1  1 NREC =        44 INTLOC =11201
 II,JST,KST,LST = 17  1  1  1 NREC =        48 INTLOC = 9437
 II,JST,KST,LST = 18  1  1  1 NREC =        52 INTLOC = 8451
 II,JST,KST,LST = 19  1  1  1 NREC =        56 INTLOC =14136
 II,JST,KST,LST = 20  1  1  1 NREC =        61 INTLOC = 5633
 SCHWARZ INEQUALITY TEST SKIPPED         974 INTEGRAL BLOCKS.
 TOTAL NUMBER OF NONZERO TWO-ELECTRON INTEGRALS =              979347
         66 INTEGRAL RECORDS WERE STORED ON DISK FILE  8.
  ...... END OF TWO-ELECTRON INTEGRALS .....
 STEP CPU TIME =     0.11 TOTAL CPU TIME =          0.1 (      0.0 MIN)
 TOTAL WALL CLOCK TIME=          0.2 SECONDS, CPU UTILIZATION IS    87.50%

          --------------------------
             R-B3LYP SCF CALCULATION
          --------------------------

     NUCLEAR ENERGY =        69.9991179002
     MAXIT =   30     NPUNCH=    2
     EXTRAP=T  DAMP=F  SHIFT=F  RSTRCT=F  DIIS=T  DEM=F  SOSCF=F
         DENSITY MATRIX CONVERGENCE THRESHOLD=  1.00E-05
     COARSE -> FINE DFT GRID SWITCH THRESHOLD=  3.00E-04 (SWITCH IN $DFT)
                   HF -> DFT SWITCH THRESHOLD=  5.00E-03 (SWOFF IN $DFT)
     MEMORY REQUIRED FOR RHF ITERS=    307426 WORDS.

 DFT CODE IS SWITCHING FROM THE FINE GRID NRAD= 96,  NLEB=  302
                      TO THE COARSE GRID NRAD0= 24, NLEB0=  110

     EXCHANGE FUNCTIONAL   =B88&HFX   
     CORRELATION FUNCTIONAL=LYP88&VWN5
     DFT THRESHOLD         =.197E-07
     GRID CHANGE THRESHOLD =.300E-03
 FOR AN EULER-MACLAURIN QUADRATURE USING  96 RADIAL POINTS:
 SMALLEST GAUSSIAN PRIMITIVE EXPONENT=        0.1612777588 OF TYPE -S-
 ON ATOM NUMBER   4 HAS RADIAL NORMALIZATION=  1.000000
  LARGEST GAUSSIAN PRIMITIVE EXPONENT=     5484.6716600000 OF TYPE -S-
 ON ATOM NUMBER   3 HAS RADIAL NORMALIZATION=  1.000000
 DFT IS SWITCHED OFF, PERFORMING PURE SCF UNTIL SWOFF THRESHOLD IS REACHED.

 ITER EX DEM     TOTAL ENERGY        E CHANGE  DENSITY CHANGE    DIIS ERROR
   1  0  0     -151.9792639126  -151.9792639126   0.298899329   0.501602266
          * * *   INITIATING DIIS PROCEDURE   * * *
   2  1  0     -152.5416101575    -0.5623462450   0.140428916   0.100066380
   3  2  0     -152.5753589819    -0.0337488244   0.073539716   0.070097095
   4  3  0     -152.5984679460    -0.0231089641   0.028712801   0.007478140
   5  4  0     -152.5995089155    -0.0010409694   0.010984877   0.002587138
   6  5  0     -152.5996282188    -0.0001193034   0.006694314   0.001471952
   7  6  0     -152.5996554535    -0.0000272347   0.003017187   0.000525457
 CONVERGED TO SWOFF, SO DFT CALCULATION IS NOW SWITCHED ON.
          * * *   INITIATING DIIS PROCEDURE   * * *
   8  7  0     -153.4167716760    -0.8171162226   0.162320282   0.050557475
   9  8  0     -153.4281465063    -0.0113748303   0.060503787   0.029438869
  10  9  0     -153.4253680136     0.0027784928   0.044890728   0.040267263
  11 10  0     -153.4314093820    -0.0060413684   0.011292219   0.008165620
  12 11  0     -153.4315938033    -0.0001844213   0.004859793   0.000916276
  13 12  0     -153.4315985484    -0.0000047451   0.000530210   0.000120448
  14 13  0     -153.4315986376    -0.0000000892   0.000109308   0.000052966
 DFT CODE IS SWITCHING BACK TO THE FINE GRID
          * * *   INITIATING DIIS PROCEDURE   * * *
  15 14  0     -153.4309520399     0.0006465978   0.002491213   0.001657034
  16 15  0     -153.4309603279    -0.0000082880   0.000801163   0.000269311
  17 16  0     -153.4309598694     0.0000004585   0.000489871   0.000394596
  18 17  0     -153.4309606342    -0.0000007648   0.000053836   0.000051755
  19 18  0     -153.4309606416    -0.0000000075   0.000017736   0.000010504
  20 19  0     -153.4309606420    -0.0000000004   0.000014015   0.000004238
  21 20  0     -153.4309606421    -0.0000000001   0.000003354   0.000000645

          -----------------
          DENSITY CONVERGED
          -----------------
     TIME TO FORM FOCK OPERATORS=       5.1 SECONDS (       0.2 SEC/ITER)
     TIME TO SOLVE SCF EQUATIONS=       0.0 SECONDS (       0.0 SEC/ITER)

 FINAL R-B3LYP ENERGY IS     -153.4309606421 AFTER  21 ITERATIONS
 DFT EXCHANGE + CORRELATION ENERGY =       -16.8677977830
 TOTAL ELECTRON NUMBER             =        24.0001250578

          ------------
          EIGENVECTORS
          ------------

                      1          2          3          4          5
                  -19.1525   -10.2804   -10.1982    -1.0479    -0.9024
                     A          A          A          A          A   
    1  C  1  S   -0.000022   0.000871   0.995244  -0.020404  -0.139984
    2  C  1  S   -0.000586  -0.001229   0.036604   0.040327   0.275323
    3  C  1  X   -0.000275  -0.000919  -0.000932   0.019860  -0.098869
    4  C  1  Y    0.000056   0.000357  -0.003292  -0.014081  -0.125758
    5  C  1  Z    0.000003   0.000030   0.000424   0.004101   0.080207
    6  C  1  S    0.001071   0.006329  -0.030739   0.015730   0.161729
    7  C  1  X   -0.001174   0.002356   0.001135   0.003709  -0.013653
    8  C  1  Y   -0.001499  -0.002336   0.007515   0.004051  -0.020232
    9  C  1  Z   -0.000105  -0.000232   0.000685   0.000636   0.006970
   10  C  1 XX   -0.000380  -0.000887   0.000198   0.004702   0.001820
   11  C  1 YY    0.000390   0.000237  -0.000157  -0.002551  -0.002913
   12  C  1 ZZ   -0.000010   0.000650  -0.000041  -0.002150   0.001093
   13  C  1 XY   -0.000095   0.000853   0.000045  -0.002007   0.016092
   14  C  1 XZ   -0.000028  -0.000004  -0.000143  -0.000433  -0.011305
   15  C  1 YZ   -0.000004  -0.000032  -0.000083  -0.000931  -0.013122
   16  C  2  S    0.000235   0.995153  -0.000858  -0.117630  -0.026086
   17  C  2  S    0.000070   0.035732  -0.001460   0.224787   0.045082
   18  C  2  X   -0.000063   0.001733   0.000521   0.158422  -0.092954
   19  C  2  Y   -0.000232   0.001252  -0.000348   0.092752  -0.005240
   20  C  2  Z   -0.000011   0.000060  -0.000013   0.007046   0.004532
   21  C  2  S    0.008726  -0.016176   0.007180   0.085195   0.042089
   22  C  2  X    0.005587   0.006132  -0.005470  -0.017474  -0.029925
   23  C  2  Y    0.004853   0.002444  -0.000181  -0.019882  -0.010724
   24  C  2  Z    0.000333   0.000282  -0.000199  -0.000653   0.006010
   25  C  2 XX   -0.000601   0.001428  -0.000875   0.018443   0.004837
   26  C  2 YY    0.000318  -0.000245   0.000367  -0.003190  -0.001750
   27  C  2 ZZ    0.000283  -0.001184   0.000508  -0.015253  -0.003087
   28  C  2 XY   -0.000749   0.001201   0.000849   0.021551  -0.008225
   29  C  2 XZ   -0.000054   0.000104   0.000046   0.001530  -0.002195
   30  C  2 YZ   -0.000012   0.000066   0.000005   0.000709   0.000192
   31  O  3  S    0.995117  -0.000047  -0.000030  -0.194300   0.030038
   32  O  3  S    0.029439   0.000467  -0.000640   0.429631  -0.069600
   33  O  3  X   -0.002013   0.000991   0.000104  -0.142739   0.009691
   34  O  3  Y   -0.001122   0.000485  -0.000013  -0.080351   0.012398
   35  O  3  Z   -0.000117   0.000046  -0.000010  -0.006970   0.002525
   36  O  3  S   -0.019459  -0.006004   0.002324   0.376609  -0.050019
   37  O  3  X    0.005196   0.003802  -0.000371  -0.042520  -0.000523
   38  O  3  Y    0.002573   0.002583  -0.000667  -0.023593   0.000091
   39  O  3  Z    0.000237   0.000193  -0.000009  -0.002503  -0.001772
   40  O  3 XX   -0.000189  -0.001217  -0.000052   0.006683   0.000538
   41  O  3 YY    0.000107   0.000107   0.000232  -0.003876  -0.000474
   42  O  3 ZZ    0.000082   0.001110  -0.000179  -0.002808  -0.000064
   43  O  3 XY   -0.000103  -0.001443   0.000122   0.009775  -0.000929
   44  O  3 XZ   -0.000013  -0.000128   0.000011   0.001108  -0.000149
   45  O  3 YZ   -0.000000  -0.000085   0.000026  -0.000006  -0.000079
   46  H  4  S   -0.000219  -0.000945  -0.000641   0.027903   0.014091
   47  H  4  S    0.001170   0.005081  -0.000230  -0.012953  -0.004581
   48  H  5  S   -0.000328  -0.000328  -0.000219   0.017212   0.294690
   49  H  5  S    0.000211  -0.000942   0.005322   0.001086   0.069056
   50  H  6  S   -0.000087  -0.000579  -0.000303   0.007353   0.080303
   51  H  6  S   -0.000648   0.000531   0.006521  -0.000159   0.007569
   52  H  7  S    0.000076  -0.000391  -0.000533   0.016239   0.279720
   53  H  7  S   -0.000726   0.001381   0.002688   0.000773   0.026548

                      6          7          8          9         10
                   -0.6400    -0.5218    -0.4693    -0.4337    -0.3793
                     A          A          A          A          A   
    1  C  1  S   -0.053825  -0.092112   0.012670  -0.002098  -0.023375
    2  C  1  S    0.095013   0.178567  -0.015630  -0.004371   0.042999
    3  C  1  X    0.207554   0.068017   0.206445   0.151879  -0.072202
    4  C  1  Y   -0.046870   0.008689   0.023986  -0.056796   0.022161
    5  C  1  Z   -0.106706  -0.192670   0.257788   0.110762  -0.091040
    6  C  1  S    0.142918   0.261949  -0.064986   0.036377   0.092314
    7  C  1  X    0.040178  -0.001797   0.081566   0.074664  -0.046850
    8  C  1  Y   -0.032324  -0.018375   0.029695  -0.038696  -0.001150
    9  C  1  Z   -0.015363  -0.044894   0.073214   0.038177  -0.018472
   10  C  1 XX    0.001815   0.004867   0.003762  -0.006183   0.000471
   11  C  1 YY    0.002769  -0.008942  -0.001398   0.009754  -0.003955
   12  C  1 ZZ   -0.004584   0.004075  -0.002364  -0.003571   0.003484
   13  C  1 XY   -0.020583   0.000342  -0.014124  -0.014081   0.005220
   14  C  1 XZ    0.009910   0.011780  -0.010728  -0.002631   0.015753
   15  C  1 YZ    0.008792   0.014997  -0.020048  -0.009361   0.005470
   16  C  2  S   -0.145026   0.051696  -0.034435   0.019772   0.008451
   17  C  2  S    0.302343  -0.106477   0.079404  -0.058186  -0.017329
   18  C  2  X   -0.191994  -0.142052  -0.055898  -0.325933   0.056707
   19  C  2  Y   -0.078596   0.298331   0.272345  -0.132330  -0.027029
   20  C  2  Z   -0.024524  -0.049188   0.124639   0.074280   0.330741
   21  C  2  S    0.251590  -0.114971   0.060382  -0.003572  -0.022806
   22  C  2  X   -0.066396  -0.010355  -0.057205  -0.064725   0.026659
   23  C  2  Y   -0.051029   0.115481   0.060489  -0.033596  -0.006287
   24  C  2  Z   -0.011104  -0.030427   0.067015   0.049247   0.192321
   25  C  2 XX   -0.006335   0.006697  -0.000840  -0.009274   0.003298
   26  C  2 YY    0.011252  -0.009448  -0.000805   0.006686  -0.004337
   27  C  2 ZZ   -0.004918   0.002751   0.001645   0.002587   0.001039
   28  C  2 XY   -0.011646  -0.002631   0.001467  -0.011272  -0.001188
   29  C  2 XZ    0.001309   0.003764  -0.003252  -0.000399   0.026141
   30  C  2 YZ   -0.000808  -0.003168   0.004212   0.003239   0.012010
   31  O  3  S    0.077959  -0.030599   0.039146  -0.074584   0.003749
   32  O  3  S   -0.185399   0.072637  -0.091275   0.161481  -0.005180
   33  O  3  X   -0.072910  -0.006595  -0.252600   0.396867  -0.021889
   34  O  3  Y   -0.029813   0.194488   0.071236   0.261227  -0.094177
   35  O  3  Z   -0.009686  -0.028016   0.086709   0.101882   0.486354
   36  O  3  S   -0.195034   0.088906  -0.131969   0.326703  -0.032567
   37  O  3  X   -0.049564  -0.000919  -0.138595   0.200936  -0.005738
   38  O  3  Y   -0.017752   0.100600   0.040080   0.135777  -0.054347
   39  O  3  Z   -0.004368  -0.011044   0.043367   0.054951   0.303889
   40  O  3 XX    0.005744   0.007687   0.016918  -0.010892  -0.000752
   41  O  3 YY   -0.000740  -0.010759  -0.011156   0.000239   0.003850
   42  O  3 ZZ   -0.005004   0.003072  -0.005762   0.010653  -0.003098
   43  O  3 XY    0.004815  -0.011574  -0.000323  -0.015405   0.004130
   44  O  3 XZ    0.001003   0.002422  -0.005411  -0.006388  -0.026973
   45  O  3 YZ    0.000665   0.000231  -0.003442  -0.003845  -0.015521
   46  H  4  S    0.145450  -0.191149  -0.111670   0.056812  -0.006248
   47  H  4  S    0.050442  -0.117185  -0.106354   0.057844  -0.001348
   48  H  5  S   -0.157952  -0.096732   0.007468  -0.029647  -0.044345
   49  H  5  S   -0.080520  -0.071073  -0.065576  -0.038600  -0.029804
   50  H  6  S    0.040697   0.157233  -0.212002  -0.103635   0.113078
   51  H  6  S    0.018406   0.104635  -0.166234  -0.090718   0.113633
   52  H  7  S   -0.165398  -0.129828   0.096617   0.005864  -0.072844
   53  H  7  S   -0.060626  -0.082680   0.142120   0.032199  -0.072966

                     11         12         13         14         15
                   -0.2661    -0.2242    -0.0367     0.0517     0.1228
                     A          A          A          A          A   
    1  C  1  S    0.077859  -0.064552  -0.013205  -0.110632   0.067444
    2  C  1  S   -0.153788   0.141641   0.012048   0.116371  -0.087396
    3  C  1  X   -0.158533  -0.098594  -0.075695  -0.275857  -0.084977
    4  C  1  Y   -0.109582   0.465708  -0.086683  -0.206985  -0.029935
    5  C  1  Z   -0.093182   0.101312   0.063066   0.195773   0.095897
    6  C  1  S   -0.418770   0.153904   0.171922   1.895840  -0.930762
    7  C  1  X   -0.046836  -0.169867  -0.074971  -0.589717  -0.128370
    8  C  1  Y   -0.011402   0.374327  -0.121799  -0.596970   0.116460
    9  C  1  Z   -0.039451   0.052676   0.154085   0.340628   0.182741
   10  C  1 XX   -0.000706   0.009400  -0.004023   0.002024  -0.010121
   11  C  1 YY    0.010897  -0.031857   0.004154   0.001743  -0.009402
   12  C  1 ZZ   -0.010190   0.022457  -0.000130  -0.003767   0.019523
   13  C  1 XY    0.012137  -0.002037   0.005026   0.023265  -0.016039
   14  C  1 XZ    0.003159  -0.004185   0.027822  -0.018838   0.000423
   15  C  1 YZ    0.005993  -0.000603  -0.012131  -0.014345   0.002568
   16  C  2  S   -0.007039   0.009717   0.005195   0.003525  -0.091464
   17  C  2  S    0.009427  -0.041348  -0.012623   0.029563   0.100848
   18  C  2  X    0.027345   0.088190   0.007813   0.038847  -0.033137
   19  C  2  Y   -0.065844  -0.124992  -0.033248  -0.101954  -0.237871
   20  C  2  Z   -0.005145   0.009645   0.479749  -0.108307  -0.059057
   21  C  2  S   -0.005565   0.147316  -0.063281  -0.178242   1.495612
   22  C  2  X   -0.101192   0.035630  -0.020529   0.162198  -0.144774
   23  C  2  Y   -0.000856   0.100835  -0.055432  -0.119044  -0.536197
   24  C  2  Z   -0.007268   0.016511   0.510318  -0.186142  -0.113323
   25  C  2 XX   -0.030711  -0.024203   0.004175   0.007151  -0.004609
   26  C  2 YY    0.030589   0.028230  -0.001802  -0.000954  -0.008998
   27  C  2 ZZ    0.000122  -0.004027  -0.002373  -0.006197   0.013608
   28  C  2 XY    0.027647  -0.004630   0.006398   0.007778   0.007373
   29  C  2 XZ    0.006060  -0.005891  -0.028288  -0.000864  -0.003124
   30  C  2 YZ    0.002051   0.001964  -0.014093   0.009401   0.005251
   31  O  3  S   -0.003073   0.007938  -0.004152  -0.009935   0.009074
   32  O  3  S    0.001626  -0.010646   0.009222   0.030013  -0.014607
   33  O  3  X   -0.293012  -0.029748  -0.024300  -0.078489   0.022014
   34  O  3  Y    0.484066   0.183735   0.031419   0.053102   0.091083
   35  O  3  Z    0.067565  -0.037991  -0.429466   0.065860   0.025200
   36  O  3  S    0.065036  -0.119118   0.043700   0.045462  -0.109190
   37  O  3  X   -0.218274   0.011124  -0.028439  -0.103312   0.041515
   38  O  3  Y    0.327738   0.145285   0.027323   0.065763   0.161641
   39  O  3  Z    0.048868  -0.029250  -0.437952   0.090927   0.045550
   40  O  3 XX    0.015693  -0.001522   0.000908   0.002635  -0.005599
   41  O  3 YY   -0.015775   0.000826  -0.000935  -0.001390  -0.002263
   42  O  3 ZZ    0.000082   0.000696   0.000027  -0.001245   0.007862
   43  O  3 XY   -0.008205  -0.005246   0.000942   0.002777   0.002211
   44  O  3 XZ   -0.001657   0.001014   0.000180  -0.000252  -0.000402
   45  O  3 YZ   -0.002528   0.000905   0.000973   0.001840   0.001183
   46  H  4  S    0.128801   0.143117  -0.007942   0.024153  -0.083973
   47  H  4  S    0.195822   0.263448  -0.022789  -0.179217  -1.435767
   48  H  5  S    0.089254  -0.117190  -0.076885  -0.031656  -0.107739
   49  H  5  S    0.317905  -0.393762  -0.089654  -1.065934  -1.436284
   50  H  6  S    0.051631  -0.011753   0.101120  -0.037654   0.091896
   51  H  6  S    0.086024   0.030353   0.203070  -0.668758   0.859604
   52  H  7  S   -0.000622   0.036986  -0.103309  -0.032503   0.086347
   53  H  7  S   -0.161369   0.322537  -0.279635  -0.822969   1.473358

                     16         17         18         19         20
                    0.1362     0.1740     0.2600     0.2813     0.4451
                     A          A          A          A          A   
    1  C  1  S    0.016979  -0.030608  -0.023681   0.074464  -0.062158
    2  C  1  S   -0.026242  -0.017394  -0.042318  -0.091551   0.130937
    3  C  1  X    0.094031   0.023063   0.115818  -0.240321  -0.004398
    4  C  1  Y   -0.085462  -0.162089  -0.038835  -0.056908  -0.145357
    5  C  1  Z    0.370661  -0.250120   0.029144  -0.025147  -0.107923
    6  C  1  S   -0.338456   0.862018   1.279668  -0.760819   0.491424
    7  C  1  X    0.348298   0.287178   0.958171  -1.532721  -0.097410
    8  C  1  Y   -0.222151  -0.690804  -0.551670  -0.091659  -0.299468
    9  C  1  Z    0.969713  -0.846979   0.082840  -0.105740   0.499072
   10  C  1 XX   -0.017635  -0.024520   0.001806   0.052555  -0.017230
   11  C  1 YY    0.001014  -0.004992  -0.009678  -0.030695   0.022477
   12  C  1 ZZ    0.016621   0.029511   0.007872  -0.021859  -0.005247
   13  C  1 XY   -0.000092  -0.002424   0.025456   0.000408  -0.016467
   14  C  1 XZ   -0.002470   0.002797  -0.005383  -0.004214   0.062904
   15  C  1 YZ   -0.009768   0.008480  -0.014164   0.004173   0.056902
   16  C  2  S    0.065712   0.063732  -0.006033  -0.082461   0.014453
   17  C  2  S   -0.125078  -0.109566  -0.012525   0.121815  -0.125679
   18  C  2  X    0.052481   0.102883   0.252767  -0.261282   0.129376
   19  C  2  Y    0.169468   0.057450  -0.089646   0.434523  -0.007827
   20  C  2  Z   -0.097075   0.021417   0.057612   0.024817  -0.432142
   21  C  2  S   -0.982919  -1.063072   0.353402   1.882048   0.398249
   22  C  2  X    0.068584   0.491278   2.173768   0.255960   0.796478
   23  C  2  Y    0.330656   0.116557   0.054255   1.655091   0.082957
   24  C  2  Z   -0.298318   0.233527   0.040822   0.097947   0.175587
   25  C  2 XX    0.003127   0.002254  -0.012545  -0.000134   0.038634
   26  C  2 YY   -0.006251  -0.005247   0.006588  -0.014425  -0.032119
   27  C  2 ZZ    0.003124   0.002993   0.005957   0.014558  -0.006514
   28  C  2 XY    0.000879   0.003692  -0.018635   0.010881   0.005091
   29  C  2 XZ   -0.008849   0.007231   0.000541   0.001216  -0.020367
   30  C  2 YZ    0.017767  -0.008938  -0.001849  -0.002368   0.016012
   31  O  3  S   -0.007522  -0.004089   0.080341   0.062041   0.025865
   32  O  3  S    0.015045   0.025952  -0.123260  -0.073286  -0.036992
   33  O  3  X   -0.030895  -0.062604   0.076726   0.153699  -0.064085
   34  O  3  Y   -0.055158   0.010937   0.150027  -0.021486   0.079142
   35  O  3  Z    0.051917  -0.023726  -0.004059  -0.004129   0.027776
   36  O  3  S    0.091932  -0.077397  -1.579884  -1.326601  -0.646787
   37  O  3  X   -0.034700  -0.048174   0.459941   0.682194   0.206192
   38  O  3  Y   -0.109643   0.030003   0.531617   0.026089   0.209497
   39  O  3  Z    0.106983  -0.061163   0.024127   0.010385   0.038460
   40  O  3 XX    0.002349   0.000536  -0.021333  -0.011944  -0.024827
   41  O  3 YY   -0.000345  -0.000190   0.007739  -0.010512   0.008126
   42  O  3 ZZ   -0.002004  -0.000345   0.013594   0.022456   0.016701
   43  O  3 XY   -0.000415  -0.001947  -0.027994  -0.025419  -0.013370
   44  O  3 XZ   -0.002373   0.003445  -0.004927  -0.002424   0.020525
   45  O  3 YZ    0.004624  -0.001855  -0.002923  -0.002783   0.021824
   46  H  4  S    0.018278   0.030167  -0.011917  -0.054747  -0.141166
   47  H  4  S    0.934989   0.648421  -0.339164   1.038001  -0.021726
   48  H  5  S   -0.119945  -0.062612   0.194468   0.025483  -0.491810
   49  H  5  S   -0.616840  -2.740897   0.412501  -0.994628   0.819010
   50  H  6  S    0.086860   0.091937   0.025301  -0.016293   0.164409
   51  H  6  S    1.559956  -0.616303   0.221510  -0.267816  -0.410777
   52  H  7  S    0.015469   0.151174   0.104173  -0.000895  -0.558044
   53  H  7  S   -0.049208   2.924154  -0.671859   0.456496  -0.098827

                     21         22         23         24         25
                    0.5387     0.5616     0.6011     0.6573     0.6815
                     A          A          A          A          A   
    1  C  1  S    0.010026   0.029191   0.013774   0.027917   0.026077
    2  C  1  S   -0.214321   0.020403  -0.243541  -0.118730  -0.319869
    3  C  1  X   -0.620049   0.362202  -0.539490   0.136243  -0.230119
    4  C  1  Y    0.618664  -0.300264  -0.721541  -0.145261   0.038070
    5  C  1  Z   -0.021926   0.068886   0.145376  -0.621343  -0.393571
    6  C  1  S    0.168993  -0.274544  -0.759835  -0.457224   0.900090
    7  C  1  X    0.887991  -0.388341   0.501721  -0.352723   0.819037
    8  C  1  Y   -0.549180   0.494433   1.088137   0.221888  -0.136861
    9  C  1  Z   -0.023113  -0.455232  -0.305203   1.439014   0.904535
   10  C  1 XX    0.000949   0.016629  -0.065632   0.022629   0.021695
   11  C  1 YY   -0.025788  -0.004509   0.075625  -0.038162   0.006503
   12  C  1 ZZ    0.024838  -0.012120  -0.009994   0.015533  -0.028198
   13  C  1 XY    0.029059   0.007050   0.042862   0.075867  -0.021779
   14  C  1 XZ   -0.005797  -0.036281  -0.007561   0.040213   0.012297
   15  C  1 YZ    0.000396  -0.026157  -0.016246   0.041236   0.023241
   16  C  2  S   -0.046008   0.016994  -0.004948  -0.020043   0.048711
   17  C  2  S   -0.045955   0.151830  -0.466860   0.425968  -0.216809
   18  C  2  X    0.104118  -0.077828   0.246018   0.389481  -0.896241
   19  C  2  Y    0.114126  -0.007793  -0.179838  -0.113077  -0.326691
   20  C  2  Z   -0.458963  -0.809177  -0.009735   0.087309  -0.018576
   21  C  2  S   -0.388674  -0.053477   0.731973  -0.324027  -0.943835
   22  C  2  X   -0.369295  -0.144844  -0.801453  -0.802467   1.092717
   23  C  2  Y   -0.139476   0.023380   0.216907   0.899650  -0.037349
   24  C  2  Z    0.571869   1.191662   0.085934  -0.448623  -0.207757
   25  C  2 XX   -0.101774   0.027038   0.010597  -0.063076   0.041961
   26  C  2 YY    0.012994   0.027716  -0.047802   0.079927   0.012434
   27  C  2 ZZ    0.088781  -0.054754   0.037206  -0.016851  -0.054394
   28  C  2 XY    0.033528  -0.029352   0.040532  -0.072840   0.112307
   29  C  2 XZ   -0.003484   0.007603  -0.002094  -0.007621   0.007394
   30  C  2 YZ   -0.015396  -0.030329  -0.009656   0.033339   0.021246
   31  O  3  S    0.008582  -0.013690   0.012871   0.011964  -0.041143
   32  O  3  S   -0.088082   0.062656  -0.113216  -0.059256   0.149070
   33  O  3  X    0.153891  -0.017302   0.086401   0.271962  -0.239859
   34  O  3  Y   -0.058954  -0.010581  -0.174776  -0.111404  -0.208358
   35  O  3  Z   -0.035651  -0.088188   0.009312  -0.010387  -0.032078
   36  O  3  S    0.312309   0.088085   0.178530   0.184833  -0.064985
   37  O  3  X   -0.028873  -0.074318   0.049550   0.054748  -0.375421
   38  O  3  Y   -0.080162  -0.036010  -0.001308  -0.073821  -0.109208
   39  O  3  Z   -0.065827  -0.137922  -0.028220   0.102028   0.048325
   40  O  3 XX    0.030404  -0.001838  -0.015507   0.046498  -0.063290
   41  O  3 YY   -0.022567   0.004529   0.006486  -0.003074   0.006793
   42  O  3 ZZ   -0.007837  -0.002691   0.009020  -0.043424   0.056497
   43  O  3 XY    0.015483  -0.006206  -0.015407   0.049824  -0.116142
   44  O  3 XZ    0.030493   0.053017   0.003128  -0.014360  -0.017477
   45  O  3 YZ    0.013993   0.018706  -0.004236   0.019320   0.005519
   46  H  4  S   -0.080948   0.190900  -0.122094   0.436588   0.106493
   47  H  4  S   -0.056771   0.018759   0.128483   0.337636  -0.022408
   48  H  5  S    0.074468   0.231630  -0.001029   0.147809   0.106694
   49  H  5  S    0.069038  -0.225305   0.648148   0.227243   0.385582
   50  H  6  S    0.125222  -0.040898  -0.188598   0.325516   0.120573
   51  H  6  S    0.050279   0.181717   0.113698   0.334011   0.469790
   52  H  7  S    0.095610   0.194791  -0.197219   0.074563   0.056710
   53  H  7  S   -0.217094  -0.087769   0.067690  -1.003541  -0.681417

                     26         27         28         29         30
                    0.7382     0.7624     0.8553     0.8886     0.9248
                     A          A          A          A          A   
    1  C  1  S   -0.005100  -0.009332  -0.012493   0.030824  -0.019216
    2  C  1  S   -0.447087   0.179230   0.070657  -1.212342   0.548178
    3  C  1  X    0.336931   0.296126   0.075502   0.397040   0.032261
    4  C  1  Y    0.149843   0.273123   0.105516   0.058737   0.043637
    5  C  1  Z   -0.646600   0.318481  -0.038269   0.350088  -0.044415
    6  C  1  S    0.491733  -1.037162  -0.510355   2.169955  -1.350148
    7  C  1  X   -1.037373  -1.765184  -0.576767  -0.708430  -0.689097
    8  C  1  Y   -0.141585  -0.717456  -0.038644  -0.090965  -0.101114
    9  C  1  Z    1.046204  -0.756731   0.031063  -0.506405  -0.017055
   10  C  1 XX   -0.068247  -0.034065  -0.029929  -0.061920   0.057246
   11  C  1 YY    0.075757  -0.016044   0.011642  -0.026034  -0.029464
   12  C  1 ZZ   -0.007510   0.050109   0.018287   0.087954  -0.027781
   13  C  1 XY    0.002827   0.021910   0.039735   0.039504   0.066758
   14  C  1 XZ   -0.067693   0.003930  -0.013132   0.099623  -0.028587
   15  C  1 YZ   -0.007356  -0.002748  -0.005358   0.018635  -0.004898
   16  C  2  S   -0.013051   0.012118   0.051237  -0.015215  -0.018666
   17  C  2  S   -0.594447  -0.163957  -0.982131  -0.701977  -1.043430
   18  C  2  X    0.257724   0.152286   0.187104   0.009724  -0.030681
   19  C  2  Y   -0.110344  -0.843588   0.469005   0.121391  -0.049704
   20  C  2  Z   -0.036852  -0.038375   0.025497   0.015989   0.000686
   21  C  2  S    1.405436   1.087898   2.993967   0.816297   1.359135
   22  C  2  X   -0.552100  -0.550302  -0.140188  -0.236395  -0.526593
   23  C  2  Y    0.155312   3.022878  -0.322910  -0.539514   0.361954
   24  C  2  Z   -0.097963   0.271422  -0.017216   0.016668   0.003192
   25  C  2 XX    0.041077   0.074448   0.017564  -0.074152  -0.106452
   26  C  2 YY   -0.110447  -0.038872   0.087243   0.003983   0.049907
   27  C  2 ZZ    0.069369  -0.035576  -0.104807   0.070170   0.056545
   28  C  2 XY    0.029620   0.050557   0.111392   0.003322  -0.133227
   29  C  2 XZ    0.033921   0.003690   0.014104  -0.040466   0.004221
   30  C  2 YZ   -0.015761  -0.007341   0.008839   0.018452  -0.012756
   31  O  3  S    0.008185   0.014467   0.028972  -0.015899  -0.047534
   32  O  3  S   -0.043776   0.002946  -0.093451   0.032081   0.273222
   33  O  3  X   -0.107246  -0.144344  -0.350986   0.128196   0.536239
   34  O  3  Y    0.089829  -0.278583  -0.310873   0.077304   0.190979
   35  O  3  Z   -0.095020   0.004881  -0.036242   0.164301  -0.039406
   36  O  3  S   -0.102848  -0.853394  -0.634939   0.204853  -0.046875
   37  O  3  X    0.177512   0.506066   0.788081  -0.347800  -0.939111
   38  O  3  Y    0.009585  -0.047702   0.480066  -0.141722  -0.524765
   39  O  3  Z    0.093423  -0.038338   0.050561  -0.179367   0.019217
   40  O  3 XX   -0.045576  -0.110934  -0.012154   0.006232  -0.021790
   41  O  3 YY    0.015959   0.043120  -0.045646  -0.018391  -0.016979
   42  O  3 ZZ    0.029617   0.067815   0.057800   0.012159   0.038769
   43  O  3 XY    0.016591  -0.014277  -0.072739  -0.011903  -0.003269
   44  O  3 XZ   -0.012767   0.002378  -0.005817   0.006137  -0.002163
   45  O  3 YZ    0.008071  -0.010573  -0.007682  -0.001459  -0.006300
   46  H  4  S   -0.587457  -0.049958   0.719428  -0.054715   0.299367
   47  H  4  S    0.280041   1.695568  -1.545961  -0.523928  -0.374295
   48  H  5  S    0.252196  -0.096283   0.018203   0.026624   0.030213
   49  H  5  S   -0.795359  -0.931391  -0.166077   0.080205  -0.567124
   50  H  6  S   -0.431008   0.062918  -0.145318   0.743274  -0.315244
   51  H  6  S    0.508199  -0.793708   0.005864  -1.734378   0.332485
   52  H  7  S    0.142036   0.000466  -0.057829   0.118301  -0.180888
   53  H  7  S   -0.871383   0.659540  -0.030877  -0.672581   0.565516

                     31         32         33         34         35
                    0.9875     1.0825     1.1841     1.2917     1.4418
                     A          A          A          A          A   
    1  C  1  S    0.001173  -0.008733  -0.059516  -0.075778  -0.038019
    2  C  1  S   -0.201769  -0.151732  -1.142526  -1.263177  -0.522389
    3  C  1  X    0.022950  -0.075770   0.100523  -0.022610  -0.015857
    4  C  1  Y   -0.012231  -0.043476   0.279180   0.046747   0.050264
    5  C  1  Z    0.143614   0.015111   0.196940  -0.017483  -0.130306
    6  C  1  S    0.454154  -0.541101   3.693671   3.989186   1.717759
    7  C  1  X   -0.000632  -0.450613   0.171497   0.116066  -0.030472
    8  C  1  Y   -0.038608  -0.067599  -1.539120  -1.356428  -0.676435
    9  C  1  Z   -0.122427  -0.059894  -0.517535  -0.084974  -0.174220
   10  C  1 XX   -0.012878  -0.017772   0.109279  -0.073008  -0.102598
   11  C  1 YY   -0.012582   0.012083   0.204011  -0.016944   0.037095
   12  C  1 ZZ    0.025461   0.005689  -0.313290   0.089952   0.065503
   13  C  1 XY   -0.005177   0.065515   0.110479  -0.166054  -0.181950
   14  C  1 XZ    0.013138   0.006049   0.071104  -0.272645   0.211336
   15  C  1 YZ    0.049314  -0.001990   0.023472   0.160327  -0.429899
   16  C  2  S   -0.000426  -0.001561   0.027428   0.020923   0.008716
   17  C  2  S    0.005418   0.005099   0.561788   0.397315   0.167995
   18  C  2  X   -0.002874   0.119468  -0.042697   0.001631   0.010008
   19  C  2  Y    0.006338  -0.292238  -0.026320  -0.044890  -0.033574
   20  C  2  Z    0.115003  -0.009098   0.008959  -0.014932   0.060161
   21  C  2  S   -0.106059  -0.065585  -2.338104  -2.348118  -1.210931
   22  C  2  X    0.072382  -0.831746   1.349537   1.226097   0.442501
   23  C  2  Y   -0.040961   1.729091  -0.154736   0.105425   0.148913
   24  C  2  Z   -0.576830   0.064607   0.047832   0.170695  -0.016558
   25  C  2 XX   -0.006012  -0.133236  -0.005184  -0.031578   0.026233
   26  C  2 YY    0.003086   0.140867   0.086782   0.117045   0.034357
   27  C  2 ZZ    0.002926  -0.007631  -0.081598  -0.085467  -0.060590
   28  C  2 XY    0.007658   0.073555  -0.014161  -0.038461  -0.009397
   29  C  2 XZ   -0.044470  -0.001318  -0.017904   0.264844  -0.515708
   30  C  2 YZ    0.009375   0.010434   0.027093  -0.146041   0.055405
   31  O  3  S    0.001119   0.001536   0.002530   0.016794   0.012957
   32  O  3  S   -0.016504  -0.032963  -0.017182  -0.287413  -0.286292
   33  O  3  X    0.020482  -0.376923   0.095411   0.167362   0.101494
   34  O  3  Y    0.042641   0.715108  -0.103769   0.016568   0.025341
   35  O  3  Z   -0.922352   0.025617  -0.008613   0.004600   0.075929
   36  O  3  S    0.029163  -0.000995  -0.072513   0.244891   0.380878
   37  O  3  X   -0.037575   0.702468  -0.229363  -0.347349  -0.252601
   38  O  3  Y   -0.052818  -1.364438   0.265634  -0.013855  -0.090437
   39  O  3  Z    1.258037  -0.048521   0.018219  -0.122883   0.086989
   40  O  3 XX    0.003626   0.083176   0.019496   0.026019  -0.012848
   41  O  3 YY   -0.002998  -0.089161   0.046079   0.047462   0.010506
   42  O  3 ZZ   -0.000628   0.005985  -0.065575  -0.073481   0.002342
   43  O  3 XY   -0.004103  -0.066906   0.012109  -0.038833  -0.051271
   44  O  3 XZ    0.030083  -0.000338   0.009250  -0.037134   0.187432
   45  O  3 YZ    0.019323  -0.006848   0.004168  -0.111893   0.243677
   46  H  4  S    0.001607   0.230543   0.145499   0.316295   0.182663
   47  H  4  S   -0.033225   0.811818   0.179082   0.135265   0.137245
   48  H  5  S   -0.083895   0.080284   0.685387  -0.873334  -0.401741
   49  H  5  S    0.176796  -0.314652  -2.830370   0.137064  -0.145715
   50  H  6  S    0.159289  -0.079816  -0.373602  -0.473043  -0.383595
   51  H  6  S   -0.446691  -0.062057  -0.385394  -0.556712  -0.208822
   52  H  7  S    0.011101  -0.157323  -1.031446   0.357609   0.264496
   53  H  7  S   -0.031384   0.223825   2.172860  -0.915559  -0.244571

                     36         37         38         39         40
                    1.5327     1.6259     1.6716     1.7884     1.8103
                     A          A          A          A          A   
    1  C  1  S   -0.009041   0.040745   0.011781  -0.006404  -0.001430
    2  C  1  S   -0.115288   0.531186  -0.250623   0.409670  -0.024069
    3  C  1  X   -0.009503   0.004866  -0.202287   0.233595   0.003881
    4  C  1  Y    0.013088  -0.018394   0.032208  -0.064980  -0.014748
    5  C  1  Z    0.030186   0.011520  -0.007401   0.003295   0.082844
    6  C  1  S    0.373038  -1.880975  -0.204492  -0.317544   0.093519
    7  C  1  X   -0.006481   0.103336  -0.180212  -0.304868   0.071978
    8  C  1  Y   -0.140077   0.902158   0.084102   0.040336   0.024807
    9  C  1  Z   -0.381479   0.110800  -0.027311  -0.060395  -0.314446
   10  C  1 XX   -0.045040   0.121269   0.453654  -0.214919   0.077420
   11  C  1 YY    0.011544   0.052810  -0.425177   0.245222  -0.027799
   12  C  1 ZZ    0.033496  -0.174079  -0.028478  -0.030303  -0.049620
   13  C  1 XY   -0.083170   0.089264   0.043259   0.161210   0.091233
   14  C  1 XZ    0.133462   0.009265   0.001558  -0.021394  -0.321245
   15  C  1 YZ   -0.099775   0.055174  -0.015921   0.010373   0.412570
   16  C  2  S    0.001082  -0.026275  -0.005147  -0.023941   0.002750
   17  C  2  S    0.033120  -0.266764  -0.474934   0.037140   0.021299
   18  C  2  X    0.007202  -0.116861   0.130321   0.008144  -0.023261
   19  C  2  Y    0.001118   0.012251  -0.057707  -0.099376   0.000956
   20  C  2  Z   -0.180629   0.004564   0.002455  -0.000968   0.088669
   21  C  2  S   -0.389084  -1.016498   1.468774   0.706843  -0.188764
   22  C  2  X    0.012496  -2.141489  -0.316960   0.410710  -0.042417
   23  C  2  Y    0.011529  -1.261478   0.128784  -0.328026  -0.137098
   24  C  2  Z    0.220178  -0.134591   0.017029   0.016739   0.194664
   25  C  2 XX    0.002902  -0.090697   0.137435  -0.239145  -0.017579
   26  C  2 YY   -0.050106   0.147285   0.210076   0.404494  -0.001427
   27  C  2 ZZ    0.047204  -0.056588  -0.347511  -0.165349   0.019006
   28  C  2 XY   -0.041494  -0.290235  -0.264546   0.266080  -0.002484
   29  C  2 XZ    0.112246   0.017172  -0.031158  -0.005677  -0.136507
   30  C  2 YZ    0.710539  -0.042151   0.047144   0.044356  -0.065808
   31  O  3  S    0.005580   0.026315  -0.017735   0.004418  -0.001101
   32  O  3  S   -0.163048  -1.566439   0.464688   0.093900  -0.045414
   33  O  3  X    0.035746   0.015282  -0.183156   0.179275  -0.020244
   34  O  3  Y    0.021113   0.051565   0.007130  -0.179213  -0.007131
   35  O  3  Z   -0.080249  -0.000129   0.001539  -0.000638   0.069323
   36  O  3  S    0.292183   3.972907  -0.797915  -0.477680   0.186674
   37  O  3  X   -0.118024  -1.083519   0.419730  -0.067826  -0.045624
   38  O  3  Y   -0.060244  -0.642015   0.070512   0.377566  -0.012468
   39  O  3  Z   -0.118683  -0.042255   0.006224   0.007994  -0.108933
   40  O  3 XX    0.005308  -0.140775   0.042164   0.487894  -0.036659
   41  O  3 YY    0.008123   0.166286   0.460815  -0.106112  -0.112109
   42  O  3 ZZ   -0.013430  -0.025511  -0.502978  -0.381781   0.148768
   43  O  3 XY    0.002113  -0.183118  -0.112592  -0.435752   0.047334
   44  O  3 XZ   -0.489557   0.013127  -0.001021  -0.019482  -0.186820
   45  O  3 YZ    0.096442  -0.034733   0.092863   0.065355   0.801351
   46  H  4  S    0.058845  -0.192934  -0.247934  -0.523088  -0.001858
   47  H  4  S    0.039139  -0.361501  -0.172557  -0.081981  -0.032826
   48  H  5  S   -0.085687   0.198563  -0.113383  -0.156694  -0.027417
   49  H  5  S   -0.064843   0.026200   0.164932  -0.078532  -0.024319
   50  H  6  S   -0.145451   0.269972  -0.023747  -0.008188   0.009491
   51  H  6  S   -0.204238   0.320127  -0.143037   0.022076  -0.129787
   52  H  7  S    0.108975   0.050718   0.081802   0.120288   0.015685
   53  H  7  S    0.131338   0.302407  -0.246713   0.112180   0.162693

                     41         42         43         44         45
                    1.9421     2.0062     2.0580     2.1258     2.2659
                     A          A          A          A          A   
    1  C  1  S   -0.055828   0.020182  -0.017548   0.011620  -0.012222
    2  C  1  S   -0.440533   0.026481  -0.035342   0.039813  -0.051408
    3  C  1  X    0.051491  -0.082504   0.049894  -0.010188   0.011645
    4  C  1  Y   -0.122177   0.024693  -0.021657   0.025585  -0.012392
    5  C  1  Z   -0.021871  -0.027538  -0.028618   0.010839  -0.062014
    6  C  1  S    2.148637  -0.551716   0.459303  -0.184331   0.343536
    7  C  1  X    0.417649   0.025438   0.040022   0.483104   0.071133
    8  C  1  Y   -0.364060   0.099627  -0.088076   0.215576  -0.100894
    9  C  1  Z   -0.041510  -0.299204  -0.634033   0.099988  -0.209576
   10  C  1 XX    0.425896   0.274117  -0.093717   0.075374   0.010049
   11  C  1 YY   -0.495677   0.439611  -0.260068  -0.340021  -0.039192
   12  C  1 ZZ    0.069781  -0.713728   0.353785   0.264647   0.029143
   13  C  1 XY    0.459977  -0.010668   0.006289  -0.709833  -0.049561
   14  C  1 XZ    0.002427   0.162730   0.160831   0.012462   0.965324
   15  C  1 YZ   -0.174284   0.316839   0.704862   0.095171   0.247874
   16  C  2  S    0.024714  -0.017347   0.013130  -0.001791   0.012817
   17  C  2  S    0.272157  -0.335588   0.188599  -0.196587   0.070568
   18  C  2  X   -0.144642   0.192693  -0.084014   0.269768  -0.000567
   19  C  2  Y   -0.081656  -0.062622   0.018027  -0.139660  -0.014506
   20  C  2  Z   -0.017903   0.003816   0.043434   0.008458  -0.079967
   21  C  2  S   -1.594887   1.054251  -0.661789   0.041305  -0.337309
   22  C  2  X    0.467060   0.006722   0.060293  -0.051854   0.091085
   23  C  2  Y   -1.291344   0.295958  -0.216478  -0.552198  -0.099124
   24  C  2  Z   -0.049458   0.174546   0.360289  -0.045091  -0.062978
   25  C  2 XX   -0.402554   0.257656  -0.147437   0.155706  -0.119730
   26  C  2 YY    0.378356   0.135439  -0.102951   0.232580   0.019435
   27  C  2 ZZ    0.024198  -0.393094   0.250388  -0.388286   0.100295
   28  C  2 XY   -0.096686   0.054791  -0.015298  -0.053681  -0.058514
   29  C  2 XZ   -0.035789  -0.109471  -0.284741   0.046659   0.226386
   30  C  2 YZ    0.058900   0.221104   0.428526  -0.003197  -0.459159
   31  O  3  S   -0.015516   0.008170  -0.004935   0.007131  -0.005166
   32  O  3  S   -0.068094   0.125690  -0.050866  -0.138218   0.048944
   33  O  3  X   -0.111891   0.090355  -0.051764   0.121076  -0.057666
   34  O  3  Y   -0.217565   0.090781  -0.060140  -0.013548  -0.044223
   35  O  3  Z   -0.019129   0.031333   0.065996   0.005429  -0.024014
   36  O  3  S    0.841238  -0.709343   0.354981   0.224831   0.073897
   37  O  3  X   -0.373271   0.229920  -0.119395  -0.175631  -0.022495
   38  O  3  Y    0.245882   0.026584   0.018085   0.166901   0.033087
   39  O  3  Z    0.014966  -0.065167  -0.199066  -0.004114   0.078793
   40  O  3 XX   -0.018629   0.029531  -0.025924   0.246608   0.020165
   41  O  3 YY   -0.402068  -0.255301   0.118581  -0.520178  -0.014086
   42  O  3 ZZ    0.420696   0.225770  -0.092657   0.273570  -0.006079
   43  O  3 XY    0.151939   0.146137  -0.088197  -0.122488  -0.028740
   44  O  3 XZ   -0.002787   0.154886   0.388271   0.006467  -0.266457
   45  O  3 YZ   -0.104381  -0.144893  -0.182771  -0.012734   0.172688
   46  H  4  S   -0.414331  -0.133511   0.059841  -0.313952   0.015668
   47  H  4  S   -0.294575  -0.014558   0.005089  -0.171262  -0.000585
   48  H  5  S   -0.459382  -0.487132   0.233636   0.787992   0.004065
   49  H  5  S   -0.043164   0.373651  -0.336528  -0.155587  -0.155460
   50  H  6  S   -0.338054   0.090928  -0.556636   0.092361  -0.551876
   51  H  6  S   -0.166983  -0.082164  -0.056913   0.192117   0.106921
   52  H  7  S   -0.018411   0.845995   0.053109  -0.449594   0.450540
   53  H  7  S   -0.115777  -0.270670   0.348539   0.223246  -0.015595

                     46         47         48         49         50
                    2.3404     2.5106     2.5783     2.8608     2.9457
                     A          A          A          A          A   
    1  C  1  S    0.032245   0.054996  -0.003411   0.024492  -0.010946
    2  C  1  S    0.276901   0.121090  -0.010037  -0.155113   0.087206
    3  C  1  X   -0.086899  -0.273685   0.010699  -0.203328   0.102352
    4  C  1  Y    0.045097   0.081773  -0.008770   0.167955  -0.058454
    5  C  1  Z   -0.010839  -0.001012   0.026321   0.003204   0.001695
    6  C  1  S   -1.386706  -1.642811   0.099884  -0.026164   0.044587
    7  C  1  X   -0.697811  -0.864262   0.048408  -0.243231   0.180609
    8  C  1  Y    0.318304   0.296664  -0.016832   0.053422   0.061263
    9  C  1  Z   -0.033259  -0.002986   0.033614  -0.044772   0.002693
   10  C  1 XX   -0.341752  -0.773767   0.042875  -0.175918   0.059551
   11  C  1 YY   -0.127131   0.478095  -0.004225  -0.080290   0.020586
   12  C  1 ZZ    0.468883   0.295672  -0.038651   0.256208  -0.080136
   13  C  1 XY    0.352480   0.129307  -0.002598   0.562397  -0.232331
   14  C  1 XZ    0.121775  -0.013918   0.138285   0.029552  -0.007114
   15  C  1 YZ    0.045927   0.027318  -0.180492  -0.014370   0.010195
   16  C  2  S   -0.078782  -0.032072   0.001909  -0.043052  -0.028554
   17  C  2  S   -0.211169  -0.070573  -0.000957  -0.350378  -1.324118
   18  C  2  X   -0.177427  -0.227419   0.000390  -0.425736  -1.085018
   19  C  2  Y    0.176925   0.059621  -0.017050  -0.178179  -0.625576
   20  C  2  Z   -0.000710   0.012821   0.242433  -0.017778  -0.051820
   21  C  2  S    1.477638   1.777527  -0.098658   0.007208  -1.714320
   22  C  2  X   -0.430133  -0.763446   0.040043  -0.289904  -0.730051
   23  C  2  Y    0.640569   0.880846  -0.057179  -0.481637  -0.501760
   24  C  2  Z    0.024133   0.040301   0.234670  -0.018376  -0.038254
   25  C  2 XX    0.447906  -0.148294  -0.034615   0.829654  -0.730004
   26  C  2 YY    0.301059   0.459831  -0.053303  -0.755857   0.281216
   27  C  2 ZZ   -0.748965  -0.311537   0.087918  -0.073797   0.448788
   28  C  2 XY    0.474226  -0.856270  -0.010237  -0.619005  -0.363138
   29  C  2 XZ    0.077893   0.008397   0.913511  -0.006353  -0.049829
   30  C  2 YZ    0.026677   0.048201   0.390111  -0.048383  -0.018304
   31  O  3  S    0.029124  -0.019875   0.000486  -0.011980  -0.061077
   32  O  3  S   -0.376865   0.569441  -0.023565  -0.343327  -0.680348
   33  O  3  X    0.352279  -0.342888   0.012280  -0.015002  -0.250582
   34  O  3  Y    0.238283  -0.137172   0.005088   0.036676  -0.160711
   35  O  3  Z    0.018250  -0.012548  -0.010605   0.001310  -0.012098
   36  O  3  S   -0.197696  -0.727775   0.037634   1.042895   3.082525
   37  O  3  X    0.049323   0.506740  -0.017222  -0.701281  -1.522217
   38  O  3  Y   -0.313089  -0.033273   0.019998   0.074374  -0.934286
   39  O  3  Z   -0.014289  -0.017678  -0.452533  -0.012998  -0.072955
   40  O  3 XX   -0.287275  -0.161910  -0.021179   0.854351   0.760311
   41  O  3 YY    0.253654  -0.001251  -0.038608  -0.653644  -0.054265
   42  O  3 ZZ    0.033621   0.163161   0.059788  -0.200707  -0.706046
   43  O  3 XY    0.376560   0.129077  -0.049064  -0.117085   1.137931
   44  O  3 XZ   -0.002315   0.048055   0.851956   0.019265   0.083985
   45  O  3 YZ    0.039613   0.021438   0.516349  -0.024297   0.055656
   46  H  4  S   -0.159585  -0.264256   0.014725   0.270590  -0.038470
   47  H  4  S    0.164746   0.337277  -0.020088  -0.389459   0.026871
   48  H  5  S    0.143773   0.082675  -0.046778  -0.141856   0.097208
   49  H  5  S   -0.110648  -0.031367   0.057955  -0.083627  -0.121448
   50  H  6  S   -0.164646   0.048024   0.010132  -0.146473   0.039191
   51  H  6  S    0.107470  -0.015294   0.022049  -0.029653   0.048869
   52  H  7  S   -0.119762  -0.005502   0.019942  -0.024001  -0.024094
   53  H  7  S    0.152691   0.000523  -0.078372   0.061644   0.130331
 ...... END OF RHF CALCULATION ......
 STEP CPU TIME =     5.23 TOTAL CPU TIME =          5.4 (      0.1 MIN)
 TOTAL WALL CLOCK TIME=          5.4 SECONDS, CPU UTILIZATION IS    99.08%

     ---------------------------------------------------------------------
     PROPERTIES FOR THE B3LYP    DFT FUNCTIONAL (RHF  TYPE) DENSITY MATRIX
     ---------------------------------------------------------------------

          -----------------
          ENERGY COMPONENTS
          -----------------

         WAVEFUNCTION NORMALIZATION =       1.0000000000

                ONE ELECTRON ENERGY =    -345.7264983960
                TWO ELECTRON ENERGY =     122.2964198537
           NUCLEAR REPULSION ENERGY =      69.9991179002
                                      ------------------
                       TOTAL ENERGY =    -153.4309606421

 ELECTRON-ELECTRON POTENTIAL ENERGY =     122.2964198537
  NUCLEUS-ELECTRON POTENTIAL ENERGY =    -498.8880766051
   NUCLEUS-NUCLEUS POTENTIAL ENERGY =      69.9991179002
                                      ------------------
             TOTAL POTENTIAL ENERGY =    -306.5925388512
               TOTAL KINETIC ENERGY =     153.1615782090
                 VIRIAL RATIO (V/T) =       2.0017588121

          ---------------------------------------
          MULLIKEN AND LOWDIN POPULATION ANALYSES
          ---------------------------------------

     ATOMIC MULLIKEN POPULATION IN EACH MOLECULAR ORBITAL

                      1          2          3          4          5

                  2.000000   2.000000   2.000000   2.000000   2.000000

    1            -0.000026   0.001296   1.995379   0.021150   0.778488
    2             0.002259   2.000550   0.001807   0.523128   0.109321
    3             1.997739  -0.002797   0.000011   1.453134   0.025867
    4             0.000030   0.000921  -0.000006  -0.001573   0.000276
    5             0.000000  -0.000029   0.001046   0.001964   0.570791
    6            -0.000001   0.000016   0.001269   0.000380   0.052042
    7            -0.000001   0.000042   0.000494   0.001817   0.463215

                      6          7          8          9         10

                  2.000000   2.000000   2.000000   2.000000   2.000000

    1             0.445759   0.492442   0.568268   0.203413   0.085781
    2             0.903292   0.657007   0.451777   0.408847   0.609324
    3             0.230184   0.243446   0.439124   1.265980   1.188154
    4             0.172655   0.294343   0.114096   0.031858   0.000215
    5             0.109902   0.035557   0.008309   0.004346   0.004394
    6             0.017119   0.207221   0.364534   0.083873   0.095945
    7             0.121089   0.069985   0.053891   0.001682   0.016187

                     11         12

                  2.000000   2.000000

    1             0.377961   1.442113
    2             0.053662   0.119042
    3             1.338559   0.135981
    4             0.136139   0.161623
    5             0.061466   0.036333
    6             0.019827   0.004385
    7             0.012385   0.100522

               ----- POPULATIONS IN EACH AO -----
                             MULLIKEN      LOWDIN
              1  C  1  S      1.99685     1.98076
              2  C  1  S      0.70986     0.39975
              3  C  1  X      0.61185     0.54075
              4  C  1  Y      0.82773     0.79038
              5  C  1  Z      0.59420     0.52156
              6  C  1  S      0.71448     0.38669
              7  C  1  X      0.18875     0.33462
              8  C  1  Y      0.54821     0.71000
              9  C  1  Z      0.17434     0.38856
             10  C  1 XX      0.00478     0.17581
             11  C  1 YY      0.00280     0.12768
             12  C  1 ZZ      0.01528     0.18374
             13  C  1 XY      0.01291     0.02735
             14  C  1 XZ      0.00998     0.02953
             15  C  1 YZ      0.00000     0.01612
             16  C  2  S      1.99651     1.97450
             17  C  2  S      0.70344     0.36402
             18  C  2  X      0.74157     0.64571
             19  C  2  Y      0.74566     0.64586
             20  C  2  Z      0.46406     0.41756
             21  C  2  S      0.46276     0.31541
             22  C  2  X      0.11595     0.28277
             23  C  2  Y      0.22999     0.38307
             24  C  2  Z      0.29338     0.33311
             25  C  2 XX      0.00484     0.22297
             26  C  2 YY      0.04095     0.19125
             27  C  2 ZZ      0.02589     0.10365
             28  C  2 XY      0.01203     0.05281
             29  C  2 XZ      0.00297     0.02226
             30  C  2 YZ      0.00000     0.00509
             31  O  3  S      1.99731     1.97777
             32  O  3  S      0.93254     0.72435
             33  O  3  X      0.98857     0.92380
             34  O  3  Y      1.10412     1.05572
             35  O  3  Z      0.75561     0.70416
             36  O  3  S      0.93117     0.46917
             37  O  3  X      0.48205     0.56236
             38  O  3  Y      0.59830     0.66103
             39  O  3  Z      0.49755     0.53600
             40  O  3 XX      0.00227     0.18483
             41  O  3 YY      0.00746     0.17292
             42  O  3 ZZ      0.00714     0.17396
             43  O  3 XY      0.00851     0.01572
             44  O  3 XZ      0.00278     0.01134
             45  O  3 YZ      0.00000     0.00365
             46  H  4  S      0.53630     0.50757
             47  H  4  S      0.37427     0.39913
             48  H  5  S      0.65733     0.55275
             49  H  5  S      0.17675     0.22039
             50  H  6  S      0.51402     0.46651
             51  H  6  S      0.33260     0.35007
             52  H  7  S      0.63969     0.52733
             53  H  7  S      0.20162     0.22612

          ----- MULLIKEN ATOMIC OVERLAP POPULATIONS -----
          (OFF-DIAGONAL ELEMENTS NEED TO BE MULTIPLIED BY 2)

             1           2           3           4           5

    1    5.7916555
    2    0.3690995   4.5909764
    3   -0.0558347   0.5587325   7.8845882
    4   -0.1614148   0.3526679  -0.0750601   0.7835775
    5   -0.1737469  -0.0139250   0.0103356  -0.0140242   1.1569908
    6    0.3574821  -0.0302332   0.0006816   0.0089868   0.0287975
    7    0.2847838   0.0126976  -0.0080606   0.0158429  -0.1603465

             6           7

    6    0.5543145
    7   -0.0734187   0.7698108

          TOTAL MULLIKEN AND LOWDIN ATOMIC POPULATIONS
       ATOM         MULL.POP.    CHARGE          LOW.POP.     CHARGE
    1 C             6.412024   -0.412024         6.613313   -0.613313
    2 C             5.840016    0.159984         5.960049    0.039951
    3 O             8.315383   -0.315383         8.176769   -0.176769
    4 H             0.910576    0.089424         0.906699    0.093301
    5 H             0.834081    0.165919         0.773141    0.226859
    6 H             0.846611    0.153389         0.816578    0.183422
    7 H             0.841309    0.158691         0.753451    0.246549

          MULLIKEN SPHERICAL HARMONIC POPULATIONS
       ATOM           S       P       D      F      G      H      I    TOTAL
    1 C             3.42    2.95    0.05   0.00   0.00   0.00   0.00    6.41
    2 C             3.16    2.59    0.09   0.00   0.00   0.00   0.00    5.84
    3 O             3.86    4.43    0.03   0.00   0.00   0.00   0.00    8.32
    4 H             0.91    0.00    0.00   0.00   0.00   0.00   0.00    0.91
    5 H             0.83    0.00    0.00   0.00   0.00   0.00   0.00    0.83
    6 H             0.85    0.00    0.00   0.00   0.00   0.00   0.00    0.85
    7 H             0.84    0.00    0.00   0.00   0.00   0.00   0.00    0.84

          -------------------------------
          BOND ORDER AND VALENCE ANALYSIS     BOND ORDER THRESHOLD=0.050
          -------------------------------

                   BOND                       BOND                       BOND
  ATOM PAIR DIST  ORDER      ATOM PAIR DIST  ORDER      ATOM PAIR DIST  ORDER
    1   2  1.509  1.106        1   5  1.093  0.367        1   6  1.098  0.909
    1   7  1.098  0.598        2   3  1.211  2.029        2   4  1.115  0.879
    5   7  0.507  0.393

                       TOTAL       BONDED        FREE
      ATOM            VALENCE     VALENCE     VALENCE
    1 C                 2.998       2.998      -0.000
    2 C                 4.032       4.032       0.000
    3 O                 2.122       2.122      -0.000
    4 H                 0.918       0.918       0.000
    5 H                 0.806       0.806       0.000
    6 H                 0.948       0.948      -0.000
    7 H                 1.010       1.010      -0.000

          ---------------------
          ELECTROSTATIC MOMENTS
          ---------------------

 POINT   1           X           Y           Z (BOHR)    CHARGE
                -0.000000    0.000000    0.000000       -0.00 (A.U.)
         DX          DY          DZ         /D/  (DEBYE)
    -3.120201   -2.883615    0.474010    4.274994
 ...... END OF PROPERTY EVALUATION ......
 STEP CPU TIME =     0.00 TOTAL CPU TIME =          5.4 (      0.1 MIN)
 TOTAL WALL CLOCK TIME=          5.4 SECONDS, CPU UTILIZATION IS    98.90%
                580000  WORDS OF DYNAMIC MEMORY USED
 EXECUTION OF GAMESS TERMINATED NORMALLY Thu Oct 17 23:38:53 2019
 DDI: 263640 bytes (0.3 MB / 0 MWords) used by master data server.

 ----------------------------------------
 CPU timing information for all processes
 ========================================
 0: 5.207 + 0.178 = 5.386
 ----------------------------------------
 ddikick.x: exited gracefully.
----- accounting info -----
Files used on the master node crcfe01.crc.nd.edu were:
-rw-r--r-- 1 cdrisko campus      491 Oct 17 23:38 /afs/crc.nd.edu/user/c/cdrisko/acetaldehyde.F05
-rw-r--r-- 1 cdrisko campus    45118 Oct 17 23:38 /afs/crc.nd.edu/user/c/cdrisko/acetaldehyde.F07
-rw-r--r-- 1 cdrisko campus 11881056 Oct 17 23:38 /afs/crc.nd.edu/user/c/cdrisko/acetaldehyde.F08
-rw-r--r-- 1 cdrisko campus  1799600 Oct 17 23:38 /afs/crc.nd.edu/user/c/cdrisko/acetaldehyde.F10
Thu Oct 17 23:38:56 EDT 2019
0.335u 0.221s 0:08.96 6.1%	0+0k 0+24io 0pf+0w
