   4   4   0   0
  0.1297726E+02  0.3730333E-09  0.3730333E-09  0.3730333E-09  0.5000000E-15
  1.000000000000000E-004
  CAR 
 unknown system                          
     42.66081958     -4.32044415  301      6.40661905      1.00000000
     -4.320  0.0000E+00  0.0000E+00
     -4.164  0.0000E+00  0.0000E+00
     -4.007  0.0000E+00  0.0000E+00
     -3.851  0.0000E+00  0.0000E+00
     -3.694  0.0000E+00  0.0000E+00
     -3.537  0.0000E+00  0.0000E+00
     -3.381  0.0000E+00  0.0000E+00
     -3.224  0.0000E+00  0.0000E+00
     -3.068 -0.6352E-35 -0.9947E-36
     -2.911 -0.4567E-24 -0.7151E-25
     -2.754 -0.2251E-15 -0.3526E-16
     -2.598 -0.7608E-09 -0.1191E-09
     -2.441 -0.1528E-04 -0.2393E-05
     -2.285 -0.6079E-03 -0.9759E-04
     -2.128  0.1595E-01  0.2400E-02
     -1.971  0.1150E+00  0.2041E-01
     -1.815  0.2244E+00  0.5554E-01
     -1.658  0.1422E+00  0.7781E-01
     -1.502  0.2515E+00  0.1172E+00
     -1.345  0.5188E+00  0.1984E+00
     -1.188  0.1533E+00  0.2225E+00
     -1.032  0.2044E+00  0.2545E+00
     -0.875  0.5792E+00  0.3452E+00
     -0.719  0.5163E+00  0.4260E+00
     -0.562  0.3625E+00  0.4828E+00
     -0.405  0.3832E+00  0.5428E+00
     -0.249  0.9058E+00  0.6847E+00
     -0.092  0.3250E-01  0.6897E+00
      0.064  0.6633E+00  0.7936E+00
      0.221  0.8800E+00  0.9314E+00
      0.378  0.5463E+00  0.1017E+01
      0.534  0.1026E+01  0.1178E+01
      0.691  0.5681E+00  0.1267E+01
      0.847  0.3185E+00  0.1316E+01
      1.004  0.1045E+01  0.1480E+01
      1.161  0.1409E+01  0.1701E+01
      1.317  0.1025E+01  0.1861E+01
      1.474  0.1189E+01  0.2047E+01
      1.631  0.9304E+00  0.2193E+01
      1.787  0.2163E+01  0.2532E+01
      1.944  0.2809E+01  0.2972E+01
      2.100  0.2978E+01  0.3438E+01
      2.257  0.4830E+01  0.4195E+01
      2.414  0.6173E+01  0.5161E+01
      2.570  0.5180E+01  0.5973E+01
      2.727  0.9775E+01  0.7503E+01
      2.883  0.1034E+02  0.9123E+01
      3.040  0.9500E+01  0.1061E+02
      3.197  0.9738E+01  0.1214E+02
      3.353  0.1028E+02  0.1375E+02
      3.510  0.1505E+02  0.1610E+02
      3.666  0.1436E+02  0.1835E+02
      3.823  0.2026E+02  0.2152E+02
      3.980  0.1834E+02  0.2440E+02
      4.136  0.1175E+02  0.2624E+02
      4.293  0.1472E+02  0.2854E+02
      4.449  0.1745E+02  0.3127E+02
      4.606  0.1450E+02  0.3354E+02
      4.763  0.1589E+02  0.3603E+02
      4.919  0.2358E+02  0.3972E+02
      5.076  0.1353E+02  0.4184E+02
      5.232  0.2823E+01  0.4229E+02
      5.389  0.8076E+00  0.4241E+02
      5.546  0.1654E+01  0.4267E+02
      5.702  0.1979E+01  0.4298E+02
      5.859  0.1187E+01  0.4317E+02
      6.015  0.2874E-01  0.4317E+02
      6.172  0.3605E+01  0.4374E+02
      6.329  0.8481E+00  0.4387E+02
      6.485  0.1389E+01  0.4409E+02
      6.642  0.6403E+00  0.4419E+02
      6.798  0.7687E+00  0.4431E+02
      6.955  0.1115E+01  0.4448E+02
      7.112  0.1608E+01  0.4473E+02
      7.268  0.1884E+01  0.4503E+02
      7.425  0.1275E+01  0.4523E+02
      7.581  0.6657E+00  0.4533E+02
      7.738  0.7597E+00  0.4545E+02
      7.895  0.8975E+00  0.4559E+02
      8.051  0.2573E+00  0.4563E+02
      8.208  0.2261E+01  0.4599E+02
      8.364  0.9896E+00  0.4614E+02
      8.521  0.1185E+01  0.4633E+02
      8.678  0.1088E+01  0.4650E+02
      8.834  0.1311E+01  0.4670E+02
      8.991  0.1082E+00  0.4672E+02
      9.148  0.4204E+00  0.4679E+02
      9.304  0.5580E+00  0.4687E+02
      9.461  0.1396E+01  0.4709E+02
      9.617  0.5270E+00  0.4717E+02
      9.774  0.1149E+01  0.4735E+02
      9.931  0.1289E+01  0.4756E+02
     10.087  0.7627E+00  0.4768E+02
     10.244  0.8126E+00  0.4780E+02
     10.400  0.1332E+01  0.4801E+02
     10.557  0.1685E+01  0.4827E+02
     10.714  0.1306E+01  0.4848E+02
     10.870  0.7359E+00  0.4859E+02
     11.027  0.4936E+00  0.4867E+02
     11.183  0.2240E+01  0.4902E+02
     11.340  0.1215E+01  0.4921E+02
     11.497  0.6203E+00  0.4931E+02
     11.653  0.4580E+00  0.4938E+02
     11.810  0.1926E+01  0.4968E+02
     11.966  0.1938E+01  0.4999E+02
     12.123  0.4565E+00  0.5006E+02
     12.280  0.1269E+01  0.5026E+02
     12.436  0.6081E+00  0.5035E+02
     12.593  0.7536E+00  0.5047E+02
     12.749  0.4160E+00  0.5054E+02
     12.906  0.5614E+00  0.5062E+02
     13.063  0.1933E+01  0.5093E+02
     13.219  0.1891E+01  0.5122E+02
     13.376  0.1616E+01  0.5148E+02
     13.532  0.1132E+01  0.5165E+02
     13.689  0.1546E+01  0.5189E+02
     13.846  0.6661E+00  0.5200E+02
     14.002  0.9926E+00  0.5215E+02
     14.159  0.1148E+01  0.5233E+02
     14.315  0.1184E+01  0.5252E+02
     14.472  0.1851E+01  0.5281E+02
     14.629  0.1721E+01  0.5308E+02
     14.785  0.1985E+01  0.5339E+02
     14.942  0.2060E+01  0.5371E+02
     15.098  0.1256E+01  0.5391E+02
     15.255  0.1509E+01  0.5415E+02
     15.412  0.2415E+01  0.5452E+02
     15.568  0.2525E+00  0.5456E+02
     15.725  0.1346E+01  0.5477E+02
     15.881  0.1280E+01  0.5497E+02
     16.038  0.1522E+01  0.5521E+02
     16.195  0.1598E+01  0.5546E+02
     16.351  0.7363E+00  0.5558E+02
     16.508  0.1155E+01  0.5576E+02
     16.665  0.3069E+01  0.5624E+02
     16.821  0.1589E+01  0.5649E+02
     16.978  0.1359E+01  0.5670E+02
     17.134  0.3417E+01  0.5724E+02
     17.291  0.7534E+00  0.5735E+02
     17.448  0.5858E+00  0.5745E+02
     17.604  0.1395E+01  0.5767E+02
     17.761  0.1825E+01  0.5795E+02
     17.917  0.3093E+01  0.5844E+02
     18.074  0.8909E+00  0.5857E+02
     18.231  0.1424E+01  0.5880E+02
     18.387  0.2669E+01  0.5922E+02
     18.544  0.1234E+01  0.5941E+02
     18.700  0.1652E+01  0.5967E+02
     18.857  0.1291E+01  0.5987E+02
     19.014  0.2153E+01  0.6021E+02
     19.170  0.1369E+01  0.6042E+02
     19.327  0.1862E+01  0.6071E+02
     19.483  0.2029E+01  0.6103E+02
     19.640  0.1812E+01  0.6131E+02
     19.797  0.2260E+01  0.6167E+02
     19.953  0.2013E+01  0.6198E+02
     20.110  0.1487E+01  0.6222E+02
     20.266  0.1824E+01  0.6250E+02
     20.423  0.3152E+01  0.6300E+02
     20.580  0.1137E+01  0.6317E+02
     20.736  0.1646E+01  0.6343E+02
     20.893  0.1167E+01  0.6361E+02
     21.049  0.8274E+00  0.6374E+02
     21.206  0.2296E+01  0.6410E+02
     21.363  0.1955E+01  0.6441E+02
     21.519  0.1801E+01  0.6469E+02
     21.676  0.1367E+01  0.6491E+02
     21.832  0.3417E-01  0.6491E+02
     21.989  0.1147E+01  0.6509E+02
     22.146  0.2381E+01  0.6546E+02
     22.302  0.1217E+01  0.6565E+02
     22.459  0.1700E+01  0.6592E+02
     22.615  0.1949E+01  0.6623E+02
     22.772  0.1190E+01  0.6641E+02
     22.929  0.7554E+00  0.6653E+02
     23.085  0.1527E+01  0.6677E+02
     23.242  0.1719E+01  0.6704E+02
     23.399  0.9314E+00  0.6718E+02
     23.555  0.1375E+01  0.6740E+02
     23.712  0.1622E+01  0.6765E+02
     23.868  0.1309E+01  0.6786E+02
     24.025  0.1407E+01  0.6808E+02
     24.182  0.1494E+01  0.6831E+02
     24.338  0.2398E+01  0.6869E+02
     24.495  0.7853E+00  0.6881E+02
     24.651  0.3021E+01  0.6928E+02
     24.808  0.4393E+00  0.6935E+02
     24.965  0.1328E+01  0.6956E+02
     25.121  0.2261E+01  0.6992E+02
     25.278  0.1887E+01  0.7021E+02
     25.434  0.2004E+01  0.7053E+02
     25.591  0.1829E+01  0.7081E+02
     25.748  0.2311E+01  0.7117E+02
     25.904  0.1335E+01  0.7138E+02
     26.061  0.2017E+01  0.7170E+02
     26.217  0.2385E+01  0.7207E+02
     26.374  0.2765E+01  0.7250E+02
     26.531  0.2442E+01  0.7289E+02
     26.687  0.2730E+01  0.7331E+02
     26.844  0.2535E+01  0.7371E+02
     27.000  0.1747E+01  0.7399E+02
     27.157  0.2770E+01  0.7442E+02
     27.314  0.3023E+01  0.7489E+02
     27.470  0.2892E+01  0.7535E+02
     27.627  0.2949E+01  0.7581E+02
     27.783  0.2412E+01  0.7619E+02
     27.940  0.1466E+01  0.7641E+02
     28.097  0.1938E+01  0.7672E+02
     28.253  0.1029E+01  0.7688E+02
     28.410  0.2556E+01  0.7728E+02
     28.566  0.4081E+01  0.7792E+02
     28.723  0.2018E+01  0.7823E+02
     28.880  0.8201E+00  0.7836E+02
     29.036  0.2542E+01  0.7876E+02
     29.193  0.5454E+00  0.7885E+02
     29.349  0.3410E+00  0.7890E+02
     29.506  0.2848E+01  0.7935E+02
     29.663  0.1832E+01  0.7963E+02
     29.819  0.6867E+00  0.7974E+02
     29.976  0.2945E+01  0.8020E+02
     30.132  0.1934E+01  0.8050E+02
     30.289  0.2025E+01  0.8082E+02
     30.446  0.2096E+01  0.8115E+02
     30.602  0.1414E+01  0.8137E+02
     30.759  0.1412E+01  0.8159E+02
     30.916  0.9692E+00  0.8174E+02
     31.072  0.1599E+01  0.8199E+02
     31.229  0.9411E+00  0.8214E+02
     31.385  0.1233E+01  0.8234E+02
     31.542  0.2033E+01  0.8265E+02
     31.699  0.4665E+00  0.8273E+02
     31.855  0.1604E+01  0.8298E+02
     32.012  0.2313E+01  0.8334E+02
     32.168  0.3312E+01  0.8386E+02
     32.325  0.2120E+01  0.8419E+02
     32.482  0.3177E+01  0.8469E+02
     32.638  0.3293E+01  0.8520E+02
     32.795  0.3082E+01  0.8569E+02
     32.951  0.1102E+01  0.8586E+02
     33.108  0.1267E+01  0.8606E+02
     33.265  0.1333E+01  0.8627E+02
     33.421  0.1542E+01  0.8651E+02
     33.578  0.2807E+01  0.8695E+02
     33.734  0.4400E+01  0.8764E+02
     33.891  0.1510E+01  0.8787E+02
     34.048  0.1395E+01  0.8809E+02
     34.204  0.1517E+01  0.8833E+02
     34.361  0.9944E+00  0.8848E+02
     34.517  0.1535E+01  0.8873E+02
     34.674  0.5931E+00  0.8882E+02
     34.831  0.1646E+01  0.8908E+02
     34.987  0.2136E+01  0.8941E+02
     35.144  0.4861E+01  0.9017E+02
     35.300  0.2887E+01  0.9062E+02
     35.457  0.2101E+01  0.9095E+02
     35.614  0.1227E+01  0.9114E+02
     35.770  0.2455E+01  0.9153E+02
     35.927  0.8859E+00  0.9167E+02
     36.083  0.2223E+01  0.9202E+02
     36.240  0.1049E+01  0.9218E+02
     36.397  0.3054E+01  0.9266E+02
     36.553  0.3324E+01  0.9318E+02
     36.710  0.2928E+01  0.9364E+02
     36.866  0.2169E+01  0.9398E+02
     37.023  0.1045E+01  0.9414E+02
     37.180  0.1475E+01  0.9437E+02
     37.336 -0.4250E-01  0.9437E+02
     37.493  0.1428E+01  0.9459E+02
     37.649  0.1606E+01  0.9484E+02
     37.806  0.1240E+01  0.9503E+02
     37.963  0.1439E+01  0.9526E+02
     38.119  0.8222E+00  0.9539E+02
     38.276  0.5302E+00  0.9547E+02
     38.433  0.4940E+00  0.9555E+02
     38.589  0.6080E+00  0.9564E+02
     38.746  0.4669E+00  0.9572E+02
     38.902  0.3657E+00  0.9577E+02
     39.059  0.8708E+00  0.9591E+02
     39.216  0.2484E+00  0.9595E+02
     39.372 -0.1999E-01  0.9595E+02
     39.529  0.1828E+00  0.9598E+02
     39.685  0.1070E+00  0.9599E+02
     39.842  0.3397E-01  0.9600E+02
     39.999 -0.1591E-02  0.9600E+02
     40.155 -0.1251E-05  0.9600E+02
     40.312 -0.8821E-04  0.9600E+02
     40.468  0.1738E-02  0.9600E+02
     40.625  0.1630E-01  0.9600E+02
     40.782 -0.4186E-03  0.9600E+02
     40.938 -0.1527E-04  0.9600E+02
     41.095 -0.7608E-09  0.9600E+02
     41.251 -0.2256E-15  0.9600E+02
     41.408  0.0000E+00  0.9600E+02
     41.565  0.0000E+00  0.9600E+02
     41.721  0.0000E+00  0.9600E+02
     41.878  0.0000E+00  0.9600E+02
     42.034  0.0000E+00  0.9600E+02
     42.191  0.0000E+00  0.9600E+02
     42.348  0.0000E+00  0.9600E+02
     42.504  0.0000E+00  0.9600E+02
     42.661  0.0000E+00  0.9600E+02
