    4    4    1    1
  0.1297726E+02  0.3730333E-09  0.3730333E-09  0.3730333E-09  0.5000000E-15
  1.000000000000000E-004
  CAR 
 unknown system                          
     44     35     48
 
  0.0000000E+00  0.0000000E+00  0.0000000E+00  0.1371742E-02
    1       -2.184932   1.000000
    2        2.118127   1.000000
    3        2.118127   1.000000
    4        2.118127   1.000000
    5        2.515750   1.000000
    6        2.515750   1.000000
    7        2.515750   1.000000
    8        3.716236   1.000000
    9        3.716236   1.000000
   10        3.716236   1.000000
   11        4.430942   1.000000
   12        4.430942   1.000000
   13        4.907078   1.000000
   14        4.907078   1.000000
   15        4.907078   1.000000
   16        5.041867   1.000000
   17        5.041867   1.000000
   18        5.041867   1.000000
   19        5.041867   1.000000
   20        5.041867   1.000000
   21        5.041867   1.000000
   22        8.041339  -0.000000
   23        8.041339  -0.000000
   24        8.041339  -0.000000
   25       12.950278   0.000000
   26       12.950278   0.000000
   27       12.950278   0.000000
   28       18.842352   0.000000
   29       18.842352   0.000000
   30       18.842352   0.000000
   31       18.842352   0.000000
   32       18.842352   0.000000
   33       18.842352   0.000000
   34       23.115379   0.000000
   35       23.115379   0.000000
   36       23.115379   0.000000
   37       25.241627   0.000000
   38       25.241627   0.000000
   39       25.241627   0.000000
   40       28.311305   0.000000
   41       30.234713   0.000000
   42       30.234713   0.000000
   43       30.234713   0.000000
   44       32.688294   0.000000
   45       32.688294   0.000000
   46       32.688294   0.000000
   47       36.408279   0.000000
   48       40.525308   0.000000
 
  0.1111111E+00  0.0000000E+00  0.0000000E+00  0.8230453E-02
    1       -2.044722   1.000000
    2        2.111322   1.000000
    3        2.180122   1.000000
    4        2.180122   1.000000
    5        2.550339   1.000000
    6        2.552233   1.000000
    7        2.552233   1.000000
    8        3.678336   1.000000
    9        3.747114   1.000000
   10        3.747114   1.000000
   11        4.396836   1.000000
   12        4.444997   1.000000
   13        4.834337   1.000000
   14        4.834337   1.000000
   15        4.863343   1.000000
   16        4.863343   1.000000
   17        4.892899   1.000000
   18        4.989454   1.000000
   19        4.989454   1.000000
   20        5.041927   1.000000
   21        5.041927   1.000000
   22        7.189458  -0.000000
   23        8.376779  -0.000000
   24        8.376779  -0.000000
   25       13.007549   0.000000
   26       13.007549   0.000000
   27       14.089110   0.000000
   28       17.965945   0.000000
   29       17.965945   0.000000
   30       18.231867   0.000000
   31       18.231867   0.000000
   32       19.044242   0.000000
   33       19.044242   0.000000
   34       23.181111   0.000000
   35       24.172161   0.000000
   36       24.172161   0.000000
   37       25.297624   0.000000
   38       26.155733   0.000000
   39       26.155733   0.000000
   40       27.765260   0.000000
   41       28.912011   0.000000
   42       28.912011   0.000000
   43       29.704111   0.000000
   44       33.530308   0.000000
   45       34.111325   0.000000
   46       34.111325   0.000000
   47       36.357368   0.000000
   48       38.659493   0.000000
 
  0.2222222E+00  0.0000000E+00  0.0000000E+00  0.8230453E-02
    1       -1.629024   1.000000
    2        2.037694   1.000000
    3        2.349811   1.000000
    4        2.349811   1.000000
    5        2.650479   1.000000
    6        2.663390   1.000000
    7        2.663390   1.000000
    8        3.569933   1.000000
    9        3.839173   1.000000
   10        3.839173   1.000000
   11        4.301767   1.000000
   12        4.386920   1.000000
   13        4.386920   1.000000
   14        4.485727   1.000000
   15        4.737994   1.000000
   16        4.737994   1.000000
   17        4.844501   1.000000
   18        4.844501   1.000000
   19        4.850833   1.000000
   20        5.041979   1.000000
   21        5.041979   1.000000
   22        5.718633   1.000000
   23        9.206772   0.000000
   24        9.206772   0.000000
   25       13.188303   0.000000
   26       13.188303   0.000000
   27       16.348144   0.000000
   28       16.348144   0.000000
   29       16.466273   0.000000
   30       17.009538   0.000000
   31       17.009538   0.000000
   32       19.635592   0.000000
   33       19.635592   0.000000
   34       23.381270   0.000000
   35       25.478159   0.000000
   36       26.332644   0.000000
   37       26.332644   0.000000
   38       26.735825   0.000000
   39       26.951006   0.000000
   40       26.951006   0.000000
   41       28.274838   0.000000
   42       28.274838   0.000000
   43       28.575423   0.000000
   44       33.499792   0.000000
   45       35.441879   0.000000
   46       36.352365   0.000000
   47       36.352365   0.000000
   48       39.663778   0.000000
 
  0.3333333E+00  0.0000000E+00  0.0000000E+00  0.8230453E-02
    1       -0.955715   1.000000
    2        1.697943   1.000000
    3        2.574214   1.000000
    4        2.574214   1.000000
    5        2.805011   1.000000
    6        2.852651   1.000000
    7        2.852651   1.000000
    8        3.405686   1.000000
    9        3.906566   1.000000
   10        3.906566   1.000000
   11        3.986691   1.000000
   12        3.986691   1.000000
   13        4.169273   1.000000
   14        4.548562   1.000000
   15        4.564199   1.000000
   16        4.564199   1.000000
   17        4.572343   1.000000
   18        4.637553   1.000000
   19        4.637553   1.000000
   20        4.786504   1.000000
   21        5.042188   1.000000
   22        5.042188   1.000000
   23       10.319886   0.000000
   24       10.319886   0.000000
   25       13.519079   0.000000
   26       13.519079   0.000000
   27       14.672836   0.000000
   28       14.672836   0.000000
   29       15.795574   0.000000
   30       15.795574   0.000000
   31       19.307008   0.000000
   32       20.579489   0.000000
   33       20.579489   0.000000
   34       23.724263   0.000000
   35       25.060859   0.000000
   36       25.060859   0.000000
   37       25.735437   0.000000
   38       25.821375   0.000000
   39       27.278397   0.000000
   40       28.917204   0.000000
   41       28.917204   0.000000
   42       30.074404   0.000000
   43       30.909462   0.000000
   44       30.909462   0.000000
   45       37.893412   0.000000
   46       38.255969   0.000000
   47       38.255973   0.000000
   48       38.635821   0.000000
 
  0.4444444E+00  0.0000000E+00  0.0000000E+00  0.8230453E-02
    1       -0.069306   1.000000
    2        0.911758   1.000000
    3        2.749479   1.000000
    4        2.749479   1.000000
    5        2.998001   1.000000
    6        3.122996   1.000000
    7        3.122996   1.000000
    8        3.206554   1.000000
    9        3.476571   1.000000
   10        3.476571   1.000000
   11        4.056123   1.000000
   12        4.092605   1.000000
   13        4.180611   1.000000
   14        4.180611   1.000000
   15        4.405629   1.000000
   16        4.405629   1.000000
   17        4.421423   1.000000
   18        4.421423   1.000000
   19        4.625641   1.000000
   20        4.708245   1.000000
   21        5.042329   1.000000
   22        5.042329   1.000000
   23       11.625129   0.000000
   24       11.625129   0.000000
   25       13.084468   0.000000
   26       13.084468   0.000000
   27       14.037800   0.000000
   28       14.037800   0.000000
   29       14.794758   0.000000
   30       14.794758   0.000000
   31       21.829108   0.000000
   32       21.829108   0.000000
   33       22.376833   0.000000
   34       23.337593   0.000000
   35       23.337593   0.000000
   36       24.222994   0.000000
   37       24.891006   0.000000
   38       25.351858   0.000000
   39       26.406710   0.000000
   40       27.520607   0.000000
   41       31.787304   0.000000
   42       31.787304   0.000000
   43       33.481909   0.000000
   44       33.481909   0.000000
   45       34.907715   0.000000
   46       34.907715   0.000000
   47       38.934978   0.000000
   48       38.934978   0.000000
 
  0.1111111E+00  0.1111111E+00  0.0000000E+00  0.1646091E-01
    1       -1.905479   1.000000
    2        2.176091   1.000000
    3        2.176091   1.000000
    4        2.239170   1.000000
    5        2.585623   1.000000
    6        2.585623   1.000000
    7        2.586836   1.000000
    8        3.658744   1.000000
    9        3.761534   1.000000
   10        3.772627   1.000000
   11        4.388321   1.000000
   12        4.439224   1.000000
   13        4.693537   1.000000
   14        4.736470   1.000000
   15        4.736470   1.000000
   16        4.822062   1.000000
   17        4.877078   1.000000
   18        4.877078   1.000000
   19        4.989187   1.000000
   20        4.989187   1.000000
   21        5.007930   1.000000
   22        7.514314  -0.000000
   23        7.514314  -0.000000
   24        8.679994  -0.000000
   25       13.066547   0.000000
   26       14.173641   0.000000
   27       14.173641   0.000000
   28       16.337237   0.000000
   29       18.149455   0.000000
   30       18.149455   0.000000
   31       18.416354   0.000000
   32       18.416354   0.000000
   33       19.235338   0.000000
   34       23.983282   0.000000
   35       24.257693   0.000000
   36       24.257693   0.000000
   37       26.223745   0.000000
   38       26.223745   0.000000
   39       26.538597   0.000000
   40       27.397578   0.000000
   41       27.454382   0.000000
   42       29.552602   0.000000
   43       30.623566   0.000000
   44       32.840430   0.000000
   45       33.718127   0.000000
   46       35.766947   0.000000
   47       37.392107   0.000000
   48       37.413791   0.000000
 
  0.2222222E+00  0.1111111E+00  0.0000000E+00  0.3292181E-01
    1       -1.492844   1.000000
    2        2.111829   1.000000
    3        2.354612   1.000000
    4        2.401228   1.000000
    5        2.682236   1.000000
    6        2.690873   1.000000
    7        2.693137   1.000000
    8        3.563341   1.000000
    9        3.844147   1.000000
   10        3.844956   1.000000
   11        4.286869   1.000000
   12        4.310573   1.000000
   13        4.315519   1.000000
   14        4.481767   1.000000
   15        4.514249   1.000000
   16        4.705476   1.000000
   17        4.747630   1.000000
   18        4.838562   1.000000
   19        4.843765   1.000000
   20        4.988689   1.000000
   21        4.989873   1.000000
   22        6.096398   1.000052
   23        8.267619  -0.000000
   24        9.459722   0.000000
   25       13.250297   0.000000
   26       14.437154   0.000000
   27       14.592437   0.000000
   28       16.520210   0.000000
   29       16.569950   0.000000
   30       17.168476   0.000000
   31       18.683554   0.000000
   32       18.828334   0.000000
   33       18.956406   0.000000
   34       24.519056   0.000000
   35       24.906856   0.000000
   36       25.222087   0.000000
   37       25.562246   0.000000
   38       26.434040   0.000000
   39       26.440291   0.000000
   40       28.348010   0.000000
   41       28.866586   0.000000
   42       29.812382   0.000000
   43       30.031082   0.000000
   44       33.225570   0.000000
   45       34.108802   0.000000
   46       35.590442   0.000000
   47       37.910117   0.000000
   48       38.963284   0.000000
 
  0.3333333E+00  0.1111111E+00  0.0000000E+00  0.3292181E-01
    1       -0.825227   1.000000
    2        1.787621   1.000000
    3        2.593246   1.000000
    4        2.619978   1.000000
    5        2.831688   1.000000
    6        2.860754   1.000000
    7        2.875526   1.000000
    8        3.407639   1.000000
    9        3.818545   1.000000
   10        3.876828   1.000000
   11        3.935701   1.000000
   12        3.988441   1.000000
   13        4.164419   1.000000
   14        4.219860   1.000000
   15        4.543025   1.000000
   16        4.559732   1.000000
   17        4.574599   1.000000
   18        4.636831   1.000000
   19        4.730673   1.000000
   20        4.986190   1.000000
   21        4.987931   1.000000
   22        5.126065   1.000000
   23        9.229251   0.000000
   24       10.536645   0.000000
   25       12.974176   0.000000
   26       13.618589   0.000000
   27       14.844965   0.000000
   28       14.904999   0.000000
   29       15.932306   0.000000
   30       17.687751   0.000000
   31       19.402984   0.000000
   32       19.525282   0.000000
   33       19.833509   0.000000
   34       23.349111   0.000000
   35       23.843481   0.000000
   36       24.969941   0.000000
   37       26.841061   0.000000
   38       27.586995   0.000000
   39       27.632699   0.000000
   40       28.425975   0.000000
   41       29.026240   0.000000
   42       30.371727   0.000000
   43       30.931609   0.000000
   44       32.517361   0.000000
   45       36.445361   0.000000
   46       36.996241   0.000000
   47       37.484567   0.000000
   48       38.371860   0.000000
 
  0.4444444E+00  0.1111111E+00  0.0000000E+00  0.3292181E-01
    1        0.051815   1.000000
    2        1.018716   1.000000
    3        2.787566   1.000000
    4        2.799228   1.000000
    5        3.017355   1.000000
    6        3.090761   1.000000
    7        3.135183   1.000000
    8        3.217428   1.000000
    9        3.409938   1.000000
   10        3.472529   1.000000
   11        3.931601   1.000000
   12        3.933503   1.000000
   13        4.181003   1.000000
   14        4.280553   1.000000
   15        4.405080   1.000000
   16        4.413780   1.000000
   17        4.426774   1.000000
   18        4.499149   1.000000
   19        4.660851   1.000000
   20        4.792996   1.000000
   21        4.985976   1.000000
   22        4.986788   1.000000
   23       10.332824   0.000000
   24       11.576627   0.000000
   25       11.818750   0.000000
   26       13.263913   0.000000
   27       14.142104   0.000000
   28       14.909970   0.000000
   29       15.605593   0.000000
   30       16.548082   0.000000
   31       20.618962   0.000000
   32       20.929611   0.000000
   33       21.908940   0.000000
   34       22.290310   0.000000
   35       22.540663   0.000000
   36       25.630358   0.000000
   37       25.733250   0.000000
   38       26.519143   0.000000
   39       27.484575   0.000000
   40       28.490515   0.000000
   41       30.353891   0.000000
   42       31.900807   0.000000
   43       32.636240   0.000000
   44       35.024044   0.000000
   45       35.118727   0.000000
   46       35.224200   0.000000
   47       38.608259   0.000000
   48       39.072221   0.000000
 
  0.2222222E+00  0.2222222E+00  0.0000000E+00  0.1646091E-01
    1       -1.090002   1.000000
    2        2.317659   1.000000
    3        2.317659   1.000000
    4        2.540552   1.000000
    5        2.774243   1.000000
    6        2.778738   1.000000
    7        2.778738   1.000000
    8        3.514722   1.000000
    9        3.863736   1.000000
   10        3.890335   1.000000
   11        4.044059   1.000000
   12        4.044059   1.000000
   13        4.096780   1.000000
   14        4.284424   1.000000
   15        4.525628   1.000000
   16        4.611657   1.000000
   17        4.726850   1.000000
   18        4.726850   1.000000
   19        4.842182   1.000000
   20        4.842182   1.000000
   21        4.907908   1.000000
   22        6.795248  -0.000000
   23        6.795248  -0.000000
   24       10.147126   0.000000
   25       12.706774   0.000000
   26       13.491545   0.000000
   27       16.885945   0.000000
   28       16.885945   0.000000
   29       17.021189   0.000000
   30       17.021189   0.000000
   31       17.636480   0.000000
   32       17.636480   0.000000
   33       20.365312   0.000000
   34       23.134106   0.000000
   35       23.749147   0.000000
   36       24.504906   0.000000
   37       26.740612   0.000000
   38       26.740612   0.000000
   39       28.577074   0.000000
   40       28.577074   0.000000
   41       30.386440   0.000000
   42       31.752086   0.000000
   43       32.266446   0.000000
   44       32.295425   0.000000
   45       33.308189   0.000000
   46       33.670527   0.000000
   47       38.054455   0.000000
   48       39.481634   0.000000
 
  0.3333333E+00  0.2222222E+00  0.0000000E+00  0.3292181E-01
    1       -0.440939   1.000000
    2        2.038105   1.000000
    3        2.601073   1.000000
    4        2.732859   1.000000
    5        2.898249   1.000000
    6        2.910512   1.000000
    7        2.941190   1.000000
    8        3.401306   1.000000
    9        3.617416   1.000000
   10        3.782221   1.000000
   11        3.787290   1.000000
   12        3.871635   1.000000
   13        4.009698   1.000000
   14        4.232800   1.000000
   15        4.477845   1.000000
   16        4.564068   1.000000
   17        4.629087   1.000000
   18        4.635281   1.000000
   19        4.649576   1.000000
   20        4.840254   1.000000
   21        4.862308   1.000000
   22        5.693003   1.000000
   23        7.624194  -0.000000
   24       11.101081   0.000000
   25       11.146365   0.000000
   26       13.856304   0.000000
   27       15.345775   0.000000
   28       16.338394   0.000000
   29       17.425230   0.000000
   30       17.813166   0.000000
   31       18.384846   0.000000
   32       19.759625   0.000000
   33       20.149041   0.000000
   34       21.530080   0.000000
   35       22.089132   0.000000
   36       25.944229   0.000000
   37       27.258168   0.000000
   38       28.986860   0.000000
   39       29.353966   0.000000
   40       29.509531   0.000000
   41       29.965625   0.000000
   42       30.981866   0.000000
   43       31.512656   0.000000
   44       34.004841   0.000000
   45       34.882635   0.000000
   46       35.053586   0.000000
   47       36.215543   0.000000
   48       38.010129   0.000000
 
  0.4444444E+00  0.2222222E+00  0.0000000E+00  0.3292181E-01
    1        0.404751   1.000000
    2        1.323602   1.000000
    3        2.859641   1.000000
    4        2.937454   1.000000
    5        3.000590   1.000000
    6        3.072412   1.000000
    7        3.168895   1.000000
    8        3.244340   1.000000
    9        3.262144   1.000000
   10        3.456306   1.000000
   11        3.718431   1.000000
   12        3.801986   1.000000
   13        4.188959   1.000000
   14        4.287846   1.000000
   15        4.377703   1.000000
   16        4.406002   1.000000
   17        4.413436   1.000000
   18        4.454600   1.000000
   19        4.830555   1.000000
   20        4.839813   1.000000
   21        4.844655   1.000000
   22        5.113395   1.000000
   23        8.588703  -0.000000
   24        9.732651   0.000000
   25       12.373873   0.000000
   26       13.783636   0.000000
   27       14.436688   0.000000
   28       15.258799   0.000000
   29       18.191168   0.000000
   30       18.851596   0.000000
   31       19.153734   0.000000
   32       19.391863   0.000000
   33       20.098758   0.000000
   34       20.631538   0.000000
   35       22.884821   0.000000
   36       26.182377   0.000000
   37       27.990599   0.000000
   38       28.558514   0.000000
   39       28.925142   0.000000
   40       29.606820   0.000000
   41       30.454797   0.000000
   42       31.199172   0.000000
   43       32.241054   0.000000
   44       35.343161   0.000000
   45       35.372830   0.000000
   46       35.621438   0.000000
   47       36.641370   0.000000
   48       37.401559   0.000000
 
  0.3333333E+00  0.3333333E+00  0.0000000E+00  0.1646091E-01
    1        0.171583   1.000000
    2        2.387249   1.000000
    3        2.387249   1.000000
    4        2.830073   1.000000
    5        3.003271   1.000000
    6        3.039961   1.000000
    7        3.039961   1.000000
    8        3.358831   1.000000
    9        3.485043   1.000000
   10        3.485043   1.000000
   11        3.620908   1.000000
   12        3.817672   1.000000
   13        4.083219   1.000000
   14        4.179172   1.000000
   15        4.375062   1.000000
   16        4.479262   1.000000
   17        4.479262   1.000000
   18        4.636188   1.000000
   19        4.636188   1.000000
   20        4.748077   1.000000
   21        4.843571   1.000000
   22        6.349854   0.904969
   23        6.349854   0.904969
   24        9.488473   0.000000
   25       12.068191   0.000000
   26       14.290069   0.000000
   27       16.137612   0.000000
   28       16.137612   0.000000
   29       17.004775   0.000000
   30       17.004775   0.000000
   31       19.890119   0.000000
   32       20.312107   0.000000
   33       20.312107   0.000000
   34       20.474991   0.000000
   35       22.122160   0.000000
   36       25.211631   0.000000
   37       29.900345   0.000000
   38       29.900345   0.000000
   39       29.971210   0.000000
   40       30.200980   0.000000
   41       30.998289   0.000000
   42       30.998289   0.000000
   43       31.908562   0.000000
   44       33.572003   0.000000
   45       34.123546   0.000000
   46       35.167529   0.000000
   47       35.167529   0.000000
   48       37.854819   0.000000
 
  0.4444444E+00  0.3333333E+00  0.0000000E+00  0.3292181E-01
    1        0.952611   1.000000
    2        1.771179   1.000000
    3        2.712532   1.000000
    4        2.856260   1.000000
    5        3.130936   1.000000
    6        3.156865   1.000000
    7        3.214265   1.000000
    8        3.267669   1.000000
    9        3.271438   1.000000
   10        3.418244   1.000000
   11        3.559005   1.000000
   12        3.712069   1.000000
   13        4.196021   1.000000
   14        4.224414   1.000000
   15        4.295085   1.000000
   16        4.326730   1.000000
   17        4.336610   1.000000
   18        4.418253   1.000000
   19        4.646798   1.000000
   20        4.678771   1.000000
   21        5.121546   1.000000
   22        5.558801   1.000000
   23        7.151705  -0.000000
   24        8.177083  -0.000000
   25       13.234141   0.000000
   26       14.600260   0.000000
   27       14.943352   0.000000
   28       15.844567   0.000000
   29       17.178798   0.000000
   30       17.920978   0.000000
   31       18.436463   0.000000
   32       19.079817   0.000000
   33       21.080818   0.000000
   34       21.960943   0.000000
   35       23.437510   0.000000
   36       26.737967   0.000000
   37       27.028505   0.000000
   38       29.799795   0.000000
   39       30.531944   0.000000
   40       30.656472   0.000000
   41       30.867318   0.000000
   42       31.559582   0.000000
   43       32.804625   0.000000
   44       34.240805   0.000000
   45       34.546004   0.000000
   46       35.951291   0.000000
   47       36.040196   0.000000
   48       36.103217   0.000000
 
  0.4444444E+00  0.4444444E+00  0.0000000E+00  0.1646091E-01
    1        1.614441   1.000000
    2        2.250665   1.000000
    3        2.250665   1.000000
    4        2.625257   1.000000
    5        3.256582   1.000000
    6        3.256582   1.000000
    7        3.278552   1.000000
    8        3.319330   1.000000
    9        3.350077   1.000000
   10        3.448557   1.000000
   11        3.448557   1.000000
   12        3.616089   1.000000
   13        4.137632   1.000000
   14        4.201973   1.000000
   15        4.208983   1.000000
   16        4.208983   1.000000
   17        4.310913   1.000000
   18        4.457519   1.000000
   19        4.457519   1.000000
   20        4.542043   1.000000
   21        5.524790   1.000000
   22        6.146829   1.000739
   23        6.146829   1.000739
   24        6.985512  -0.000000
   25       14.345308   0.000000
   26       15.668715   0.000000
   27       15.668715   0.000000
   28       15.682811   0.000000
   29       16.673709   0.000000
   30       16.673709   0.000000
   31       16.954722   0.000000
   32       17.752309   0.000000
   33       24.171474   0.000000
   34       24.171474   0.000000
   35       24.396316   0.000000
   36       26.311619   0.000000
   37       27.107034   0.000000
   38       27.900570   0.000000
   39       28.592666   0.000000
   40       28.592666   0.000000
   41       33.566122   0.000000
   42       33.566122   0.000000
   43       33.973302   0.000000
   44       35.332283   0.000000
   45       35.929892   0.000000
   46       36.389470   0.000000
   47       36.389471   0.000000
   48       36.529041   0.000000
 
  0.1111111E+00  0.1111111E+00  0.1111111E+00  0.1097394E-01
    1       -1.767301   1.000000
    2        2.237384   1.000000
    3        2.237384   1.000000
    4        2.237384   1.000000
    5        2.619270   1.000000
    6        2.619270   1.000000
    7        2.619270   1.000000
    8        3.641781   1.000000
    9        3.783457   1.000000
   10        3.783457   1.000000
   11        4.409660   1.000000
   12        4.409660   1.000000
   13        4.613167   1.000000
   14        4.613167   1.000000
   15        4.613167   1.000000
   16        4.773307   1.000000
   17        4.773307   1.000000
   18        4.773307   1.000000
   19        4.995737   1.000000
   20        4.995737   1.000000
   21        4.995737   1.000000
   22        7.794377  -0.000000
   23        7.794377  -0.000000
   24        7.794377  -0.000000
   25       14.260449   0.000000
   26       14.260449   0.000000
   27       14.260449   0.000000
   28       16.508447   0.000000
   29       16.508447   0.000000
   30       16.508447   0.000000
   31       19.430929   0.000000
   32       19.430929   0.000000
   33       19.430929   0.000000
   34       24.051198   0.000000
   35       24.051198   0.000000
   36       24.051198   0.000000
   37       24.956375   0.000000
   38       27.537750   0.000000
   39       27.537750   0.000000
   40       27.537750   0.000000
   41       28.770411   0.000000
   42       29.235774   0.000000
   43       29.235774   0.000000
   44       34.294594   0.000000
   45       34.294594   0.000000
   46       34.676593   0.000000
   47       37.643271   0.000000
   48       37.643271   0.000000
 
  0.2222222E+00  0.1111111E+00  0.1111111E+00  0.3292181E-01
    1       -1.358162   1.000000
    2        2.179750   1.000000
    3        2.405200   1.000000
    4        2.405200   1.000000
    5        2.713544   1.000000
    6        2.720417   1.000000
    7        2.720417   1.000000
    8        3.558463   1.000000
    9        3.844809   1.000000
   10        3.849149   1.000000
   11        4.226777   1.000000
   12        4.226777   1.000000
   13        4.333278   1.000000
   14        4.372874   1.000000
   15        4.469926   1.000000
   16        4.645590   1.000000
   17        4.671655   1.000000
   18        4.671655   1.000000
   19        4.952734   1.000000
   20        4.975999   1.000000
   21        4.975999   1.000000
   22        6.361907   0.839689
   23        8.485021  -0.000000
   24        8.485021  -0.000000
   25       14.527113   0.000000
   26       14.527113   0.000000
   27       14.758729   0.000000
   28       14.758729   0.000000
   29       16.674541   0.000000
   30       17.007846   0.000000
   31       18.999517   0.000000
   32       18.999517   0.000000
   33       20.005550   0.000000
   34       23.167010   0.000000
   35       24.259966   0.000000
   36       25.302746   0.000000
   37       25.302746   0.000000
   38       27.251501   0.000000
   39       27.745299   0.000000
   40       27.797065   0.000000
   41       29.899060   0.000000
   42       29.899060   0.000000
   43       30.778254   0.000000
   44       32.606456   0.000000
   45       34.763370   0.000000
   46       36.300266   0.000000
   47       36.460451   0.000000
   48       38.506183   0.000000
 
  0.3333333E+00  0.1111111E+00  0.1111111E+00  0.3292181E-01
    1       -0.697120   1.000000
    2        1.868514   1.000000
    3        2.633529   1.000000
    4        2.633529   1.000000
    5        2.859470   1.000000
    6        2.882422   1.000000
    7        2.882422   1.000000
    8        3.413308   1.000000
    9        3.803304   1.000000
   10        3.803304   1.000000
   11        3.917227   1.000000
   12        3.958024   1.000000
   13        4.034084   1.000000
   14        4.280805   1.000000
   15        4.471843   1.000000
   16        4.528708   1.000000
   17        4.528708   1.000000
   18        4.559953   1.000000
   19        4.877140   1.000000
   20        4.958308   1.000000
   21        4.958308   1.000000
   22        5.304250   1.000000
   23        9.401162   0.000000
   24        9.401162   0.000000
   25       13.166202   0.000000
   26       13.166202   0.000000
   27       15.009848   0.000000
   28       15.009848   0.000000
   29       17.797106   0.000000
   30       17.835425   0.000000
   31       17.835425   0.000000
   32       19.530203   0.000000
   33       20.927423   0.000000
   34       21.539007   0.000000
   35       24.626535   0.000000
   36       25.359595   0.000000
   37       26.618402   0.000000
   38       27.670477   0.000000
   39       27.670477   0.000000
   40       28.255868   0.000000
   41       29.435970   0.000000
   42       30.968637   0.000000
   43       32.559233   0.000000
   44       32.559233   0.000000
   45       35.284707   0.000000
   46       37.597018   0.000000
   47       37.597018   0.000000
   48       37.740510   0.000000
 
  0.4444444E+00  0.1111111E+00  0.1111111E+00  0.3292181E-01
    1        0.168854   1.000000
    2        1.118716   1.000000