       N       E                     dE             d eps       ncg     rms          rms(c)
DAV:   1     0.164372876065E+03    0.16437E+03   -0.16718E+04  3768   0.133E+03
DAV:   2    -0.125651385053E+02   -0.17694E+03   -0.15994E+03  3408   0.196E+02
DAV:   3    -0.181715073987E+02   -0.56064E+01   -0.55412E+01  4752   0.415E+01
DAV:   4    -0.182151081834E+02   -0.43601E-01   -0.43600E-01  3504   0.318E+00
DAV:   5    -0.182157487679E+02   -0.64058E-03   -0.64057E-03  4800   0.421E-01    0.150E+01
DAV:   6    -0.165659296361E+02    0.16498E+01   -0.36643E+01  4200   0.716E+01    0.879E+00
DAV:   7    -0.148476899967E+02    0.17182E+01   -0.64179E+00  4200   0.301E+01    0.937E-01
DAV:   8    -0.148193639296E+02    0.28326E-01   -0.37865E-02  4848   0.171E+00    0.718E-01
DAV:   9    -0.148103696542E+02    0.89943E-02   -0.33279E-02  4536   0.199E+00    0.571E-02
DAV:  10    -0.148103819935E+02   -0.12339E-04   -0.23105E-04  3912   0.134E-01
   1 F= -.14810382E+02 E0= -.14809630E+02  d E =-.225456E-02
