<?xml version="1.0" encoding="ISO-8859-1"?>
<modeling>
 <generator>
  <i name="program" type="string">vasp </i>
  <i name="version" type="string">5.4.1  </i>
  <i name="subversion" type="string">05Feb16 (build Feb 08 2018 09:21:51) complex                          parallel </i>
  <i name="platform" type="string">LinuxIFC </i>
  <i name="date" type="string">2019 11 21 </i>
  <i name="time" type="string">15:53:38 </i>
 </generator>
 <incar>
  <i type="string" name="PREC">normal</i>
  <i name="ENCUT">    400.00000000</i>
  <i type="int" name="ISMEAR">     1</i>
  <i name="SIGMA">      0.10000000</i>
  <i type="logical" name="LWAVE"> F  </i>
  <i type="logical" name="LCHARG"> F  </i>
  <v type="int" name="KPOINT_BSE">    -1     0     0     0</v>
 </incar>
 <kpoints>
  <generation param="Monkhorst-Pack">
   <v type="int" name="divisions">       9        9        9 </v>
   <v name="usershift">      0.00000000       0.00000000       0.00000000 </v>
   <v name="genvec1">      0.11111111       0.00000000       0.00000000 </v>
   <v name="genvec2">      0.00000000       0.11111111       0.00000000 </v>
   <v name="genvec3">      0.00000000       0.00000000       0.11111111 </v>
   <v name="shift">      0.00000000       0.00000000       0.00000000 </v>
  </generation>
  <varray name="kpointlist" >
   <v>       0.00000000       0.00000000       0.00000000 </v>
   <v>       0.11111111       0.00000000       0.00000000 </v>
   <v>       0.22222222       0.00000000       0.00000000 </v>
   <v>       0.33333333       0.00000000       0.00000000 </v>
   <v>       0.44444444       0.00000000       0.00000000 </v>
   <v>       0.11111111       0.11111111       0.00000000 </v>
   <v>       0.22222222       0.11111111       0.00000000 </v>
   <v>       0.33333333       0.11111111       0.00000000 </v>
   <v>       0.44444444       0.11111111       0.00000000 </v>
   <v>       0.22222222       0.22222222       0.00000000 </v>
   <v>       0.33333333       0.22222222       0.00000000 </v>
   <v>       0.44444444       0.22222222       0.00000000 </v>
   <v>       0.33333333       0.33333333       0.00000000 </v>
   <v>       0.44444444       0.33333333       0.00000000 </v>
   <v>       0.44444444       0.44444444       0.00000000 </v>
   <v>       0.11111111       0.11111111       0.11111111 </v>
   <v>       0.22222222       0.11111111       0.11111111 </v>
   <v>       0.33333333       0.11111111       0.11111111 </v>
   <v>       0.44444444       0.11111111       0.11111111 </v>
   <v>       0.22222222       0.22222222       0.11111111 </v>
   <v>       0.33333333       0.22222222       0.11111111 </v>
   <v>       0.44444444       0.22222222       0.11111111 </v>
   <v>       0.33333333       0.33333333       0.11111111 </v>
   <v>       0.44444444       0.33333333       0.11111111 </v>
   <v>       0.44444444       0.44444444       0.11111111 </v>
   <v>       0.22222222       0.22222222       0.22222222 </v>
   <v>       0.33333333       0.22222222       0.22222222 </v>
   <v>       0.44444444       0.22222222       0.22222222 </v>
   <v>       0.33333333       0.33333333       0.22222222 </v>
   <v>       0.44444444       0.33333333       0.22222222 </v>
   <v>       0.44444444       0.44444444       0.22222222 </v>
   <v>       0.33333333       0.33333333       0.33333333 </v>
   <v>       0.44444444       0.33333333       0.33333333 </v>
   <v>       0.44444444       0.44444444       0.33333333 </v>
   <v>       0.44444444       0.44444444       0.44444444 </v>
  </varray>
  <varray name="weights" >
   <v>       0.00137174 </v>
   <v>       0.00823045 </v>
   <v>       0.00823045 </v>
   <v>       0.00823045 </v>
   <v>       0.00823045 </v>
   <v>       0.01646091 </v>
   <v>       0.03292181 </v>
   <v>       0.03292181 </v>
   <v>       0.03292181 </v>
   <v>       0.01646091 </v>
   <v>       0.03292181 </v>
   <v>       0.03292181 </v>
   <v>       0.01646091 </v>
   <v>       0.03292181 </v>
   <v>       0.01646091 </v>
   <v>       0.01097394 </v>
   <v>       0.03292181 </v>
   <v>       0.03292181 </v>
   <v>       0.03292181 </v>
   <v>       0.03292181 </v>
   <v>       0.06584362 </v>
   <v>       0.06584362 </v>
   <v>       0.03292181 </v>
   <v>       0.06584362 </v>
   <v>       0.03292181 </v>
   <v>       0.01097394 </v>
   <v>       0.03292181 </v>
   <v>       0.03292181 </v>
   <v>       0.03292181 </v>
   <v>       0.06584362 </v>
   <v>       0.03292181 </v>
   <v>       0.01097394 </v>
   <v>       0.03292181 </v>
   <v>       0.03292181 </v>
   <v>       0.01097394 </v>
  </varray>
 </kpoints>
 <parameters>
  <separator name="general" >
   <i type="string" name="SYSTEM">unknown system</i>
   <i type="logical" name="LCOMPAT"> F  </i>
  </separator>
  <separator name="electronic" >
   <i type="string" name="PREC">normal</i>
   <i name="ENMAX">    400.00000000</i>
   <i name="ENAUG">    586.98000000</i>
   <i name="EDIFF">      0.00010000</i>
   <i type="int" name="IALGO">    38</i>
   <i type="int" name="IWAVPR">    10</i>
   <i type="int" name="NBANDS">    48</i>
   <i name="NELECT">     44.00000000</i>
   <i type="int" name="TURBO">     0</i>
   <i type="int" name="IRESTART">     0</i>
   <i type="int" name="NREBOOT">     0</i>
   <i type="int" name="NMIN">     0</i>
   <i name="EREF">      0.00000000</i>
   <separator name="electronic smearing" >
    <i type="int" name="ISMEAR">     1</i>
    <i name="SIGMA">      0.10000000</i>
    <i name="KSPACING">      0.50000000</i>
    <i type="logical" name="KGAMMA"> T  </i>
   </separator>
   <separator name="electronic projectors" >
    <i type="logical" name="LREAL"> F  </i>
    <v name="ROPT">      0.00000000</v>
    <i type="int" name="LMAXPAW">  -100</i>
    <i type="int" name="LMAXMIX">     2</i>
    <i type="logical" name="NLSPLINE"> F  </i>
   </separator>
   <separator name="electronic startup" >
    <i type="int" name="ISTART">     0</i>
    <i type="int" name="ICHARG">     2</i>
    <i type="int" name="INIWAV">     1</i>
   </separator>
   <separator name="electronic spin" >
    <i type="int" name="ISPIN">     1</i>
    <i type="logical" name="LNONCOLLINEAR"> F  </i>
    <v name="MAGMOM">      1.00000000      1.00000000      1.00000000      1.00000000</v>
    <i name="NUPDOWN">     -1.00000000</i>
    <i type="logical" name="LSORBIT"> F  </i>
    <v name="SAXIS">      0.00000000      0.00000000      1.00000000</v>
    <i type="logical" name="LSPIRAL"> F  </i>
    <v name="QSPIRAL">      0.00000000      0.00000000      0.00000000</v>
    <i type="logical" name="LZEROZ"> F  </i>
   </separator>
   <separator name="electronic exchange-correlation" >
    <i type="logical" name="LASPH"> F  </i>
    <i type="logical" name="LMETAGGA"> F  </i>
   </separator>
   <separator name="electronic convergence" >
    <i type="int" name="NELM">    60</i>
    <i type="int" name="NELMDL">    -5</i>
    <i type="int" name="NELMIN">     2</i>
    <i name="ENINI">    400.00000000</i>
    <separator name="electronic convergence detail" >
     <i type="logical" name="LDIAG"> T  </i>
     <i type="logical" name="LSUBROT"> F  </i>
     <i name="WEIMIN">      0.00000000</i>
     <i name="EBREAK">      0.00000052</i>
     <i name="DEPER">      0.30000000</i>
     <i type="int" name="NRMM">     4</i>
     <i name="TIME">      0.40000000</i>
    </separator>
   </separator>
   <separator name="electronic mixer" >
    <i name="AMIX">      0.40000000</i>
    <i name="BMIX">      1.00000000</i>
    <i name="AMIN">      0.10000000</i>
    <i name="AMIX_MAG">      1.60000000</i>
    <i name="BMIX_MAG">      1.00000000</i>
    <separator name="electronic mixer details" >
     <i type="int" name="IMIX">     4</i>
     <i type="logical" name="MIXFIRST"> F  </i>
     <i type="int" name="MAXMIX">   -45</i>
     <i name="WC">    100.00000000</i>
     <i type="int" name="INIMIX">     1</i>
     <i type="int" name="MIXPRE">     1</i>
     <i type="int" name="MREMOVE">     5</i>
    </separator>
   </separator>
   <separator name="electronic dipolcorrection" >
    <i type="logical" name="LDIPOL"> F  </i>
    <i type="logical" name="LMONO"> F  </i>
    <i type="int" name="IDIPOL">     0</i>
    <i name="EPSILON">      1.00000000</i>
    <v name="DIPOL">   -100.00000000   -100.00000000   -100.00000000</v>
    <i name="EFIELD">      0.00000000</i>
   </separator>
  </separator>
  <separator name="grids" >
   <i type="int" name="NGX">    18</i>
   <i type="int" name="NGY">    18</i>
   <i type="int" name="NGZ">    18</i>
   <i type="int" name="NGXF">    36</i>
   <i type="int" name="NGYF">    36</i>
   <i type="int" name="NGZF">    36</i>
   <i type="logical" name="ADDGRID"> F  </i>
  </separator>
  <separator name="ionic" >
   <i type="int" name="NSW">     0</i>
   <i type="int" name="IBRION">    -1</i>
   <i type="int" name="ISIF">     2</i>
   <i name="PSTRESS">      0.00000000</i>
   <i name="EDIFFG">      0.00100000</i>
   <i type="int" name="NFREE">     0</i>
   <i name="POTIM">      0.50000000</i>
   <i name="SMASS">     -3.00000000</i>
   <i name="SCALEE">      1.00000000</i>
  </separator>
  <separator name="ionic md" >
   <i name="TEBEG">      0.00010000</i>
   <i name="TEEND">      0.00010000</i>
   <i type="int" name="NBLOCK">     1</i>
   <i type="int" name="KBLOCK">     1</i>
   <i type="int" name="NPACO">   256</i>
   <i name="APACO">     16.00000000</i>
  </separator>
  <separator name="symmetry" >
   <i type="int" name="ISYM">     2</i>
   <i name="SYMPREC">      0.00001000</i>
  </separator>
  <separator name="dos" >
   <i type="logical" name="LORBIT"> F  </i>
   <v name="RWIGS">     -1.00000000</v>
   <i type="int" name="NEDOS">   301</i>
   <i name="EMIN">     10.00000000</i>
   <i name="EMAX">    -10.00000000</i>
   <i name="EFERMI">      0.00000000</i>
  </separator>
  <separator name="writing" >
   <i type="int" name="NWRITE">     2</i>
   <i type="logical" name="LWAVE"> F  </i>
   <i type="logical" name="LCHARG"> F  </i>
   <i type="logical" name="LPARD"> F  </i>
   <i type="logical" name="LVTOT"> F  </i>
   <i type="logical" name="LVHAR"> F  </i>
   <i type="logical" name="LELF"> F  </i>
   <i type="logical" name="LOPTICS"> F  </i>
   <v name="STM">      0.00000000      0.00000000      0.00000000      0.00000000      0.00000000      0.00000000      0.00000000</v>
  </separator>
  <separator name="performance" >
   <i type="int" name="NPAR">    24</i>
   <i type="int" name="NSIM">     4</i>
   <i type="int" name="NBLK">    -1</i>
   <i type="logical" name="LPLANE"> T  </i>
   <i type="logical" name="LSCALAPACK"> F  </i>
   <i type="logical" name="LSCAAWARE"> F  </i>
   <i type="logical" name="LSCALU"> F  </i>
   <i type="logical" name="LASYNC"> F  </i>
   <i type="logical" name="LORBITALREAL"> F  </i>
  </separator>
  <separator name="miscellaneous" >
   <i type="int" name="IDIOT">     3</i>
   <i type="logical" name="LMUSIC"> F  </i>
   <v name="POMASS">     63.54600000</v>
   <v name="DARWINR">      0.00000000</v>
   <v name="DARWINV">      1.00000000</v>
   <i type="logical" name="LCORR"> T  </i>
  </separator>
  <i type="logical" name="GGA_COMPAT"> T  </i>
  <i type="logical" name="LBERRY"> F  </i>
  <i type="int" name="ICORELEVEL">     0</i>
  <i type="logical" name="LDAU"> F  </i>
  <i type="int" name="I_CONSTRAINED_M">     0</i>
  <separator name="electronic exchange-correlation" >
   <i type="string" name="GGA">--</i>
   <i type="int" name="VOSKOWN">     0</i>
   <i type="logical" name="LHFCALC"> F  </i>
   <i type="string" name="PRECFOCK"></i>
   <i type="logical" name="LSYMGRAD"> F  </i>
   <i type="logical" name="LHFONE"> F  </i>
   <i type="logical" name="LRHFCALC"> F  </i>
   <i type="logical" name="LTHOMAS"> F  </i>
   <i type="logical" name="LMODELHF"> F  </i>
   <i name="ENCUT4O">     -1.00000000</i>
   <i type="int" name="EXXOEP">     0</i>
   <i type="int" name="FOURORBIT">     0</i>
   <i name="AEXX">      0.00000000</i>
   <i name="HFALPHA">      0.00000000</i>
   <i name="MCALPHA">      0.00000000</i>
   <i name="ALDAX">      1.00000000</i>
   <i name="AGGAX">      1.00000000</i>
   <i name="ALDAC">      1.00000000</i>
   <i name="AGGAC">      1.00000000</i>
   <i type="int" name="NKREDX">     1</i>
   <i type="int" name="NKREDY">     1</i>
   <i type="int" name="NKREDZ">     1</i>
   <i type="logical" name="SHIFTRED"> F  </i>
   <i type="logical" name="ODDONLY"> F  </i>
   <i type="logical" name="EVENONLY"> F  </i>
   <i type="int" name="LMAXFOCK">     0</i>
   <i type="int" name="NMAXFOCKAE">     0</i>
   <i type="logical" name="LFOCKAEDFT"> F  </i>
   <i name="HFSCREEN">      0.00000000</i>
   <i name="HFSCREENC">      0.00000000</i>
   <i type="int" name="NBANDSGWLOW">     0</i>
  </separator>
  <separator name="vdW DFT" >
   <i type="logical" name="LUSE_VDW"> F  </i>
   <i name="Zab_VDW">     -0.84910000</i>
   <i name="PARAM1">      0.12340000</i>
   <i name="PARAM2">      1.00000000</i>
   <i name="PARAM3">      0.00000000</i>
  </separator>
  <separator name="model GW" >
   <i type="int" name="MODEL_GW">     0</i>
   <i name="MODEL_EPS0">      7.78635467</i>
   <i name="MODEL_ALPHA">      1.00000000</i>
  </separator>
  <separator name="linear response parameters" >
   <i type="logical" name="LEPSILON"> F  </i>
   <i type="logical" name="LRPA"> F  </i>
   <i type="logical" name="LNABLA"> F  </i>
   <i type="logical" name="LVEL"> F  </i>
   <i type="int" name="KINTER">     0</i>
   <i name="CSHIFT">      0.10000000</i>
   <i name="OMEGAMAX">     -1.00000000</i>
   <i name="DEG_THRESHOLD">      0.00200000</i>
  </separator>
  <separator name="orbital magnetization" >
   <i type="logical" name="NUCIND"> F  </i>
   <v name="MAGPOS">      0.00000000      0.00000000      0.00000000</v>
   <i type="logical" name="LNICSALL"> T  </i>
   <i type="logical" name="ORBITALMAG"> F  </i>
   <i type="logical" name="LMAGBLOCH"> F  </i>
   <i type="logical" name="LCHIMAG"> F  </i>
   <i type="logical" name="LGAUGE"> T  </i>
   <i type="int" name="MAGATOM">     0</i>
   <v name="MAGDIPOL">      0.00000000      0.00000000      0.00000000</v>
   <v name="AVECCONST">      0.00000000      0.00000000      0.00000000</v>
  </separator>
  <separator name="response functions" >
   <i type="logical" name="LADDER"> F  </i>
   <i type="logical" name="LFXC"> F  </i>
   <i type="logical" name="LHARTREE"> T  </i>
   <i type="int" name="IBSE">     0</i>
   <v type="int" name="KPOINT">    -1     0     0     0</v>
   <i type="logical" name="LTCTE"> F  </i>
   <i type="logical" name="LTETE"> F  </i>
   <i type="logical" name="LTRIPLET"> F  </i>
   <i type="logical" name="LFXCEPS"> F  </i>
   <i type="logical" name="LFXHEG"> F  </i>
   <i type="int" name="NATURALO">     0</i>
   <i type="logical" name="L2ORDER"> F  </i>
   <i type="logical" name="LUSEW"> F  </i>
   <i name="ENCUTGW">     -2.00000000</i>
   <i name="ENCUTGWSOFT">     -2.00000000</i>
   <i name="ENCUTLF">     -1.00000000</i>
   <i type="int" name="LMAXMP2">    -1</i>
   <i name="SCISSOR">      0.00000000</i>
   <i type="int" name="NOMEGA">     0</i>
   <i type="int" name="NOMEGAR">     0</i>
   <i type="int" name="NBANDSGW">    -1</i>
   <i type="int" name="NBANDSO">    -1</i>
   <i type="int" name="NBANDSV">    -1</i>
   <i type="int" name="NELM">     1</i>
   <i type="int" name="NELMHF">     1</i>
   <i type="int" name="DIM">     3</i>
   <i type="int" name="ANTIRES">     0</i>
   <i name="OMEGAMAX">    -30.00000000</i>
   <i name="OMEGAMIN">    -30.00000000</i>
   <i name="OMEGATL">   -200.00000000</i>
   <i type="int" name="OMEGAGRID">     0</i>
   <i name="CSHIFT">     -0.10000000</i>
   <i type="logical" name="SELFENERGY"> F  </i>
   <i type="logical" name="LSPECTRAL"> F  </i>
   <i type="logical" name="LSPECTRALGW"> F  </i>
   <i type="logical" name="LSINGLES"> F  </i>
   <i type="logical" name="LFERMIGW"> F  </i>
   <i type="logical" name="ODDONLYGW"> F  </i>
   <i type="logical" name="EVENONLYGW"> F  </i>
   <i type="int" name="NKREDLFX">     1</i>
   <i type="int" name="NKREDLFY">     1</i>
   <i type="int" name="NKREDLFZ">     1</i>
   <i type="int" name="MAXMEM">  1800</i>
   <i type="int" name="TELESCOPE">     0</i>
   <i type="int" name="TAUPAR">     1</i>
   <i type="int" name="OMEGAPAR">    -1</i>
   <i name="LAMBDA">      1.00000000</i>
  </separator>
  <separator name="External order field" >
   <i name="OFIELD_KAPPA">      0.00000000</i>
   <v name="OFIELD_K">      0.00000000      0.00000000      0.00000000</v>
   <i name="OFIELD_Q6_NEAR">      0.00000000</i>
   <i name="OFIELD_Q6_FAR">      0.00000000</i>
   <i name="OFIELD_A">      0.00000000</i>
  </separator>
 </parameters>
 <atominfo>
  <atoms>       4 </atoms>
  <types>       1 </types>
  <array name="atoms" >
   <dimension dim="1">ion</dimension>
   <field type="string">element</field>
   <field type="int">atomtype</field>
   <set>
    <rc><c>Cu</c><c>   1</c></rc>
    <rc><c>Cu</c><c>   1</c></rc>
    <rc><c>Cu</c><c>   1</c></rc>
    <rc><c>Cu</c><c>   1</c></rc>
   </set>
  </array>
  <array name="atomtypes" >
   <dimension dim="1">type</dimension>
   <field type="int">atomspertype</field>
   <field type="string">element</field>
   <field>mass</field>
   <field>valence</field>
   <field type="string">pseudopotential</field>
   <set>
    <rc><c>   4</c><c>Cu</c><c>     63.54600000</c><c>     11.00000000</c><c>  PAW_PBE Cu 22Jun2005                  </c></rc>
   </set>
  </array>
 </atominfo>
 <structure name="initialpos" >
  <crystal>
   <varray name="basis" >
    <v>       3.73033333       0.00000000       0.00000000 </v>
    <v>       0.00000000       3.73033333       0.00000000 </v>
    <v>       0.00000000       0.00000000       3.73033333 </v>
   </varray>
   <i name="volume">     51.90903114 </i>
   <varray name="rec_basis" >
    <v>       0.26807256       0.00000000       0.00000000 </v>
    <v>       0.00000000       0.26807256       0.00000000 </v>
    <v>       0.00000000       0.00000000       0.26807256 </v>
   </varray>
  </crystal>
  <varray name="positions" >
   <v>       0.00000000       0.00000000       0.00000000 </v>
   <v>       0.00000000       0.50000000       0.50000000 </v>
   <v>       0.50000000       0.00000000       0.50000000 </v>
   <v>       0.50000000       0.50000000       0.00000000 </v>
  </varray>
 </structure>
 <calculation>
  <scstep>
   <time name="dav">    0.63    0.64</time>
   <time name="total">    0.65    0.66</time>
   <energy>
    <i name="alphaZ">    225.41835851 </i>
    <i name="ewald">  -4283.01976031 </i>
    <i name="hartreedc">  -1522.18067019 </i>
    <i name="XCdc">    182.13688123 </i>
    <i name="pawpsdc">   4912.82663951 </i>
    <i name="pawaedc">  -5336.19386850 </i>
    <i name="eentropy">     -0.00433357 </i>
    <i name="bandstr">    421.55906859 </i>
    <i name="atom">   5563.83056080 </i>
    <i name="e_fr_energy">    164.37287606 </i>
    <i name="e_wo_entrp">    164.37720963 </i>
    <i name="e_0_energy">    164.37432059 </i>
   </energy>
  </scstep>
  <scstep>
   <time name="dav">    0.44    0.44</time>
   <time name="total">    0.44    0.44</time>
   <energy>
    <i name="e_fr_energy">    -12.56513851 </i>
    <i name="e_wo_entrp">    -12.56483037 </i>
    <i name="e_0_energy">    -12.56503579 </i>
   </energy>
  </scstep>
  <scstep>
   <time name="dav">    0.73    0.73</time>
   <time name="total">    0.73    0.74</time>
   <energy>
    <i name="e_fr_energy">    -18.17150740 </i>
    <i name="e_wo_entrp">    -18.17081043 </i>
    <i name="e_0_energy">    -18.17127508 </i>
   </energy>
  </scstep>
  <scstep>
   <time name="dav">    0.63    0.68</time>
   <time name="total">    0.63    0.68</time>
   <energy>
    <i name="e_fr_energy">    -18.21510818 </i>
    <i name="e_wo_entrp">    -18.21441139 </i>
    <i name="e_0_energy">    -18.21487592 </i>
   </energy>
  </scstep>
  <scstep>
   <time name="dav">    0.75    0.75</time>
   <time name="total">    0.76    0.76</time>
   <energy>
    <i name="e_fr_energy">    -18.21574877 </i>
    <i name="e_wo_entrp">    -18.21505199 </i>
    <i name="e_0_energy">    -18.21551651 </i>
   </energy>
  </scstep>
  <scstep>
   <time name="dav">    0.59    0.59</time>
   <time name="total">    0.60    0.61</time>
   <energy>
    <i name="e_fr_energy">    -16.56592964 </i>
    <i name="e_wo_entrp">    -16.56548885 </i>
    <i name="e_0_energy">    -16.56578271 </i>
   </energy>
  </scstep>
  <scstep>
   <time name="dav">    0.59    0.59</time>
   <time name="total">    0.61    0.61</time>
   <energy>
    <i name="e_fr_energy">    -14.84769000 </i>
    <i name="e_wo_entrp">    -14.84560550 </i>
    <i name="e_0_energy">    -14.84699517 </i>
   </energy>
  </scstep>
  <scstep>
   <time name="dav">    0.70    0.70</time>
   <time name="total">    0.71    0.72</time>
   <energy>
    <i name="e_fr_energy">    -14.81936393 </i>
    <i name="e_wo_entrp">    -14.81737431 </i>
    <i name="e_0_energy">    -14.81870072 </i>
   </energy>
  </scstep>
  <scstep>
   <time name="dav">    0.66    0.66</time>
   <time name="total">    0.67    0.69</time>
   <energy>
    <i name="e_fr_energy">    -14.81036965 </i>
    <i name="e_wo_entrp">    -14.80810386 </i>
    <i name="e_0_energy">    -14.80961439 </i>
   </energy>
  </scstep>
  <scstep>
   <time name="dav">    0.57    0.57</time>
   <time name="total">    0.59    0.61</time>
   <energy>
    <i name="alphaZ">    225.41835851 </i>
    <i name="ewald">  -4283.01976031 </i>
    <i name="hartreedc">  -1432.51921139 </i>
    <i name="XCdc">    177.96435852 </i>
    <i name="pawpsdc">   5150.43860055 </i>
    <i name="pawaedc">  -5579.93551270 </i>
    <i name="eentropy">     -0.00225456 </i>
    <i name="bandstr">    163.01447860 </i>
    <i name="atom">   5563.83056080 </i>
    <i name="e_fr_energy">    -14.81038199 </i>
    <i name="e_wo_entrp">    -14.80812743 </i>
    <i name="e_0_energy">    -14.80963047 </i>
   </energy>
  </scstep>
  <structure>
   <crystal>
    <varray name="basis" >
     <v>       3.73033333       0.00000000       0.00000000 </v>
     <v>       0.00000000       3.73033333       0.00000000 </v>
     <v>       0.00000000       0.00000000       3.73033333 </v>
    </varray>
    <i name="volume">     51.90903114 </i>
    <varray name="rec_basis" >
     <v>       0.26807256       0.00000000       0.00000000 </v>
     <v>       0.00000000       0.26807256       0.00000000 </v>
     <v>       0.00000000       0.00000000       0.26807256 </v>
    </varray>
   </crystal>
   <varray name="positions" >
    <v>       0.00000000       0.00000000       0.00000000 </v>
    <v>       0.00000000       0.50000000       0.50000000 </v>
    <v>       0.50000000       0.00000000       0.50000000 </v>
    <v>       0.50000000       0.50000000       0.00000000 </v>
   </varray>
  </structure>
  <varray name="forces" >
   <v>       0.00000000      -0.00000000       0.00000000 </v>
   <v>      -0.00000000       0.00000000      -0.00000000 </v>
   <v>       0.00000000       0.00000000       0.00000000 </v>
   <v>       0.00000000      -0.00000000       0.00000000 </v>
  </varray>
  <varray name="stress" >
   <v>    -103.15338572      -0.00000000       0.00000000 </v>
   <v>       0.00000000    -103.15338572      -0.00000000 </v>
   <v>      -0.00000000      -0.00000000    -103.15338572 </v>
  </varray>
  <energy>
   <i name="e_fr_energy">    -14.81038199 </i>
   <i name="e_wo_entrp">    -14.80963047 </i>
   <i name="e_0_energy">     -0.00225456 </i>
  </energy>
  <time name="totalsc">    6.83    6.95</time>
  <eigenvalues>
   <array>
    <dimension dim="1">band</dimension>
    <dimension dim="2">kpoint</dimension>
    <dimension dim="3">spin</dimension>
    <field>eigene</field>
    <field>occ</field>
    <set>
     <set comment="spin 1">
      <set comment="kpoint 1">
       <r>   -2.1849    1.0000 </r>
       <r>    2.1181    1.0000 </r>
       <r>    2.1181    1.0000 </r>
       <r>    2.1181    1.0000 </r>
       <r>    2.5157    1.0000 </r>
       <r>    2.5157    1.0000 </r>
       <r>    2.5157    1.0000 </r>
       <r>    3.7162    1.0000 </r>
       <r>    3.7162    1.0000 </r>
       <r>    3.7162    1.0000 </r>
       <r>    4.4309    1.0000 </r>
       <r>    4.4309    1.0000 </r>
       <r>    4.9071    1.0000 </r>
       <r>    4.9071    1.0000 </r>
       <r>    4.9071    1.0000 </r>
       <r>    5.0419    1.0000 </r>
       <r>    5.0419    1.0000 </r>
       <r>    5.0419    1.0000 </r>
       <r>    5.0419    1.0000 </r>
       <r>    5.0419    1.0000 </r>
       <r>    5.0419    1.0000 </r>
       <r>    8.0413   -0.0000 </r>
       <r>    8.0413   -0.0000 </r>
       <r>    8.0413   -0.0000 </r>
       <r>   12.9503    0.0000 </r>
       <r>   12.9503    0.0000 </r>
       <r>   12.9503    0.0000 </r>
       <r>   18.8424    0.0000 </r>
       <r>   18.8424    0.0000 </r>
       <r>   18.8424    0.0000 </r>
       <r>   18.8424    0.0000 </r>
       <r>   18.8424    0.0000 </r>
       <r>   18.8424    0.0000 </r>
       <r>   23.1154    0.0000 </r>
       <r>   23.1154    0.0000 </r>
       <r>   23.1154    0.0000 </r>
       <r>   25.2416    0.0000 </r>
       <r>   25.2416    0.0000 </r>
       <r>   25.2416    0.0000 </r>
       <r>   28.3113    0.0000 </r>
       <r>   30.2347    0.0000 </r>
       <r>   30.2347    0.0000 </r>
       <r>   30.2347    0.0000 </r>
       <r>   32.6883    0.0000 </r>
       <r>   32.6883    0.0000 </r>
       <r>   32.6883    0.0000 </r>
       <r>   36.4083    0.0000 </r>
       <r>   40.5253    0.0000 </r>
      </set>
      <set comment="kpoint 2">
       <r>   -2.0447    1.0000 </r>
       <r>    2.1113    1.0000 </r>
       <r>    2.1801    1.0000 </r>
       <r>    2.1801    1.0000 </r>
       <r>    2.5503    1.0000 </r>
       <r>    2.5522    1.0000 </r>
       <r>    2.5522    1.0000 </r>
       <r>    3.6783    1.0000 </r>
       <r>    3.7471    1.0000 </r>
       <r>    3.7471    1.0000 </r>
       <r>    4.3968    1.0000 </r>
       <r>    4.4450    1.0000 </r>
       <r>    4.8343    1.0000 </r>
       <r>    4.8343    1.0000 </r>
       <r>    4.8633    1.0000 </r>
       <r>    4.8633    1.0000 </r>
       <r>    4.8929    1.0000 </r>
       <r>    4.9895    1.0000 </r>
       <r>    4.9895    1.0000 </r>
       <r>    5.0419    1.0000 </r>
       <r>    5.0419    1.0000 </r>
       <r>    7.1895   -0.0000 </r>
       <r>    8.3768   -0.0000 </r>
       <r>    8.3768   -0.0000 </r>
       <r>   13.0075    0.0000 </r>
       <r>   13.0075    0.0000 </r>
       <r>   14.0891    0.0000 </r>
       <r>   17.9659    0.0000 </r>
       <r>   17.9659    0.0000 </r>
       <r>   18.2319    0.0000 </r>
       <r>   18.2319    0.0000 </r>
       <r>   19.0442    0.0000 </r>
       <r>   19.0442    0.0000 </r>
       <r>   23.1811    0.0000 </r>
       <r>   24.1722    0.0000 </r>
       <r>   24.1722    0.0000 </r>
       <r>   25.2976    0.0000 </r>
       <r>   26.1557    0.0000 </r>
       <r>   26.1557    0.0000 </r>
       <r>   27.7653    0.0000 </r>
       <r>   28.9120    0.0000 </r>
       <r>   28.9120    0.0000 </r>
       <r>   29.7041    0.0000 </r>
       <r>   33.5303    0.0000 </r>
       <r>   34.1113    0.0000 </r>
       <r>   34.1113    0.0000 </r>
       <r>   36.3574    0.0000 </r>
       <r>   38.6595    0.0000 </r>
      </set>
      <set comment="kpoint 3">
       <r>   -1.6290    1.0000 </r>
       <r>    2.0377    1.0000 </r>
       <r>    2.3498    1.0000 </r>
       <r>    2.3498    1.0000 </r>
       <r>    2.6505    1.0000 </r>
       <r>    2.6634    1.0000 </r>
       <r>    2.6634    1.0000 </r>
       <r>    3.5699    1.0000 </r>
       <r>    3.8392    1.0000 </r>
       <r>    3.8392    1.0000 </r>
       <r>    4.3018    1.0000 </r>
       <r>    4.3869    1.0000 </r>
       <r>    4.3869    1.0000 </r>
       <r>    4.4857    1.0000 </r>
       <r>    4.7380    1.0000 </r>
       <r>    4.7380    1.0000 </r>
       <r>    4.8445    1.0000 </r>
       <r>    4.8445    1.0000 </r>
       <r>    4.8508    1.0000 </r>
       <r>    5.0420    1.0000 </r>
       <r>    5.0420    1.0000 </r>
       <r>    5.7186    1.0000 </r>
       <r>    9.2068    0.0000 </r>
       <r>    9.2068    0.0000 </r>
       <r>   13.1883    0.0000 </r>
       <r>   13.1883    0.0000 </r>
       <r>   16.3481    0.0000 </r>
       <r>   16.3481    0.0000 </r>
       <r>   16.4663    0.0000 </r>
       <r>   17.0095    0.0000 </r>
       <r>   17.0095    0.0000 </r>
       <r>   19.6356    0.0000 </r>
       <r>   19.6356    0.0000 </r>
       <r>   23.3813    0.0000 </r>
       <r>   25.4782    0.0000 </r>
       <r>   26.3326    0.0000 </r>
       <r>   26.3326    0.0000 </r>
       <r>   26.7358    0.0000 </r>
       <r>   26.9510    0.0000 </r>
       <r>   26.9510    0.0000 </r>
       <r>   28.2748    0.0000 </r>
       <r>   28.2748    0.0000 </r>
       <r>   28.5754    0.0000 </r>
       <r>   33.4998    0.0000 </r>
       <r>   35.4419    0.0000 </r>
       <r>   36.3524    0.0000 </r>
       <r>   36.3524    0.0000 </r>
       <r>   39.6638    0.0000 </r>
      </set>
      <set comment="kpoint 4">
       <r>   -0.9557    1.0000 </r>
       <r>    1.6979    1.0000 </r>
       <r>    2.5742    1.0000 </r>
       <r>    2.5742    1.0000 </r>
       <r>    2.8050    1.0000 </r>
       <r>    2.8527    1.0000 </r>
       <r>    2.8527    1.0000 </r>
       <r>    3.4057    1.0000 </r>
       <r>    3.9066    1.0000 </r>
       <r>    3.9066    1.0000 </r>
       <r>    3.9867    1.0000 </r>
       <r>    3.9867    1.0000 </r>
       <r>    4.1693    1.0000 </r>
       <r>    4.5486    1.0000 </r>
       <r>    4.5642    1.0000 </r>
       <r>    4.5642    1.0000 </r>
       <r>    4.5723    1.0000 </r>
       <r>    4.6376    1.0000 </r>
       <r>    4.6376    1.0000 </r>
       <r>    4.7865    1.0000 </r>
       <r>    5.0422    1.0000 </r>
       <r>    5.0422    1.0000 </r>
       <r>   10.3199    0.0000 </r>
       <r>   10.3199    0.0000 </r>
       <r>   13.5191    0.0000 </r>
       <r>   13.5191    0.0000 </r>
       <r>   14.6728    0.0000 </r>
       <r>   14.6728    0.0000 </r>
       <r>   15.7956    0.0000 </r>
       <r>   15.7956    0.0000 </r>
       <r>   19.3070    0.0000 </r>
       <r>   20.5795    0.0000 </r>
       <r>   20.5795    0.0000 </r>
       <r>   23.7243    0.0000 </r>
       <r>   25.0609    0.0000 </r>
       <r>   25.0609    0.0000 </r>
       <r>   25.7354    0.0000 </r>
       <r>   25.8214    0.0000 </r>
       <r>   27.2784    0.0000 </r>
       <r>   28.9172    0.0000 </r>
       <r>   28.9172    0.0000 </r>
       <r>   30.0744    0.0000 </r>
       <r>   30.9095    0.0000 </r>
       <r>   30.9095    0.0000 </r>
       <r>   37.8934    0.0000 </r>
       <r>   38.2560    0.0000 </r>
       <r>   38.2560    0.0000 </r>
       <r>   38.6358    0.0000 </r>
      </set>
      <set comment="kpoint 5">
       <r>   -0.0693    1.0000 </r>
       <r>    0.9118    1.0000 </r>
       <r>    2.7495    1.0000 </r>
       <r>    2.7495    1.0000 </r>
       <r>    2.9980    1.0000 </r>
       <r>    3.1230    1.0000 </r>
       <r>    3.1230    1.0000 </r>
       <r>    3.2066    1.0000 </r>
       <r>    3.4766    1.0000 </r>
       <r>    3.4766    1.0000 </r>
       <r>    4.0561    1.0000 </r>
       <r>    4.0926    1.0000 </r>
       <r>    4.1806    1.0000 </r>
       <r>    4.1806    1.0000 </r>
       <r>    4.4056    1.0000 </r>
       <r>    4.4056    1.0000 </r>
       <r>    4.4214    1.0000 </r>
       <r>    4.4214    1.0000 </r>
       <r>    4.6256    1.0000 </r>
       <r>    4.7082    1.0000 </r>
       <r>    5.0423    1.0000 </r>
       <r>    5.0423    1.0000 </r>
       <r>   11.6251    0.0000 </r>
       <r>   11.6251    0.0000 </r>
       <r>   13.0845    0.0000 </r>
       <r>   13.0845    0.0000 </r>
       <r>   14.0378    0.0000 </r>
       <r>   14.0378    0.0000 </r>
       <r>   14.7948    0.0000 </r>
       <r>   14.7948    0.0000 </r>
       <r>   21.8291    0.0000 </r>
       <r>   21.8291    0.0000 </r>
       <r>   22.3768    0.0000 </r>
       <r>   23.3376    0.0000 </r>
       <r>   23.3376    0.0000 </r>
       <r>   24.2230    0.0000 </r>
       <r>   24.8910    0.0000 </r>
       <r>   25.3519    0.0000 </r>
       <r>   26.4067    0.0000 </r>
       <r>   27.5206    0.0000 </r>
       <r>   31.7873    0.0000 </r>
       <r>   31.7873    0.0000 </r>
       <r>   33.4819    0.0000 </r>
       <r>   33.4819    0.0000 </r>
       <r>   34.9077    0.0000 </r>
       <r>   34.9077    0.0000 </r>
       <r>   38.9350    0.0000 </r>
       <r>   38.9350    0.0000 </r>
      </set>
      <set comment="kpoint 6">
       <r>   -1.9055    1.0000 </r>
       <r>    2.1761    1.0000 </r>
       <r>    2.1761    1.0000 </r>
       <r>    2.2392    1.0000 </r>
       <r>    2.5856    1.0000 </r>
       <r>    2.5856    1.0000 </r>
       <r>    2.5868    1.0000 </r>
       <r>    3.6587    1.0000 </r>
       <r>    3.7615    1.0000 </r>
       <r>    3.7726    1.0000 </r>
       <r>    4.3883    1.0000 </r>
       <r>    4.4392    1.0000 </r>
       <r>    4.6935    1.0000 </r>
       <r>    4.7365    1.0000 </r>
       <r>    4.7365    1.0000 </r>
       <r>    4.8221    1.0000 </r>
       <r>    4.8771    1.0000 </r>
       <r>    4.8771    1.0000 </r>
       <r>    4.9892    1.0000 </r>
       <r>    4.9892    1.0000 </r>
       <r>    5.0079    1.0000 </r>
       <r>    7.5143   -0.0000 </r>
       <r>    7.5143   -0.0000 </r>
       <r>    8.6800   -0.0000 </r>
       <r>   13.0665    0.0000 </r>
       <r>   14.1736    0.0000 </r>
       <r>   14.1736    0.0000 </r>
       <r>   16.3372    0.0000 </r>
       <r>   18.1495    0.0000 </r>
       <r>   18.1495    0.0000 </r>
       <r>   18.4164    0.0000 </r>
       <r>   18.4164    0.0000 </r>
       <r>   19.2353    0.0000 </r>
       <r>   23.9833    0.0000 </r>
       <r>   24.2577    0.0000 </r>
       <r>   24.2577    0.0000 </r>
       <r>   26.2237    0.0000 </r>
       <r>   26.2237    0.0000 </r>
       <r>   26.5386    0.0000 </r>
       <r>   27.3976    0.0000 </r>
       <r>   27.4544    0.0000 </r>
       <r>   29.5526    0.0000 </r>
       <r>   30.6236    0.0000 </r>
       <r>   32.8404    0.0000 </r>
       <r>   33.7181    0.0000 </r>
       <r>   35.7669    0.0000 </r>
       <r>   37.3921    0.0000 </r>
       <r>   37.4138    0.0000 </r>
      </set>
      <set comment="kpoint 7">
       <r>   -1.4928    1.0000 </r>
       <r>    2.1118    1.0000 </r>
       <r>    2.3546    1.0000 </r>
       <r>    2.4012    1.0000 </r>
       <r>    2.6822    1.0000 </r>
       <r>    2.6909    1.0000 </r>
       <r>    2.6931    1.0000 </r>
       <r>    3.5633    1.0000 </r>
       <r>    3.8441    1.0000 </r>
       <r>    3.8450    1.0000 </r>
       <r>    4.2869    1.0000 </r>
       <r>    4.3106    1.0000 </r>
       <r>    4.3155    1.0000 </r>
       <r>    4.4818    1.0000 </r>
       <r>    4.5142    1.0000 </r>
       <r>    4.7055    1.0000 </r>
       <r>    4.7476    1.0000 </r>
       <r>    4.8386    1.0000 </r>
       <r>    4.8438    1.0000 </r>
       <r>    4.9887    1.0000 </r>
       <r>    4.9899    1.0000 </r>
       <r>    6.0964    1.0001 </r>
       <r>    8.2676   -0.0000 </r>
       <r>    9.4597    0.0000 </r>
       <r>   13.2503    0.0000 </r>
       <r>   14.4372    0.0000 </r>
       <r>   14.5924    0.0000 </r>
       <r>   16.5202    0.0000 </r>
       <r>   16.5700    0.0000 </r>
       <r>   17.1685    0.0000 </r>
       <r>   18.6836    0.0000 </r>
       <r>   18.8283    0.0000 </r>
       <r>   18.9564    0.0000 </r>
       <r>   24.5191    0.0000 </r>
       <r>   24.9069    0.0000 </r>
       <r>   25.2221    0.0000 </r>
       <r>   25.5622    0.0000 </r>
       <r>   26.4340    0.0000 </r>
       <r>   26.4403    0.0000 </r>
       <r>   28.3480    0.0000 </r>
       <r>   28.8666    0.0000 </r>
       <r>   29.8124    0.0000 </r>
       <r>   30.0311    0.0000 </r>
       <r>   33.2256    0.0000 </r>
       <r>   34.1088    0.0000 </r>
       <r>   35.5904    0.0000 </r>
       <r>   37.9101    0.0000 </r>
       <r>   38.9633    0.0000 </r>
      </set>
      <set comment="kpoint 8">
       <r>   -0.8252    1.0000 </r>
       <r>    1.7876    1.0000 </r>
       <r>    2.5932    1.0000 </r>
       <r>    2.6200    1.0000 </r>
       <r>    2.8317    1.0000 </r>
       <r>    2.8608    1.0000 </r>
       <r>    2.8755    1.0000 </r>
       <r>    3.4076    1.0000 </r>
       <r>    3.8185    1.0000 </r>
       <r>    3.8768    1.0000 </r>
       <r>    3.9357    1.0000 </r>
       <r>    3.9884    1.0000 </r>
       <r>    4.1644    1.0000 </r>
       <r>    4.2199    1.0000 </r>
       <r>    4.5430    1.0000 </r>
       <r>    4.5597    1.0000 </r>
       <r>    4.5746    1.0000 </r>
       <r>    4.6368    1.0000 </r>
       <r>    4.7307    1.0000 </r>
       <r>    4.9862    1.0000 </r>
       <r>    4.9879    1.0000 </r>
       <r>    5.1261    1.0000 </r>
       <r>    9.2293    0.0000 </r>
       <r>   10.5366    0.0000 </r>
       <r>   12.9742    0.0000 </r>
       <r>   13.6186    0.0000 </r>
       <r>   14.8450    0.0000 </r>
       <r>   14.9050    0.0000 </r>
       <r>   15.9323    0.0000 </r>
       <r>   17.6878    0.0000 </r>
       <r>   19.4030    0.0000 </r>
       <r>   19.5253    0.0000 </r>
       <r>   19.8335    0.0000 </r>
       <r>   23.3491    0.0000 </r>
       <r>   23.8435    0.0000 </r>
       <r>   24.9699    0.0000 </r>
       <r>   26.8411    0.0000 </r>
       <r>   27.5870    0.0000 </r>
       <r>   27.6327    0.0000 </r>
       <r>   28.4260    0.0000 </r>
       <r>   29.0262    0.0000 </r>
       <r>   30.3717    0.0000 </r>
       <r>   30.9316    0.0000 </r>
       <r>   32.5174    0.0000 </r>
       <r>   36.4454    0.0000 </r>
       <r>   36.9962    0.0000 </r>
       <r>   37.4846    0.0000 </r>
       <r>   38.3719    0.0000 </r>
      </set>
      <set comment="kpoint 9">
       <r>    0.0518    1.0000 </r>
       <r>    1.0187    1.0000 </r>
       <r>    2.7876    1.0000 </r>
       <r>    2.7992    1.0000 </r>
       <r>    3.0174    1.0000 </r>
       <r>    3.0908    1.0000 </r>
       <r>    3.1352    1.0000 </r>
       <r>    3.2174    1.0000 </r>
       <r>    3.4099    1.0000 </r>
       <r>    3.4725    1.0000 </r>
       <r>    3.9316    1.0000 </r>
       <r>    3.9335    1.0000 </r>
       <r>    4.1810    1.0000 </r>
       <r>    4.2806    1.0000 </r>
       <r>    4.4051    1.0000 </r>
       <r>    4.4138    1.0000 </r>
       <r>    4.4268    1.0000 </r>
       <r>    4.4991    1.0000 </r>
       <r>    4.6609    1.0000 </r>
       <r>    4.7930    1.0000 </r>
       <r>    4.9860    1.0000 </r>
       <r>    4.9868    1.0000 </r>
       <r>   10.3328    0.0000 </r>
       <r>   11.5766    0.0000 </r>
       <r>   11.8187    0.0000 </r>
       <r>   13.2639    0.0000 </r>
       <r>   14.1421    0.0000 </r>
       <r>   14.9100    0.0000 </r>
       <r>   15.6056    0.0000 </r>
       <r>   16.5481    0.0000 </r>
       <r>   20.6190    0.0000 </r>
       <r>   20.9296    0.0000 </r>
       <r>   21.9089    0.0000 </r>
       <r>   22.2903    0.0000 </r>
       <r>   22.5407    0.0000 </r>
       <r>   25.6304    0.0000 </r>
       <r>   25.7333    0.0000 </r>
       <r>   26.5191    0.0000 </r>
       <r>   27.4846    0.0000 </r>
       <r>   28.4905    0.0000 </r>
       <r>   30.3539    0.0000 </r>
       <r>   31.9008    0.0000 </r>
       <r>   32.6362    0.0000 </r>
       <r>   35.0240    0.0000 </r>
       <r>   35.1187    0.0000 </r>
       <r>   35.2242    0.0000 </r>
       <r>   38.6083    0.0000 </r>
       <r>   39.0722    0.0000 </r>
      </set>
      <set comment="kpoint 10">
       <r>   -1.0900    1.0000 </r>
       <r>    2.3177    1.0000 </r>
       <r>    2.3177    1.0000 </r>
       <r>    2.5406    1.0000 </r>
       <r>    2.7742    1.0000 </r>
       <r>    2.7787    1.0000 </r>
       <r>    2.7787    1.0000 </r>
       <r>    3.5147    1.0000 </r>
       <r>    3.8637    1.0000 </r>
       <r>    3.8903    1.0000 </r>
       <r>    4.0441    1.0000 </r>
       <r>    4.0441    1.0000 </r>
       <r>    4.0968    1.0000 </r>
       <r>    4.2844    1.0000 </r>
       <r>    4.5256    1.0000 </r>
       <r>    4.6117    1.0000 </r>
       <r>    4.7269    1.0000 </r>
       <r>    4.7269    1.0000 </r>
       <r>    4.8422    1.0000 </r>
       <r>    4.8422    1.0000 </r>
       <r>    4.9079    1.0000 </r>
       <r>    6.7952   -0.0000 </r>
       <r>    6.7952   -0.0000 </r>
       <r>   10.1471    0.0000 </r>
       <r>   12.7068    0.0000 </r>
       <r>   13.4915    0.0000 </r>
       <r>   16.8859    0.0000 </r>
       <r>   16.8859    0.0000 </r>
       <r>   17.0212    0.0000 </r>
       <r>   17.0212    0.0000 </r>
       <r>   17.6365    0.0000 </r>
       <r>   17.6365    0.0000 </r>
       <r>   20.3653    0.0000 </r>
       <r>   23.1341    0.0000 </r>
       <r>   23.7491    0.0000 </r>
       <r>   24.5049    0.0000 </r>
       <r>   26.7406    0.0000 </r>
       <r>   26.7406    0.0000 </r>
       <r>   28.5771    0.0000 </r>
       <r>   28.5771    0.0000 </r>
       <r>   30.3864    0.0000 </r>
       <r>   31.7521    0.0000 </r>
       <r>   32.2664    0.0000 </r>
       <r>   32.2954    0.0000 </r>
       <r>   33.3082    0.0000 </r>
       <r>   33.6705    0.0000 </r>
       <r>   38.0545    0.0000 </r>
       <r>   39.4816    0.0000 </r>
      </set>
      <set comment="kpoint 11">
       <r>   -0.4409    1.0000 </r>
       <r>    2.0381    1.0000 </r>
       <r>    2.6011    1.0000 </r>
       <r>    2.7329    1.0000 </r>
       <r>    2.8982    1.0000 </r>
       <r>    2.9105    1.0000 </r>
       <r>    2.9412    1.0000 </r>
       <r>    3.4013    1.0000 </r>
       <r>    3.6174    1.0000 </r>
       <r>    3.7822    1.0000 </r>
       <r>    3.7873    1.0000 </r>
       <r>    3.8716    1.0000 </r>
       <r>    4.0097    1.0000 </r>
       <r>    4.2328    1.0000 </r>
       <r>    4.4778    1.0000 </r>
       <r>    4.5641    1.0000 </r>
       <r>    4.6291    1.0000 </r>
       <r>    4.6353    1.0000 </r>
       <r>    4.6496    1.0000 </r>
       <r>    4.8403    1.0000 </r>
       <r>    4.8623    1.0000 </r>
       <r>    5.6930    1.0000 </r>
       <r>    7.6242   -0.0000 </r>
       <r>   11.1011    0.0000 </r>
       <r>   11.1464    0.0000 </r>
       <r>   13.8563    0.0000 </r>
       <r>   15.3458    0.0000 </r>
       <r>   16.3384    0.0000 </r>
       <r>   17.4252    0.0000 </r>
       <r>   17.8132    0.0000 </r>
       <r>   18.3848    0.0000 </r>
       <r>   19.7596    0.0000 </r>
       <r>   20.1490    0.0000 </r>
       <r>   21.5301    0.0000 </r>
       <r>   22.0891    0.0000 </r>
       <r>   25.9442    0.0000 </r>
       <r>   27.2582    0.0000 </r>
       <r>   28.9869    0.0000 </r>
       <r>   29.3540    0.0000 </r>
       <r>   29.5095    0.0000 </r>
       <r>   29.9656    0.0000 </r>
       <r>   30.9819    0.0000 </r>
       <r>   31.5127    0.0000 </r>
       <r>   34.0048    0.0000 </r>
       <r>   34.8826    0.0000 </r>
       <r>   35.0536    0.0000 </r>
       <r>   36.2155    0.0000 </r>
       <r>   38.0101    0.0000 </r>
      </set>
      <set comment="kpoint 12">
       <r>    0.4048    1.0000 </r>
       <r>    1.3236    1.0000 </r>
       <r>    2.8596    1.0000 </r>
       <r>    2.9375    1.0000 </r>
       <r>    3.0006    1.0000 </r>
       <r>    3.0724    1.0000 </r>
       <r>    3.1689    1.0000 </r>
       <r>    3.2443    1.0000 </r>
       <r>    3.2621    1.0000 </r>
       <r>    3.4563    1.0000 </r>
       <r>    3.7184    1.0000 </r>
       <r>    3.8020    1.0000 </r>
       <r>    4.1890    1.0000 </r>
       <r>    4.2878    1.0000 </r>
       <r>    4.3777    1.0000 </r>
       <r>    4.4060    1.0000 </r>
       <r>    4.4134    1.0000 </r>
       <r>    4.4546    1.0000 </r>
       <r>    4.8306    1.0000 </r>
       <r>    4.8398    1.0000 </r>
       <r>    4.8447    1.0000 </r>
       <r>    5.1134    1.0000 </r>
       <r>    8.5887   -0.0000 </r>
       <r>    9.7327    0.0000 </r>
       <r>   12.3739    0.0000 </r>
       <r>   13.7836    0.0000 </r>
       <r>   14.4367    0.0000 </r>
       <r>   15.2588    0.0000 </r>
       <r>   18.1912    0.0000 </r>
       <r>   18.8516    0.0000 </r>
       <r>   19.1537    0.0000 </r>
       <r>   19.3919    0.0000 </r>
       <r>   20.0988    0.0000 </r>
       <r>   20.6315    0.0000 </r>
       <r>   22.8848    0.0000 </r>
       <r>   26.1824    0.0000 </r>
       <r>   27.9906    0.0000 </r>
       <r>   28.5585    0.0000 </r>
       <r>   28.9251    0.0000 </r>
       <r>   29.6068    0.0000 </r>
       <r>   30.4548    0.0000 </r>
       <r>   31.1992    0.0000 </r>
       <r>   32.2411    0.0000 </r>
       <r>   35.3432    0.0000 </r>
       <r>   35.3728    0.0000 </r>
       <r>   35.6214    0.0000 </r>
       <r>   36.6414    0.0000 </r>
       <r>   37.4016    0.0000 </r>
      </set>
      <set comment="kpoint 13">
       <r>    0.1716    1.0000 </r>
       <r>    2.3872    1.0000 </r>
       <r>    2.3872    1.0000 </r>
       <r>    2.8301    1.0000 </r>
       <r>    3.0033    1.0000 </r>
       <r>    3.0400    1.0000 </r>
       <r>    3.0400    1.0000 </r>
       <r>    3.3588    1.0000 </r>
       <r>    3.4850    1.0000 </r>
       <r>    3.4850    1.0000 </r>
       <r>    3.6209    1.0000 </r>
       <r>    3.8177    1.0000 </r>
       <r>    4.0832    1.0000 </r>
       <r>    4.1792    1.0000 </r>
       <r>    4.3751    1.0000 </r>
       <r>    4.4793    1.0000 </r>
       <r>    4.4793    1.0000 </r>
       <r>    4.6362    1.0000 </r>
       <r>    4.6362    1.0000 </r>
       <r>    4.7481    1.0000 </r>
       <r>    4.8436    1.0000 </r>
       <r>    6.3499    0.9050 </r>
       <r>    6.3499    0.9050 </r>
       <r>    9.4885    0.0000 </r>
       <r>   12.0682    0.0000 </r>
       <r>   14.2901    0.0000 </r>
       <r>   16.1376    0.0000 </r>
       <r>   16.1376    0.0000 </r>
       <r>   17.0048    0.0000 </r>
       <r>   17.0048    0.0000 </r>
       <r>   19.8901    0.0000 </r>
       <r>   20.3121    0.0000 </r>
       <r>   20.3121    0.0000 </r>
       <r>   20.4750    0.0000 </r>
       <r>   22.1222    0.0000 </r>
       <r>   25.2116    0.0000 </r>
       <r>   29.9003    0.0000 </r>
       <r>   29.9003    0.0000 </r>
       <r>   29.9712    0.0000 </r>
       <r>   30.2010    0.0000 </r>
       <r>   30.9983    0.0000 </r>
       <r>   30.9983    0.0000 </r>
       <r>   31.9086    0.0000 </r>
       <r>   33.5720    0.0000 </r>
       <r>   34.1235    0.0000 </r>
       <r>   35.1675    0.0000 </r>
       <r>   35.1675    0.0000 </r>
       <r>   37.8548    0.0000 </r>
      </set>
      <set comment="kpoint 14">
       <r>    0.9526    1.0000 </r>
       <r>    1.7712    1.0000 </r>
       <r>    2.7125    1.0000 </r>
       <r>    2.8563    1.0000 </r>
       <r>    3.1309    1.0000 </r>
       <r>    3.1569    1.0000 </r>
       <r>    3.2143    1.0000 </r>
       <r>    3.2677    1.0000 </r>
       <r>    3.2714    1.0000 </r>
       <r>    3.4182    1.0000 </r>
       <r>    3.5590    1.0000 </r>
       <r>    3.7121    1.0000 </r>
       <r>    4.1960    1.0000 </r>
       <r>    4.2244    1.0000 </r>
       <r>    4.2951    1.0000 </r>
       <r>    4.3267    1.0000 </r>
       <r>    4.3366    1.0000 </r>
       <r>    4.4183    1.0000 </r>
       <r>    4.6468    1.0000 </r>
       <r>    4.6788    1.0000 </r>
       <r>    5.1215    1.0000 </r>
       <r>    5.5588    1.0000 </r>
       <r>    7.1517   -0.0000 </r>
       <r>    8.1771   -0.0000 </r>
       <r>   13.2341    0.0000 </r>
       <r>   14.6003    0.0000 </r>
       <r>   14.9434    0.0000 </r>
       <r>   15.8446    0.0000 </r>
       <r>   17.1788    0.0000 </r>
       <r>   17.9210    0.0000 </r>
       <r>   18.4365    0.0000 </r>
       <r>   19.0798    0.0000 </r>
       <r>   21.0808    0.0000 </r>
       <r>   21.9609    0.0000 </r>
       <r>   23.4375    0.0000 </r>
       <r>   26.7380    0.0000 </r>
       <r>   27.0285    0.0000 </r>
       <r>   29.7998    0.0000 </r>
       <r>   30.5319    0.0000 </r>
       <r>   30.6565    0.0000 </r>
       <r>   30.8673    0.0000 </r>
       <r>   31.5596    0.0000 </r>
       <r>   32.8046    0.0000 </r>
       <r>   34.2408    0.0000 </r>
       <r>   34.5460    0.0000 </r>
       <r>   35.9513    0.0000 </r>
       <r>   36.0402    0.0000 </r>
       <r>   36.1032    0.0000 </r>
      </set>
      <set comment="kpoint 15">
       <r>    1.6144    1.0000 </r>
       <r>    2.2507    1.0000 </r>
       <r>    2.2507    1.0000 </r>
       <r>    2.6253    1.0000 </r>
       <r>    3.2566    1.0000 </r>
       <r>    3.2566    1.0000 </r>
       <r>    3.2786    1.0000 </r>
       <r>    3.3193    1.0000 </r>
       <r>    3.3501    1.0000 </r>
       <r>    3.4486    1.0000 </r>
       <r>    3.4486    1.0000 </r>
       <r>    3.6161    1.0000 </r>
       <r>    4.1376    1.0000 </r>
       <r>    4.2020    1.0000 </r>
       <r>    4.2090    1.0000 </r>
       <r>    4.2090    1.0000 </r>
       <r>    4.3109    1.0000 </r>
       <r>    4.4575    1.0000 </r>
       <r>    4.4575    1.0000 </r>
       <r>    4.5420    1.0000 </r>
       <r>    5.5248    1.0000 </r>
       <r>    6.1468    1.0007 </r>
       <r>    6.1468    1.0007 </r>
       <r>    6.9855   -0.0000 </r>
       <r>   14.3453    0.0000 </r>
       <r>   15.6687    0.0000 </r>
       <r>   15.6687    0.0000 </r>
       <r>   15.6828    0.0000 </r>
       <r>   16.6737    0.0000 </r>
       <r>   16.6737    0.0000 </r>
       <r>   16.9547    0.0000 </r>
       <r>   17.7523    0.0000 </r>
       <r>   24.1715    0.0000 </r>
       <r>   24.1715    0.0000 </r>
       <r>   24.3963    0.0000 </r>
       <r>   26.3116    0.0000 </r>
       <r>   27.1070    0.0000 </r>
       <r>   27.9006    0.0000 </r>
       <r>   28.5927    0.0000 </r>
       <r>   28.5927    0.0000 </r>
       <r>   33.5661    0.0000 </r>
       <r>   33.5661    0.0000 </r>
       <r>   33.9733    0.0000 </r>
       <r>   35.3323    0.0000 </r>
       <r>   35.9299    0.0000 </r>
       <r>   36.3895    0.0000 </r>
       <r>   36.3895    0.0000 </r>
       <r>   36.5290    0.0000 </r>
      </set>
      <set comment="kpoint 16">
       <r>   -1.7673    1.0000 </r>
       <r>    2.2374    1.0000 </r>
       <r>    2.2374    1.0000 </r>
       <r>    2.2374    1.0000 </r>
       <r>    2.6193    1.0000 </r>
       <r>    2.6193    1.0000 </r>
       <r>    2.6193    1.0000 </r>
       <r>    3.6418    1.0000 </r>
       <r>    3.7835    1.0000 </r>
       <r>    3.7835    1.0000 </r>
       <r>    4.4097    1.0000 </r>
       <r>    4.4097    1.0000 </r>
       <r>    4.6132    1.0000 </r>
       <r>    4.6132    1.0000 </r>
       <r>    4.6132    1.0000 </r>
       <r>    4.7733    1.0000 </r>
       <r>    4.7733    1.0000 </r>
       <r>    4.7733    1.0000 </r>
       <r>    4.9957    1.0000 </r>
       <r>    4.9957    1.0000 </r>
       <r>    4.9957    1.0000 </r>
       <r>    7.7944   -0.0000 </r>
       <r>    7.7944   -0.0000 </r>
       <r>    7.7944   -0.0000 </r>
       <r>   14.2604    0.0000 </r>
       <r>   14.2604    0.0000 </r>
       <r>   14.2604    0.0000 </r>
       <r>   16.5084    0.0000 </r>
       <r>   16.5084    0.0000 </r>
       <r>   16.5084    0.0000 </r>
       <r>   19.4309    0.0000 </r>
       <r>   19.4309    0.0000 </r>
       <r>   19.4309    0.0000 </r>
       <r>   24.0512    0.0000 </r>
       <r>   24.0512    0.0000 </r>
       <r>   24.0512    0.0000 </r>
       <r>   24.9564    0.0000 </r>
       <r>   27.5377    0.0000 </r>
       <r>   27.5377    0.0000 </r>
       <r>   27.5377    0.0000 </r>
       <r>   28.7704    0.0000 </r>
       <r>   29.2358    0.0000 </r>
       <r>   29.2358    0.0000 </r>
       <r>   34.2946    0.0000 </r>
       <r>   34.2946    0.0000 </r>
       <r>   34.6766    0.0000 </r>
       <r>   37.6433    0.0000 </r>
       <r>   37.6433    0.0000 </r>
      </set>
      <set comment="kpoint 17">
       <r>   -1.3582    1.0000 </r>
       <r>    2.1797    1.0000 </r>
       <r>    2.4052    1.0000 </r>
       <r>    2.4052    1.0000 </r>
       <r>    2.7135    1.0000 </r>
       <r>    2.7204    1.0000 </r>
       <r>    2.7204    1.0000 </r>
       <r>    3.5585    1.0000 </r>
       <r>    3.8448    1.0000 </r>
       <r>    3.8491    1.0000 </r>
       <r>    4.2268    1.0000 </r>
       <r>    4.2268    1.0000 </r>
       <r>    4.3333    1.0000 </r>
       <r>    4.3729    1.0000 </r>
       <r>    4.4699    1.0000 </r>
       <r>    4.6456    1.0000 </r>
       <r>    4.6717    1.0000 </r>
       <r>    4.6717    1.0000 </r>
       <r>    4.9527    1.0000 </r>
       <r>    4.9760    1.0000 </r>
       <r>    4.9760    1.0000 </r>
       <r>    6.3619    0.8397 </r>
       <r>    8.4850   -0.0000 </r>
       <r>    8.4850   -0.0000 </r>
       <r>   14.5271    0.0000 </r>
       <r>   14.5271    0.0000 </r>
       <r>   14.7587    0.0000 </r>
       <r>   14.7587    0.0000 </r>
       <r>   16.6745    0.0000 </r>
       <r>   17.0078    0.0000 </r>
       <r>   18.9995    0.0000 </r>
       <r>   18.9995    0.0000 </r>
       <r>   20.0055    0.0000 </r>
       <r>   23.1670    0.0000 </r>
       <r>   24.2600    0.0000 </r>
       <r>   25.3027    0.0000 </r>
       <r>   25.3027    0.0000 </r>
       <r>   27.2515    0.0000 </r>
       <r>   27.7453    0.0000 </r>
       <r>   27.7971    0.0000 </r>
       <r>   29.8991    0.0000 </r>
       <r>   29.8991    0.0000 </r>
       <r>   30.7783    0.0000 </r>
       <r>   32.6065    0.0000 </r>
       <r>   34.7634    0.0000 </r>
       <r>   36.3003    0.0000 </r>
       <r>   36.4605    0.0000 </r>
       <r>   38.5062    0.0000 </r>
      </set>
      <set comment="kpoint 18">
       <r>   -0.6971    1.0000 </r>
       <r>    1.8685    1.0000 </r>
       <r>    2.6335    1.0000 </r>
       <r>    2.6335    1.0000 </r>
       <r>    2.8595    1.0000 </r>
       <r>    2.8824    1.0000 </r>
       <r>    2.8824    1.0000 </r>
       <r>    3.4133    1.0000 </r>
       <r>    3.8033    1.0000 </r>
       <r>    3.8033    1.0000 </r>
       <r>    3.9172    1.0000 </r>
       <r>    3.9580    1.0000 </r>
       <r>    4.0341    1.0000 </r>
       <r>    4.2808    1.0000 </r>
       <r>    4.4718    1.0000 </r>
       <r>    4.5287    1.0000 </r>
       <r>    4.5287    1.0000 </r>
       <r>    4.5600    1.0000 </r>
       <r>    4.8771    1.0000 </r>
       <r>    4.9583    1.0000 </r>
       <r>    4.9583    1.0000 </r>
       <r>    5.3043    1.0000 </r>
       <r>    9.4012    0.0000 </r>
       <r>    9.4012    0.0000 </r>
       <r>   13.1662    0.0000 </r>
       <r>   13.1662    0.0000 </r>
       <r>   15.0098    0.0000 </r>
       <r>   15.0098    0.0000 </r>
       <r>   17.7971    0.0000 </r>
       <r>   17.8354    0.0000 </r>
       <r>   17.8354    0.0000 </r>
       <r>   19.5302    0.0000 </r>
       <r>   20.9274    0.0000 </r>
       <r>   21.5390    0.0000 </r>
       <r>   24.6265    0.0000 </r>
       <r>   25.3596    0.0000 </r>
       <r>   26.6184    0.0000 </r>
       <r>   27.6705    0.0000 </r>
       <r>   27.6705    0.0000 </r>
       <r>   28.2559    0.0000 </r>
       <r>   29.4360    0.0000 </r>
       <r>   30.9686    0.0000 </r>
       <r>   32.5592    0.0000 </r>
       <r>   32.5592    0.0000 </r>
       <r>   35.2847    0.0000 </r>
       <r>   37.5970    0.0000 </r>
       <r>   37.5970    0.0000 </r>
       <r>   37.7405    0.0000 </r>
      </set>
      <set comment="kpoint 19">
       <r>    0.1689    1.0000 </r>
       <r>    1.1187    1.0000 </r>
       <r>    2.8361    1.0000 </r>
       <r>    2.8361    1.0000 </r>
       <r>    3.0396    1.0000 </r>
       <r>    3.0685    1.0000 </r>
       <r>    3.0685    1.0000 </r>
       <r>    3.2321    1.0000 </r>
       <r>    3.4496    1.0000 </r>
       <r>    3.4496    1.0000 </r>
       <r>    3.8568    1.0000 </r>
       <r>    3.8858    1.0000 </r>
       <r>    4.1060    1.0000 </r>
       <r>    4.2837    1.0000 </r>
       <r>    4.4016    1.0000 </r>
       <r>    4.4016    1.0000 </r>
       <r>    4.4088    1.0000 </r>
       <r>    4.6673    1.0000 </r>
       <r>    4.7290    1.0000 </r>
       <r>    4.7777    1.0000 </r>
       <r>    4.9507    1.0000 </r>
       <r>    4.9507    1.0000 </r>
       <r>   10.4473    0.0000 </r>
       <r>   10.4473    0.0000 </r>
       <r>   11.7953    0.0000 </r>
       <r>   11.7953    0.0000 </r>
       <r>   15.7226    0.0000 </r>
       <r>   15.7226    0.0000 </r>
       <r>   16.6798    0.0000 </r>
       <r>   16.6798    0.0000 </r>
       <r>   18.8366    0.0000 </r>
       <r>   20.0912    0.0000 </r>
       <r>   22.1551    0.0000 </r>
       <r>   22.6162    0.0000 </r>
       <r>   23.6461    0.0000 </r>
       <r>   25.1963    0.0000 </r>
       <r>   25.4000    0.0000 </r>
       <r>   26.4347    0.0000 </r>
       <r>   28.9410    0.0000 </r>
       <r>   29.8636    0.0000 </r>
       <r>   30.3477    0.0000 </r>
       <r>   30.3477    0.0000 </r>
       <r>   33.7268    0.0000 </r>
       <r>   33.7268    0.0000 </r>
       <r>   36.0304    0.0000 </r>
       <r>   36.0304    0.0000 </r>
       <r>   37.5428    0.0000 </r>
       <r>   38.8789    0.0000 </r>
      </set>
      <set comment="kpoint 20">
       <r>   -0.9602    1.0000 </r>
       <r>    2.3649    1.0000 </r>
       <r>    2.3649    1.0000 </r>
       <r>    2.5395    1.0000 </r>
       <r>    2.8045    1.0000 </r>
       <r>    2.8083    1.0000 </r>
       <r>    2.8083    1.0000 </r>
       <r>    3.5188    1.0000 </r>
       <r>    3.8612    1.0000 </r>
       <r>    3.8758    1.0000 </r>
       <r>    4.0005    1.0000 </r>
       <r>    4.0005    1.0000 </r>
       <r>    4.0295    1.0000 </r>
       <r>    4.3359    1.0000 </r>
       <r>    4.5038    1.0000 </r>
       <r>    4.5381    1.0000 </r>
       <r>    4.5585    1.0000 </r>
       <r>    4.5585    1.0000 </r>
       <r>    4.9355    1.0000 </r>
       <r>    4.9355    1.0000 </r>
       <r>    4.9361    1.0000 </r>
       <r>    6.9693   -0.0000 </r>
       <r>    6.9693   -0.0000 </r>
       <r>    9.0602   -0.0000 </r>
       <r>   12.9121    0.0000 </r>
       <r>   14.8222    0.0000 </r>
       <r>   15.2360    0.0000 </r>
       <r>   15.2360    0.0000 </r>
       <r>   16.9942    0.0000 </r>
       <r>   16.9942    0.0000 </r>
       <r>   19.5025    0.0000 </r>
       <r>   19.5025    0.0000 </r>
       <r>   20.5443    0.0000 </r>
       <r>   21.3276    0.0000 </r>
       <r>   24.5657    0.0000 </r>
       <r>   25.5515    0.0000 </r>
       <r>   25.5515    0.0000 </r>
       <r>   25.7479    0.0000 </r>
       <r>   29.5118    0.0000 </r>
       <r>   30.1386    0.0000 </r>
       <r>   30.1647    0.0000 </r>
       <r>   30.1647    0.0000 </r>
       <r>   32.3838    0.0000 </r>
       <r>   33.1594    0.0000 </r>
       <r>   33.7027    0.0000 </r>
       <r>   35.1924    0.0000 </r>
       <r>   37.4536    0.0000 </r>
       <r>   38.2069    0.0000 </r>
      </set>
      <set comment="kpoint 21">
       <r>   -0.3208    1.0000 </r>
       <r>    2.0883    1.0000 </r>
       <r>    2.6124    1.0000 </r>
       <r>    2.7167    1.0000 </r>
       <r>    2.9290    1.0000 </r>
       <r>    2.9457    1.0000 </r>
       <r>    2.9592    1.0000 </r>
       <r>    3.4187    1.0000 </r>
       <r>    3.6373    1.0000 </r>
       <r>    3.7493    1.0000 </r>
       <r>    3.7640    1.0000 </r>
       <r>    3.8658    1.0000 </r>
       <r>    3.9485    1.0000 </r>
       <r>    4.3271    1.0000 </r>
       <r>    4.3886    1.0000 </r>
       <r>    4.4150    1.0000 </r>
       <r>    4.4561    1.0000 </r>
       <r>    4.6291    1.0000 </r>
       <r>    4.8526    1.0000 </r>
       <r>    4.8889    1.0000 </r>
       <r>    4.8889    1.0000 </r>
       <r>    5.7863    1.0000 </r>
       <r>    7.7511   -0.0000 </r>
       <r>    9.8277    0.0000 </r>
       <r>   11.3685    0.0000 </r>
       <r>   13.6402    0.0000 </r>
       <r>   15.3299    0.0000 </r>
       <r>   15.9983    0.0000 </r>
       <r>   17.5383    0.0000 </r>
       <r>   18.2731    0.0000 </r>
       <r>   19.6823    0.0000 </r>
       <r>   19.8513    0.0000 </r>
       <r>   20.2998    0.0000 </r>
       <r>   20.3200    0.0000 </r>
       <r>   24.1226    0.0000 </r>
       <r>   25.9885    0.0000 </r>
       <r>   26.0139    0.0000 </r>
       <r>   27.9213    0.0000 </r>
       <r>   28.3760    0.0000 </r>
       <r>   29.9480    0.0000 </r>
       <r>   30.6210    0.0000 </r>
       <r>   32.0937    0.0000 </r>
       <r>   32.6555    0.0000 </r>
       <r>   33.7659    0.0000 </r>
       <r>   35.0811    0.0000 </r>
       <r>   35.6563    0.0000 </r>
       <r>   36.3413    0.0000 </r>
       <r>   37.9302    0.0000 </r>
      </set>
      <set comment="kpoint 22">
       <r>    0.5079    1.0000 </r>
       <r>    1.3996    1.0000 </r>
       <r>    2.8459    1.0000 </r>
       <r>    2.9018    1.0000 </r>
       <r>    2.9970    1.0000 </r>
       <r>    3.0648    1.0000 </r>
       <r>    3.1090    1.0000 </r>
       <r>    3.2740    1.0000 </r>
       <r>    3.4195    1.0000 </r>
       <r>    3.5072    1.0000 </r>
       <r>    3.7073    1.0000 </r>
       <r>    3.7932    1.0000 </r>
       <r>    4.0590    1.0000 </r>
       <r>    4.2105    1.0000 </r>
       <r>    4.3241    1.0000 </r>
       <r>    4.3451    1.0000 </r>
       <r>    4.4623    1.0000 </r>
       <r>    4.6929    1.0000 </r>
       <r>    4.8038    1.0000 </r>
       <r>    4.8606    1.0000 </r>
       <r>    4.8608    1.0000 </r>
       <r>    5.1067    1.0000 </r>
       <r>    8.6797   -0.0000 </r>
       <r>    9.7290    0.0000 </r>
       <r>   11.1322    0.0000 </r>
       <r>   12.2555    0.0000 </r>
       <r>   16.0785    0.0000 </r>
       <r>   17.0081    0.0000 </r>
       <r>   17.0730    0.0000 </r>
       <r>   18.2405    0.0000 </r>
       <r>   18.3114    0.0000 </r>
       <r>   19.2845    0.0000 </r>
       <r>   21.3620    0.0000 </r>
       <r>   22.6503    0.0000 </r>
       <r>   22.9858    0.0000 </r>
       <r>   26.1833    0.0000 </r>
       <r>   26.6504    0.0000 </r>
       <r>   27.6446    0.0000 </r>
       <r>   28.5783    0.0000 </r>
       <r>   30.1626    0.0000 </r>
       <r>   31.2678    0.0000 </r>
       <r>   32.0271    0.0000 </r>
       <r>   32.6483    0.0000 </r>
       <r>   34.4057    0.0000 </r>
       <r>   35.1108    0.0000 </r>
       <r>   36.5943    0.0000 </r>
       <r>   36.6527    0.0000 </r>
       <r>   37.0605    0.0000 </r>
      </set>
      <set comment="kpoint 23">
       <r>    0.2755    1.0000 </r>
       <r>    2.3736    1.0000 </r>
       <r>    2.3736    1.0000 </r>
       <r>    2.7578    1.0000 </r>
       <r>    3.0526    1.0000 </r>
       <r>    3.0925    1.0000 </r>
       <r>    3.0925    1.0000 </r>
       <r>    3.3973    1.0000 </r>
       <r>    3.5245    1.0000 </r>
       <r>    3.5245    1.0000 </r>
       <r>    3.6519    1.0000 </r>
       <r>    3.8180    1.0000 </r>
       <r>    3.9643    1.0000 </r>
       <r>    4.2902    1.0000 </r>
       <r>    4.3137    1.0000 </r>
       <r>    4.3137    1.0000 </r>
       <r>    4.3241    1.0000 </r>
       <r>    4.7806    1.0000 </r>
       <r>    4.7806    1.0000 </r>
       <r>    4.8076    1.0000 </r>
       <r>    4.8161    1.0000 </r>
       <r>    6.4130    0.4457 </r>
       <r>    6.4130    0.4457 </r>
       <r>    9.4344    0.0000 </r>
       <r>   10.9180    0.0000 </r>
       <r>   14.3858    0.0000 </r>
       <r>   14.3858    0.0000 </r>
       <r>   15.8815    0.0000 </r>
       <r>   18.0305    0.0000 </r>
       <r>   18.9815    0.0000 </r>
       <r>   18.9815    0.0000 </r>
       <r>   20.4257    0.0000 </r>
       <r>   20.4257    0.0000 </r>
       <r>   22.2782    0.0000 </r>
       <r>   22.5444    0.0000 </r>
       <r>   25.2618    0.0000 </r>
       <r>   28.3364    0.0000 </r>
       <r>   28.3364    0.0000 </r>
       <r>   29.4354    0.0000 </r>
       <r>   30.1151    0.0000 </r>
       <r>   31.8622    0.0000 </r>
       <r>   32.2712    0.0000 </r>
       <r>   32.6791    0.0000 </r>
       <r>   32.6791    0.0000 </r>
       <r>   35.3856    0.0000 </r>
       <r>   35.3856    0.0000 </r>
       <r>   36.2351    0.0000 </r>
       <r>   37.7048    0.0000 </r>
      </set>
      <set comment="kpoint 24">
       <r>    1.0266    1.0000 </r>
       <r>    1.7972    1.0000 </r>
       <r>    2.6141    1.0000 </r>
       <r>    2.7361    1.0000 </r>
       <r>    3.1758    1.0000 </r>
       <r>    3.2274    1.0000 </r>
       <r>    3.2290    1.0000 </r>
       <r>    3.3327    1.0000 </r>
       <r>    3.4213    1.0000 </r>
       <r>    3.5335    1.0000 </r>
       <r>    3.5781    1.0000 </r>
       <r>    3.7182    1.0000 </r>
       <r>    4.0239    1.0000 </r>
       <r>    4.1503    1.0000 </r>
       <r>    4.2084    1.0000 </r>
       <r>    4.2292    1.0000 </r>
       <r>    4.4214    1.0000 </r>
       <r>    4.6117    1.0000 </r>
       <r>    4.7346    1.0000 </r>
       <r>    4.7455    1.0000 </r>
       <r>    5.0911    1.0000 </r>
       <r>    5.5529    1.0000 </r>
       <r>    7.2002   -0.0000 </r>
       <r>    8.2099   -0.0000 </r>
       <r>   11.8145    0.0000 </r>
       <r>   12.9895    0.0000 </r>
       <r>   15.3766    0.0000 </r>
       <r>   16.5941    0.0000 </r>
       <r>   16.6800    0.0000 </r>
       <r>   17.7255    0.0000 </r>
       <r>   19.9445    0.0000 </r>
       <r>   21.1388    0.0000 </r>
       <r>   21.1963    0.0000 </r>
       <r>   22.0880    0.0000 </r>
       <r>   23.5388    0.0000 </r>
       <r>   26.7925    0.0000 </r>
       <r>   27.0639    0.0000 </r>
       <r>   28.8912    0.0000 </r>
       <r>   29.4560    0.0000 </r>
       <r>   29.4800    0.0000 </r>
       <r>   32.0783    0.0000 </r>
       <r>   32.4244    0.0000 </r>
       <r>   32.4332    0.0000 </r>
       <r>   34.0322    0.0000 </r>
       <r>   34.9564    0.0000 </r>
       <r>   35.0274    0.0000 </r>
       <r>   36.5616    0.0000 </r>
       <r>   37.0569    0.0000 </r>
      </set>
      <set comment="kpoint 25">
       <r>    1.6357    1.0000 </r>
       <r>    2.1998    1.0000 </r>
       <r>    2.1998    1.0000 </r>
       <r>    2.5124    1.0000 </r>
       <r>    3.3561    1.0000 </r>
       <r>    3.3823    1.0000 </r>
       <r>    3.3823    1.0000 </r>
       <r>    3.3827    1.0000 </r>
       <r>    3.4839    1.0000 </r>
       <r>    3.4839    1.0000 </r>
       <r>    3.5050    1.0000 </r>
       <r>    3.6328    1.0000 </r>
       <r>    4.0116    1.0000 </r>
       <r>    4.0918    1.0000 </r>
       <r>    4.0918    1.0000 </r>
       <r>    4.1049    1.0000 </r>
       <r>    4.4485    1.0000 </r>
       <r>    4.5786    1.0000 </r>
       <r>    4.5786    1.0000 </r>
       <r>    4.6333    1.0000 </r>
       <r>    5.4964    1.0000 </r>
       <r>    6.1448    1.0007 </r>
       <r>    6.1448    1.0007 </r>
       <r>    7.0007   -0.0000 </r>
       <r>   12.7766    0.0000 </r>
       <r>   13.9653    0.0000 </r>
       <r>   13.9653    0.0000 </r>
       <r>   15.1681    0.0000 </r>
       <r>   17.5321    0.0000 </r>
       <r>   18.6298    0.0000 </r>
       <r>   18.6298    0.0000 </r>
       <r>   19.7748    0.0000 </r>
       <r>   24.2727    0.0000 </r>
       <r>   24.2727    0.0000 </r>
       <r>   24.5239    0.0000 </r>
       <r>   26.3325    0.0000 </r>
       <r>   27.1923    0.0000 </r>
       <r>   27.8293    0.0000 </r>
       <r>   28.4874    0.0000 </r>
       <r>   28.4874    0.0000 </r>
       <r>   32.8722    0.0000 </r>
       <r>   32.8722    0.0000 </r>
       <r>   33.5349    0.0000 </r>
       <r>   33.6835    0.0000 </r>
       <r>   35.6345    0.0000 </r>
       <r>   35.9376    0.0000 </r>
       <r>   36.3931    0.0000 </r>
       <r>   36.3931    0.0000 </r>
      </set>
      <set comment="kpoint 26">
       <r>   -0.5784    1.0000 </r>
       <r>    2.4807    1.0000 </r>
       <r>    2.4807    1.0000 </r>
       <r>    2.4807    1.0000 </r>
       <r>    2.9035    1.0000 </r>
       <r>    2.9035    1.0000 </r>
       <r>    2.9035    1.0000 </r>
       <r>    3.5136    1.0000 </r>
       <r>    3.8588    1.0000 </r>
       <r>    3.8588    1.0000 </r>
       <r>    3.8588    1.0000 </r>
       <r>    3.8604    1.0000 </r>
       <r>    3.8604    1.0000 </r>
       <r>    4.3839    1.0000 </r>
       <r>    4.3839    1.0000 </r>
       <r>    4.3839    1.0000 </r>
       <r>    4.4578    1.0000 </r>
       <r>    4.4578    1.0000 </r>
       <r>    4.9619    1.0000 </r>
       <r>    4.9619    1.0000 </r>
       <r>    4.9619    1.0000 </r>
       <r>    7.4338   -0.0000 </r>
       <r>    7.4338   -0.0000 </r>
       <r>    7.4338   -0.0000 </r>
       <r>   13.3929    0.0000 </r>
       <r>   13.3929    0.0000 </r>
       <r>   13.3929    0.0000 </r>
       <r>   17.3227    0.0000 </r>
       <r>   17.3227    0.0000 </r>
       <r>   17.3227    0.0000 </r>
       <r>   19.4580    0.0000 </r>
       <r>   21.0740    0.0000 </r>
       <r>   21.0740    0.0000 </r>
       <r>   21.0740    0.0000 </r>
       <r>   24.7560    0.0000 </r>
       <r>   24.7560    0.0000 </r>
       <r>   24.7560    0.0000 </r>
       <r>   28.0962    0.0000 </r>
       <r>   28.0962    0.0000 </r>
       <r>   28.2693    0.0000 </r>
       <r>   32.6514    0.0000 </r>
       <r>   32.6514    0.0000 </r>
       <r>   32.6514    0.0000 </r>
       <r>   34.0938    0.0000 </r>
       <r>   34.0938    0.0000 </r>
       <r>   34.5036    0.0000 </r>
       <r>   37.7534    0.0000 </r>
       <r>   37.7534    0.0000 </r>
      </set>
      <set comment="kpoint 27">
       <r>    0.0290    1.0000 </r>
       <r>    2.2081    1.0000 </r>
       <r>    2.6077    1.0000 </r>
       <r>    2.6077    1.0000 </r>
       <r>    3.0473    1.0000 </r>
       <r>    3.0473    1.0000 </r>
       <r>    3.0605    1.0000 </r>
       <r>    3.4668    1.0000 </r>
       <r>    3.6807    1.0000 </r>
       <r>    3.6807    1.0000 </r>
       <r>    3.6965    1.0000 </r>
       <r>    3.8460    1.0000 </r>
       <r>    3.8796    1.0000 </r>
       <r>    4.2140    1.0000 </r>
       <r>    4.2746    1.0000 </r>
       <r>    4.2746    1.0000 </r>
       <r>    4.4732    1.0000 </r>
       <r>    4.6052    1.0000 </r>
       <r>    4.9220    1.0000 </r>
       <r>    4.9220    1.0000 </r>
       <r>    4.9400    1.0000 </r>
       <r>    6.0953    1.0000 </r>
       <r>    8.0881   -0.0000 </r>
       <r>    8.0881   -0.0000 </r>
       <r>   11.8231    0.0000 </r>
       <r>   11.8231    0.0000 </r>
       <r>   14.1429    0.0000 </r>
       <r>   17.7997    0.0000 </r>
       <r>   17.8811    0.0000 </r>
       <r>   17.8811    0.0000 </r>
       <r>   20.1920    0.0000 </r>
       <r>   20.7468    0.0000 </r>
       <r>   20.7468    0.0000 </r>
       <r>   21.9346    0.0000 </r>
       <r>   25.1000    0.0000 </r>
       <r>   26.2102    0.0000 </r>
       <r>   26.2299    0.0000 </r>
       <r>   26.2299    0.0000 </r>
       <r>   27.0488    0.0000 </r>
       <r>   29.5978    0.0000 </r>
       <r>   31.8229    0.0000 </r>
       <r>   33.0987    0.0000 </r>
       <r>   34.7281    0.0000 </r>
       <r>   35.0040    0.0000 </r>
       <r>   35.0265    0.0000 </r>
       <r>   35.0265    0.0000 </r>
       <r>   36.7778    0.0000 </r>
       <r>   36.7778    0.0000 </r>
      </set>
      <set comment="kpoint 28">
       <r>    0.8000    1.0000 </r>
       <r>    1.6010    1.0000 </r>
       <r>    2.6978    1.0000 </r>
       <r>    2.6978    1.0000 </r>
       <r>    3.1354    1.0000 </r>
       <r>    3.1354    1.0000 </r>
       <r>    3.2300    1.0000 </r>
       <r>    3.3700    1.0000 </r>
       <r>    3.6006    1.0000 </r>
       <r>    3.6006    1.0000 </r>
       <r>    3.6749    1.0000 </r>
       <r>    3.7658    1.0000 </r>
       <r>    3.9469    1.0000 </r>
       <r>    4.0618    1.0000 </r>
       <r>    4.1981    1.0000 </r>
       <r>    4.1981    1.0000 </r>
       <r>    4.6901    1.0000 </r>
       <r>    4.7487    1.0000 </r>
       <r>    4.8658    1.0000 </r>
       <r>    4.8780    1.0000 </r>
       <r>    4.8780    1.0000 </r>
       <r>    5.1979    1.0000 </r>
       <r>    8.7850   -0.0000 </r>
       <r>    8.7850   -0.0000 </r>
       <r>   10.6651    0.0000 </r>
       <r>   10.6651    0.0000 </r>
       <r>   15.1377    0.0000 </r>
       <r>   16.3591    0.0000 </r>
       <r>   18.6727    0.0000 </r>
       <r>   18.6727    0.0000 </r>
       <r>   19.6769    0.0000 </r>
       <r>   19.6769    0.0000 </r>
       <r>   23.0980    0.0000 </r>
       <r>   23.2553    0.0000 </r>
       <r>   24.5336    0.0000 </r>
       <r>   25.6589    0.0000 </r>
       <r>   25.8762    0.0000 </r>
       <r>   27.0109    0.0000 </r>
       <r>   28.5994    0.0000 </r>
       <r>   28.5994    0.0000 </r>
       <r>   33.0878    0.0000 </r>
       <r>   33.0878    0.0000 </r>
       <r>   33.6799    0.0000 </r>
       <r>   33.6929    0.0000 </r>
       <r>   34.7562    0.0000 </r>
       <r>   35.5983    0.0000 </r>
       <r>   36.5008    0.0000 </r>
       <r>   36.6894    0.0000 </r>
      </set>
      <set comment="kpoint 29">
       <r>    0.5709    1.0000 </r>
       <r>    2.3326    1.0000 </r>
       <r>    2.3326    1.0000 </r>
       <r>    2.5633    1.0000 </r>
       <r>    3.1933    1.0000 </r>
       <r>    3.2378    1.0000 </r>
       <r>    3.2378    1.0000 </r>
       <r>    3.5235    1.0000 </r>
       <r>    3.6339    1.0000 </r>
       <r>    3.6339    1.0000 </r>
       <r>    3.7231    1.0000 </r>
       <r>    3.8139    1.0000 </r>
       <r>    3.8505    1.0000 </r>
       <r>    4.1157    1.0000 </r>
       <r>    4.1157    1.0000 </r>
       <r>    4.1293    1.0000 </r>
       <r>    4.5134    1.0000 </r>
       <r>    4.7441    1.0000 </r>
       <r>    4.8946    1.0000 </r>
       <r>    4.9084    1.0000 </r>
       <r>    4.9084    1.0000 </r>
       <r>    6.6100   -0.0072 </r>
       <r>    6.6100   -0.0072 </r>
       <r>    8.4298   -0.0000 </r>
       <r>   10.4998    0.0000 </r>
       <r>   12.5452    0.0000 </r>
       <r>   12.5452    0.0000 </r>
       <r>   16.1406    0.0000 </r>
       <r>   18.4607    0.0000 </r>
       <r>   20.7446    0.0000 </r>
       <r>   20.7446    0.0000 </r>
       <r>   21.4846    0.0000 </r>
       <r>   21.4846    0.0000 </r>
       <r>   22.7434    0.0000 </r>
       <r>   25.0324    0.0000 </r>
       <r>   25.4206    0.0000 </r>
       <r>   26.6115    0.0000 </r>
       <r>   26.6115    0.0000 </r>
       <r>   28.4506    0.0000 </r>
       <r>   29.0686    0.0000 </r>
       <r>   31.2757    0.0000 </r>
       <r>   32.7153    0.0000 </r>
       <r>   34.3820    0.0000 </r>
       <r>   34.3820    0.0000 </r>
       <r>   36.0575    0.0000 </r>
       <r>   36.3873    0.0000 </r>
       <r>   36.3873    0.0000 </r>
       <r>   36.4619    0.0000 </r>
      </set>
      <set comment="kpoint 30">
       <r>    1.2245    1.0000 </r>
       <r>    1.8563    1.0000 </r>
       <r>    2.4279    1.0000 </r>
       <r>    2.5012    1.0000 </r>
       <r>    3.3034    1.0000 </r>
       <r>    3.3341    1.0000 </r>
       <r>    3.4390    1.0000 </r>
       <r>    3.5386    1.0000 </r>
       <r>    3.6413    1.0000 </r>
       <r>    3.6865    1.0000 </r>
       <r>    3.7285    1.0000 </r>
       <r>    3.7500    1.0000 </r>
       <r>    3.8816    1.0000 </r>
       <r>    3.9763    1.0000 </r>
       <r>    4.0489    1.0000 </r>
       <r>    4.0545    1.0000 </r>
       <r>    4.6389    1.0000 </r>
       <r>    4.8185    1.0000 </r>
       <r>    4.8468    1.0000 </r>
       <r>    4.8500    1.0000 </r>
       <r>    5.0022    1.0000 </r>
       <r>    5.5607    1.0000 </r>
       <r>    7.3046   -0.0000 </r>
       <r>    8.1018   -0.0000 </r>
       <r>   10.3700    0.0000 </r>
       <r>   11.2485    0.0000 </r>
       <r>   13.5122    0.0000 </r>
       <r>   14.7115    0.0000 </r>
       <r>   19.2796    0.0000 </r>
       <r>   20.3153    0.0000 </r>
       <r>   21.5488    0.0000 </r>
       <r>   22.4328    0.0000 </r>
       <r>   22.4681    0.0000 </r>
       <r>   23.6409    0.0000 </r>
       <r>   23.8458    0.0000 </r>
       <r>   26.8945    0.0000 </r>
       <r>   27.1656    0.0000 </r>
       <r>   27.1874    0.0000 </r>
       <r>   28.0316    0.0000 </r>
       <r>   28.4922    0.0000 </r>
       <r>   32.1310    0.0000 </r>
       <r>   32.1961    0.0000 </r>
       <r>   33.3387    0.0000 </r>
       <r>   33.5363    0.0000 </r>
       <r>   33.6024    0.0000 </r>
       <r>   35.7768    0.0000 </r>
       <r>   36.7500    0.0000 </r>
       <r>   36.8598    0.0000 </r>
      </set>
      <set comment="kpoint 31">
       <r>    1.6860    1.0000 </r>
       <r>    2.0954    1.0000 </r>
       <r>    2.0954    1.0000 </r>
       <r>    2.3038    1.0000 </r>
       <r>    3.4559    1.0000 </r>
       <r>    3.5351    1.0000 </r>
       <r>    3.5351    1.0000 </r>
       <r>    3.6696    1.0000 </r>
       <r>    3.7163    1.0000 </r>
       <r>    3.7439    1.0000 </r>
       <r>    3.7439    1.0000 </r>
       <r>    3.8329    1.0000 </r>
       <r>    3.8587    1.0000 </r>
       <r>    3.9314    1.0000 </r>
       <r>    3.9314    1.0000 </r>
       <r>    3.9451    1.0000 </r>
       <r>    4.6348    1.0000 </r>
       <r>    4.7511    1.0000 </r>
       <r>    4.7511    1.0000 </r>
       <r>    4.7757    1.0000 </r>
       <r>    5.4073    1.0000 </r>
       <r>    6.1345    1.0004 </r>
       <r>    6.1345    1.0004 </r>
       <r>    6.9957   -0.0000 </r>
       <r>   11.0740    0.0000 </r>
       <r>   12.1517    0.0000 </r>
       <r>   12.1517    0.0000 </r>
       <r>   13.3084    0.0000 </r>
       <r>   20.1305    0.0000 </r>
       <r>   21.2096    0.0000 </r>
       <r>   21.2096    0.0000 </r>
       <r>   22.3340    0.0000 </r>
       <r>   24.5755    0.0000 </r>
       <r>   24.5755    0.0000 </r>
       <r>   24.9028    0.0000 </r>
       <r>   26.4013    0.0000 </r>
       <r>   27.4068    0.0000 </r>
       <r>   27.6242    0.0000 </r>
       <r>   28.1142    0.0000 </r>
       <r>   28.1142    0.0000 </r>
       <r>   31.7905    0.0000 </r>
       <r>   31.9436    0.0000 </r>
       <r>   31.9436    0.0000 </r>
       <r>   33.0456    0.0000 </r>
       <r>   33.8983    0.0000 </r>
       <r>   34.7420    0.0000 </r>
       <r>   35.1866    0.0000 </r>
       <r>   35.1866    0.0000 </r>
      </set>
      <set comment="kpoint 32">
       <r>    1.0043    1.0000 </r>
       <r>    2.2820    1.0000 </r>
       <r>    2.2820    1.0000 </r>
       <r>    2.2820    1.0000 </r>
       <r>    3.3921    1.0000 </r>
       <r>    3.3921    1.0000 </r>
       <r>    3.3921    1.0000 </r>
       <r>    3.7453    1.0000 </r>
       <r>    3.7904    1.0000 </r>
       <r>    3.7904    1.0000 </r>
       <r>    3.8083    1.0000 </r>
       <r>    3.8083    1.0000 </r>
       <r>    3.8083    1.0000 </r>
       <r>    3.9733    1.0000 </r>
       <r>    3.9733    1.0000 </r>
       <r>    3.9733    1.0000 </r>
       <r>    4.6894    1.0000 </r>
       <r>    4.6894    1.0000 </r>
       <r>    4.9370    1.0000 </r>
       <r>    4.9370    1.0000 </r>
       <r>    4.9370    1.0000 </r>
       <r>    6.9322   -0.0000 </r>
       <r>    6.9322   -0.0000 </r>
       <r>    6.9322   -0.0000 </r>
       <r>   11.0552    0.0000 </r>
       <r>   11.0552    0.0000 </r>
       <r>   11.0552    0.0000 </r>
       <r>   14.4907    0.0000 </r>
       <r>   21.3171    0.0000 </r>
       <r>   21.3171    0.0000 </r>
       <r>   21.3171    0.0000 </r>
       <r>   23.5088    0.0000 </r>
       <r>   23.5088    0.0000 </r>
       <r>   23.5088    0.0000 </r>
       <r>   25.7138    0.0000 </r>
       <r>   25.7138    0.0000 </r>
[...]
       <r>   32.3729    0.0000 </r>
       <r>   32.3729    0.0000 </r>
       <r>   32.5658    0.0000 </r>
       <r>   33.6274    0.0000 </r>
       <r>   33.6448    0.0000 </r>
       <r>   35.2552    0.0000 </r>
       <r>   35.6860    0.0000 </r>
      </set>
      <set comment="kpoint 34">
       <r>    1.7492    1.0000 </r>
       <r>    2.0003    1.0000 </r>
       <r>    2.0003    1.0000 </r>
       <r>    2.1053    1.0000 </r>
       <r>    3.5712    1.0000 </r>
       <r>    3.6126    1.0000 </r>
       <r>    3.6126    1.0000 </r>
       <r>    3.7038    1.0000 </r>
       <r>    3.7519    1.0000 </r>
       <r>    3.7952    1.0000 </r>
       <r>    3.7952    1.0000 </r>
       <r>    3.8098    1.0000 </r>
       <r>    4.2130    1.0000 </r>
       <r>    4.2130    1.0000 </r>
       <r>    4.2251    1.0000 </r>
       <r>    4.2923    1.0000 </r>
       <r>    4.7905    1.0000 </r>
       <r>    4.8796    1.0000 </r>
       <r>    4.8796    1.0000 </r>
       <r>    4.8811    1.0000 </r>
       <r>    5.2496    1.0000 </r>
       <r>    6.1034    1.0001 </r>
       <r>    6.1034    1.0001 </r>
       <r>    6.7560   -0.0000 </r>
       <r>   10.0092    0.0000 </r>
       <r>   10.7318    0.0000 </r>
       <r>   10.7318    0.0000 </r>
       <r>   11.7552    0.0000 </r>
       <r>   22.9193    0.0000 </r>
       <r>   23.9161    0.0000 </r>
       <r>   23.9161    0.0000 </r>
       <r>   24.9879    0.0000 </r>
       <r>   25.0813    0.0000 </r>
       <r>   25.0813    0.0000 </r>
       <r>   25.5171    0.0000 </r>
       <r>   26.5354    0.0000 </r>
       <r>   27.3230    0.0000 </r>
       <r>   27.4362    0.0000 </r>
       <r>   27.4362    0.0000 </r>
       <r>   27.5411    0.0000 </r>
       <r>   30.5917    0.0000 </r>
       <r>   31.4487    0.0000 </r>
       <r>   31.4487    0.0000 </r>
       <r>   32.0101    0.0000 </r>
       <r>   32.3736    0.0000 </r>
       <r>   33.3231    0.0000 </r>
       <r>   33.4619    0.0000 </r>
       <r>   33.4619    0.0000 </r>
      </set>
      <set comment="kpoint 35">
       <r>    1.8308    1.0000 </r>
       <r>    1.9463    1.0000 </r>
       <r>    1.9463    1.0000 </r>
       <r>    1.9463    1.0000 </r>
       <r>    3.6615    1.0000 </r>
       <r>    3.6615    1.0000 </r>
       <r>    3.6615    1.0000 </r>
       <r>    3.7058    1.0000 </r>
       <r>    3.7058    1.0000 </r>
       <r>    3.7261    1.0000 </r>
       <r>    3.7261    1.0000 </r>
       <r>    3.7261    1.0000 </r>
       <r>    4.6165    1.0000 </r>
       <r>    4.6165    1.0000 </r>
       <r>    4.6165    1.0000 </r>
       <r>    4.8911    1.0000 </r>
       <r>    4.8911    1.0000 </r>
       <r>    4.9225    1.0000 </r>
       <r>    4.9225    1.0000 </r>
       <r>    4.9225    1.0000 </r>
       <r>    5.2063    1.0000 </r>
       <r>    6.0532    1.0000 </r>
       <r>    6.0532    1.0000 </r>
       <r>    6.0532    1.0000 </r>
       <r>    9.9080    0.0000 </r>
       <r>    9.9080    0.0000 </r>
       <r>    9.9080    0.0000 </r>
       <r>   10.5808    0.0000 </r>
       <r>   25.6793    0.0000 </r>
       <r>   25.6793    0.0000 </r>
       <r>   25.6793    0.0000 </r>
       <r>   26.3182    0.0000 </r>
       <r>   26.3182    0.0000 </r>
       <r>   26.3182    0.0000 </r>
       <r>   26.7677    0.0000 </r>
       <r>   26.7677    0.0000 </r>
       <r>   26.7677    0.0000 </r>
       <r>   26.9275    0.0000 </r>
       <r>   27.1406    0.0000 </r>
       <r>   27.1406    0.0000 </r>
       <r>   30.4135    0.0000 </r>
       <r>   30.4135    0.0000 </r>
       <r>   31.1541    0.0000 </r>
       <r>   31.1541    0.0000 </r>
       <r>   31.1541    0.0000 </r>
       <r>   31.4699    0.0000 </r>
       <r>   31.4699    0.0000 </r>
       <r>   31.4699    0.0000 </r>
      </set>
     </set>
    </set>
   </array>
  </eigenvalues>
  <separator name="orbital magnetization" >
   <v name="MAGDIPOLOUT">      0.00000000      0.00000000      0.00000000</v>
  </separator>
  <dos>
   <i name="efermi">      6.40661905 </i>
   <total>
    <array>
     <dimension dim="1">gridpoints</dimension>
     <dimension dim="2">spin</dimension>
     <field>energy</field>
     <field>total</field>
     <field>integrated</field>
     <set>
      <set comment="spin 1">
       <r>    -4.3204     0.0000     0.0000 </r>
       <r>    -4.1638     0.0000     0.0000 </r>
       <r>    -4.0072     0.0000     0.0000 </r>
       <r>    -3.8506     0.0000     0.0000 </r>
       <r>    -3.6940     0.0000     0.0000 </r>
       <r>    -3.5374     0.0000     0.0000 </r>
       <r>    -3.3808     0.0000     0.0000 </r>
       <r>    -3.2242     0.0000     0.0000 </r>
       <r>    -3.0676    -0.0000    -0.0000 </r>
       <r>    -2.9110    -0.0000    -0.0000 </r>
       <r>    -2.7544    -0.0000    -0.0000 </r>
       <r>    -2.5978    -0.0000    -0.0000 </r>
       <r>    -2.4412    -0.0000    -0.0000 </r>
       <r>    -2.2846    -0.0006    -0.0001 </r>
       <r>    -2.1280     0.0159     0.0024 </r>
       <r>    -1.9714     0.1150     0.0204 </r>
       <r>    -1.8148     0.2244     0.0555 </r>
       <r>    -1.6582     0.1422     0.0778 </r>
       <r>    -1.5016     0.2515     0.1172 </r>
       <r>    -1.3450     0.5188     0.1984 </r>
       <r>    -1.1884     0.1533     0.2225 </r>
       <r>    -1.0318     0.2044     0.2545 </r>
       <r>    -0.8752     0.5792     0.3452 </r>
       <r>    -0.7185     0.5163     0.4260 </r>
       <r>    -0.5619     0.3625     0.4828 </r>
       <r>    -0.4053     0.3832     0.5428 </r>
       <r>    -0.2487     0.9058     0.6847 </r>
       <r>    -0.0921     0.0325     0.6897 </r>
       <r>     0.0645     0.6633     0.7936 </r>
       <r>     0.2211     0.8800     0.9314 </r>
       <r>     0.3777     0.5463     1.0170 </r>
       <r>     0.5343     1.0258     1.1776 </r>
       <r>     0.6909     0.5681     1.2666 </r>
       <r>     0.8475     0.3185     1.3165 </r>
       <r>     1.0041     1.0446     1.4801 </r>
       <r>     1.1607     1.4087     1.7007 </r>
       <r>     1.3173     1.0253     1.8613 </r>
       <r>     1.4739     1.1892     2.0475 </r>
       <r>     1.6305     0.9304     2.1932 </r>
       <r>     1.7871     2.1629     2.5319 </r>
       <r>     1.9437     2.8093     2.9719 </r>
       <r>     2.1003     2.9781     3.4382 </r>
       <r>     2.2569     4.8302     4.1947 </r>
       <r>     2.4135     6.1731     5.1614 </r>
       <r>     2.5701     5.1797     5.9726 </r>
       <r>     2.7267     9.7748     7.5033 </r>
       <r>     2.8833    10.3423     9.1230 </r>
       <r>     3.0400     9.4999    10.6107 </r>
       <r>     3.1966     9.7380    12.1357 </r>
       <r>     3.3532    10.2778    13.7453 </r>
       <r>     3.5098    15.0462    16.1016 </r>
       <r>     3.6664    14.3647    18.3511 </r>
       <r>     3.8230    20.2570    21.5235 </r>
       <r>     3.9796    18.3375    24.3952 </r>
       <r>     4.1362    11.7533    26.2358 </r>
       <r>     4.2928    14.7165    28.5405 </r>
       <r>     4.4494    17.4470    31.2727 </r>
       <r>     4.6060    14.5009    33.5436 </r>
       <r>     4.7626    15.8905    36.0322 </r>
       <r>     4.9192    23.5786    39.7247 </r>
       <r>     5.0758    13.5284    41.8433 </r>
       <r>     5.2324     2.8225    42.2853 </r>
       <r>     5.3890     0.8076    42.4118 </r>
       <r>     5.5456     1.6539    42.6708 </r>
       <r>     5.7022     1.9795    42.9808 </r>
       <r>     5.8588     1.1873    43.1667 </r>
       <r>     6.0154     0.0287    43.1712 </r>
       <r>     6.1720     3.6051    43.7358 </r>
       <r>     6.3286     0.8481    43.8686 </r>
       <r>     6.4852     1.3888    44.0861 </r>
       <r>     6.6419     0.6403    44.1864 </r>
       <r>     6.7985     0.7687    44.3067 </r>
       <r>     6.9551     1.1154    44.4814 </r>
       <r>     7.1117     1.6079    44.7332 </r>
       <r>     7.2683     1.8844    45.0283 </r>
       <r>     7.4249     1.2753    45.2280 </r>
       <r>     7.5815     0.6657    45.3323 </r>
       <r>     7.7381     0.7597    45.4512 </r>
       <r>     7.8947     0.8975    45.5918 </r>
       <r>     8.0513     0.2573    45.6321 </r>
       <r>     8.2079     2.2608    45.9861 </r>
       <r>     8.3645     0.9896    46.1411 </r>
       <r>     8.5211     1.1851    46.3267 </r>
       <r>     8.6777     1.0883    46.4971 </r>
       <r>     8.8343     1.3114    46.7025 </r>
       <r>     8.9909     0.1082    46.7195 </r>
       <r>     9.1475     0.4204    46.7853 </r>
       <r>     9.3041     0.5580    46.8727 </r>
       <r>     9.4607     1.3956    47.0912 </r>
       <r>     9.6173     0.5270    47.1738 </r>
       <r>     9.7739     1.1494    47.3538 </r>
       <r>     9.9305     1.2891    47.5556 </r>
       <r>    10.0871     0.7627    47.6751 </r>
       <r>    10.2437     0.8126    47.8023 </r>
       <r>    10.4004     1.3324    48.0110 </r>
       <r>    10.5570     1.6846    48.2748 </r>
       <r>    10.7136     1.3059    48.4793 </r>
       <r>    10.8702     0.7359    48.5946 </r>
       <r>    11.0268     0.4936    48.6719 </r>
       <r>    11.1834     2.2403    49.0227 </r>
       <r>    11.3400     1.2148    49.2130 </r>
       <r>    11.4966     0.6203    49.3101 </r>
       <r>    11.6532     0.4580    49.3818 </r>
       <r>    11.8098     1.9258    49.6834 </r>
       <r>    11.9664     1.9382    49.9869 </r>
       <r>    12.1230     0.4565    50.0584 </r>
       <r>    12.2796     1.2694    50.2572 </r>
       <r>    12.4362     0.6081    50.3524 </r>
       <r>    12.5928     0.7536    50.4705 </r>
       <r>    12.7494     0.4160    50.5356 </r>
       <r>    12.9060     0.5614    50.6235 </r>
       <r>    13.0626     1.9327    50.9262 </r>
       <r>    13.2192     1.8906    51.2223 </r>
       <r>    13.3758     1.6164    51.4754 </r>
       <r>    13.5324     1.1322    51.6527 </r>
       <r>    13.6890     1.5462    51.8949 </r>
       <r>    13.8456     0.6661    51.9992 </r>
       <r>    14.0022     0.9926    52.1546 </r>
       <r>    14.1589     1.1476    52.3343 </r>
       <r>    14.3155     1.1844    52.5198 </r>
       <r>    14.4721     1.8507    52.8097 </r>
       <r>    14.6287     1.7205    53.0791 </r>
       <r>    14.7853     1.9848    53.3899 </r>
       <r>    14.9419     2.0604    53.7126 </r>
       <r>    15.0985     1.2564    53.9093 </r>
       <r>    15.2551     1.5087    54.1456 </r>
       <r>    15.4117     2.4151    54.5238 </r>
       <r>    15.5683     0.2525    54.5634 </r>
       <r>    15.7249     1.3457    54.7741 </r>
       <r>    15.8815     1.2802    54.9746 </r>
       <r>    16.0381     1.5221    55.2130 </r>
       <r>    16.1947     1.5982    55.4633 </r>
       <r>    16.3513     0.7363    55.5786 </r>
       <r>    16.5079     1.1551    55.7595 </r>
       <r>    16.6645     3.0692    56.2401 </r>
       <r>    16.8211     1.5891    56.4890 </r>
       <r>    16.9777     1.3591    56.7018 </r>
       <r>    17.1343     3.4174    57.2370 </r>
       <r>    17.2909     0.7534    57.3550 </r>
       <r>    17.4475     0.5858    57.4467 </r>
       <r>    17.6041     1.3950    57.6652 </r>
       <r>    17.7607     1.8248    57.9509 </r>
       <r>    17.9174     3.0932    58.4353 </r>
       <r>    18.0740     0.8909    58.5749 </r>
       <r>    18.2306     1.4240    58.7979 </r>
       <r>    18.3872     2.6692    59.2159 </r>
       <r>    18.5438     1.2336    59.4091 </r>
       <r>    18.7004     1.6516    59.6677 </r>
       <r>    18.8570     1.2915    59.8700 </r>
       <r>    19.0136     2.1535    60.2072 </r>
       <r>    19.1702     1.3692    60.4216 </r>
       <r>    19.3268     1.8622    60.7133 </r>
       <r>    19.4834     2.0293    61.0311 </r>
       <r>    19.6400     1.8121    61.3149 </r>
       <r>    19.7966     2.2604    61.6688 </r>
       <r>    19.9532     2.0130    61.9841 </r>
       <r>    20.1098     1.4870    62.2170 </r>
       <r>    20.2664     1.8242    62.5026 </r>
       <r>    20.4230     3.1524    62.9963 </r>
       <r>    20.5796     1.1365    63.1743 </r>
       <r>    20.7362     1.6456    63.4320 </r>
       <r>    20.8928     1.1672    63.6148 </r>
       <r>    21.0494     0.8274    63.7444 </r>
       <r>    21.2060     2.2959    64.1039 </r>
       <r>    21.3626     1.9545    64.4100 </r>
       <r>    21.5193     1.8009    64.6920 </r>
       <r>    21.6759     1.3672    64.9062 </r>
       <r>    21.8325     0.0342    64.9115 </r>
       <r>    21.9891     1.1467    65.0911 </r>
       <r>    22.1457     2.3811    65.4640 </r>
       <r>    22.3023     1.2167    65.6545 </r>
       <r>    22.4589     1.6995    65.9207 </r>
       <r>    22.6155     1.9491    66.2259 </r>
       <r>    22.7721     1.1898    66.4122 </r>
       <r>    22.9287     0.7554    66.5305 </r>
       <r>    23.0853     1.5275    66.7697 </r>
       <r>    23.2419     1.7193    67.0390 </r>
       <r>    23.3985     0.9314    67.1849 </r>
       <r>    23.5551     1.3747    67.4001 </r>
       <r>    23.7117     1.6221    67.6542 </r>
       <r>    23.8683     1.3087    67.8591 </r>
       <r>    24.0249     1.4066    68.0794 </r>
       <r>    24.1815     1.4944    68.3134 </r>
       <r>    24.3381     2.3975    68.6889 </r>
       <r>    24.4947     0.7853    68.8118 </r>
       <r>    24.6513     3.0211    69.2850 </r>
       <r>    24.8079     0.4393    69.3538 </r>
       <r>    24.9645     1.3279    69.5617 </r>
       <r>    25.1211     2.2605    69.9157 </r>
       <r>    25.2778     1.8874    70.2113 </r>
       <r>    25.4344     2.0040    70.5251 </r>
       <r>    25.5910     1.8293    70.8116 </r>
       <r>    25.7476     2.3115    71.1736 </r>
       <r>    25.9042     1.3347    71.3826 </r>
       <r>    26.0608     2.0166    71.6984 </r>
       <r>    26.2174     2.3853    72.0720 </r>
       <r>    26.3740     2.7650    72.5050 </r>
       <r>    26.5306     2.4416    72.8874 </r>
       <r>    26.6872     2.7301    73.3149 </r>
       <r>    26.8438     2.5347    73.7119 </r>
       <r>    27.0004     1.7470    73.9854 </r>
       <r>    27.1570     2.7704    74.4193 </r>
       <r>    27.3136     3.0230    74.8927 </r>
       <r>    27.4702     2.8920    75.3456 </r>
       <r>    27.6268     2.9492    75.8075 </r>
       <r>    27.7834     2.4118    76.1852 </r>
       <r>    27.9400     1.4664    76.4148 </r>
       <r>    28.0966     1.9380    76.7183 </r>
       <r>    28.2532     1.0289    76.8794 </r>
       <r>    28.4098     2.5559    77.2797 </r>
       <r>    28.5664     4.0810    77.9188 </r>
       <r>    28.7230     2.0181    78.2348 </r>
       <r>    28.8796     0.8201    78.3633 </r>
       <r>    29.0363     2.5416    78.7613 </r>
       <r>    29.1929     0.5454    78.8467 </r>
       <r>    29.3495     0.3410    78.9001 </r>
       <r>    29.5061     2.8481    79.3461 </r>
       <r>    29.6627     1.8322    79.6330 </r>
       <r>    29.8193     0.6867    79.7406 </r>
       <r>    29.9759     2.9449    80.2018 </r>
       <r>    30.1325     1.9342    80.5047 </r>
       <r>    30.2891     2.0255    80.8219 </r>
       <r>    30.4457     2.0960    81.1501 </r>
       <r>    30.6023     1.4138    81.3715 </r>
       <r>    30.7589     1.4123    81.5927 </r>
       <r>    30.9155     0.9692    81.7445 </r>
       <r>    31.0721     1.5993    81.9949 </r>
       <r>    31.2287     0.9411    82.1423 </r>
       <r>    31.3853     1.2331    82.3354 </r>
       <r>    31.5419     2.0326    82.6538 </r>
       <r>    31.6985     0.4665    82.7268 </r>
       <r>    31.8551     1.6042    82.9780 </r>
       <r>    32.0117     2.3125    83.3402 </r>
       <r>    32.1683     3.3116    83.8588 </r>
       <r>    32.3249     2.1198    84.1907 </r>
       <r>    32.4815     3.1772    84.6883 </r>
       <r>    32.6381     3.2929    85.2040 </r>
       <r>    32.7948     3.0825    85.6867 </r>
       <r>    32.9514     1.1023    85.8594 </r>
       <r>    33.1080     1.2670    86.0578 </r>
       <r>    33.2646     1.3334    86.2666 </r>
       <r>    33.4212     1.5418    86.5081 </r>
       <r>    33.5778     2.8069    86.9476 </r>
       <r>    33.7344     4.3996    87.6366 </r>
       <r>    33.8910     1.5097    87.8730 </r>
       <r>    34.0476     1.3954    88.0916 </r>
       <r>    34.2042     1.5169    88.3291 </r>
       <r>    34.3608     0.9944    88.4848 </r>
       <r>    34.5174     1.5345    88.7252 </r>
       <r>    34.6740     0.5931    88.8180 </r>
       <r>    34.8306     1.6461    89.0758 </r>
       <r>    34.9872     2.1358    89.4103 </r>
       <r>    35.1438     4.8607    90.1715 </r>
       <r>    35.3004     2.8873    90.6237 </r>
       <r>    35.4570     2.1008    90.9527 </r>
       <r>    35.6136     1.2268    91.1448 </r>
       <r>    35.7702     2.4553    91.5293 </r>
       <r>    35.9268     0.8859    91.6680 </r>
       <r>    36.0834     2.2225    92.0161 </r>
       <r>    36.2400     1.0486    92.1803 </r>
       <r>    36.3967     3.0538    92.6585 </r>
       <r>    36.5533     3.3236    93.1790 </r>
       <r>    36.7099     2.9284    93.6376 </r>
       <r>    36.8665     2.1687    93.9772 </r>
       <r>    37.0231     1.0448    94.1409 </r>
       <r>    37.1797     1.4747    94.3718 </r>
       <r>    37.3363    -0.0425    94.3651 </r>
       <r>    37.4929     1.4283    94.5888 </r>
       <r>    37.6495     1.6062    94.8404 </r>
       <r>    37.8061     1.2401    95.0346 </r>
       <r>    37.9627     1.4390    95.2599 </r>
       <r>    38.1193     0.8222    95.3887 </r>
       <r>    38.2759     0.5302    95.4717 </r>
       <r>    38.4325     0.4940    95.5491 </r>
       <r>    38.5891     0.6080    95.6443 </r>
       <r>    38.7457     0.4669    95.7174 </r>
       <r>    38.9023     0.3657    95.7747 </r>
       <r>    39.0589     0.8708    95.9110 </r>
       <r>    39.2155     0.2484    95.9499 </r>
       <r>    39.3721    -0.0200    95.9468 </r>
       <r>    39.5287     0.1828    95.9754 </r>
       <r>    39.6853     0.1070    95.9922 </r>
       <r>    39.8419     0.0340    95.9975 </r>
       <r>    39.9985    -0.0016    95.9973 </r>
       <r>    40.1552    -0.0000    95.9973 </r>
       <r>    40.3118    -0.0001    95.9972 </r>
       <r>    40.4684     0.0017    95.9975 </r>
       <r>    40.6250     0.0163    96.0001 </r>
       <r>    40.7816    -0.0004    96.0000 </r>
       <r>    40.9382    -0.0000    96.0000 </r>
       <r>    41.0948    -0.0000    96.0000 </r>
       <r>    41.2514    -0.0000    96.0000 </r>
       <r>    41.4080     0.0000    96.0000 </r>
       <r>    41.5646     0.0000    96.0000 </r>
       <r>    41.7212     0.0000    96.0000 </r>
       <r>    41.8778     0.0000    96.0000 </r>
       <r>    42.0344     0.0000    96.0000 </r>
       <r>    42.1910     0.0000    96.0000 </r>
       <r>    42.3476     0.0000    96.0000 </r>
       <r>    42.5042     0.0000    96.0000 </r>
       <r>    42.6608     0.0000    96.0000 </r>
      </set>
     </set>
    </array>
   </total>
  </dos>
 </calculation>
 <structure name="finalpos" >
  <crystal>
   <varray name="basis" >
    <v>       3.73033333       0.00000000       0.00000000 </v>
    <v>       0.00000000       3.73033333       0.00000000 </v>
    <v>       0.00000000       0.00000000       3.73033333 </v>
   </varray>
   <i name="volume">     51.90903114 </i>
   <varray name="rec_basis" >
    <v>       0.26807256       0.00000000       0.00000000 </v>
    <v>       0.00000000       0.26807256       0.00000000 </v>
    <v>       0.00000000       0.00000000       0.26807256 </v>
   </varray>
  </crystal>
  <varray name="positions" >
   <v>       0.00000000       0.00000000       0.00000000 </v>
   <v>       0.00000000       0.50000000       0.50000000 </v>
   <v>       0.50000000       0.00000000       0.50000000 </v>
   <v>       0.50000000       0.50000000       0.00000000 </v>
  </varray>
 </structure>
</modeling>
