----- GAMESS execution script 'rungms' -----
This job is running on host crcfe01.crc.nd.edu
under operating system Linux at Thu Oct 17 23:39:18 EDT 2019
Available scratch disk space (Kbyte units) at beginning of the job is
Filesystem      1K-blocks  Used  Available Use% Mounted on
AFS            2147483647     0 2147483647   0% /afs
GAMESS temporary binary files will be written to /afs/crc.nd.edu/user/c/cdrisko
GAMESS supplementary output files will be written to /afs/crc.nd.edu/user/c/cdrisko/scr
Copying input file acetaldehyde.inp to your run's scratch directory...

 Distributed Data Interface kickoff program.
 Initiating 1 compute processes on 1 nodes to run the following command:
 /afs/crc.nd.edu/x86_64_linux/g/gamess/nov-2017/gamess/gamess.00.x acetaldehyde 

          ******************************************************
          *         GAMESS VERSION = 11 NOV 2017 (R3)         *
          *             FROM IOWA STATE UNIVERSITY             *
          * M.W.SCHMIDT, K.K.BALDRIDGE, J.A.BOATZ, S.T.ELBERT, *
          *   M.S.GORDON, J.H.JENSEN, S.KOSEKI, N.MATSUNAGA,   *
          *          K.A.NGUYEN, S.J.SU, T.L.WINDUS,           *
          *       TOGETHER WITH M.DUPUIS, J.A.MONTGOMERY       *
          *         J.COMPUT.CHEM.  14, 1347-1363(1993)        *
          **************** 64 BIT INTEL VERSION ****************

  SINCE 1993, STUDENTS AND POSTDOCS WORKING AT IOWA STATE UNIVERSITY
  AND ALSO IN THEIR VARIOUS JOBS AFTER LEAVING ISU HAVE MADE IMPORTANT
  CONTRIBUTIONS TO THE CODE:
     IVANA ADAMOVIC, CHRISTINE AIKENS, YURI ALEXEEV, POOJA ARORA,
     ANDREY ASADCHEV, ROB BELL, PRADIPTA BANDYOPADHYAY, JONATHAN BENTZ,
     BRETT BODE, KURT BRORSEN, CALEB CARLIN, GALINA CHABAN, WEI CHEN,
     CHEOL HO CHOI, PAUL DAY, ALBERT DEFUSCO, NUWAN DESILVA, TIM DUDLEY,
     DMITRI FEDOROV, ALEX FINDLATER, GRAHAM FLETCHER, MARK FREITAG,
     KURT GLAESEMANN, ANASTASIA GUININA,
     DAN KEMP, GRANT MERRILL, NORIYUKI MINEZAWA, JONATHAN MULLIN,
     TAKESHI NAGATA, SEAN NEDD, HEATHER NETZLOFF, BOSILJKA NJEGIC, RYAN OLSON,
     MIKE PAK, BUU PHAM,
     SPENCER PRUITT, LUKE ROSKOP, JIM SHOEMAKER, LYUDMILA SLIPCHENKO,
     TONY SMITH, SAROM SOK LEANG, JIE SONG, TETSUYA TAKETSUGU, SIMON WEBB,
     PENG XU, SOOHAENG YOO, FEDERICO ZAHARIEV

  ADDITIONAL CODE HAS BEEN PROVIDED BY COLLABORATORS IN OTHER GROUPS:
     IOWA STATE UNIVERSITY:
          JOE IVANIC, AARON WEST, LAIMUTIS BYTAUTAS, KLAUS RUEDENBERG
     UNIVERSITY OF TOKYO: KIMIHIKO HIRAO, TAKAHITO NAKAJIMA,
          TAKAO TSUNEDA, MUNEAKI KAMIYA, SUSUMU YANAGISAWA,
          KIYOSHI YAGI, MAHITO CHIBA, SEIKEN TOKURA, NAOAKI KAWAKAMI
     UNIVERSITY OF AARHUS: FRANK JENSEN
     UNIVERSITY OF IOWA: VISVALDAS KAIRYS, HUI LI
     NATIONAL INST. OF STANDARDS AND TECHNOLOGY: WALT STEVENS, DAVID GARMER
     UNIVERSITY OF PISA: BENEDETTA MENNUCCI, JACOPO TOMASI
     UNIVERSITY OF MEMPHIS: HENRY KURTZ, PRAKASHAN KORAMBATH
     UNIVERSITY OF ALBERTA: TOBY ZENG, MARIUSZ KLOBUKOWSKI
     UNIVERSITY OF NEW ENGLAND: MARK SPACKMAN
     MIE UNIVERSITY: HIROAKI UMEDA
     NAT. INST. OF ADVANCED INDUSTRIAL SCIENCE AND TECHNOLOGY: KAZUO KITAURA
     MICHIGAN STATE UNIVERSITY:
          KAROL KOWALSKI, MARTA WLOCH, JEFFREY GOUR, JESSE LUTZ,
          WEI LI, PIOTR PIECUCH
     UNIVERSITY OF SILESIA: MONIKA MUSIAL, STANISLAW KUCHARSKI
     FACULTES UNIVERSITAIRES NOTRE-DAME DE LA PAIX:
          OLIVIER QUINET, BENOIT CHAMPAGNE
     UNIVERSITY OF CALIFORNIA - SANTA BARBARA: BERNARD KIRTMAN
     INSTITUTE FOR MOLECULAR SCIENCE:
          KAZUYA ISHIMURA, MICHIO KATOUDA, AND SHIGERU NAGASE
     UNIVERSITY OF NOTRE DAME: ANNA POMOGAEVA, DAN CHIPMAN
     KYUSHU UNIVERSITY:
          HARUYUKI NAKANO,
          FENG LONG GU, JACEK KORCHOWIEC, MARCIN MAKOWSKI, AND YURIKO AOKI,
          HIROTOSHI MORI AND EISAKU MIYOSHI
     PENNSYLVANIA STATE UNIVERSITY:
          TZVETELIN IORDANOV, CHET SWALINA, JONATHAN SKONE,
          SHARON HAMMES-SCHIFFER
     WASEDA UNIVERSITY:
          MASATO KOBAYASHI, TOMOKO AKAMA, TSUGUKI TOUMA,
          TAKESHI YOSHIKAWA, YASUHIRO IKABATA, JUNJI SEINO,
          YUYA NAKAJIMA, HIROMI NAKAI
     NANJING UNIVERSITY: SHUHUA LI
     UNIVERSITY OF NEBRASKA:
          PEIFENG SU, DEJUN SI, NANDUN THELLAMUREGE, YALI WANG, HUI LI
     UNIVERSITY OF ZURICH: ROBERTO PEVERATI, KIM BALDRIDGE
     N. COPERNICUS UNIVERSITY AND JACKSON STATE UNIVERSITY:
          MARIA BARYSZ
     UNIVERSITY OF COPENHAGEN: Jimmy Kromann, CASPER STEINMANN
     TOKYO INSTITUTE OF TECHNOLOGY: HIROYA NAKATA
     NAGOYA UNIVERSITY: YOSHIO NISHIMOTO, STEPHAN IRLE
     MOSCOW STATE UNIVERSITY: VLADIMIR MIRONOV

 EXECUTION OF GAMESS BEGUN Thu Oct 17 23:39:18 2019

            ECHO OF THE FIRST FEW INPUT CARDS -
 INPUT CARD> $CONTRL SCFTYP=RHF DFTTYP=B3LYP RUNTYP=ENERGY                                  
 INPUT CARD>       ISPHER=1 MULT=1 COORD=ZMT NZVAR=15 $END                                  
 INPUT CARD> $BASIS GBASIS=N31 NGAUSS=6 NDFUNC=1 $END                                       
 INPUT CARD> $STATPT IFREEZ(1)=9 $END                                                       
 INPUT CARD> $DATA                                                                          
 INPUT CARD>Title Single Point Energy Calculation of Acetaldehyde                           
 INPUT CARD>C1                                                                              
 INPUT CARD>C                                                                               
 INPUT CARD>C      1   1.5086892                                                            
 INPUT CARD>O      2   1.2107245  1  124.7161                                               
 INPUT CARD>H      2   1.1145804  1  114.7739  3  180.0000  0                               
 INPUT CARD>H      1   1.0926781  2  110.5176  3  -110.      0                              
 INPUT CARD>H      1   1.0983769  2  109.8265  3  121.4889  0                               
 INPUT CARD>H      1   1.0983769  2  109.8265  3 -121.4889  0                               
 INPUT CARD> $END                                                                           
    1000000 WORDS OF MEMORY AVAILABLE

     BASIS OPTIONS
     -------------
     GBASIS=N31          IGAUSS=       6      POLAR=POPN31  
     NDFUNC=       1     NFFUNC=       0     DIFFSP=       F
     NPFUNC=       0      DIFFS=       F     BASNAM=        


     RUN TITLE
     ---------
 Title Single Point Energy Calculation of Acetaldehyde                           

 THE POINT GROUP OF THE MOLECULE IS C1      
 THE ORDER OF THE PRINCIPAL AXIS IS     0

 YOUR FULLY SUBSTITUTED Z-MATRIX IS
 C   
 C      1   1.5086892
 O      2   1.2107245  1  124.7161
 H      2   1.1145804  1  114.7739  3  180.0000  0
 H      1   1.0926781  2  110.5176  3 -110.0000  0
 H      1   1.0983769  2  109.8265  3  121.4889  0
 H      1   1.0983769  2  109.8265  3 -121.4889  0

 THE MOMENTS OF INERTIA ARE (AMU-ANGSTROM**2)
 IXX=     8.057   IYY=    52.743   IZZ=    55.972

 ATOM      ATOMIC                      COORDINATES (BOHR)
           CHARGE         X                   Y                   Z
 C           6.0    -2.3483919661        0.4451940899       -0.1350280034
 C           6.0     0.2389451827       -0.7462804343       -0.0153269991
 O           8.0     2.2085697940        0.4171268941        0.0261521409
 H           1.0     0.2394990483       -2.8519262308        0.0351809558
 H           1.0    -3.3459660648        0.1904949955        1.6548407630
 H           1.0    -3.3555592900       -0.2267329992       -1.8209620359
 H           1.0    -3.4727477694       -0.1469569389        1.5061382831

          INTERNUCLEAR DISTANCES (ANGS.)
          ------------------------------

                1 C          2 C          3 O          4 H          5 H     

   1 C       0.0000000    1.5086892 *  2.4129941 *  2.2198436 *  1.0926781 *
   2 C       1.5086892 *  0.0000000    1.2107245 *  1.1145804 *  2.1507392 *
   3 O       2.4129941 *  1.2107245 *  0.0000000    2.0194911 *  3.0654328  
   4 H       2.2198436 *  1.1145804 *  2.0194911 *  0.0000000    2.6318355 *
   5 H       1.0926781 *  2.1507392 *  3.0654328    2.6318355 *  0.0000000  
   6 H       1.0983769 *  2.1463151 *  3.1210656    2.5522231 *  1.8525268 *
   7 H       1.0983769 *  2.1463151 *  3.1210656    2.5522231 *  0.2063519 *

                6 H          7 H     

   1 C       1.0983769 *  1.0983769 *
   2 C       2.1463151 *  2.1463151 *
   3 O       3.1210656    3.1210656  
   4 H       2.5522231 *  2.5522231 *
   5 H       1.8525268 *  0.2063519 *
   6 H       0.0000000    1.7622233 *
   7 H       1.7622233 *  0.0000000  

  * ... LESS THAN  3.000


     ATOMIC BASIS SET
     ----------------
 THE CONTRACTED PRIMITIVE FUNCTIONS HAVE BEEN UNNORMALIZED
 THE CONTRACTED BASIS FUNCTIONS ARE NOW NORMALIZED TO UNITY

  SHELL TYPE  PRIMITIVE        EXPONENT          CONTRACTION COEFFICIENT(S)

 C         

      1   S       1          3047.5248800    0.001834737132
      1   S       2           457.3695180    0.014037322813
      1   S       3           103.9486850    0.068842622264
      1   S       4            29.2101553    0.232184443216
      1   S       5             9.2866630    0.467941348435
      1   S       6             3.1639270    0.362311985337

      2   L       7             7.8682723   -0.119332419775    0.068999066591
      2   L       8             1.8812885   -0.160854151696    0.316423960957
      2   L       9             0.5442493    1.143456437840    0.744308290898

      3   L      10             0.1687145    1.000000000000    1.000000000000

      4   D      11             0.8000000    1.000000000000

 C         

      5   S      12          3047.5248800    0.001834737132
      5   S      13           457.3695180    0.014037322813
      5   S      14           103.9486850    0.068842622264
      5   S      15            29.2101553    0.232184443216
      5   S      16             9.2866630    0.467941348435
      5   S      17             3.1639270    0.362311985337

      6   L      18             7.8682723   -0.119332419775    0.068999066591
      6   L      19             1.8812885   -0.160854151696    0.316423960957
      6   L      20             0.5442493    1.143456437840    0.744308290898

      7   L      21             0.1687145    1.000000000000    1.000000000000

      8   D      22             0.8000000    1.000000000000

 O         

      9   S      23          5484.6716600    0.001831074430
      9   S      24           825.2349460    0.013950172200
      9   S      25           188.0469580    0.068445078098
      9   S      26            52.9645000    0.232714335992
      9   S      27            16.8975704    0.470192897984
      9   S      28             5.7996353    0.358520852987

     10   L      29            15.5396162   -0.110777549525    0.070874268231
     10   L      30             3.5999336   -0.148026262701    0.339752839147
     10   L      31             1.0137618    1.130767015354    0.727158577316

     11   L      32             0.2700058    1.000000000000    1.000000000000

     12   D      33             0.8000000    1.000000000000

 H         

     13   S      34            18.7311370    0.033494604338
     13   S      35             2.8253944    0.234726953484
     13   S      36             0.6401217    0.813757326146

     14   S      37             0.1612778    1.000000000000

 H         

     15   S      38            18.7311370    0.033494604338
     15   S      39             2.8253944    0.234726953484
     15   S      40             0.6401217    0.813757326146

     16   S      41             0.1612778    1.000000000000

 H         

     17   S      42            18.7311370    0.033494604338
     17   S      43             2.8253944    0.234726953484
     17   S      44             0.6401217    0.813757326146

     18   S      45             0.1612778    1.000000000000

 H         

     19   S      46            18.7311370    0.033494604338
     19   S      47             2.8253944    0.234726953484
     19   S      48             0.6401217    0.813757326146

     20   S      49             0.1612778    1.000000000000

 TOTAL NUMBER OF BASIS SET SHELLS             =   20
 NUMBER OF CARTESIAN GAUSSIAN BASIS FUNCTIONS =   53
 NOTE: THIS RUN WILL RESTRICT THE MO VARIATION SPACE TO SPHERICAL HARMONICS.
 THE NUMBER OF ORBITALS KEPT IN THE VARIATIONAL SPACE WILL BE PRINTED LATER.
 NUMBER OF ELECTRONS                          =   24
 CHARGE OF MOLECULE                           =    0
 SPIN MULTIPLICITY                            =    1
 NUMBER OF OCCUPIED ORBITALS (ALPHA)          =   12
 NUMBER OF OCCUPIED ORBITALS (BETA )          =   12
 TOTAL NUMBER OF ATOMS                        =    7
 THE NUCLEAR REPULSION ENERGY IS       71.4904760923

     LEBEDEV GRID-BASED DFT OPTIONS
     ------------------------------
     DFTTYP=B3LYP   
     NRAD  =      96     NLEB  =     302
     NRAD0 =      24     NLEB0 =     110
     SWOFF =    5.00E-03 (PURE SCF -> DFT)
     SWITCH=    3.00E-04 (COARSE -> TIGHT GRID)
     THRESH=    0.00E+00 GTHRE=    1.00E+00

 GRIMME'S EMPIRICAL DISPERSION CORRECTION= F

     $CONTRL OPTIONS
     ---------------
 SCFTYP=RHF          RUNTYP=ENERGY       EXETYP=RUN     
 MPLEVL=       0     CITYP =NONE         CCTYP =NONE         VBTYP =NONE    
 DFTTYP=B3LYP        TDDFT =NONE    
 MULT  =       1     ICHARG=       0     NZVAR =      15     COORD =ZMT     
 PP    =NONE         RELWFN=NONE         LOCAL =NONE         NUMGRD=       F
 ISPHER=       1     NOSYM =       0     MAXIT =      30     UNITS =ANGS    
 PLTORB=       F     MOLPLT=       F     AIMPAC=       F     FRIEND=        
 NPRINT=       7     IREST =       0     GEOM  =INPUT   
 NORMF =       0     NORMP =       0     ITOL  =      20     ICUT  =       9
 INTTYP=BEST         GRDTYP=BEST         QMTTOL= 1.0E-06

     $SYSTEM OPTIONS
     ---------------
  REPLICATED MEMORY=     1000000 WORDS (ON EVERY NODE).
 DISTRIBUTED MEMDDI=           0 MILLION WORDS IN AGGREGATE,
 MEMDDI DISTRIBUTED OVER   1 PROCESSORS IS           0 WORDS/PROCESSOR.
 TOTAL MEMORY REQUESTED ON EACH PROCESSOR=     1000000 WORDS.
 TIMLIM=      525600.00 MINUTES, OR     365.0 DAYS.
 PARALL= F  BALTYP=  DLB     KDIAG=    0  COREFL= F
 MXSEQ2=     300 MXSEQ3=     150  mem10=         0

          ----------------
          PROPERTIES INPUT
          ----------------

     MOMENTS            FIELD           POTENTIAL          DENSITY
 IEMOM =       1   IEFLD =       0   IEPOT =       0   IEDEN =       0
 WHERE =COMASS     WHERE =NUCLEI     WHERE =NUCLEI     WHERE =NUCLEI  
 OUTPUT=BOTH       OUTPUT=BOTH       OUTPUT=BOTH       OUTPUT=BOTH    
 IEMINT=       0   IEFINT=       0                     IEDINT=       0
                                                       MORB  =       0
          EXTRAPOLATION IN EFFECT
          DIIS IN EFFECT
 ORBITAL PRINTING OPTION: NPREO=     1    53     2     1

     -------------------------------
     INTEGRAL TRANSFORMATION OPTIONS
     -------------------------------
     NWORD  =            0
     CUTOFF = 1.0E-09     MPTRAN =       0
     DIRTRF =       F     AOINTS =DUP     

          ----------------------
          INTEGRAL INPUT OPTIONS
          ----------------------
 NOPK  =       1 NORDER=       0 SCHWRZ=       T

   --- ENCODED Z MATRIX ---
 COORD  TYPE   I   J   K   L   M   N
    1      1    2   1
    2      1    3   2
    3      2    3   2   1
    4      1    4   2
    5      2    4   2   1
    6      3    4   2   1   3
    7      1    5   1
    8      2    5   1   2
    9      3    5   1   2   3
   10      1    6   1
   11      2    6   1   2
   12      3    6   1   2   3
   13      1    7   1
   14      2    7   1   2
   15      3    7   1   2   3

 THE DETERMINANT OF THE G MATRIX IS 10**(    -8)


                     --------------------
                     INTERNAL COORDINATES
                     --------------------

                 - - ATOMS - -         COORDINATE      COORDINATE
 NO.   TYPE    I  J  K  L  M  N        (BOHR,RAD)       (ANG,DEG)
 ----------------------------------------------------------------
   1 STRETCH   2  1                     2.8510092       1.5086892
   2 STRETCH   3  2                     2.2879376       1.2107245
   3 BEND      3  2  1                  2.1767066     124.7161000
   4 STRETCH   4  2                     2.1062515       1.1145804
   5 BEND      4  2  1                  2.0031825     114.7739000
   6 TORSION   4  2  1  3               3.1415927     180.0000000
   7 STRETCH   5  1                     2.0648622       1.0926781
   8 BEND      5  1  2                  1.9288960     110.5176000
   9 TORSION   5  1  2  3              -1.9198622    -110.0000000
  10 STRETCH   6  1                     2.0756314       1.0983769
  11 BEND      6  1  2                  1.9168340     109.8265000
  12 TORSION   6  1  2  3               2.1203813     121.4889000
  13 STRETCH   7  1                     2.0756314       1.0983769
  14 BEND      7  1  2                  1.9168340     109.8265000
  15 TORSION   7  1  2  3              -2.1203813    -121.4889000

     ------------------------------------------
     THE POINT GROUP IS C1 , NAXIS= 0, ORDER= 1
     ------------------------------------------

 -- VARIATIONAL SPACE WILL BE RESTRICTED TO PURE SPHERICAL HARMONICS ONLY --
 AFTER EXCLUDING CONTAMINANT COMBINATIONS FROM THE CARTESIAN GAUSSIAN BASIS
 SET, THE NUMBER OF SPHERICAL HARMONICS KEPT IN THE VARIATION SPACE IS   50

     DIMENSIONS OF THE SYMMETRY SUBSPACES ARE
 A   =   50

 ..... DONE SETTING UP THE RUN .....
 STEP CPU TIME =     0.02 TOTAL CPU TIME =          0.0 (      0.0 MIN)
 TOTAL WALL CLOCK TIME=          0.0 SECONDS, CPU UTILIZATION IS    66.67%

          ********************
          1 ELECTRON INTEGRALS
          ********************
 ...... END OF ONE-ELECTRON INTEGRALS ......
 STEP CPU TIME =     0.00 TOTAL CPU TIME =          0.0 (      0.0 MIN)
 TOTAL WALL CLOCK TIME=          0.0 SECONDS, CPU UTILIZATION IS    66.67%

          -------------
          GUESS OPTIONS
          -------------
          GUESS =HUCKEL            NORB  =       0          NORDER=       0
          MIX   =       F          PRTMO =       F          PUNMO =       F
          TOLZ  = 1.0E-08          TOLE  = 1.0E-05
          SYMDEN=       F          PURIFY=       F

 INITIAL GUESS ORBITALS GENERATED BY HUCKEL   ROUTINE.
 HUCKEL GUESS REQUIRES     27154 WORDS.

 STATISTICS FOR GENERATION OF SYMMETRY ORBITAL -Q- MATRIX
 NUMBER OF CARTESIAN ATOMIC ORBITALS=         53
 NUMBER OF SPHERICAL CONTAMINANTS DROPPED=     3
 NUMBER OF LINEARLY DEPENDENT MOS DROPPED=     0
 TOTAL NUMBER OF MOS IN VARIATION SPACE=      50

 SYMMETRIES FOR INITIAL GUESS ORBITALS FOLLOW.   BOTH SET(S).
    12 ORBITALS ARE OCCUPIED (    3 CORE ORBITALS).
     4=A        5=A        6=A        7=A        8=A        9=A       10=A   
    11=A       12=A       13=A       14=A       15=A       16=A       17=A   
    18=A       19=A       20=A       21=A       22=A   
 ...... END OF INITIAL ORBITAL SELECTION ......
 STEP CPU TIME =     0.02 TOTAL CPU TIME =          0.0 (      0.0 MIN)
 TOTAL WALL CLOCK TIME=          0.0 SECONDS, CPU UTILIZATION IS   100.00%

                    ----------------------
                    AO INTEGRAL TECHNOLOGY
                    ----------------------
     S,P,L SHELL ROTATED AXIS INTEGRALS, REPROGRAMMED BY
        KAZUYA ISHIMURA (IMS) AND JOSE SIERRA (SYNSTAR).
     S,P,D,L SHELL ROTATED AXIS INTEGRALS PROGRAMMED BY
        KAZUYA ISHIMURA (INSTITUTE FOR MOLECULAR SCIENCE).
     S,P,D,F,G SHELL TO TOTAL QUARTET ANGULAR MOMENTUM SUM 5,
        ERIC PROGRAM BY GRAHAM FLETCHER (ELORET AND NASA ADVANCED
        SUPERCOMPUTING DIVISION, AMES RESEARCH CENTER).
     S,P,D,F,G,L SHELL GENERAL RYS QUADRATURE PROGRAMMED BY
        MICHEL DUPUIS (PACIFIC NORTHWEST NATIONAL LABORATORY).

          --------------------
          2 ELECTRON INTEGRALS
          --------------------

 THE -PK- OPTION IS OFF, THE INTEGRALS ARE NOT IN SUPERMATRIX FORM.
 STORING   15000 INTEGRALS/RECORD ON DISK, USING 12 BYTES/INTEGRAL.
 TWO ELECTRON INTEGRAL EVALUATION REQUIRES   90606 WORDS OF MEMORY.
 SCHWARZ INEQUALITY OVERHEAD:      1430 INTEGRALS, T=        0.00
 II,JST,KST,LST =  1  1  1  1 NREC =         1 INTLOC =    1
 II,JST,KST,LST =  2  1  1  1 NREC =         1 INTLOC =    2
 II,JST,KST,LST =  3  1  1  1 NREC =         1 INTLOC =   34
 II,JST,KST,LST =  4  1  1  1 NREC =         1 INTLOC =  214
 II,JST,KST,LST =  5  1  1  1 NREC =         1 INTLOC = 1189
 II,JST,KST,LST =  6  1  1  1 NREC =         1 INTLOC = 3229
 II,JST,KST,LST =  7  1  1  1 NREC =         2 INTLOC =  977
 II,JST,KST,LST =  8  1  1  1 NREC =         3 INTLOC = 8232
 II,JST,KST,LST =  9  1  1  1 NREC =         7 INTLOC = 6161
 II,JST,KST,LST = 10  1  1  1 NREC =         8 INTLOC = 3461
 II,JST,KST,LST = 11  1  1  1 NREC =        13 INTLOC =  816
 II,JST,KST,LST = 12  1  1  1 NREC =        19 INTLOC =14473
 II,JST,KST,LST = 13  1  1  1 NREC =        34 INTLOC = 9445
 II,JST,KST,LST = 14  1  1  1 NREC =        37 INTLOC =12358
 II,JST,KST,LST = 15  1  1  1 NREC =        41 INTLOC = 3840
 II,JST,KST,LST = 16  1  1  1 NREC =        44 INTLOC =11111
 II,JST,KST,LST = 17  1  1  1 NREC =        48 INTLOC = 9379
 II,JST,KST,LST = 18  1  1  1 NREC =        52 INTLOC = 8544
 II,JST,KST,LST = 19  1  1  1 NREC =        56 INTLOC =14235
 II,JST,KST,LST = 20  1  1  1 NREC =        61 INTLOC = 5779
 SCHWARZ INEQUALITY TEST SKIPPED         959 INTEGRAL BLOCKS.
 TOTAL NUMBER OF NONZERO TWO-ELECTRON INTEGRALS =              979487
         66 INTEGRAL RECORDS WERE STORED ON DISK FILE  8.
  ...... END OF TWO-ELECTRON INTEGRALS .....
 STEP CPU TIME =     0.12 TOTAL CPU TIME =          0.2 (      0.0 MIN)
 TOTAL WALL CLOCK TIME=          0.2 SECONDS, CPU UTILIZATION IS   100.00%

          --------------------------
             R-B3LYP SCF CALCULATION
          --------------------------

     NUCLEAR ENERGY =        71.4904760923
     MAXIT =   30     NPUNCH=    2
     EXTRAP=T  DAMP=F  SHIFT=F  RSTRCT=F  DIIS=T  DEM=F  SOSCF=F
         DENSITY MATRIX CONVERGENCE THRESHOLD=  1.00E-05
     COARSE -> FINE DFT GRID SWITCH THRESHOLD=  3.00E-04 (SWITCH IN $DFT)
                   HF -> DFT SWITCH THRESHOLD=  5.00E-03 (SWOFF IN $DFT)
     MEMORY REQUIRED FOR RHF ITERS=    307426 WORDS.

 DFT CODE IS SWITCHING FROM THE FINE GRID NRAD= 96,  NLEB=  302
                      TO THE COARSE GRID NRAD0= 24, NLEB0=  110

     EXCHANGE FUNCTIONAL   =B88&HFX   
     CORRELATION FUNCTIONAL=LYP88&VWN5
     DFT THRESHOLD         =.197E-07
     GRID CHANGE THRESHOLD =.300E-03
 FOR AN EULER-MACLAURIN QUADRATURE USING  96 RADIAL POINTS:
 SMALLEST GAUSSIAN PRIMITIVE EXPONENT=        0.1612777588 OF TYPE -S-
 ON ATOM NUMBER   4 HAS RADIAL NORMALIZATION=  1.000000
  LARGEST GAUSSIAN PRIMITIVE EXPONENT=     5484.6716600000 OF TYPE -S-
 ON ATOM NUMBER   3 HAS RADIAL NORMALIZATION=  1.000000
 DFT IS SWITCHED OFF, PERFORMING PURE SCF UNTIL SWOFF THRESHOLD IS REACHED.

 ITER EX DEM     TOTAL ENERGY        E CHANGE  DENSITY CHANGE    DIIS ERROR
          * * *   INITIATING DIIS PROCEDURE   * * *
   1  0  0     -150.7561387479  -150.7561387479   0.827550536   0.491081586
   2  1  0     -151.4330114367    -0.6768726888   0.126959937   0.096100805
   3  2  0     -151.4722113736    -0.0391999369   0.062331548   0.073805431
   4  3  0     -151.4891652402    -0.0169538665   0.033620552   0.008902386
   5  4  0     -151.4903068520    -0.0011416118   0.024681319   0.003922090
   6  5  0     -151.4905158580    -0.0002090060   0.017593728   0.002292005
   7  6  0     -151.4905847149    -0.0000688569   0.010000683   0.000967137
   8  7  0     -151.4905981307    -0.0000134158   0.002025328   0.000241827
 CONVERGED TO SWOFF, SO DFT CALCULATION IS NOW SWITCHED ON.
          * * *   INITIATING DIIS PROCEDURE   * * *
   9  8  0     -152.3006666407    -0.8100685100   0.575839451   0.049590751
  10  9  0     -152.3120125122    -0.0113458715   0.208281162   0.031376832
  11 10  0     -152.3093773056     0.0026352065   0.046829858   0.043780573
  12 11  0     -152.3152073598    -0.0058300542   0.034848776   0.009528517
  13 12  0     -152.3154158425    -0.0002084827   0.011883064   0.000783985
  14 13  0     -152.3154185416    -0.0000026991   0.001192315   0.000097473
  15 14  0     -152.3154185836    -0.0000000420   0.000354604   0.000042381
  16 15  0     -152.3154185930    -0.0000000094   0.000029562   0.000008909
 DFT CODE IS SWITCHING BACK TO THE FINE GRID
          * * *   INITIATING DIIS PROCEDURE   * * *
  17 16  0     -152.3148903408     0.0005282522   0.004070018   0.001642012
  18 17  0     -152.3149003234    -0.0000099826   0.002329911   0.000290480
  19 18  0     -152.3148997105     0.0000006129   0.000568485   0.000493632
  20 19  0     -152.3149007086    -0.0000009982   0.000535174   0.000064606
  21 20  0     -152.3149007182    -0.0000000095   0.000178124   0.000011708
  22 21  0     -152.3149007190    -0.0000000008   0.000051183   0.000004804
  23 22  0     -152.3149007191    -0.0000000001   0.000005350   0.000000436
  24 23  0     -152.3149007191    -0.0000000000   0.000000626   0.000000204

          -----------------
          DENSITY CONVERGED
          -----------------
     TIME TO FORM FOCK OPERATORS=       6.3 SECONDS (       0.3 SEC/ITER)
     TIME TO SOLVE SCF EQUATIONS=       0.1 SECONDS (       0.0 SEC/ITER)

 FINAL R-B3LYP ENERGY IS     -152.3149007191 AFTER  24 ITERATIONS
 DFT EXCHANGE + CORRELATION ENERGY =       -16.9473414259
 TOTAL ELECTRON NUMBER             =        24.0001777329

          ------------
          EIGENVECTORS
          ------------

                      1          2          3          4          5
                  -19.1553   -10.2805   -10.2113    -1.0498    -0.9831
                     A          A          A          A          A   
    1  C  1  S   -0.000010   0.001085   0.995228  -0.026724  -0.108620
    2  C  1  S   -0.000511  -0.001043   0.035833   0.053103   0.216103
    3  C  1  X   -0.000265  -0.000935  -0.000905   0.015772  -0.078123
    4  C  1  Y    0.000051   0.000345  -0.002818  -0.014267  -0.058106
    5  C  1  Z   -0.000025   0.000009   0.001352   0.015937   0.124335
    6  C  1  S    0.000721   0.005600  -0.028531   0.017270   0.075286
    7  C  1  X   -0.001108   0.002612   0.000209   0.001240  -0.021113
    8  C  1  Y   -0.001345  -0.002005   0.006224   0.005267   0.003818
    9  C  1  Z    0.000037  -0.000098  -0.000370  -0.000234  -0.002110
   10  C  1 XX   -0.000386  -0.000938   0.000110   0.004317  -0.002943
   11  C  1 YY    0.000381   0.000238  -0.000207  -0.003552  -0.006866
   12  C  1 ZZ    0.000005   0.000699   0.000097  -0.000765   0.009809
   13  C  1 XY   -0.000155   0.000756  -0.000022  -0.001936   0.005966
   14  C  1 XZ   -0.000009  -0.000076  -0.000156  -0.000424  -0.009172
   15  C  1 YZ   -0.000023   0.000039   0.000023  -0.001048  -0.006989
   16  C  2  S    0.000231   0.995150  -0.001043  -0.117435  -0.004567
   17  C  2  S    0.000034   0.035672  -0.001332   0.223039  -0.003814
   18  C  2  X   -0.000053   0.001702   0.000497   0.152961  -0.071081
   19  C  2  Y   -0.000227   0.001328  -0.000408   0.095871  -0.009372
   20  C  2  Z    0.000002  -0.000036   0.000022   0.003173   0.005202
   21  C  2  S    0.008872  -0.016009   0.006436   0.090379   0.051434
   22  C  2  X    0.005322   0.005847  -0.004999  -0.020066  -0.039279
   23  C  2  Y    0.004936   0.002387   0.000372  -0.018421   0.006766
   24  C  2  Z    0.000061   0.000226  -0.000201   0.002433   0.016111
   25  C  2 XX   -0.000569   0.001383  -0.000890   0.017894   0.003176
   26  C  2 YY    0.000290  -0.000203   0.000415  -0.002761  -0.001755
   27  C  2 ZZ    0.000279  -0.001180   0.000475  -0.015132  -0.001421
   28  C  2 XY   -0.000770   0.001241   0.000777   0.021683  -0.008500
   29  C  2 XZ   -0.000013   0.000060  -0.000031   0.000334  -0.002823
   30  C  2 YZ   -0.000028   0.000010   0.000021   0.000210   0.000924
   31  O  3  S    0.995116  -0.000049  -0.000028  -0.192665   0.036999
   32  O  3  S    0.029425   0.000442  -0.000630   0.426643  -0.082659
   33  O  3  X   -0.001973   0.000976   0.000119  -0.139522   0.019671
   34  O  3  Y   -0.001168   0.000509  -0.000020  -0.082925   0.016855
   35  O  3  Z   -0.000058   0.000030  -0.000010  -0.002778   0.002610
   36  O  3  S   -0.019383  -0.005829   0.002097   0.372393  -0.068880
   37  O  3  X    0.005132   0.003718  -0.000379  -0.040294   0.010239
   38  O  3  Y    0.002670   0.002645  -0.000678  -0.024947  -0.000855
   39  O  3  Z    0.000126   0.000054   0.000031  -0.001612  -0.004687
   40  O  3 XX   -0.000189  -0.001164  -0.000041   0.005949  -0.001003
   41  O  3 YY    0.000107   0.000049   0.000236  -0.003493   0.000594
   42  O  3 ZZ    0.000082   0.001116  -0.000196  -0.002456   0.000409
   43  O  3 XY   -0.000110  -0.001477   0.000128   0.010100  -0.001609
   44  O  3 XZ   -0.000011  -0.000065   0.000002   0.000560   0.000179
   45  O  3 YZ   -0.000004  -0.000027   0.000000   0.000160   0.000143
   46  H  4  S   -0.000237  -0.000970  -0.000577   0.027518   0.001670
   47  H  4  S    0.001145   0.004963   0.000336  -0.013009  -0.001126
   48  H  5  S    0.000265  -0.000335  -0.000783   0.045233   0.361882
   49  H  5  S   -0.000622   0.002022  -0.003643   0.001298  -0.009039
   50  H  6  S   -0.000050  -0.000507  -0.000487   0.008146   0.037422
   51  H  6  S   -0.000519   0.000600   0.006273   0.000043   0.004323
   52  H  7  S   -0.000292  -0.000177  -0.000293   0.046668   0.370141
   53  H  7  S    0.000050  -0.001188   0.010234   0.001090   0.054990

                      6          7          8          9         10
                   -0.6661    -0.5334    -0.4703    -0.4328    -0.3844
                     A          A          A          A          A   
    1  C  1  S   -0.098267  -0.100694   0.012327   0.005398  -0.023270
    2  C  1  S    0.186442   0.198114  -0.016732  -0.017099   0.044033
    3  C  1  X    0.150600  -0.024950   0.237264   0.180805  -0.087545
    4  C  1  Y   -0.100179  -0.025209   0.051787  -0.049817   0.000895
    5  C  1  Z   -0.111142  -0.173503   0.175417   0.126220  -0.052616
    6  C  1  S    0.220113   0.269285  -0.055452   0.010036   0.086730
    7  C  1  X    0.028071  -0.024504   0.092663   0.089860  -0.047427
    8  C  1  Y   -0.042969  -0.025844   0.035562  -0.030315  -0.008472
    9  C  1  Z   -0.006416  -0.038525   0.051965   0.050855  -0.006410
   10  C  1 XX    0.004082   0.003345   0.005651  -0.004609  -0.000465
   11  C  1 YY    0.000238  -0.007426  -0.004572   0.007358  -0.002562
   12  C  1 ZZ   -0.004320   0.004081  -0.001080  -0.002749   0.003027
   13  C  1 XY   -0.011983   0.007582  -0.013254  -0.014285   0.006719
   14  C  1 XZ    0.009688   0.007274  -0.002121   0.000582   0.011709
   15  C  1 YZ    0.005065   0.012734  -0.011856  -0.011208   0.002184
   16  C  2  S   -0.134237   0.080082  -0.038181   0.012706   0.009415
   17  C  2  S    0.279732  -0.167479   0.089730  -0.041509  -0.019893
   18  C  2  X   -0.207204  -0.109208  -0.071077  -0.332530   0.065347
   19  C  2  Y   -0.061079   0.255938   0.327797  -0.108096   0.004071
   20  C  2  Z   -0.022956  -0.060012   0.065793   0.090125   0.342512
   21  C  2  S    0.219868  -0.175007   0.061341   0.013601  -0.030579
   22  C  2  X   -0.055741   0.003677  -0.059644  -0.068520   0.024445
   23  C  2  Y   -0.044531   0.103777   0.078561  -0.024621   0.006484
   24  C  2  Z   -0.011397  -0.034288   0.041643   0.057718   0.198511
   25  C  2 XX   -0.002587   0.008732  -0.000792  -0.009407   0.003666
   26  C  2 YY    0.007285  -0.011916  -0.000787   0.007041  -0.003551
   27  C  2 ZZ   -0.004698   0.003184   0.001578   0.002366  -0.000115
   28  C  2 XY   -0.012418  -0.000186   0.001805  -0.011465   0.001563
   29  C  2 XZ    0.002719   0.003743  -0.002340   0.000564   0.024589
   30  C  2 YZ   -0.002262  -0.001731   0.003020   0.003268   0.013374
   31  O  3  S    0.071944  -0.048880   0.044826  -0.068675   0.005579
   32  O  3  S   -0.170491   0.115110  -0.103538   0.148519  -0.009664
   33  O  3  X   -0.056502   0.043492  -0.297537   0.359622  -0.043018
   34  O  3  Y   -0.014651   0.183614   0.085950   0.285625  -0.070974
   35  O  3  Z   -0.008693  -0.032960   0.047906   0.102049   0.490431
   36  O  3  S   -0.175928   0.148783  -0.156938   0.302636  -0.037852
   37  O  3  X   -0.040531   0.025141  -0.161649   0.181752  -0.018832
   38  O  3  Y   -0.010107   0.093735   0.049162   0.150038  -0.039292
   39  O  3  Z   -0.002814  -0.012933   0.022707   0.055741   0.304236
   40  O  3 XX    0.005424   0.004313   0.019628  -0.008169   0.000115
   41  O  3 YY   -0.001229  -0.009121  -0.013550  -0.002220   0.001946
   42  O  3 ZZ   -0.004194   0.004809  -0.006078   0.010389  -0.002061
   43  O  3 XY    0.003372  -0.011501  -0.000155  -0.015916   0.003037
   44  O  3 XZ    0.000756   0.002530  -0.002873  -0.006143  -0.026896
   45  O  3 YZ    0.000344   0.001005  -0.001900  -0.003711  -0.016571
   46  H  4  S    0.122109  -0.195037  -0.131903   0.050408  -0.011674
   47  H  4  S    0.034539  -0.108761  -0.123258   0.047856  -0.006587
   48  H  5  S   -0.156682  -0.092680   0.037147  -0.005585  -0.053332
   49  H  5  S   -0.030414  -0.019061   0.119663   0.014293  -0.015517
   50  H  6  S    0.097060   0.180337  -0.174879  -0.120987   0.093409
   51  H  6  S    0.035985   0.106060  -0.130168  -0.098161   0.085978
   52  H  7  S   -0.144331  -0.077183  -0.007937  -0.020304  -0.043443
   53  H  7  S   -0.063484  -0.067327  -0.096334  -0.021061  -0.043966

                     11         12         13         14         15
                   -0.2615    -0.2100    -0.0482     0.0549     0.1305
                     A          A          A          A          A   
    1  C  1  S    0.059037   0.067362   0.033571  -0.120627   0.030191
    2  C  1  S   -0.120749  -0.145426  -0.053527   0.169181  -0.034999
    3  C  1  X   -0.192946   0.018224   0.113894  -0.262370  -0.153862
    4  C  1  Y   -0.033174  -0.525826   0.053158  -0.130800   0.015320
    5  C  1  Z   -0.073770  -0.036085  -0.134689   0.284034  -0.103172
    6  C  1  S   -0.339175  -0.209784  -0.291111   1.728380  -0.337174
    7  C  1  X   -0.109306   0.103589   0.129154  -0.552365  -0.377628
    8  C  1  Y    0.031653  -0.394157   0.046569  -0.336918   0.155319
    9  C  1  Z   -0.032416   0.020210  -0.236578   0.517783  -0.345479
   10  C  1 XX    0.000298  -0.008940   0.003462   0.001820   0.006452
   11  C  1 YY    0.005914   0.026752   0.000587  -0.005274  -0.003570
   12  C  1 ZZ   -0.006213  -0.017812  -0.004049   0.003454  -0.002882
   13  C  1 XY    0.011995   0.006649  -0.008168   0.012127  -0.009880
   14  C  1 XZ   -0.000663   0.003442  -0.021317  -0.028132   0.001060
   15  C  1 YZ    0.003785  -0.011577   0.015887  -0.013033   0.006863
   16  C  2  S   -0.003621  -0.006024  -0.009671   0.012007  -0.117464
   17  C  2  S   -0.001500   0.029333   0.023346   0.018389   0.172736
   18  C  2  X    0.055592  -0.062424  -0.017096   0.037858  -0.057577
   19  C  2  Y   -0.098953   0.094454   0.004426  -0.074435  -0.310827
   20  C  2  Z   -0.000309  -0.009577  -0.458077  -0.158239   0.036776
   21  C  2  S    0.019763  -0.143242   0.067371  -0.246319   1.814759
   22  C  2  X   -0.085337  -0.060995   0.028739   0.064575  -0.153138
   23  C  2  Y    0.017610  -0.092576  -0.000295  -0.084435  -0.671993
   24  C  2  Z   -0.012070  -0.007136  -0.475551  -0.270837   0.110149
   25  C  2 XX   -0.035296   0.019995  -0.005231   0.009791  -0.006009
   26  C  2 YY    0.035968  -0.023541   0.001645   0.001514  -0.002826
   27  C  2 ZZ   -0.000672   0.003545   0.003586  -0.011305   0.008835
   28  C  2 XY    0.025326   0.014442  -0.004328   0.006014   0.004440
   29  C  2 XZ    0.002346   0.002675   0.030201  -0.001545   0.000919
   30  C  2 YZ   -0.000130   0.000371   0.013225   0.010741  -0.002750
   31  O  3  S   -0.002134  -0.010117   0.004022  -0.011872   0.010900
   32  O  3  S    0.002188   0.017323  -0.009732   0.029072  -0.021715
   33  O  3  X   -0.305819  -0.040322   0.022934  -0.075863   0.034082
   34  O  3  Y    0.504197  -0.084291  -0.004365   0.031325   0.108040
   35  O  3  Z    0.017864   0.018618   0.428666   0.102584  -0.023127
   36  O  3  S    0.038672   0.132261  -0.036621   0.106579  -0.117600
   37  O  3  X   -0.220069  -0.058972   0.021805  -0.107733   0.035840
   38  O  3  Y    0.346009  -0.078035   0.001915   0.025340   0.198079
   39  O  3  Z    0.015490   0.014019   0.429564   0.133898  -0.038767
   40  O  3 XX    0.014792   0.003572  -0.000369   0.002298  -0.005152
   41  O  3 YY   -0.015411  -0.003421   0.000012   0.000244  -0.001778
   42  O  3 ZZ    0.000619  -0.000151   0.000357  -0.002542   0.006930
   43  O  3 XY   -0.007692   0.004020  -0.000666   0.002782   0.003023
   44  O  3 XZ   -0.000524  -0.000357  -0.000651   0.000093  -0.000162
   45  O  3 YZ   -0.000927  -0.000273  -0.001778   0.002421  -0.000571
   46  H  4  S    0.155583  -0.115995  -0.000970   0.026587  -0.075739
   47  H  4  S    0.244991  -0.214793  -0.018681  -0.049146  -1.798309
   48  H  5  S    0.015368  -0.042856   0.125142  -0.097205   0.036526
   49  H  5  S   -0.247077  -0.768654   0.500920  -0.780064   1.543184
   50  H  6  S    0.058456   0.041013  -0.061509  -0.089300   0.009287
   51  H  6  S    0.108232   0.048702  -0.106704  -0.718446  -0.349107
   52  H  7  S    0.059869   0.127632   0.117653  -0.074651   0.008284
   53  H  7  S    0.338313   0.815369  -0.121895  -0.820552  -1.334894

                     16         17         18         19         20
                    0.1470     0.2070     0.2596     0.2861     0.3465
                     A          A          A          A          A   
    1  C  1  S   -0.054328   0.039674   0.033027   0.051538  -0.076571
    2  C  1  S    0.073643   0.008333  -0.000689  -0.076360   0.112471
    3  C  1  X   -0.040383  -0.054375  -0.154800  -0.209376  -0.002290
    4  C  1  Y   -0.016590   0.195289  -0.072035  -0.089236  -0.176458
    5  C  1  Z   -0.407560   0.162638  -0.026501  -0.007740   0.112341
    6  C  1  S    0.789601  -1.308872  -1.216876  -0.214569   0.615428
    7  C  1  X   -0.210681  -0.651882  -1.118394  -1.052727   0.529516
    8  C  1  Y   -0.099888   0.960874   0.080774  -0.332558  -0.348967
    9  C  1  Z   -1.104459   0.547863  -0.292474  -0.081013   0.192640
   10  C  1 XX    0.013807   0.025478   0.006721   0.046054  -0.022367
   11  C  1 YY    0.007314   0.009876   0.015632  -0.026988   0.040751
   12  C  1 ZZ   -0.021121  -0.035354  -0.022353  -0.019066  -0.018384
   13  C  1 XY    0.004554   0.001082  -0.017213   0.006211   0.016213
   14  C  1 XZ    0.000606  -0.005634   0.013033  -0.005302   0.038702
   15  C  1 YZ    0.003956  -0.015913   0.023006   0.002668   0.016169
   16  C  2  S    0.016851  -0.051205  -0.003081  -0.078206   0.033296
   17  C  2  S    0.005056   0.064591  -0.000614   0.096093  -0.191853
   18  C  2  X   -0.017114  -0.150200  -0.241747  -0.144591   0.276226
   19  C  2  Y    0.042207   0.049663   0.170452   0.370927  -0.143645
   20  C  2  Z    0.077496  -0.066660  -0.102524  -0.002418  -0.261066
   21  C  2  S   -0.311825   1.005526   0.048817   1.907243   0.065381
   22  C  2  X   -0.018464  -0.972164  -1.507062   1.042667   1.138235
   23  C  2  Y    0.128793   0.130168   0.425509   1.568554  -0.114329
   24  C  2  Z    0.321293  -0.224388  -0.038642   0.012423   0.022935
   25  C  2 XX    0.004017   0.001310   0.013620  -0.002677   0.025368
   26  C  2 YY    0.002645   0.000643  -0.012153  -0.013586  -0.019413
   27  C  2 ZZ   -0.006662  -0.001953  -0.001466   0.016263  -0.005955
   28  C  2 XY    0.000142  -0.000393   0.019899   0.004656  -0.002077
   29  C  2 XZ    0.010986  -0.007998  -0.003935  -0.000244  -0.019892
   30  C  2 YZ   -0.019855   0.002285   0.008787   0.000892   0.017083
   31  O  3  S   -0.005568  -0.008144  -0.046501   0.088846   0.031354
   32  O  3  S    0.012096  -0.006163   0.084383  -0.122030  -0.048097
   33  O  3  X   -0.013773   0.055288  -0.033038   0.164050  -0.050241
   34  O  3  Y   -0.018921  -0.054984  -0.121012   0.042571   0.094986
   35  O  3  Z   -0.040197   0.052878   0.008452  -0.003169   0.046850
   36  O  3  S    0.060016   0.299728   0.827404  -1.836023  -0.710542
   37  O  3  X   -0.026693   0.024872  -0.174165   0.806056   0.154952
   38  O  3  Y   -0.044538  -0.169948  -0.397771   0.250816   0.305859
   39  O  3  Z   -0.105612   0.068256   0.017947   0.019016   0.047730
   40  O  3 XX    0.001912   0.002145   0.010412  -0.018510  -0.023924
   41  O  3 YY    0.000434  -0.000823  -0.007224  -0.008287   0.012808
   42  O  3 ZZ   -0.002345  -0.001322  -0.003188   0.026798   0.011116
   43  O  3 XY    0.000435   0.005845   0.014826  -0.034809  -0.013122
   44  O  3 XZ    0.004312   0.000714   0.003403  -0.001695   0.011446
   45  O  3 YZ   -0.004607   0.002068   0.004895  -0.000648   0.013115
   46  H  4  S    0.028273  -0.046253  -0.006923  -0.070450  -0.099965
   47  H  4  S    0.290615  -0.177021   0.673542   0.815418  -0.227349
   48  H  5  S   -0.059482  -0.218408  -0.120004  -0.003856  -0.474627
   49  H  5  S   -1.236973  -6.414255   4.912659   1.092769   0.452984
   50  H  6  S   -0.092489  -0.139591  -0.010168  -0.001633   0.012924
   51  H  6  S   -1.823055   0.587863  -0.406039  -0.343604  -0.121549
   52  H  7  S    0.093413  -0.077784  -0.253746   0.040831  -0.452280
   53  H  7  S    1.932420   6.517456  -4.376251  -1.461161   0.675135

                     21         22         23         24         25
                    0.5327     0.5564     0.6022     0.6651     0.6900
                     A          A          A          A          A   
    1  C  1  S    0.010115   0.014936   0.019682  -0.008905  -0.022860
    2  C  1  S   -0.146572   0.116263  -0.213026   0.058959   0.379110
    3  C  1  X   -0.514228   0.608022  -0.465749  -0.184719   0.171240
    4  C  1  Y    0.502316  -0.323513  -0.686811   0.246887   0.158035
    5  C  1  Z   -0.122757   0.002353   0.402826   0.371056   0.570025
    6  C  1  S    0.116346  -0.054822  -0.671702   0.708404  -0.701130
    7  C  1  X    0.708535  -0.767569   0.436088   0.754369  -0.400494
    8  C  1  Y   -0.435906   0.386644   1.002359  -0.410674  -0.221945
    9  C  1  Z    0.111120  -0.189466  -0.929754  -0.961168  -1.524564
   10  C  1 XX   -0.000048   0.021043  -0.054257   0.002865  -0.012623
   11  C  1 YY   -0.026734  -0.011738   0.044000   0.015915  -0.017033
   12  C  1 ZZ    0.026782  -0.009306   0.010257  -0.018780   0.029656
   13  C  1 XY    0.016898  -0.017539   0.027461  -0.088755  -0.012387
   14  C  1 XZ   -0.001890  -0.011600  -0.040179  -0.029517  -0.037966
   15  C  1 YZ    0.017024  -0.007776  -0.052389  -0.024209  -0.025039
   16  C  2  S   -0.037923   0.026917  -0.000524   0.036526  -0.038345
   17  C  2  S   -0.015646   0.208749  -0.373738  -0.392342   0.149833
   18  C  2  X    0.072825  -0.116337   0.163533  -0.753215   0.608910
   19  C  2  Y    0.074988  -0.052319  -0.133983   0.059907   0.468122
   20  C  2  Z   -0.688364  -0.701175  -0.146738  -0.085200  -0.034939
   21  C  2  S   -0.321245   0.076725   0.545392  -0.241584   0.672473
   22  C  2  X   -0.304425   0.176280  -0.741008   1.247747  -0.625736
   23  C  2  Y   -0.070339   0.109733   0.142872  -1.048593  -0.590504
   24  C  2  Z    0.811745   0.951978   0.424394   0.401753   0.424959
   25  C  2 XX   -0.081881   0.059449   0.008263   0.061047  -0.030035
   26  C  2 YY    0.010670   0.016839  -0.035520  -0.057401  -0.030841
   27  C  2 ZZ    0.071211  -0.076288   0.027257  -0.003646   0.060877
   28  C  2 XY    0.026366  -0.039317   0.037382   0.104252  -0.084204
   29  C  2 XZ   -0.008700   0.010271   0.000045   0.007972   0.010259
   30  C  2 YZ   -0.011581  -0.027586  -0.019921  -0.015788  -0.029559
   31  O  3  S    0.005934  -0.011760   0.005474  -0.031596   0.026450
   32  O  3  S   -0.062215   0.083997  -0.073297   0.136510  -0.083048
   33  O  3  X    0.120036  -0.083262   0.074781  -0.346166   0.124308
   34  O  3  Y   -0.046006   0.041858  -0.163227   0.058876   0.278816
   35  O  3  Z   -0.043880  -0.075497   0.004168  -0.021587  -0.008571
   36  O  3  S    0.242176  -0.130044   0.211792  -0.120714   0.111749
   37  O  3  X   -0.014919  -0.023661   0.008479  -0.235402   0.252353
   38  O  3  Y   -0.075041   0.014055  -0.023407   0.001655   0.096476
   39  O  3  Z   -0.080509  -0.099257  -0.084129  -0.071571  -0.080414
   40  O  3 XX    0.022671  -0.012869  -0.010408  -0.052296   0.054674
   41  O  3 YY   -0.016815   0.012543   0.001704  -0.005561  -0.011892
   42  O  3 ZZ   -0.005856   0.000325   0.008704   0.057856  -0.042782
   43  O  3 XY    0.013985  -0.007258  -0.016840  -0.085656   0.097889
   44  O  3 XZ    0.042376   0.043645   0.018239   0.009625   0.016788
   45  O  3 YZ    0.024383   0.019288  -0.006785  -0.012781  -0.015617
   46  H  4  S   -0.055844   0.169834  -0.045190  -0.325706  -0.193115
   47  H  4  S   -0.040624   0.011304   0.098925  -0.456215  -0.269698
   48  H  5  S    0.074082   0.098186  -0.072596   0.006917   0.006920
   49  H  5  S   -0.403265  -0.421328  -0.509754   1.267617   2.634370
   50  H  6  S    0.180582   0.024289  -0.219639  -0.202796  -0.189290
   51  H  6  S    0.059921   0.044110   0.053795  -0.099044  -0.585524
   52  H  7  S    0.027630   0.123950   0.081447  -0.058828  -0.068298
   53  H  7  S    0.208934   0.040916   1.107128  -0.590505  -1.880028

                     26         27         28         29         30
                    0.7305     0.7626     0.8565     0.8903     0.9187
                     A          A          A          A          A   
    1  C  1  S   -0.012422  -0.005798  -0.012308  -0.034172   0.017933
    2  C  1  S   -0.426623   0.318136   0.069764   1.033296  -0.199639
    3  C  1  X    0.321666   0.222561   0.062891  -0.368332  -0.076507
    4  C  1  Y    0.086076   0.379068   0.093668  -0.079671  -0.069546
    5  C  1  Z   -0.480426   0.506163  -0.097432  -0.371107   0.035943
    6  C  1  S    0.296724  -1.211688  -0.483277  -1.681435   0.542207
    7  C  1  X   -1.246447  -1.359247  -0.500536   0.750625   0.595612
    8  C  1  Y   -0.117020  -0.995632  -0.028817  -0.015164   0.286119
    9  C  1  Z    0.673233  -1.338328   0.099094   0.488531   0.117559
   10  C  1 XX   -0.085793  -0.010329  -0.028452   0.076437  -0.050209
   11  C  1 YY    0.079434  -0.030598   0.011211   0.023873   0.028757
   12  C  1 ZZ    0.006359   0.040928   0.017241  -0.100310   0.021452
   13  C  1 XY   -0.009366   0.027117   0.035273  -0.039536  -0.073861
   14  C  1 XZ   -0.063977  -0.009671  -0.030503  -0.121428   0.055851
   15  C  1 YZ   -0.010994   0.007667  -0.008827  -0.038814   0.006966
   16  C  2  S   -0.012711   0.016174   0.051103   0.013399   0.018115
   17  C  2  S   -0.666866  -0.023024  -0.941174   0.719739   1.023228
   18  C  2  X    0.330854   0.079790   0.172475  -0.028945   0.048755
   19  C  2  Y   -0.286903  -0.738994   0.488000  -0.126019   0.008504
   20  C  2  Z   -0.029635   0.015250  -0.007744  -0.009962  -0.002627
   21  C  2  S    1.678248   0.669883   2.898001  -1.173538  -1.043239
   22  C  2  X   -0.664278  -0.383477  -0.102093   0.340963   0.359476
   23  C  2  Y    0.681116   2.781232  -0.398833   0.467342  -0.148278
   24  C  2  Z   -0.037699   0.207211   0.002615  -0.034718   0.002387
   25  C  2 XX    0.059772   0.051594   0.012829   0.051268   0.123549
   26  C  2 YY   -0.129320  -0.001899   0.092744   0.006102  -0.061005
   27  C  2 ZZ    0.069548  -0.049694  -0.105573  -0.057370  -0.062545
   28  C  2 XY    0.051862   0.042320   0.109858  -0.015780   0.132523
   29  C  2 XZ    0.030312   0.010375   0.013815   0.053330  -0.020520
   30  C  2 YZ   -0.005540  -0.018047  -0.008241  -0.030948   0.022499
   31  O  3  S    0.016309   0.009346   0.029280   0.009444   0.048856
   32  O  3  S   -0.078287   0.032405  -0.097930  -0.006552  -0.264595
   33  O  3  X   -0.130348  -0.120151  -0.346588  -0.045274  -0.554155
   34  O  3  Y    0.020537  -0.258578  -0.315179  -0.050234  -0.218875
   35  O  3  Z   -0.087101   0.004542  -0.041722  -0.218083   0.112021
   36  O  3  S   -0.273471  -0.803588  -0.607543  -0.132593  -0.024254
   37  O  3  X    0.292275   0.436695   0.775569   0.175456   1.000450
   38  O  3  Y    0.038441  -0.058126   0.506143   0.090610   0.556068
   39  O  3  Z    0.066988  -0.044610   0.049592   0.229954  -0.109880
   40  O  3 XX   -0.070388  -0.092410  -0.005794   0.002295   0.008535
   41  O  3 YY    0.028522   0.031397  -0.049030   0.018413   0.021894
   42  O  3 ZZ    0.041866   0.061013   0.054825  -0.020709  -0.030429
   43  O  3 XY    0.008502  -0.018167  -0.070975   0.014913   0.005333
   44  O  3 XZ   -0.011495   0.005875  -0.002577  -0.006618   0.001286
   45  O  3 YZ    0.004269  -0.017140  -0.000355  -0.003529   0.005692
   46  H  4  S   -0.656468   0.113758   0.716549   0.081370  -0.333986
   47  H  4  S    0.589496   1.472522  -1.569834   0.513200   0.498829
   48  H  5  S    0.102931   0.008595  -0.020955  -0.088013   0.083349
   49  H  5  S    0.276306   3.119129   0.234853   0.811169  -1.366977
   50  H  6  S   -0.426990   0.062332  -0.191570  -0.821479   0.303211
   51  H  6  S    0.126358  -1.003659   0.099043   1.710719  -0.060786
   52  H  7  S    0.139427  -0.080064   0.027812   0.017421  -0.038040
   53  H  7  S   -1.627708  -2.654463  -0.462476  -0.365080   1.466112

                     31         32         33         34         35
                    0.9875     1.0769     1.1192     1.4282     1.5311
                     A          A          A          A          A   
    1  C  1  S    0.000429   0.027734  -0.066612   0.014713  -0.004047
    2  C  1  S   -0.429095   0.726587  -1.641765   0.194169  -0.057979
    3  C  1  X    0.037622   0.054427   0.086977  -0.019865   0.001438
    4  C  1  Y    0.019406  -0.019501   0.270179  -0.109968   0.038043
    5  C  1  Z    0.156311  -0.015917   0.111639   0.049171   0.059449
    6  C  1  S    1.036547  -1.201869   5.299333  -0.671522   0.185051
    7  C  1  X    0.117997   0.171368   0.758826   0.045943  -0.014718
    8  C  1  Y   -0.127464   0.590410  -1.796726   0.537510  -0.180537
    9  C  1  Z   -0.089250   0.145210  -0.468447   0.409754  -0.449141
   10  C  1 XX   -0.011106   0.008968   0.061980   0.002521   0.004268
   11  C  1 YY    0.013433  -0.040496   0.126226  -0.004375   0.006135
   12  C  1 ZZ   -0.002327   0.031528  -0.188206   0.001854  -0.010403
   13  C  1 XY    0.008407  -0.068418   0.022921  -0.025964   0.017617
   14  C  1 XZ    0.028194   0.042525  -0.102608  -0.299707   0.140011
   15  C  1 YZ    0.047149   0.014082  -0.000542   0.500635  -0.111792
   16  C  2  S    0.002265  -0.007328   0.030833  -0.006074   0.001876
   17  C  2  S    0.135779  -0.256444   0.741792  -0.099579   0.024735
   18  C  2  X   -0.018737  -0.086551  -0.118461  -0.001679   0.011707
   19  C  2  Y    0.023128   0.258486   0.104301   0.010788  -0.006973
   20  C  2  Z    0.114200   0.000169  -0.026600  -0.051843  -0.184620
   21  C  2  S   -0.487553   1.137834  -3.232749   0.400226  -0.043703
   22  C  2  X    0.236845   0.237944   2.084938  -0.316155   0.109205
   23  C  2  Y   -0.199378  -1.428007  -0.922561  -0.145112   0.082587
   24  C  2  Z   -0.575377  -0.053249   0.342039  -0.014487   0.232722
   25  C  2 XX   -0.007158   0.146825  -0.004776  -0.042029  -0.000539
   26  C  2 YY    0.013894  -0.175493   0.078324  -0.011354   0.028967
   27  C  2 ZZ   -0.006736   0.028667  -0.073548   0.053383  -0.028428
   28  C  2 XY    0.014103  -0.064391  -0.025039   0.016304  -0.017775
   29  C  2 XZ   -0.054989  -0.023055   0.096961   0.554970   0.114220
   30  C  2 YZ    0.014752   0.022699  -0.064391  -0.096227   0.715446
   31  O  3  S    0.003801  -0.004903   0.008426   0.000036  -0.001221
   32  O  3  S   -0.044856   0.080430  -0.111100  -0.039017   0.058577
   33  O  3  X   -0.001023   0.337498   0.245097  -0.022294   0.003747
   34  O  3  Y   -0.026091  -0.650714  -0.289107   0.010202  -0.005450
   35  O  3  Z   -0.900627  -0.019948   0.095378  -0.080650  -0.082377
   36  O  3  S    0.088198  -0.064617   0.097318   0.161016  -0.152910
   37  O  3  X   -0.025741  -0.590152  -0.553982   0.017251   0.037612
   38  O  3  Y    0.064986   1.207721   0.649697  -0.052725   0.026314
   39  O  3  Z    1.238588   0.041757  -0.222293  -0.082550  -0.119064
   40  O  3 XX    0.012527  -0.100605   0.021818   0.017309   0.028776
   41  O  3 YY    0.001080   0.077869   0.065637  -0.021045   0.006616
   42  O  3 ZZ   -0.013607   0.022736  -0.087456   0.003736  -0.035391
   43  O  3 XY   -0.002625   0.061149   0.018458  -0.006777  -0.004356
   44  O  3 XZ    0.031250  -0.003136  -0.005296  -0.170771  -0.498329
   45  O  3 YZ    0.022528   0.014098  -0.047689  -0.258625   0.071522
   46  H  4  S   -0.012561  -0.299833   0.186054  -0.049920   0.012269
   47  H  4  S   -0.028833  -0.731221  -0.249914  -0.113089   0.041338
   48  H  5  S   -0.037447   0.120845  -0.219394   0.281968  -0.142147
   49  H  5  S   -0.291490  -1.134437   3.351224  -2.506642   0.914405
   50  H  6  S    0.198139   0.227464  -0.467612   0.245537  -0.104276
   51  H  6  S   -0.536193   0.307084  -0.781559   0.194115  -0.225613
   52  H  7  S   -0.033316  -0.019671  -0.017830  -0.356275   0.201413
   53  H  7  S    0.328177   1.447752  -3.900537   2.521632  -0.755470

                     36         37         38         39         40
                    1.5994     1.6692     1.7216     1.7943     1.8063
                     A          A          A          A          A   
    1  C  1  S    0.009018   0.029131   0.021343  -0.004328   0.006568
    2  C  1  S    0.158982   0.040188   0.585770   0.338860  -0.158487
    3  C  1  X   -0.019094  -0.157973   0.172718   0.180818  -0.104988
    4  C  1  Y   -0.007409   0.034811  -0.021373  -0.057241   0.008131
    5  C  1  Z   -0.008244   0.017218   0.056653   0.049160   0.067248
    6  C  1  S   -0.573832  -1.050752  -1.239101  -0.300366   0.042487
    7  C  1  X    0.104618  -0.195438   0.055057  -0.199499   0.242562
    8  C  1  Y    0.354482   0.396054   0.479811   0.029901   0.094861
    9  C  1  Z   -0.078090  -0.028899  -0.006684  -0.298012  -0.234318
   10  C  1 XX   -0.090085   0.510267   0.109799  -0.203230   0.285147
   11  C  1 YY    0.030200  -0.284286   0.374829   0.181698  -0.027705
   12  C  1 ZZ    0.059885  -0.225981  -0.484628   0.021532  -0.257442
   13  C  1 XY   -0.228962   0.232092   0.542287   0.037615   0.160341
   14  C  1 XZ    0.044763   0.011426   0.020363  -0.179086  -0.243868
   15  C  1 YZ    0.026625  -0.005734  -0.158705   0.265700   0.312120
   16  C  2  S   -0.015360  -0.015111  -0.014385  -0.018583   0.012808
   17  C  2  S   -0.091248  -0.535287   0.048586   0.032876  -0.023448
   18  C  2  X   -0.073161   0.075916  -0.146419   0.014642  -0.051489
   19  C  2  Y    0.002429  -0.050296   0.003797  -0.074716   0.054484
   20  C  2  Z   -0.007131   0.004904  -0.022094   0.055178   0.065421
   21  C  2  S   -1.792223   1.329737  -0.326297   0.518946  -0.456079
   22  C  2  X   -1.510751  -0.962687  -0.715089   0.323274  -0.372948
   23  C  2  Y   -0.883265  -0.316952  -0.959426  -0.231128  -0.123107
   24  C  2  Z   -0.000183  -0.034453  -0.050394   0.176910   0.142798
   25  C  2 XX   -0.022130   0.079771  -0.246454  -0.177842   0.071738
   26  C  2 YY    0.062208   0.252950   0.134471   0.310977  -0.177624
   27  C  2 ZZ   -0.040077  -0.332721   0.111982  -0.133135   0.105886
   28  C  2 XY   -0.248194  -0.312160   0.057698   0.198688  -0.147991
   29  C  2 XZ   -0.032808   0.034378   0.063493  -0.126622  -0.103693
   30  C  2 YZ    0.036733  -0.039055  -0.038890  -0.007759  -0.045668
   31  O  3  S    0.035900  -0.012826   0.003564   0.004701  -0.005656
   32  O  3  S   -1.601531   0.062776  -0.522210   0.049837  -0.102098
   33  O  3  X    0.115095  -0.185513   0.014045   0.154253  -0.138740
   34  O  3  Y    0.098521  -0.006679  -0.093625  -0.128970   0.066616
   35  O  3  Z    0.005655  -0.007491  -0.013790   0.057453   0.047865
   36  O  3  S    3.694810   0.291213   1.534173  -0.349013   0.555546
   37  O  3  X   -1.104683   0.131117  -0.462622  -0.072473  -0.021191
   38  O  3  Y   -0.682826  -0.070370  -0.072483   0.283509  -0.206919
   39  O  3  Z   -0.030799   0.009001   0.004518  -0.086465  -0.078199
   40  O  3 XX   -0.136753   0.019765   0.017176   0.410353  -0.304193
   41  O  3 YY    0.120900   0.448006  -0.237782  -0.065828   0.002640
   42  O  3 ZZ    0.015853  -0.467771   0.220606  -0.344525   0.301552
   43  O  3 XY   -0.177899  -0.160413  -0.014685  -0.367451   0.272983
   44  O  3 XZ   -0.013422   0.029871   0.013469  -0.073634  -0.181437
   45  O  3 YZ    0.026648  -0.048382  -0.147916   0.477416   0.628146
   46  H  4  S    0.063145  -0.368928  -0.318764  -0.387205   0.183902
   47  H  4  S   -0.160316  -0.278513  -0.222442  -0.062199  -0.050917
   48  H  5  S    0.325399  -0.194059  -0.651010   0.264472  -0.046938
   49  H  5  S   -0.453338   0.465383   1.784190  -0.009005   0.069106
   50  H  6  S    0.009416   0.136890   0.284978  -0.053152   0.065410
   51  H  6  S    0.092951   0.009509   0.254656  -0.064863  -0.081360
   52  H  7  S   -0.254226   0.280229   0.808343  -0.245684   0.083648
   53  H  7  S    0.610145  -0.421486  -1.495757   0.179148   0.068681

                     41         42         43         44         45
                    1.9380     1.9985     2.0666     2.2390     2.3315
                     A          A          A          A          A   
    1  C  1  S    0.044219  -0.021507  -0.002916  -0.010696   0.034671
    2  C  1  S    0.282238  -0.166133   0.137258  -0.028590   0.282537
    3  C  1  X   -0.075459  -0.010893   0.048361  -0.008339  -0.105267
    4  C  1  Y    0.120570  -0.063300  -0.014125  -0.021539   0.025628
    5  C  1  Z    0.023994  -0.039230  -0.008699  -0.044742  -0.022920
    6  C  1  S   -1.643912   0.786884  -0.256770   0.231609  -1.471080
    7  C  1  X   -0.343877   0.308254  -0.329548   0.004794  -0.755542
    8  C  1  Y    0.100879  -0.171190  -0.037330  -0.128060   0.333967
    9  C  1  Z   -0.290944  -0.684457  -0.345137  -0.211607  -0.005643
   10  C  1 XX   -0.121984   0.235501  -0.280232  -0.031638  -0.344159
   11  C  1 YY    0.743735  -0.133461   0.104934   0.013720  -0.017656
   12  C  1 ZZ   -0.621751  -0.102040   0.175298   0.017918   0.361815
   13  C  1 XY   -0.299779   0.055694   0.412856   0.109947   0.437717
   14  C  1 XZ    0.183677   0.320893   0.016337   0.934903  -0.020646
   15  C  1 YZ    0.202583   0.591037   0.290490   0.143419   0.005074
   16  C  2  S   -0.023496   0.007811   0.008583   0.006634  -0.081241
   17  C  2  S   -0.354970   0.010172   0.278057   0.062412  -0.233838
   18  C  2  X    0.225123   0.043208  -0.277489  -0.031159  -0.205442
   19  C  2  Y    0.025552  -0.077885   0.153633   0.000648   0.178556
   20  C  2  Z    0.009888   0.013786   0.004336  -0.090229  -0.017369
   21  C  2  S    1.674958  -0.440166  -0.350255  -0.202977   1.621045
   22  C  2  X   -0.216884   0.262738  -0.200422   0.089678  -0.463341
   23  C  2  Y    1.255362  -0.519678   0.346576  -0.009534   0.711325
   24  C  2  Z    0.070307   0.359635   0.161128  -0.086589  -0.048266
   25  C  2 XX    0.430989  -0.084420  -0.178448  -0.104951   0.422551
   26  C  2 YY   -0.209308   0.272756  -0.363024  -0.015568   0.323878
   27  C  2 ZZ   -0.221681  -0.188336   0.541472   0.120519  -0.746429
   28  C  2 XY    0.134229  -0.064847   0.004907  -0.001910   0.466704
   29  C  2 XZ   -0.035568  -0.265112  -0.168569   0.254370   0.034630
   30  C  2 YZ    0.075866   0.372187   0.234654  -0.492735  -0.028567
   31  O  3  S    0.015797  -0.003429  -0.008271  -0.003504   0.028148
   32  O  3  S    0.173514   0.003772   0.011669   0.043304  -0.337762
   33  O  3  X    0.128176  -0.002255  -0.137851  -0.038764   0.329411
   34  O  3  Y    0.219138  -0.077481  -0.006363  -0.030523   0.247916
   35  O  3  Z    0.018375   0.057207   0.026384  -0.029943   0.002917
   36  O  3  S   -1.188248   0.147433   0.245818   0.004377  -0.284281
   37  O  3  X    0.451184  -0.117194   0.045684   0.000477   0.100355
   38  O  3  Y   -0.147714   0.146486  -0.190300   0.012414  -0.328556
   39  O  3  Z   -0.028666  -0.160549  -0.083109   0.104280   0.024064
   40  O  3 XX    0.014835   0.029152  -0.204740  -0.009738  -0.320886
   41  O  3 YY    0.154489  -0.320173   0.583541   0.054353   0.299316
   42  O  3 ZZ   -0.169323   0.291021  -0.378801  -0.044616   0.021570
   43  O  3 XY   -0.007192   0.090094  -0.053762  -0.008556   0.395142
   44  O  3 XZ    0.091170   0.319332   0.181236  -0.325551  -0.042269
   45  O  3 YZ   -0.045960  -0.219357  -0.115959   0.179073   0.000250
   46  H  4  S    0.276437  -0.260054   0.387600   0.017151  -0.151463
   47  H  4  S    0.274141  -0.146396   0.135872   0.015518   0.170737
   48  H  5  S    0.046029   0.692112   0.044433   0.445259   0.200900
   49  H  5  S    0.289568  -0.127879   0.456858   0.135714  -0.335714
   50  H  6  S    0.254736  -0.534103  -0.300320  -0.519958  -0.075587
   51  H  6  S   -0.000268  -0.156807  -0.050736   0.048981   0.079794
   52  H  7  S    0.461507  -0.400349  -0.022680  -0.089464  -0.262501
   53  H  7  S   -0.136018   0.245177  -0.363877  -0.210411   0.393659

                     46         47         48         49         50
                    2.5141     2.5664     2.7871     2.8564     2.9456
                     A          A          A          A          A   
    1  C  1  S    0.052034   0.000393   0.006756   0.031204  -0.013668
    2  C  1  S    0.098494   0.005594  -0.005787  -0.095461   0.070104
    3  C  1  X   -0.272158  -0.006225  -0.055263  -0.204939   0.099179
    4  C  1  Y    0.065117   0.025001   0.145981   0.136203  -0.040638
    5  C  1  Z   -0.013403   0.033415   0.035881  -0.023534   0.018353
    6  C  1  S   -1.541810  -0.021937  -0.100055  -0.268709   0.125547
    7  C  1  X   -0.863659  -0.016617  -0.095790  -0.201877   0.177029
    8  C  1  Y    0.239989  -0.003674  -0.042874   0.157399   0.011135
    9  C  1  Z   -0.029242   0.004109  -0.090305  -0.036800  -0.034358
   10  C  1 XX   -0.758601  -0.052104  -0.225032  -0.162758   0.051038
   11  C  1 YY    0.522351  -0.058996  -0.224115  -0.014719  -0.010297
   12  C  1 ZZ    0.236249   0.111100   0.449147   0.177477  -0.040742
   13  C  1 XY    0.121317  -0.030166  -0.055294   0.554542  -0.231892
   14  C  1 XZ   -0.061966   0.171162   0.049244  -0.020746   0.016453
   15  C  1 YZ   -0.020235  -0.064413   0.418962  -0.060044   0.043391
   16  C  2  S   -0.029408  -0.002203  -0.010081  -0.043943  -0.027998
   17  C  2  S   -0.058689   0.012568   0.139181  -0.402628  -1.299601
   18  C  2  X   -0.227788  -0.009148   0.034701  -0.421459  -1.070641
   19  C  2  Y    0.052325   0.011853   0.053256  -0.193091  -0.646878
   20  C  2  Z   -0.007610   0.240648  -0.036109  -0.006599  -0.025041
   21  C  2  S    1.725696  -0.004452   0.071047   0.120234  -1.771046
   22  C  2  X   -0.734452  -0.029394  -0.064093  -0.362485  -0.684681
   23  C  2  Y    0.876484  -0.012693  -0.147740  -0.487043  -0.533979
   24  C  2  Z   -0.048529   0.244181  -0.014197   0.012326  -0.004825
   25  C  2 XX   -0.138035  -0.024500   0.339046   0.817080  -0.698762
   26  C  2 YY    0.421353   0.022025  -0.165459  -0.763839   0.256818
   27  C  2 ZZ   -0.283318   0.002475  -0.173587  -0.053241   0.441944
   28  C  2 XY   -0.873956   0.006100  -0.090718  -0.573445  -0.395837
   29  C  2 XZ    0.024718   0.887125  -0.166315   0.081560  -0.058381
   30  C  2 YZ   -0.043500   0.400993  -0.107331   0.016971  -0.017628
   31  O  3  S   -0.020601   0.001040   0.006537  -0.012956  -0.060746
   32  O  3  S    0.590280  -0.023832  -0.079308  -0.338426  -0.683475
   33  O  3  X   -0.350503   0.013922   0.061969  -0.026480  -0.242859
   34  O  3  Y   -0.151595   0.005126   0.035596   0.035533  -0.166811
   35  O  3  Z   -0.009164  -0.005614   0.020950  -0.005264  -0.001179
   36  O  3  S   -0.758829   0.034993   0.056579   1.063296   3.082460
   37  O  3  X    0.515910  -0.000620  -0.053488  -0.690552  -1.510230
   38  O  3  Y   -0.015952  -0.008139   0.129400   0.030231  -0.954121
   39  O  3  Z    0.018751  -0.454457   0.052103  -0.036270  -0.028585
   40  O  3 XX   -0.164578  -0.047380   0.112996   0.845818   0.724138
   41  O  3 YY    0.011469   0.008893  -0.180795  -0.638108  -0.020075
   42  O  3 ZZ    0.153109   0.038487   0.067799  -0.207710  -0.704063
   43  O  3 XY    0.125604  -0.007559  -0.184182  -0.055492   1.146259
   44  O  3 XZ   -0.012514   0.832075  -0.136221   0.066022   0.018491
   45  O  3 YZ    0.006988   0.533185  -0.090759   0.026657   0.012915
   46  H  4  S   -0.250503  -0.012585   0.008276   0.261625  -0.035624
   47  H  4  S    0.340288   0.005940  -0.047554  -0.407460   0.027604
   48  H  5  S    0.092471  -0.575443  -2.808165   0.709861  -0.457754
   49  H  5  S   -0.093023   0.549272   2.928186  -0.519323   0.676221
   50  H  6  S    0.062269  -0.046208  -0.210212  -0.075496   0.004784
   51  H  6  S   -0.044391   0.054945   0.100590  -0.012167   0.023942
   52  H  7  S   -0.059033   0.582923   2.784303  -0.779868   0.482685
   53  H  7  S    0.061216  -0.584599  -2.913394   0.551636  -0.637009
 ...... END OF RHF CALCULATION ......
 STEP CPU TIME =     6.51 TOTAL CPU TIME =          6.7 (      0.1 MIN)
 TOTAL WALL CLOCK TIME=          6.7 SECONDS, CPU UTILIZATION IS    99.40%

     ---------------------------------------------------------------------
     PROPERTIES FOR THE B3LYP    DFT FUNCTIONAL (RHF  TYPE) DENSITY MATRIX
     ---------------------------------------------------------------------

          -----------------
          ENERGY COMPONENTS
          -----------------

         WAVEFUNCTION NORMALIZATION =       1.0000000000

                ONE ELECTRON ENERGY =    -346.1725788435
                TWO ELECTRON ENERGY =     122.3672020321
           NUCLEAR REPULSION ENERGY =      71.4904760923
                                      ------------------
                       TOTAL ENERGY =    -152.3149007191

 ELECTRON-ELECTRON POTENTIAL ENERGY =     122.3672020321
  NUCLEUS-ELECTRON POTENTIAL ENERGY =    -499.7648985069
   NUCLEUS-NUCLEUS POTENTIAL ENERGY =      71.4904760923
                                      ------------------
             TOTAL POTENTIAL ENERGY =    -305.9072203826
               TOTAL KINETIC ENERGY =     153.5923196635
                 VIRIAL RATIO (V/T) =       1.9916830545

          ---------------------------------------
          MULLIKEN AND LOWDIN POPULATION ANALYSES
          ---------------------------------------

     ATOMIC MULLIKEN POPULATION IN EACH MOLECULAR ORBITAL

                      1          2          3          4          5

                  2.000000   2.000000   2.000000   2.000000   2.000000

    1            -0.000028   0.001239   1.995856   0.028153   0.474664
    2             0.002242   2.000582   0.001698   0.522063   0.078601
    3             1.997758  -0.002761   0.000011   1.427819   0.044670
    4             0.000029   0.000897   0.000009  -0.001760  -0.000089
    5            -0.000001   0.000061  -0.000783   0.011476   0.637413
    6            -0.000001   0.000018   0.001205   0.000526   0.013317
    7             0.000000  -0.000036   0.002005   0.011723   0.751426

                      6          7          8          9         10

                  2.000000   2.000000   2.000000   2.000000   2.000000

    1             0.628227   0.501571   0.476992   0.272211   0.073199
    2             0.842939   0.616032   0.540722   0.423722   0.659705
    3             0.181829   0.280778   0.564595   1.163924   1.197000
    4             0.120959   0.301782   0.159755   0.024420   0.000872
    5             0.078063   0.022050   0.002573   0.000220   0.004973
    6             0.084200   0.265539   0.247942   0.114418   0.063663
    7             0.063784   0.012248   0.007422   0.001086   0.000587

                     11         12

                  2.000000   2.000000

    1             0.252155   1.629117
    2             0.070374   0.100446
    3             1.423066   0.021112
    4             0.198840   0.102076
    5             0.003220   0.180401
    6             0.031834   0.003935
    7             0.020511  -0.037088

               ----- POPULATIONS IN EACH AO -----
                             MULLIKEN      LOWDIN
              1  C  1  S      1.99658     1.98005
              2  C  1  S      0.69618     0.38982
              3  C  1  X      0.60193     0.53669
              4  C  1  Y      0.93506     0.89581
              5  C  1  Z      0.46309     0.40634
              6  C  1  S      0.66807     0.36583
              7  C  1  X      0.21235     0.33864
              8  C  1  Y      0.62511     0.80253
              9  C  1  Z      0.10262     0.29253
             10  C  1 XX      0.00453     0.16963
             11  C  1 YY      0.00250     0.12623
             12  C  1 ZZ      0.00912     0.18287
             13  C  1 XY      0.01000     0.01488
             14  C  1 XZ      0.00621     0.03284
             15  C  1 YZ      0.00000     0.01079
             16  C  2  S      1.99650     1.97447
             17  C  2  S      0.70349     0.36386
             18  C  2  X      0.73727     0.64141
             19  C  2  Y      0.74672     0.64662
             20  C  2  Z      0.46479     0.41925
             21  C  2  S      0.47728     0.31602
             22  C  2  X      0.12340     0.28624
             23  C  2  Y      0.22533     0.38314
             24  C  2  Z      0.29679     0.33175
             25  C  2 XX      0.00469     0.22206
             26  C  2 YY      0.04264     0.19393
             27  C  2 ZZ      0.02705     0.10392
             28  C  2 XY      0.01001     0.05498
             29  C  2 XZ      0.00317     0.01829
             30  C  2 YZ      0.00000     0.00532
             31  O  3  S      1.99732     1.97779
             32  O  3  S      0.93418     0.72591
             33  O  3  X      0.99984     0.93570
             34  O  3  Y      1.10692     1.05829
             35  O  3  Z      0.73870     0.68724
             36  O  3  S      0.92691     0.46908
             37  O  3  X      0.48528     0.56506
             38  O  3  Y      0.59469     0.65769
             39  O  3  Z      0.48798     0.52610
             40  O  3 XX      0.00222     0.18413
             41  O  3 YY      0.00729     0.17317
             42  O  3 ZZ      0.00715     0.17432
             43  O  3 XY      0.00830     0.01575
             44  O  3 XZ      0.00302     0.01108
             45  O  3 YZ      0.00000     0.00397
             46  H  4  S      0.53609     0.50757
             47  H  4  S      0.37169     0.39747
             48  H  5  S      0.77643     0.63789
             49  H  5  S      0.16323     0.16053
             50  H  6  S      0.50989     0.45856
             51  H  6  S      0.31671     0.34864
             52  H  7  S      0.80256     0.66325
             53  H  7  S      0.03110     0.15408

          ----- MULLIKEN ATOMIC OVERLAP POPULATIONS -----
          (OFF-DIAGONAL ELEMENTS NEED TO BE MULTIPLIED BY 2)

             1           2           3           4           5

    1    5.7506256
    2    0.3755203   4.6009921
    3   -0.0642481   0.5510900   7.8858970
    4   -0.1555044   0.3538268  -0.0762411   0.7780339
    5    0.4697814   0.0259705  -0.0213890   0.0274176   1.7801635
    6    0.3413197  -0.0323482   0.0026450   0.0057169  -0.0909510
    7   -0.3841387  -0.0159251   0.0220463  -0.0254615  -1.2513282

             6           7

    6    0.5204860
    7    0.0797294   2.4087449

          TOTAL MULLIKEN AND LOWDIN ATOMIC POPULATIONS
       ATOM         MULL.POP.    CHARGE          LOW.POP.     CHARGE
    1 C             6.333356   -0.333356         6.545471   -0.545471
    2 C             5.859126    0.140874         5.961254    0.038746
    3 O             8.299800   -0.299800         8.165287   -0.165287
    4 H             0.907788    0.092212         0.905043    0.094957
    5 H             0.939665    0.060335         0.798412    0.201588
    6 H             0.826598    0.173402         0.807199    0.192801
    7 H             0.833667    0.166333         0.817335    0.182665

          MULLIKEN SPHERICAL HARMONIC POPULATIONS
       ATOM           S       P       D      F      G      H      I    TOTAL
    1 C             3.36    2.94    0.03   0.00   0.00   0.00   0.00    6.33
    2 C             3.18    2.59    0.09   0.00   0.00   0.00   0.00    5.86
    3 O             3.86    4.41    0.03   0.00   0.00   0.00   0.00    8.30
    4 H             0.91    0.00    0.00   0.00   0.00   0.00   0.00    0.91
    5 H             0.94    0.00    0.00   0.00   0.00   0.00   0.00    0.94
    6 H             0.83    0.00    0.00   0.00   0.00   0.00   0.00    0.83
    7 H             0.83    0.00    0.00   0.00   0.00   0.00   0.00    0.83

          -------------------------------
          BOND ORDER AND VALENCE ANALYSIS     BOND ORDER THRESHOLD=0.050
          -------------------------------

                   BOND                       BOND                       BOND
  ATOM PAIR DIST  ORDER      ATOM PAIR DIST  ORDER      ATOM PAIR DIST  ORDER
    1   2  1.509  1.116        1   5  1.093  0.640        1   6  1.098  0.929
    2   3  1.211  2.033        2   4  1.115  0.880        5   7  0.206  0.589

                       TOTAL       BONDED        FREE
      ATOM            VALENCE     VALENCE     VALENCE
    1 C                 2.756       2.756      -0.000
    2 C                 4.041       4.041      -0.000
    3 O                 2.107       2.107       0.000
    4 H                 0.918       0.918       0.000
    5 H                 1.235       1.235      -0.000
    6 H                 0.942       0.942      -0.000
    7 H                 0.660       0.660      -0.000

          ---------------------
          ELECTROSTATIC MOMENTS
          ---------------------

 POINT   1           X           Y           Z (BOHR)    CHARGE
                -0.000000   -0.000000   -0.000000       -0.00 (A.U.)
         DX          DY          DZ         /D/  (DEBYE)
    -2.901116   -2.478316    0.935928    3.928675
 ...... END OF PROPERTY EVALUATION ......
 STEP CPU TIME =     0.00 TOTAL CPU TIME =          6.7 (      0.1 MIN)
 TOTAL WALL CLOCK TIME=          6.7 SECONDS, CPU UTILIZATION IS    99.26%
                580000  WORDS OF DYNAMIC MEMORY USED
 EXECUTION OF GAMESS TERMINATED NORMALLY Thu Oct 17 23:39:25 2019
 DDI: 263640 bytes (0.3 MB / 0 MWords) used by master data server.

 ----------------------------------------
 CPU timing information for all processes
 ========================================
 0: 6.145 + 0.536 = 6.681
 ----------------------------------------
 ddikick.x: exited gracefully.
----- accounting info -----
Files used on the master node crcfe01.crc.nd.edu were:
-rw-r--r-- 1 cdrisko campus      491 Oct 17 23:39 /afs/crc.nd.edu/user/c/cdrisko/acetaldehyde.F05
-rw-r--r-- 1 cdrisko campus    45118 Oct 17 23:39 /afs/crc.nd.edu/user/c/cdrisko/acetaldehyde.F07
-rw-r--r-- 1 cdrisko campus 11881056 Oct 17 23:39 /afs/crc.nd.edu/user/c/cdrisko/acetaldehyde.F08
-rw-r--r-- 1 cdrisko campus  1701440 Oct 17 23:39 /afs/crc.nd.edu/user/c/cdrisko/acetaldehyde.F10
Thu Oct 17 23:39:28 EDT 2019
0.328u 0.200s 0:10.23 5.0%	0+0k 0+24io 0pf+0w
