----- GAMESS execution script 'rungms' -----
This job is running on host crcfe02.crc.nd.edu
under operating system Linux at Wed Oct 16 08:12:16 EDT 2019
Available scratch disk space (Kbyte units) at beginning of the job is
Filesystem      1K-blocks  Used  Available Use% Mounted on
AFS            2147483647     0 2147483647   0% /afs
GAMESS temporary binary files will be written to /afs/crc.nd.edu/user/c/cdrisko
GAMESS supplementary output files will be written to /afs/crc.nd.edu/user/c/cdrisko/scr
Copying input file acetaldehyde_opt.inp to your run's scratch directory...

 Distributed Data Interface kickoff program.
 Initiating 1 compute processes on 1 nodes to run the following command:
 /afs/crc.nd.edu/x86_64_linux/g/gamess/nov-2017/gamess/gamess.00.x acetaldehyde_opt 

          ******************************************************
          *         GAMESS VERSION = 11 NOV 2017 (R3)         *
          *             FROM IOWA STATE UNIVERSITY             *
          * M.W.SCHMIDT, K.K.BALDRIDGE, J.A.BOATZ, S.T.ELBERT, *
          *   M.S.GORDON, J.H.JENSEN, S.KOSEKI, N.MATSUNAGA,   *
          *          K.A.NGUYEN, S.J.SU, T.L.WINDUS,           *
          *       TOGETHER WITH M.DUPUIS, J.A.MONTGOMERY       *
          *         J.COMPUT.CHEM.  14, 1347-1363(1993)        *
          **************** 64 BIT INTEL VERSION ****************

  SINCE 1993, STUDENTS AND POSTDOCS WORKING AT IOWA STATE UNIVERSITY
  AND ALSO IN THEIR VARIOUS JOBS AFTER LEAVING ISU HAVE MADE IMPORTANT
  CONTRIBUTIONS TO THE CODE:
     IVANA ADAMOVIC, CHRISTINE AIKENS, YURI ALEXEEV, POOJA ARORA,
     ANDREY ASADCHEV, ROB BELL, PRADIPTA BANDYOPADHYAY, JONATHAN BENTZ,
     BRETT BODE, KURT BRORSEN, CALEB CARLIN, GALINA CHABAN, WEI CHEN,
     CHEOL HO CHOI, PAUL DAY, ALBERT DEFUSCO, NUWAN DESILVA, TIM DUDLEY,
     DMITRI FEDOROV, ALEX FINDLATER, GRAHAM FLETCHER, MARK FREITAG,
     KURT GLAESEMANN, ANASTASIA GUININA,
     DAN KEMP, GRANT MERRILL, NORIYUKI MINEZAWA, JONATHAN MULLIN,
     TAKESHI NAGATA, SEAN NEDD, HEATHER NETZLOFF, BOSILJKA NJEGIC, RYAN OLSON,
     MIKE PAK, BUU PHAM,
     SPENCER PRUITT, LUKE ROSKOP, JIM SHOEMAKER, LYUDMILA SLIPCHENKO,
     TONY SMITH, SAROM SOK LEANG, JIE SONG, TETSUYA TAKETSUGU, SIMON WEBB,
     PENG XU, SOOHAENG YOO, FEDERICO ZAHARIEV

  ADDITIONAL CODE HAS BEEN PROVIDED BY COLLABORATORS IN OTHER GROUPS:
     IOWA STATE UNIVERSITY:
          JOE IVANIC, AARON WEST, LAIMUTIS BYTAUTAS, KLAUS RUEDENBERG
     UNIVERSITY OF TOKYO: KIMIHIKO HIRAO, TAKAHITO NAKAJIMA,
          TAKAO TSUNEDA, MUNEAKI KAMIYA, SUSUMU YANAGISAWA,
          KIYOSHI YAGI, MAHITO CHIBA, SEIKEN TOKURA, NAOAKI KAWAKAMI
     UNIVERSITY OF AARHUS: FRANK JENSEN
     UNIVERSITY OF IOWA: VISVALDAS KAIRYS, HUI LI
     NATIONAL INST. OF STANDARDS AND TECHNOLOGY: WALT STEVENS, DAVID GARMER
     UNIVERSITY OF PISA: BENEDETTA MENNUCCI, JACOPO TOMASI
     UNIVERSITY OF MEMPHIS: HENRY KURTZ, PRAKASHAN KORAMBATH
     UNIVERSITY OF ALBERTA: TOBY ZENG, MARIUSZ KLOBUKOWSKI
     UNIVERSITY OF NEW ENGLAND: MARK SPACKMAN
     MIE UNIVERSITY: HIROAKI UMEDA
     NAT. INST. OF ADVANCED INDUSTRIAL SCIENCE AND TECHNOLOGY: KAZUO KITAURA
     MICHIGAN STATE UNIVERSITY:
          KAROL KOWALSKI, MARTA WLOCH, JEFFREY GOUR, JESSE LUTZ,
          WEI LI, PIOTR PIECUCH
     UNIVERSITY OF SILESIA: MONIKA MUSIAL, STANISLAW KUCHARSKI
     FACULTES UNIVERSITAIRES NOTRE-DAME DE LA PAIX:
          OLIVIER QUINET, BENOIT CHAMPAGNE
     UNIVERSITY OF CALIFORNIA - SANTA BARBARA: BERNARD KIRTMAN
     INSTITUTE FOR MOLECULAR SCIENCE:
          KAZUYA ISHIMURA, MICHIO KATOUDA, AND SHIGERU NAGASE
     UNIVERSITY OF NOTRE DAME: ANNA POMOGAEVA, DAN CHIPMAN
     KYUSHU UNIVERSITY:
          HARUYUKI NAKANO,
          FENG LONG GU, JACEK KORCHOWIEC, MARCIN MAKOWSKI, AND YURIKO AOKI,
          HIROTOSHI MORI AND EISAKU MIYOSHI
     PENNSYLVANIA STATE UNIVERSITY:
          TZVETELIN IORDANOV, CHET SWALINA, JONATHAN SKONE,
          SHARON HAMMES-SCHIFFER
     WASEDA UNIVERSITY:
          MASATO KOBAYASHI, TOMOKO AKAMA, TSUGUKI TOUMA,
          TAKESHI YOSHIKAWA, YASUHIRO IKABATA, JUNJI SEINO,
          YUYA NAKAJIMA, HIROMI NAKAI
     NANJING UNIVERSITY: SHUHUA LI
     UNIVERSITY OF NEBRASKA:
          PEIFENG SU, DEJUN SI, NANDUN THELLAMUREGE, YALI WANG, HUI LI
     UNIVERSITY OF ZURICH: ROBERTO PEVERATI, KIM BALDRIDGE
     N. COPERNICUS UNIVERSITY AND JACKSON STATE UNIVERSITY:
          MARIA BARYSZ
     UNIVERSITY OF COPENHAGEN: Jimmy Kromann, CASPER STEINMANN
     TOKYO INSTITUTE OF TECHNOLOGY: HIROYA NAKATA
     NAGOYA UNIVERSITY: YOSHIO NISHIMOTO, STEPHAN IRLE
     MOSCOW STATE UNIVERSITY: VLADIMIR MIRONOV

 EXECUTION OF GAMESS BEGUN Wed Oct 16 08:12:17 2019

            ECHO OF THE FIRST FEW INPUT CARDS -
 INPUT CARD> $CONTRL SCFTYP= RHF RUNTYP=OPTIMIZE DFTTYP=B3LYP                               
 INPUT CARD>       ICHARG=0 MULT=1 COORD=CART $END                                          
 INPUT CARD> $STATPT METHOD=QA OPTTOL=0.0001 HESS=GUESS NSTEP=50 $END                       
 INPUT CARD> $BASIS GBASIS=N31 NGAUSS=6 NDFUNC=1 $END                                       
 INPUT CARD> $DATA                                                                          
 INPUT CARD>Title Geometry Optimization of Acetaldehyde                                     
 INPUT CARD>C1 1                                                                            
 INPUT CARD>C 6 0.00000000 0.00000000 0.00000000                                            
 INPUT CARD>C 6 1.51372000 -0.00072400 -0.00000000                                          
 INPUT CARD>O 8 2.18356600 1.00553800 0.00000000                                            
 INPUT CARD>H 1 2.01855800 -0.99428200 0.00000000                                           
 INPUT CARD>H 1 -0.39900900 1.04007700 0.00000000                                           
 INPUT CARD>H 1 -0.38138900 -0.52248600 -0.90666800                                         
 INPUT CARD>H 1 -0.38138900 -0.52248600 0.90666800                                          
 INPUT CARD> $END                                                                           
    1000000 WORDS OF MEMORY AVAILABLE


                    * * * WARNING * * *
 OLD KEYWORD COORD=CART SELECTED, AUTOMATICALLY CHANGED TO COORD=PRINAXIS.
 YOUR MOLECULE'S COORDINATES WILL BE CHANGED TO PRINCIPAL AXES BY
   A) TRANSLATION TO THE CENTER OF MASS, THEN
   B) ROTATION TO HAVE A DIAGONAL MOMENT OF INERTIA TENSOR.

 HOWEVER, NOTHING ELSE IN YOUR INPUT WILL BE ROTATED IN THE SAME WAY,
 SO IF YOU HAVE A $VEC, $VIB, $GRAD, $HESS, EFP PARTICLE COORDINATES,
 OR ANYTHING ELSE THAT DEPENDS ON THE INITIAL ORIENTATION, THAT DATA
 WILL NOT BE USED CORRECTLY IN THIS RUN.

 THE PURPOSE OF COORD=PRINAXIS IS TO BE USED ONCE, ONLY AT THE VERY
 BEGINNING OF A SERIES OF COMPUTATIONS, PERHAPS TO FIND THE SYMMETRY
 UNIQUE ATOMS FROM AN ARBITRARY INITIAL ORIENTATION.

 AFTER THE FIRST RUN, YOU SHOULD USE ONLY COORD=UNIQUE, TO ENSURE THAT
 THE COORDINATES WHICH YOU READ IN ARE THE COORDINATES THAT ARE USED.


     BASIS OPTIONS
     -------------
     GBASIS=N31          IGAUSS=       6      POLAR=POPN31  
     NDFUNC=       1     NFFUNC=       0     DIFFSP=       F
     NPFUNC=       0      DIFFS=       F     BASNAM=        


     RUN TITLE
     ---------
 Title Geometry Optimization of Acetaldehyde                                     

 THE POINT GROUP OF THE MOLECULE IS C1      
 THE ORDER OF THE PRINCIPAL AXIS IS     1

 THE MOMENTS OF INERTIA ARE (AMU-ANGSTROM**2)
 IXX=     9.164   IYY=    50.001   IZZ=    55.851

 ATOM      ATOMIC                      COORDINATES (BOHR)
           CHARGE         X                   Y                   Z
 C           6.0     2.3853943079       -0.3022795574        0.0000000000
 C           6.0    -0.2505838189        0.8086538789        0.0000000000
 O           8.0    -2.1549492943       -0.4529460628        0.0000000000
 H           1.0    -0.4015271645        2.9092598608        0.0000000000
 H           1.0     2.3179089158       -2.4063288671        0.0000000000
 H           1.0     3.4326974978        0.3281686910       -1.7133540818
 H           1.0     3.4326974978        0.3281686910        1.7133540818

          INTERNUCLEAR DISTANCES (ANGS.)
          ------------------------------

                1 C          2 C          3 O          4 H          5 H     

   1 C       0.0000000    1.5137202 *  2.4039690 *  2.2501496 *  1.1139876 *
   2 C       1.5137202 *  0.0000000    1.2088246 *  1.1144590 *  2.1775672 *
   3 O       2.4039690 *  1.2088246 *  0.0000000    2.0066160 *  2.5828059 *
   4 H       2.2501496 *  1.1144590 *  2.0066160 *  0.0000000    3.1596276  
   5 H       1.1139876 *  2.1775672 *  2.5828059 *  3.1596276    0.0000000  
   6 H       1.1137756 *  2.1646525 *  3.1202401    2.6085214 *  1.8066434 *
   7 H       1.1137756 *  2.1646525 *  3.1202401    2.6085214 *  1.8066434 *

                6 H          7 H     

   1 C       1.1137756 *  1.1137756 *
   2 C       2.1646525 *  2.1646525 *
   3 O       3.1202401    3.1202401  
   4 H       2.6085214 *  2.6085214 *
   5 H       1.8066434 *  1.8066434 *
   6 H       0.0000000    1.8133360 *
   7 H       1.8133360 *  0.0000000  

  * ... LESS THAN  3.000


     ATOMIC BASIS SET
     ----------------
 THE CONTRACTED PRIMITIVE FUNCTIONS HAVE BEEN UNNORMALIZED
 THE CONTRACTED BASIS FUNCTIONS ARE NOW NORMALIZED TO UNITY

  SHELL TYPE  PRIMITIVE        EXPONENT          CONTRACTION COEFFICIENT(S)

 C         

      1   S       1          3047.5248800    0.001834737132
      1   S       2           457.3695180    0.014037322813
      1   S       3           103.9486850    0.068842622264
      1   S       4            29.2101553    0.232184443216
      1   S       5             9.2866630    0.467941348435
      1   S       6             3.1639270    0.362311985337

      2   L       7             7.8682723   -0.119332419775    0.068999066591
      2   L       8             1.8812885   -0.160854151696    0.316423960957
      2   L       9             0.5442493    1.143456437840    0.744308290898

      3   L      10             0.1687145    1.000000000000    1.000000000000

      4   D      11             0.8000000    1.000000000000

 C         

      5   S      12          3047.5248800    0.001834737132
      5   S      13           457.3695180    0.014037322813
      5   S      14           103.9486850    0.068842622264
      5   S      15            29.2101553    0.232184443216
      5   S      16             9.2866630    0.467941348435
      5   S      17             3.1639270    0.362311985337

      6   L      18             7.8682723   -0.119332419775    0.068999066591
      6   L      19             1.8812885   -0.160854151696    0.316423960957
      6   L      20             0.5442493    1.143456437840    0.744308290898

      7   L      21             0.1687145    1.000000000000    1.000000000000

      8   D      22             0.8000000    1.000000000000

 O         

      9   S      23          5484.6716600    0.001831074430
      9   S      24           825.2349460    0.013950172200
      9   S      25           188.0469580    0.068445078098
      9   S      26            52.9645000    0.232714335992
      9   S      27            16.8975704    0.470192897984
      9   S      28             5.7996353    0.358520852987

     10   L      29            15.5396162   -0.110777549525    0.070874268231
     10   L      30             3.5999336   -0.148026262701    0.339752839147
     10   L      31             1.0137618    1.130767015354    0.727158577316

     11   L      32             0.2700058    1.000000000000    1.000000000000

     12   D      33             0.8000000    1.000000000000

 H         

     13   S      34            18.7311370    0.033494604338
     13   S      35             2.8253944    0.234726953484
     13   S      36             0.6401217    0.813757326146

     14   S      37             0.1612778    1.000000000000

 H         

     15   S      38            18.7311370    0.033494604338
     15   S      39             2.8253944    0.234726953484
     15   S      40             0.6401217    0.813757326146

     16   S      41             0.1612778    1.000000000000

 H         

     17   S      42            18.7311370    0.033494604338
     17   S      43             2.8253944    0.234726953484
     17   S      44             0.6401217    0.813757326146

     18   S      45             0.1612778    1.000000000000

 H         

     19   S      46            18.7311370    0.033494604338
     19   S      47             2.8253944    0.234726953484
     19   S      48             0.6401217    0.813757326146

     20   S      49             0.1612778    1.000000000000

 TOTAL NUMBER OF BASIS SET SHELLS             =   20
 NUMBER OF CARTESIAN GAUSSIAN BASIS FUNCTIONS =   53
 NUMBER OF ELECTRONS                          =   24
 CHARGE OF MOLECULE                           =    0
 SPIN MULTIPLICITY                            =    1
 NUMBER OF OCCUPIED ORBITALS (ALPHA)          =   12
 NUMBER OF OCCUPIED ORBITALS (BETA )          =   12
 TOTAL NUMBER OF ATOMS                        =    7
 THE NUCLEAR REPULSION ENERGY IS       69.2802272799

     LEBEDEV GRID-BASED DFT OPTIONS
     ------------------------------
     DFTTYP=B3LYP   
     NRAD  =      96     NLEB  =     302
     NRAD0 =      24     NLEB0 =     110
     SWOFF =    5.00E-03 (PURE SCF -> DFT)
     SWITCH=    3.00E-04 (COARSE -> TIGHT GRID)
     THRESH=    0.00E+00 GTHRE=    1.00E+00

 GRIMME'S EMPIRICAL DISPERSION CORRECTION= F

     $CONTRL OPTIONS
     ---------------
 SCFTYP=RHF          RUNTYP=OPTIMIZE     EXETYP=RUN     
 MPLEVL=       0     CITYP =NONE         CCTYP =NONE         VBTYP =NONE    
 DFTTYP=B3LYP        TDDFT =NONE    
 MULT  =       1     ICHARG=       0     NZVAR =       0     COORD =PRINAXIS
 PP    =NONE         RELWFN=NONE         LOCAL =NONE         NUMGRD=       F
 ISPHER=      -1     NOSYM =       0     MAXIT =      30     UNITS =ANGS    
 PLTORB=       F     MOLPLT=       F     AIMPAC=       F     FRIEND=        
 NPRINT=       7     IREST =       0     GEOM  =INPUT   
 NORMF =       0     NORMP =       0     ITOL  =      20     ICUT  =       9
 INTTYP=BEST         GRDTYP=BEST         QMTTOL= 1.0E-06

     $SYSTEM OPTIONS
     ---------------
  REPLICATED MEMORY=     1000000 WORDS (ON EVERY NODE).
 DISTRIBUTED MEMDDI=           0 MILLION WORDS IN AGGREGATE,
 MEMDDI DISTRIBUTED OVER   1 PROCESSORS IS           0 WORDS/PROCESSOR.
 TOTAL MEMORY REQUESTED ON EACH PROCESSOR=     1000000 WORDS.
 TIMLIM=      525600.00 MINUTES, OR     365.0 DAYS.
 PARALL= F  BALTYP=  DLB     KDIAG=    0  COREFL= F
 MXSEQ2=     300 MXSEQ3=     150  mem10=         0

          ----------------
          PROPERTIES INPUT
          ----------------

     MOMENTS            FIELD           POTENTIAL          DENSITY
 IEMOM =       1   IEFLD =       0   IEPOT =       0   IEDEN =       0
 WHERE =COMASS     WHERE =NUCLEI     WHERE =NUCLEI     WHERE =NUCLEI  
 OUTPUT=BOTH       OUTPUT=BOTH       OUTPUT=BOTH       OUTPUT=BOTH    
 IEMINT=       0   IEFINT=       0                     IEDINT=       0
                                                       MORB  =       0
          EXTRAPOLATION IN EFFECT
          DIIS IN EFFECT
 ORBITAL PRINTING OPTION: NPREO=     1    53     2     1

     -------------------------------
     INTEGRAL TRANSFORMATION OPTIONS
     -------------------------------
     NWORD  =            0
     CUTOFF = 1.0E-09     MPTRAN =       0
     DIRTRF =       F     AOINTS =DUP     

          ----------------------
          INTEGRAL INPUT OPTIONS
          ----------------------
 NOPK  =       1 NORDER=       0 SCHWRZ=       T

     ------------------------------------------
     THE POINT GROUP IS C1 , NAXIS= 1, ORDER= 1
     ------------------------------------------

     DIMENSIONS OF THE SYMMETRY SUBSPACES ARE
 A   =   53

 ..... DONE SETTING UP THE RUN .....
 STEP CPU TIME =     0.01 TOTAL CPU TIME =          0.0 (      0.0 MIN)
 TOTAL WALL CLOCK TIME=          0.0 SECONDS, CPU UTILIZATION IS    33.33%


          -----------------------------
          STATIONARY POINT LOCATION RUN
          -----------------------------

 OBTAINING INITIAL HESSIAN, HESS=GUESS   
 CARTESIAN COORDINATE OPTIMIZATION USING BADGER'S RULE FORCE CONSTANT GUESS

          PARAMETERS CONTROLLING GEOMETRY SEARCH ARE
          METHOD =QA                  UPHESS =BFGS    
          NNEG   =         0          NFRZ   =         0
          NSTEP  =        50          IFOLOW =         1
          HESS   =GUESS               RESTAR =         F
          IHREP  =         0          HSSEND =         F
          NPRT   =         0          NPUN   =         0
          OPTTOL = 1.000E-04          RMIN   = 1.500E-03
          RMAX   = 1.000E-01          RLIM   = 7.000E-02
          DXMAX  = 3.000E-01          PURIFY =         F
          MOVIE  =         F          TRUPD  =         T
          TRMAX  = 5.000E-01          TRMIN  = 5.000E-02
          ITBMAT =         5          STPT   =         F
          STSTEP = 1.000E-02          PROJCT=          T

 BEGINNING GEOMETRY SEARCH POINT NSERCH=   0 ...

 COORDINATES OF ALL ATOMS ARE (ANGS)
   ATOM   CHARGE       X              Y              Z
 ------------------------------------------------------------
 C           6.0   1.2622963982  -0.1599594647   0.0000000000
 C           6.0  -0.1326032560   0.4279212352   0.0000000000
 O           8.0  -1.1403501398  -0.2396887515   0.0000000000
 H           1.0  -0.2124790404   1.5395141305   0.0000000000
 H           1.0   1.2265846641  -1.2733744907   0.0000000000
 H           1.0   1.8165054194   0.1736594052  -0.9066680000
 H           1.0   1.8165054194   0.1736594052   0.9066680000

          ********************
          1 ELECTRON INTEGRALS
          ********************
 ...... END OF ONE-ELECTRON INTEGRALS ......
 STEP CPU TIME =     0.01 TOTAL CPU TIME =          0.0 (      0.0 MIN)
 TOTAL WALL CLOCK TIME=          0.0 SECONDS, CPU UTILIZATION IS    66.67%

          -------------
          GUESS OPTIONS
          -------------
          GUESS =HUCKEL            NORB  =       0          NORDER=       0
          MIX   =       F          PRTMO =       F          PUNMO =       F
          TOLZ  = 1.0E-08          TOLE  = 1.0E-05
          SYMDEN=       F          PURIFY=       F

 INITIAL GUESS ORBITALS GENERATED BY HUCKEL   ROUTINE.
 HUCKEL GUESS REQUIRES     27154 WORDS.

 SYMMETRIES FOR INITIAL GUESS ORBITALS FOLLOW.   BOTH SET(S).
    12 ORBITALS ARE OCCUPIED (    3 CORE ORBITALS).
     4=A        5=A        6=A        7=A        8=A        9=A       10=A   
    11=A       12=A       13=A       14=A       15=A       16=A       17=A   
    18=A       19=A       20=A       21=A       22=A   
 ...... END OF INITIAL ORBITAL SELECTION ......
 STEP CPU TIME =     0.01 TOTAL CPU TIME =          0.0 (      0.0 MIN)
 TOTAL WALL CLOCK TIME=          0.0 SECONDS, CPU UTILIZATION IS    75.00%

                    ----------------------
                    AO INTEGRAL TECHNOLOGY
                    ----------------------
     S,P,L SHELL ROTATED AXIS INTEGRALS, REPROGRAMMED BY
        KAZUYA ISHIMURA (IMS) AND JOSE SIERRA (SYNSTAR).
     S,P,D,L SHELL ROTATED AXIS INTEGRALS PROGRAMMED BY
        KAZUYA ISHIMURA (INSTITUTE FOR MOLECULAR SCIENCE).
     S,P,D,F,G SHELL TO TOTAL QUARTET ANGULAR MOMENTUM SUM 5,
        ERIC PROGRAM BY GRAHAM FLETCHER (ELORET AND NASA ADVANCED
        SUPERCOMPUTING DIVISION, AMES RESEARCH CENTER).
     S,P,D,F,G,L SHELL GENERAL RYS QUADRATURE PROGRAMMED BY
        MICHEL DUPUIS (PACIFIC NORTHWEST NATIONAL LABORATORY).

          --------------------
          2 ELECTRON INTEGRALS
          --------------------

 THE -PK- OPTION IS OFF, THE INTEGRALS ARE NOT IN SUPERMATRIX FORM.
 STORING   15000 INTEGRALS/RECORD ON DISK, USING 12 BYTES/INTEGRAL.
 TWO ELECTRON INTEGRAL EVALUATION REQUIRES   90606 WORDS OF MEMORY.
 SCHWARZ INEQUALITY OVERHEAD:      1430 INTEGRALS, T=        0.00
 II,JST,KST,LST =  1  1  1  1 NREC =         1 INTLOC =    1
 II,JST,KST,LST =  2  1  1  1 NREC =         1 INTLOC =    2
 II,JST,KST,LST =  3  1  1  1 NREC =         1 INTLOC =   34
 II,JST,KST,LST =  4  1  1  1 NREC =         1 INTLOC =  214
 II,JST,KST,LST =  5  1  1  1 NREC =         1 INTLOC = 1189
 II,JST,KST,LST =  6  1  1  1 NREC =         1 INTLOC = 2362
 II,JST,KST,LST =  7  1  1  1 NREC =         1 INTLOC = 9256
 II,JST,KST,LST =  8  1  1  1 NREC =         2 INTLOC = 6294
 II,JST,KST,LST =  9  1  1  1 NREC =         4 INTLOC = 7020
 II,JST,KST,LST = 10  1  1  1 NREC =         4 INTLOC =14251
 II,JST,KST,LST = 11  1  1  1 NREC =         7 INTLOC = 8339
 II,JST,KST,LST = 12  1  1  1 NREC =        11 INTLOC = 3847
 II,JST,KST,LST = 13  1  1  1 NREC =        19 INTLOC =  208
 II,JST,KST,LST = 14  1  1  1 NREC =        20 INTLOC =12018
 II,JST,KST,LST = 15  1  1  1 NREC =        22 INTLOC =11025
 II,JST,KST,LST = 16  1  1  1 NREC =        24 INTLOC =11710
 II,JST,KST,LST = 17  1  1  1 NREC =        27 INTLOC =   13
 II,JST,KST,LST = 18  1  1  1 NREC =        30 INTLOC =14277
 II,JST,KST,LST = 19  1  1  1 NREC =        35 INTLOC = 4983
 II,JST,KST,LST = 20  1  1  1 NREC =        39 INTLOC =11228
 SCHWARZ INEQUALITY TEST SKIPPED         781 INTEGRAL BLOCKS.
 TOTAL NUMBER OF NONZERO TWO-ELECTRON INTEGRALS =              654514
         44 INTEGRAL RECORDS WERE STORED ON DISK FILE  8.
  ...... END OF TWO-ELECTRON INTEGRALS .....
 STEP CPU TIME =     0.11 TOTAL CPU TIME =          0.1 (      0.0 MIN)
 TOTAL WALL CLOCK TIME=          0.2 SECONDS, CPU UTILIZATION IS    87.50%

          --------------------------
             R-B3LYP SCF CALCULATION
          --------------------------

     NUCLEAR ENERGY =        69.2802272799
     MAXIT =   30     NPUNCH=    2
     EXTRAP=T  DAMP=F  SHIFT=F  RSTRCT=F  DIIS=T  DEM=F  SOSCF=F
         DENSITY MATRIX CONVERGENCE THRESHOLD=  1.00E-05
     COARSE -> FINE DFT GRID SWITCH THRESHOLD=  3.00E-04 (SWITCH IN $DFT)
                   HF -> DFT SWITCH THRESHOLD=  5.00E-03 (SWOFF IN $DFT)
     MEMORY REQUIRED FOR RHF ITERS=    307447 WORDS.

 DFT CODE IS SWITCHING FROM THE FINE GRID NRAD= 96,  NLEB=  302
                      TO THE COARSE GRID NRAD0= 24, NLEB0=  110

     EXCHANGE FUNCTIONAL   =B88&HFX   
     CORRELATION FUNCTIONAL=LYP88&VWN5
     DFT THRESHOLD         =.197E-07
     GRID CHANGE THRESHOLD =.300E-03
 FOR AN EULER-MACLAURIN QUADRATURE USING  96 RADIAL POINTS:
 SMALLEST GAUSSIAN PRIMITIVE EXPONENT=        0.1612777588 OF TYPE -S-
 ON ATOM NUMBER   4 HAS RADIAL NORMALIZATION=  1.000000
  LARGEST GAUSSIAN PRIMITIVE EXPONENT=     5484.6716600000 OF TYPE -S-
 ON ATOM NUMBER   3 HAS RADIAL NORMALIZATION=  1.000000
 DFT IS SWITCHED OFF, PERFORMING PURE SCF UNTIL SWOFF THRESHOLD IS REACHED.

 ITER EX DEM     TOTAL ENERGY        E CHANGE  DENSITY CHANGE    DIIS ERROR
   1  0  0     -152.4485496381  -152.4485496381   0.313049374   0.544300761
          * * *   INITIATING DIIS PROCEDURE   * * *
   2  1  0     -152.8574382640    -0.4088886259   0.146375955   0.127622927
   3  2  0     -152.8874647402    -0.0300264762   0.072080865   0.097126479
   4  3  0     -152.9122442833    -0.0247795431   0.009089502   0.007316726
   5  4  0     -152.9127915092    -0.0005472259   0.004300660   0.003540729
 CONVERGED TO SWOFF, SO DFT CALCULATION IS NOW SWITCHED ON.
          * * *   INITIATING DIIS PROCEDURE   * * *
   6  5  0     -153.7254543480    -0.8126628388   0.109867777   0.108008734
   7  6  0     -153.7372827341    -0.0118283861   0.058954549   0.035291209
   8  7  0     -153.7339770136     0.0033057205   0.046232805   0.051134326
   9  8  0     -153.7409441976    -0.0069671839   0.008726164   0.010823272
  10  9  0     -153.7411986762    -0.0002544786   0.000783106   0.000813242
  11 10  0     -153.7412015645    -0.0000028883   0.000321470   0.000230035
  12 11  0     -153.7412017958    -0.0000002314   0.000050331   0.000064951
 DFT CODE IS SWITCHING BACK TO THE FINE GRID
          * * *   INITIATING DIIS PROCEDURE   * * *
  13 12  0     -153.7406454296     0.0005563662   0.004406241   0.002058358
  14 13  0     -153.7406540649    -0.0000086353   0.001034630   0.000339100
  15 14  0     -153.7406532187     0.0000008462   0.000602668   0.000642938
  16 15  0     -153.7406545227    -0.0000013040   0.000044973   0.000044560
  17 16  0     -153.7406545282    -0.0000000055   0.000021237   0.000019431
  18 17  0     -153.7406545294    -0.0000000012   0.000005730   0.000005736
  19 18  0     -153.7406545296    -0.0000000002   0.000000609   0.000000755

          -----------------
          DENSITY CONVERGED
          -----------------
     TIME TO FORM FOCK OPERATORS=       4.4 SECONDS (       0.2 SEC/ITER)
     TIME TO SOLVE SCF EQUATIONS=       0.0 SECONDS (       0.0 SEC/ITER)

 FINAL R-B3LYP ENERGY IS     -153.7406545296 AFTER  19 ITERATIONS
 DFT EXCHANGE + CORRELATION ENERGY =       -16.7916831882
 TOTAL ELECTRON NUMBER             =        24.0001015713

          ------------
          EIGENVECTORS
          ------------

                      1          2          3          4          5
                  -19.1464   -10.2782   -10.1995    -1.0438    -0.7447
                     A          A          A          A          A   
    1  C  1  S    0.000003   0.001395   0.992896  -0.017279  -0.180728
    2  C  1  S    0.000037  -0.000071   0.050018   0.030701   0.347150
    3  C  1  X   -0.000031   0.000314   0.000000  -0.026122  -0.033865
    4  C  1  Y    0.000074  -0.000131   0.000125   0.004289   0.029915
    5  C  1  Z    0.000000   0.000000  -0.000000   0.000000   0.000000
    6  C  1  S   -0.000065   0.003062  -0.017088   0.016761   0.322437
    7  C  1  X   -0.000109  -0.001568   0.001135  -0.005817  -0.001834
    8  C  1  Y   -0.000719   0.001028  -0.000431  -0.009761   0.006014
    9  C  1  Z    0.000000   0.000000   0.000000  -0.000000  -0.000001
   10  C  1 XX   -0.000008  -0.000460  -0.009250   0.007112  -0.000829
   11  C  1 YY    0.000013  -0.000189  -0.009177  -0.000703   0.000074
   12  C  1 ZZ   -0.000000  -0.000085  -0.009164  -0.001210   0.000880
   13  C  1 XY   -0.000006   0.000125   0.000010  -0.001852  -0.001498
   14  C  1 XZ    0.000000   0.000000  -0.000000  -0.000000  -0.000000
   15  C  1 YZ    0.000000   0.000000  -0.000000  -0.000000  -0.000000
   16  C  2  S    0.000021   0.992820  -0.001632  -0.118745  -0.080887
   17  C  2  S    0.000521   0.048665  -0.000354   0.230868   0.164556
   18  C  2  X    0.000080  -0.000702  -0.000134  -0.152794   0.183534
   19  C  2  Y    0.000003  -0.000519   0.000154  -0.104476   0.011438
   20  C  2  Z    0.000000   0.000000   0.000000   0.000000   0.000000
   21  C  2  S   -0.002896  -0.009023   0.004537   0.084778   0.122473
   22  C  2  X    0.002133  -0.002571   0.002314   0.015355   0.038250
   23  C  2  Y    0.001775  -0.000845  -0.001422   0.020889   0.015666
   24  C  2  Z    0.000000   0.000000   0.000000   0.000000   0.000000
   25  C  2 XX   -0.000604  -0.008760  -0.000425   0.010534   0.002107
   26  C  2 YY   -0.000298  -0.009188  -0.000124  -0.004343   0.000399
   27  C  2 ZZ   -0.000001  -0.009715  -0.000176  -0.019718  -0.005751
   28  C  2 XY   -0.000461   0.000548   0.000135   0.022937  -0.014516
   29  C  2 XZ    0.000000   0.000000   0.000000   0.000000   0.000000
   30  C  2 YZ    0.000000   0.000000   0.000000  -0.000000  -0.000000
   31  O  3  S    0.992775  -0.000191  -0.000021  -0.194789   0.054603
   32  O  3  S    0.025790   0.000240  -0.000107   0.427291  -0.125181
   33  O  3  X    0.000993  -0.000048  -0.000017   0.137586   0.019462
   34  O  3  Y    0.000655  -0.000003  -0.000013   0.090000  -0.015260
   35  O  3  Z    0.000000   0.000000   0.000000   0.000000   0.000000
   36  O  3  S    0.013325  -0.001933   0.000109   0.383229  -0.128220
   37  O  3  X    0.001272  -0.001326  -0.000128   0.043621   0.015727
   38  O  3  Y    0.000776  -0.001113   0.000324   0.026495  -0.001810
   39  O  3  Z    0.000000   0.000000   0.000000  -0.000000  -0.000000
   40  O  3 XX   -0.007666  -0.000191  -0.000028   0.004708   0.005183
   41  O  3 YY   -0.007902  -0.000047   0.000030  -0.003808  -0.000340
   42  O  3 ZZ   -0.008085   0.000299  -0.000165  -0.004872  -0.000551
   43  O  3 XY    0.000281  -0.000291   0.000043   0.010963   0.000566
   44  O  3 XZ    0.000000   0.000000   0.000000   0.000000  -0.000000
   45  O  3 YZ    0.000000   0.000000   0.000000  -0.000000  -0.000000
   46  H  4  S   -0.000007  -0.000313  -0.000109   0.028795   0.052729
   47  H  4  S   -0.000407   0.002152   0.000398  -0.012849   0.008494
   48  H  5  S   -0.000007  -0.000078  -0.000013   0.006961   0.102475
   49  H  5  S   -0.000404   0.000274   0.002628  -0.003157   0.019106
   50  H  6  S    0.000019  -0.000162  -0.000046   0.005224   0.112760
   51  H  6  S    0.000080   0.000267   0.002623   0.000250   0.025012
   52  H  7  S    0.000019  -0.000162  -0.000046   0.005224   0.112760
   53  H  7  S    0.000080   0.000267   0.002623   0.000250   0.025013

                      6          7          8          9         10
                   -0.5770    -0.4712    -0.4411    -0.4296    -0.3896
                     A          A          A          A          A   
    1  C  1  S    0.071280  -0.015825  -0.000000   0.006459   0.001652
    2  C  1  S   -0.139753   0.028530  -0.000001  -0.010970  -0.003307
    3  C  1  X   -0.125319   0.279345  -0.000000  -0.183399   0.138713
    4  C  1  Y    0.111930   0.080129  -0.000000   0.213467   0.363977
    5  C  1  Z   -0.000000   0.000000   0.382784   0.000000   0.000000
    6  C  1  S   -0.176654   0.041789   0.000004  -0.018746  -0.013425
    7  C  1  X   -0.037741   0.119919   0.000001  -0.091869   0.069248
    8  C  1  Y    0.033630   0.055093   0.000001   0.115709   0.175367
    9  C  1  Z    0.000001  -0.000001   0.179224   0.000000  -0.000001
   10  C  1 XX    0.009046  -0.010834  -0.000000   0.006775   0.009053
   11  C  1 YY   -0.002678  -0.000458  -0.000000  -0.009181  -0.024282
   12  C  1 ZZ   -0.004913   0.013698  -0.000000  -0.002889   0.015546
   13  C  1 XY   -0.011219   0.005358   0.000000  -0.007725   0.006175
   14  C  1 XZ    0.000000  -0.000000   0.011643   0.000000  -0.000000
   15  C  1 YZ    0.000000  -0.000000   0.014365   0.000000  -0.000000
   16  C  2  S   -0.135232   0.046879  -0.000000   0.008652  -0.003016
   17  C  2  S    0.289283  -0.114207   0.000000  -0.030665   0.015987
   18  C  2  X    0.024917  -0.101022  -0.000000   0.364560  -0.072289
   19  C  2  Y    0.223949   0.325789  -0.000000   0.018177  -0.187954
   20  C  2  Z    0.000000   0.000000   0.231417   0.000000  -0.000000
   21  C  2  S    0.280538  -0.076614  -0.000000  -0.005617  -0.024476
   22  C  2  X    0.034237  -0.053913  -0.000001   0.093289   0.011225
   23  C  2  Y    0.085589   0.086202  -0.000001  -0.014832  -0.054638
   24  C  2  Z   -0.000000   0.000000   0.118474  -0.000000   0.000000
   25  C  2 XX   -0.014842   0.009175  -0.000000  -0.001350   0.009418
   26  C  2 YY    0.007654   0.004136   0.000000   0.004335  -0.017331
   27  C  2 ZZ   -0.010059   0.004127   0.000000   0.005017  -0.002116
   28  C  2 XY   -0.006153  -0.000499   0.000000  -0.005422   0.016297
   29  C  2 XZ   -0.000000   0.000000   0.000759  -0.000000   0.000000
   30  C  2 YZ    0.000000  -0.000000  -0.009000   0.000000  -0.000000
   31  O  3  S    0.070645  -0.052166   0.000000  -0.067984   0.021093
   32  O  3  S   -0.160137   0.113956   0.000000   0.133316  -0.036023
   33  O  3  X    0.060754  -0.306398   0.000000  -0.259395   0.234782
   34  O  3  Y    0.131031   0.073065   0.000000  -0.341605   0.075796
   35  O  3  Z   -0.000000   0.000000   0.207614   0.000000  -0.000000
   36  O  3  S   -0.215525   0.200060  -0.000001   0.326840  -0.109647
   37  O  3  X    0.035591  -0.165692   0.000000  -0.121820   0.127425
   38  O  3  Y    0.067095   0.044767  -0.000000  -0.178236   0.043578
   39  O  3  Z    0.000000  -0.000000   0.117755   0.000000  -0.000000
   40  O  3 XX    0.004145  -0.026275   0.000000  -0.013286   0.014674
   41  O  3 YY    0.010604   0.008679   0.000000  -0.019273  -0.000232
   42  O  3 ZZ   -0.001184   0.001734   0.000000  -0.001522   0.000852
   43  O  3 XY    0.010607  -0.002020  -0.000000  -0.017214   0.006566
   44  O  3 XZ    0.000000  -0.000000   0.013470   0.000000  -0.000000
   45  O  3 YZ    0.000000  -0.000000   0.008094   0.000000  -0.000000
   46  H  4  S    0.213577   0.127070  -0.000000  -0.009883  -0.120298
   47  H  4  S    0.101143   0.113056   0.000000   0.004280  -0.115529
   48  H  5  S   -0.107611  -0.033669  -0.000000  -0.131747  -0.249547
   49  H  5  S   -0.054167  -0.015300   0.000000  -0.077639  -0.215489
   50  H  6  S   -0.071689   0.111704  -0.192935  -0.026527   0.122284
   51  H  6  S   -0.032267   0.078112  -0.149783  -0.019615   0.107285
   52  H  7  S   -0.071689   0.111705   0.192934  -0.026528   0.122284
   53  H  7  S   -0.032268   0.078114   0.149779  -0.019615   0.107287

                     11         12         13         14         15
                   -0.3615    -0.2513    -0.0185     0.1079     0.1289
                     A          A          A          A          A   
    1  C  1  S    0.000000  -0.038310   0.000000  -0.130212  -0.081488
    2  C  1  S    0.000001   0.073315   0.000000   0.156941   0.104116
    3  C  1  X    0.000000  -0.222697  -0.000000   0.231845  -0.112231
    4  C  1  Y    0.000000   0.063933  -0.000000   0.023911  -0.153810
    5  C  1  Z   -0.224879  -0.000000  -0.015044  -0.000002  -0.000001
    6  C  1  S   -0.000003   0.294235  -0.000004   2.095690   1.242548
    7  C  1  X   -0.000001  -0.166703  -0.000001   0.594586  -0.366022
    8  C  1  Y   -0.000001   0.045537  -0.000001  -0.006364  -0.249911
    9  C  1  Z   -0.108856   0.000000   0.044978  -0.000002  -0.000002
   10  C  1 XX    0.000000   0.001973   0.000000  -0.005204  -0.001426
   11  C  1 YY    0.000000  -0.004232   0.000000  -0.005257  -0.017856
   12  C  1 ZZ    0.000000  -0.004032   0.000000  -0.017280   0.003899
   13  C  1 XY   -0.000000  -0.006395  -0.000000  -0.006914   0.013894
   14  C  1 XZ   -0.019220   0.000000  -0.032260   0.000000  -0.000000
   15  C  1 YZ   -0.006634   0.000000   0.006649   0.000000   0.000000
   16  C  2  S    0.000000  -0.001675  -0.000000  -0.019303   0.096978
   17  C  2  S   -0.000000   0.017444  -0.000000   0.087821  -0.139194
   18  C  2  X   -0.000000   0.088154  -0.000000   0.008783  -0.067824
   19  C  2  Y   -0.000000  -0.117178  -0.000000   0.116355  -0.264625
   20  C  2  Z    0.276430  -0.000000   0.509609   0.000001   0.000000
   21  C  2  S    0.000000  -0.031163   0.000000   0.098316  -1.449315
   22  C  2  X    0.000001  -0.069205   0.000001   0.010187  -0.364799
   23  C  2  Y    0.000000   0.041080   0.000000   0.337435  -0.607997
   24  C  2  Z    0.168690  -0.000000   0.560064   0.000001   0.000001
   25  C  2 XX    0.000000   0.038442  -0.000000   0.006375   0.004566
   26  C  2 YY   -0.000000  -0.041815  -0.000000   0.006167   0.015382
   27  C  2 ZZ   -0.000000   0.001365   0.000000  -0.005349   0.002673
   28  C  2 XY    0.000000  -0.017774  -0.000000   0.000657  -0.014632
   29  C  2 XZ   -0.028518  -0.000000   0.023539  -0.000000  -0.000000
   30  C  2 YZ   -0.012561   0.000000   0.017823   0.000000   0.000000
   31  O  3  S   -0.000000  -0.000190  -0.000000  -0.012898   0.004065
   32  O  3  S   -0.000000   0.003792  -0.000000   0.021946   0.013390
   33  O  3  X    0.000000  -0.322950  -0.000000   0.053118   0.000209
   34  O  3  Y    0.000000   0.482157   0.000000  -0.061864   0.032984
   35  O  3  Z    0.471913   0.000000  -0.429884  -0.000001  -0.000000
   36  O  3  S    0.000000  -0.013813   0.000000   0.180451  -0.152985
   37  O  3  X    0.000000  -0.230483  -0.000000   0.122942  -0.051664
   38  O  3  Y    0.000000   0.341066   0.000000  -0.052073   0.073782
   39  O  3  Z    0.303081   0.000000  -0.450795  -0.000001  -0.000000
   40  O  3 XX   -0.000000  -0.013301  -0.000000   0.001956   0.010985
   41  O  3 YY   -0.000000   0.015081  -0.000000  -0.005065   0.006316
   42  O  3 ZZ   -0.000000   0.001261  -0.000000  -0.004841   0.003980
   43  O  3 XY    0.000000   0.007309   0.000000   0.005542  -0.005214
   44  O  3 XZ    0.024166   0.000000   0.000442   0.000000  -0.000000
   45  O  3 YZ    0.016277   0.000000   0.000618   0.000000   0.000000
   46  H  4  S   -0.000000  -0.175885  -0.000000   0.022348   0.105495
   47  H  4  S   -0.000000  -0.286455  -0.000000  -0.472740   1.535831
   48  H  5  S   -0.000000  -0.013473  -0.000000  -0.007703  -0.080213
   49  H  5  S   -0.000000  -0.087189   0.000000  -0.653080  -1.075271
   50  H  6  S    0.137775  -0.035381   0.099313  -0.049994   0.023963
   51  H  6  S    0.136762  -0.070994   0.224412  -1.234920  -0.060041
   52  H  7  S   -0.137775  -0.035382  -0.099312  -0.049993   0.023963
   53  H  7  S   -0.136759  -0.070995  -0.224407  -1.234918  -0.060037

                     16         17         18         19         20
                    0.1511     0.1554     0.2566     0.2851     0.5304
                     A          A          A          A          A   
    1  C  1  S   -0.011175   0.000000   0.075752  -0.024742  -0.000000
    2  C  1  S    0.017031  -0.000002  -0.036413   0.040567   0.000001
    3  C  1  X   -0.001305  -0.000001   0.133674  -0.174752   0.000003
    4  C  1  Y    0.326396  -0.000003  -0.138436  -0.170328  -0.000000
    5  C  1  Z   -0.000004  -0.430407  -0.000000  -0.000000  -0.270756
    6  C  1  S    0.033560  -0.000002  -1.686045   0.022691  -0.000002
    7  C  1  X    0.083336  -0.000000   1.652565  -0.721809  -0.000004
    8  C  1  Y    1.209389  -0.000008  -0.674903  -0.655966   0.000000
    9  C  1  Z   -0.000011  -1.392569  -0.000000  -0.000001   0.499707
   10  C  1 XX   -0.010980   0.000000   0.038546  -0.033323   0.000000
   11  C  1 YY    0.022960  -0.000000   0.002546   0.033016   0.000000
   12  C  1 ZZ   -0.012509   0.000000  -0.021107   0.000306  -0.000000
   13  C  1 XY    0.007943  -0.000000  -0.027279  -0.004943  -0.000000
   14  C  1 XZ    0.000000   0.005979   0.000000  -0.000000  -0.031842
   15  C  1 YZ    0.000000   0.012289   0.000000  -0.000000  -0.044489
   16  C  2  S    0.082722  -0.000001  -0.054154   0.059143  -0.000000
   17  C  2  S   -0.109561   0.000001   0.105022  -0.023152  -0.000001
   18  C  2  X   -0.014697   0.000000   0.395301  -0.032798  -0.000000
   19  C  2  Y   -0.108751   0.000001  -0.312621   0.238374  -0.000000
   20  C  2  Z    0.000001   0.077809   0.000000  -0.000000  -0.933299
   21  C  2  S   -1.397124   0.000014   0.916525  -1.883193   0.000000
   22  C  2  X    0.086485  -0.000003   1.799066   1.467563   0.000001
   23  C  2  Y   -0.365861   0.000002  -0.779520   1.525715   0.000001
   24  C  2  Z    0.000003   0.403689   0.000000   0.000000   0.938442
   25  C  2 XX    0.027207  -0.000000  -0.003065  -0.009006  -0.000000
   26  C  2 YY   -0.001713   0.000000  -0.003183   0.004536  -0.000000
   27  C  2 ZZ   -0.010400   0.000000   0.000357  -0.015017   0.000000
   28  C  2 XY    0.020616  -0.000000   0.008883   0.001672   0.000000
   29  C  2 XZ   -0.000000  -0.012137  -0.000000  -0.000000   0.010939
   30  C  2 YZ    0.000000   0.020367   0.000000   0.000000   0.006211
   31  O  3  S   -0.027978   0.000000  -0.029639  -0.110661   0.000000
   32  O  3  S    0.041419  -0.000000   0.029605   0.103523  -0.000000
   33  O  3  X    0.091837  -0.000001  -0.072607   0.145087  -0.000000
   34  O  3  Y    0.112030  -0.000001   0.129232   0.062363   0.000000
   35  O  3  Z   -0.000001  -0.043215  -0.000000   0.000000  -0.065109
   36  O  3  S    0.356520  -0.000006   0.601312   2.241982   0.000001
   37  O  3  X    0.153155  -0.000002  -0.056648   0.824531  -0.000000
   38  O  3  Y    0.191737  -0.000002   0.438139   0.435025   0.000000
   39  O  3  Z   -0.000001  -0.126710  -0.000000  -0.000000  -0.064450
   40  O  3 XX   -0.009372   0.000000   0.000145  -0.018446  -0.000000
   41  O  3 YY   -0.005512   0.000000  -0.021983  -0.039084  -0.000000
   42  O  3 ZZ   -0.016719   0.000000  -0.013388  -0.069746  -0.000000
   43  O  3 XY    0.000474  -0.000000   0.012796   0.042663  -0.000000
   44  O  3 XZ   -0.000000  -0.006098   0.000000  -0.000000  -0.049874
   45  O  3 YZ    0.000000   0.004681   0.000000  -0.000000  -0.040896
   46  H  4  S    0.016061  -0.000000  -0.014746   0.066653  -0.000001
   47  H  4  S    0.990244  -0.000009   0.848613  -0.562041  -0.000000
   48  H  5  S    0.128695  -0.000001  -0.022912   0.105620   0.000000
   49  H  5  S    1.505531  -0.000009  -0.174699  -0.687651  -0.000000
   50  H  6  S   -0.050419  -0.075831  -0.090099   0.004765   0.234759
   51  H  6  S   -0.576791  -1.478396  -0.081951   0.431853   0.123789
   52  H  7  S   -0.050417   0.075833  -0.090099   0.004765  -0.234759
   53  H  7  S   -0.576768   1.478405  -0.081950   0.431857  -0.123787

                     21         22         23         24         25
                    0.5385     0.5895     0.6077     0.6699     0.7108
                     A          A          A          A          A   
    1  C  1  S   -0.016430  -0.012841  -0.000000  -0.021583   0.022125
    2  C  1  S    0.253903   0.078348   0.000002   0.140355  -0.051991
    3  C  1  X   -0.781352  -0.533102   0.000002  -0.272518   0.061229
    4  C  1  Y    0.528082  -0.477325   0.000002  -0.121367   0.202264
    5  C  1  Z   -0.000001  -0.000002  -0.772342  -0.000001   0.000001
    6  C  1  S   -0.082486   0.295589  -0.000003  -1.193955   0.642448
    7  C  1  X    0.884268   0.881576  -0.000002   1.278136  -0.906017
    8  C  1  Y   -0.822925   1.311359  -0.000004   0.277177  -0.409026
    9  C  1  Z    0.000001   0.000003   1.873403   0.000002  -0.000001
   10  C  1 XX    0.038283  -0.004709   0.000000  -0.026686   0.033501
   11  C  1 YY   -0.027428   0.099814   0.000000  -0.017186  -0.002242
   12  C  1 ZZ    0.017844  -0.087672   0.000000   0.017697   0.003298
   13  C  1 XY   -0.015664  -0.012851  -0.000000   0.093240  -0.019891
   14  C  1 XZ   -0.000000   0.000000  -0.069413   0.000000  -0.000000
   15  C  1 YZ   -0.000000  -0.000000  -0.083108   0.000000  -0.000000
   16  C  2  S    0.061539   0.001305   0.000000  -0.041112  -0.040329
   17  C  2  S    0.139651  -0.065760  -0.000001   0.165893   0.525242
   18  C  2  X    0.059617  -0.013449  -0.000000  -0.980793  -0.180912
   19  C  2  Y    0.087905  -0.032702  -0.000000   0.098529  -0.900393
   20  C  2  Z   -0.000003  -0.000000   0.428984  -0.000000   0.000000
   21  C  2  S    0.024216   0.700135   0.000002   0.947309  -0.712394
   22  C  2  X   -0.132969  -0.882948   0.000001   1.566086  -0.335868
   23  C  2  Y    0.051634  -0.296809   0.000001  -1.432661   2.163221
   24  C  2  Z    0.000003  -0.000000  -1.091567   0.000000  -0.000000
   25  C  2 XX    0.129960   0.057647   0.000000  -0.037438  -0.080143
   26  C  2 YY    0.061124  -0.036777  -0.000000   0.016540   0.014652
   27  C  2 ZZ   -0.063877  -0.002087  -0.000000   0.027050   0.058802
   28  C  2 XY   -0.067229   0.010014   0.000000  -0.103700  -0.105355
   29  C  2 XZ    0.000000  -0.000000   0.012703  -0.000000   0.000000
   30  C  2 YZ    0.000000  -0.000000  -0.049189   0.000000  -0.000000
   31  O  3  S   -0.014343   0.021192  -0.000000   0.041382   0.023258
   32  O  3  S    0.138569  -0.001163  -0.000000  -0.162743  -0.029870
   33  O  3  X    0.098997   0.182328   0.000000  -0.301965  -0.194950
   34  O  3  Y   -0.055489  -0.183202   0.000000   0.008833  -0.353708
   35  O  3  Z   -0.000000  -0.000000   0.033565  -0.000000   0.000000
   36  O  3  S   -0.112411  -0.783680   0.000001  -0.102018   0.406531
   37  O  3  X    0.082520  -0.258358   0.000000  -0.423396   0.116545
   38  O  3  Y   -0.027369  -0.202438  -0.000000  -0.048664  -0.115620
   39  O  3  Z   -0.000000   0.000000   0.181834   0.000000  -0.000000
   40  O  3 XX    0.009847  -0.034216  -0.000000   0.013538   0.158381
   41  O  3 YY    0.042782   0.016622  -0.000000   0.023974   0.002924
   42  O  3 ZZ    0.017499   0.027741  -0.000000  -0.046312  -0.042081
   43  O  3 XY   -0.010914   0.000572  -0.000000   0.103428   0.091168
   44  O  3 XZ   -0.000000   0.000000   0.044696   0.000000  -0.000000
   45  O  3 YZ   -0.000000  -0.000000  -0.007970  -0.000000   0.000000
   46  H  4  S    0.262245  -0.340409  -0.000000   0.112373   0.032755
   47  H  4  S   -0.096158   0.100852  -0.000001   0.695525  -1.133542
   48  H  5  S   -0.227933   0.378271  -0.000001  -0.113960   0.214941
   49  H  5  S   -0.129353   0.269306  -0.000002   0.333928  -0.183832
   50  H  6  S   -0.003699  -0.272456   0.320848  -0.057645   0.129431
   51  H  6  S    0.000360  -0.197338   0.393266  -0.367628   0.200144
   52  H  7  S   -0.003700  -0.272456  -0.320850  -0.057644   0.129430
   53  H  7  S    0.000360  -0.197342  -0.393260  -0.367631   0.200147

                     26         27         28         29         30
                    0.7512     0.8417     0.8506     0.8744     0.9102
                     A          A          A          A          A   
    1  C  1  S   -0.040153   0.000000  -0.011191  -0.029346   0.008159
    2  C  1  S    0.110686   0.000006   0.125585  -0.032625   0.038038
    3  C  1  X    0.123312   0.000001  -0.000198  -0.176811  -0.156658
    4  C  1  Y    0.601171   0.000001  -0.102779  -0.464453  -0.336524
    5  C  1  Z    0.000001   0.774498   0.000002   0.000004  -0.000001
    6  C  1  S   -0.562005  -0.000015  -0.396628   0.136310  -0.067174
    7  C  1  X    0.222393   0.000001   0.131272   0.426659  -0.023008
    8  C  1  Y   -1.766584  -0.000001   0.033091   0.605522  -0.033304
    9  C  1  Z   -0.000004  -1.164327  -0.000004  -0.000005   0.000003
   10  C  1 XX   -0.100938   0.000000  -0.021788   0.026084  -0.018226
   11  C  1 YY    0.042962   0.000001   0.010779  -0.132837  -0.141359
   12  C  1 ZZ    0.025204  -0.000000   0.002723   0.074785   0.176178
   13  C  1 XY   -0.059936  -0.000000   0.013197   0.037007  -0.089016
   14  C  1 XZ    0.000000  -0.182817  -0.000000  -0.000001  -0.000000
   15  C  1 YZ    0.000000  -0.082901  -0.000000  -0.000001  -0.000000
   16  C  2  S   -0.017704  -0.000000   0.054351  -0.020010   0.001258
   17  C  2  S   -0.886131   0.000008  -0.575979  -1.046870   0.385050
   18  C  2  X   -0.351149  -0.000001  -0.108798   0.069389  -0.069175
   19  C  2  Y   -0.081962   0.000004  -0.524589  -0.253145   0.005187
   20  C  2  Z   -0.000000   0.058668   0.000000   0.000000   0.000000
   21  C  2  S    2.186681  -0.000010   1.954516   1.641813  -0.437476
   22  C  2  X    1.058763   0.000002   0.000996   0.018022   0.318747
   23  C  2  Y    0.762913  -0.000012   0.701126   0.903207   0.551021
   24  C  2  Z    0.000002   0.022265   0.000000   0.000000  -0.000001
   25  C  2 XX    0.003056   0.000001   0.036061  -0.171565   0.098586
   26  C  2 YY   -0.194642  -0.000000   0.107772  -0.026037  -0.071502
   27  C  2 ZZ    0.021910   0.000000  -0.125437  -0.010580   0.032969
   28  C  2 XY    0.039921   0.000000   0.122724  -0.100239   0.075453
   29  C  2 XZ   -0.000000   0.071863   0.000000   0.000000   0.000000
   30  C  2 YZ    0.000000  -0.038549  -0.000000  -0.000000  -0.000000
   31  O  3  S    0.000926   0.000000   0.001036  -0.008732  -0.007523
   32  O  3  S   -0.039535  -0.000001  -0.308145   0.299716  -0.224745
   33  O  3  X    0.094425   0.000001   0.403634  -0.259612   0.374616
   34  O  3  Y   -0.081165   0.000000   0.364715  -0.178805   0.016874
   35  O  3  Z    0.000000   0.234597   0.000001   0.000002  -0.000000
   36  O  3  S    0.216367   0.000000   0.184357  -0.363330   0.732891
   37  O  3  X   -0.109443  -0.000003  -0.741741   0.618863  -0.423699
   38  O  3  Y   -0.035144  -0.000000  -0.584514   0.276212  -0.185063
   39  O  3  Z   -0.000000  -0.213537  -0.000001  -0.000001   0.000001
   40  O  3 XX   -0.038873  -0.000001  -0.130197   0.130396  -0.117106
   41  O  3 YY    0.000461   0.000000  -0.183784   0.095785  -0.059761
   42  O  3 ZZ    0.020519  -0.000000  -0.095845   0.122100  -0.109238
   43  O  3 XY    0.009077   0.000000  -0.069273  -0.001555   0.013920
   44  O  3 XZ   -0.000000  -0.013617  -0.000000  -0.000000   0.000000
   45  O  3 YZ    0.000000   0.001068   0.000000  -0.000000  -0.000000
   46  H  4  S   -0.535659  -0.000004   0.668350   0.160017  -0.613523
   47  H  4  S   -0.303411   0.000014  -1.496421  -1.213077   0.357464
   48  H  5  S   -0.050256   0.000002  -0.049596  -0.639391  -0.640922
   49  H  5  S   -1.058245  -0.000001   0.136056   1.036122   0.748559
   50  H  6  S   -0.328749   0.702658  -0.079854   0.051585   0.386483
   51  H  6  S    0.404534  -1.344976   0.048026  -0.501364  -0.382511
   52  H  7  S   -0.328748  -0.702660  -0.079858   0.051577   0.386484
   53  H  7  S    0.404537   1.344984   0.048034  -0.501350  -0.382515

                     31         32         33         34         35
                    0.9198     0.9929     1.0842     1.2460     1.4064
                     A          A          A          A          A   
    1  C  1  S    0.040763   0.000000   0.020939  -0.132488   0.000000
    2  C  1  S   -1.180808   0.000001   0.190184  -1.974964   0.000001
    3  C  1  X   -0.426436  -0.000000  -0.108151   0.062852   0.000000
    4  C  1  Y    0.173712  -0.000000  -0.033445  -0.025877   0.000000
    5  C  1  Z    0.000001   0.186085  -0.000000   0.000001  -0.110515
    6  C  1  S    1.973601  -0.000002   0.304006   6.541854  -0.000003
    7  C  1  X    1.060652   0.000001  -0.301662  -1.283198   0.000000
    8  C  1  Y   -0.437638   0.000000  -0.076567   0.243581  -0.000000
    9  C  1  Z    0.000001  -0.198670   0.000001  -0.000002  -0.089199
   10  C  1 XX   -0.158243   0.000000   0.032779  -0.030188  -0.000000
   11  C  1 YY   -0.021196   0.000000   0.026492  -0.087440   0.000000
   12  C  1 ZZ    0.019009   0.000000  -0.008489  -0.153872   0.000000
   13  C  1 XY    0.066480   0.000000  -0.053882  -0.052393  -0.000000
   14  C  1 XZ   -0.000001  -0.031533   0.000000  -0.000001  -0.342489
   15  C  1 YZ   -0.000001  -0.062361   0.000000  -0.000000   0.485791
   16  C  2  S   -0.021525  -0.000000  -0.001160   0.036420   0.000000
   17  C  2  S   -0.575265  -0.000001  -0.028265   0.604709  -0.000000
   18  C  2  X   -0.075612  -0.000000   0.135371   0.040597  -0.000000
   19  C  2  Y    0.030494  -0.000000  -0.261690  -0.060213   0.000000
   20  C  2  Z    0.000000   0.122168  -0.000000   0.000000   0.039961
   21  C  2  S    1.365001   0.000003   0.283484  -3.518327   0.000002
   22  C  2  X    0.535113   0.000001  -0.903121  -1.562567  -0.000000
   23  C  2  Y   -0.259246  -0.000001   1.495261   1.589358  -0.000001
   24  C  2  Z   -0.000001  -0.584903   0.000000  -0.000000  -0.078466
   25  C  2 XX   -0.075557  -0.000000   0.136326   0.033115   0.000000
   26  C  2 YY   -0.041319  -0.000000  -0.162925   0.097577  -0.000000
   27  C  2 ZZ    0.023678   0.000000   0.011071  -0.119060   0.000000
   28  C  2 XY    0.055892  -0.000000  -0.047833  -0.031314   0.000000
   29  C  2 XZ    0.000000   0.054248  -0.000000   0.000000   0.571749
   30  C  2 YZ   -0.000000  -0.010599   0.000000  -0.000000  -0.151731
   31  O  3  S   -0.000968   0.000000   0.003182  -0.016809   0.000000
   32  O  3  S   -0.029150   0.000000   0.058721  -0.203059   0.000001
   33  O  3  X    0.025102  -0.000000  -0.429273  -0.073798   0.000000
   34  O  3  Y    0.027829   0.000000   0.688770   0.083322   0.000000
   35  O  3  Z    0.000001  -0.918175   0.000000  -0.000000   0.057329
   36  O  3  S   -0.052652  -0.000001  -0.145725   0.948300  -0.000002
   37  O  3  X   -0.082889   0.000000   0.763943   0.513009  -0.000001
   38  O  3  Y    0.070760   0.000000  -1.306259  -0.290836  -0.000000
   39  O  3  Z   -0.000001   1.257988  -0.000000   0.000000   0.122806
   40  O  3 XX   -0.013987  -0.000000  -0.079397  -0.008243   0.000000
   41  O  3 YY   -0.037579   0.000000   0.109708   0.054501   0.000000
   42  O  3 ZZ    0.033962   0.000000   0.019816  -0.241335   0.000000
   43  O  3 XY   -0.015148   0.000000   0.053737  -0.027196   0.000000
   44  O  3 XZ    0.000000  -0.029056   0.000000  -0.000000  -0.112830
   45  O  3 YZ   -0.000000  -0.023757  -0.000000  -0.000000  -0.278885
   46  H  4  S   -0.022602   0.000000  -0.232779  -0.023168   0.000000
   47  H  4  S   -0.057922  -0.000000  -0.729387  -0.422697   0.000000
   48  H  5  S    0.507218   0.000000   0.083978  -0.486254   0.000000
   49  H  5  S   -1.065727   0.000000  -0.075663  -0.808237   0.000000
   50  H  6  S    0.523634   0.156492   0.109782  -0.461529  -0.136526
   51  H  6  S   -1.097803  -0.362325   0.075757  -0.599802   0.037820
   52  H  7  S    0.523630  -0.156492   0.109783  -0.461531   0.136526
   53  H  7  S   -1.097800   0.362324   0.075756  -0.599798  -0.037819

                     36         37         38         39         40
                    1.4737     1.5347     1.6971     1.8022     1.8106
                     A          A          A          A          A   
    1  C  1  S    0.013669   0.000000   0.038885  -0.037747   0.000000
    2  C  1  S    0.222772  -0.000000   0.319200   0.287691  -0.000000
    3  C  1  X   -0.035875  -0.000000   0.089375  -0.300238   0.000000
    4  C  1  Y    0.054547  -0.000000   0.066798   0.104333  -0.000000
    5  C  1  Z   -0.000000  -0.041521  -0.000000   0.000000  -0.072104
    6  C  1  S   -0.622779   0.000001  -1.503935   0.703058  -0.000000
    7  C  1  X   -0.167500   0.000000   0.263229  -0.165300   0.000000
    8  C  1  Y   -0.723999   0.000000  -0.606704  -0.205136   0.000000
    9  C  1  Z    0.000000   0.329172   0.000000   0.000000   0.338895
   10  C  1 XX    0.013645  -0.000000   0.455245  -0.327560   0.000000
   11  C  1 YY    0.020132  -0.000000  -0.110853   0.201988  -0.000000
   12  C  1 ZZ   -0.012995   0.000000  -0.346237   0.101725  -0.000000
   13  C  1 XY   -0.102674   0.000000   0.457988   0.184779   0.000000
   14  C  1 XZ    0.000000   0.117707   0.000000  -0.000000  -0.332213
   15  C  1 YZ    0.000000  -0.058390   0.000000   0.000000   0.419029
   16  C  2  S   -0.031430   0.000000  -0.024617  -0.009955   0.000000
   17  C  2  S   -0.147479   0.000000  -0.480095   0.326442  -0.000000
   18  C  2  X    0.092237   0.000000  -0.026534   0.092177   0.000000
   19  C  2  Y   -0.005301   0.000000   0.054871   0.051253  -0.000000
   20  C  2  Z    0.000000   0.189993   0.000000  -0.000000  -0.087894
   21  C  2  S   -2.427640   0.000000   1.652738  -0.724435   0.000000
   22  C  2  X    1.956897  -0.000000   0.840362  -0.636593   0.000000
   23  C  2  Y    1.557482  -0.000000   0.461181   1.079693  -0.000000
   24  C  2  Z   -0.000000  -0.211107  -0.000000  -0.000000  -0.213737
   25  C  2 XX   -0.027731  -0.000000  -0.019685  -0.390694   0.000000
   26  C  2 YY    0.057737   0.000000   0.309514   0.375370  -0.000000
   27  C  2 ZZ   -0.039510   0.000000  -0.305430   0.030120   0.000000
   28  C  2 XY   -0.228197   0.000000  -0.226561   0.289898  -0.000000
   29  C  2 XZ    0.000000   0.123416   0.000000  -0.000000  -0.144986
   30  C  2 YZ    0.000000   0.716434   0.000000  -0.000000  -0.062147
   31  O  3  S   -0.100596   0.000000  -0.011049  -0.005714  -0.000000
   32  O  3  S   -1.791109   0.000000   0.122510  -0.199656   0.000000
   33  O  3  X   -0.228365   0.000000   0.148446  -0.230189   0.000000
   34  O  3  Y   -0.168822   0.000000   0.079949   0.190314  -0.000000
   35  O  3  Z    0.000000   0.093862  -0.000000  -0.000000  -0.072816
   36  O  3  S    5.651320  -0.000000   0.096621   0.542017   0.000000
   37  O  3  X    1.564611  -0.000000  -0.140434   0.471763  -0.000000
   38  O  3  Y    0.999287  -0.000000  -0.054557  -0.332281   0.000000
   39  O  3  Z    0.000000   0.117354   0.000000   0.000000   0.112202
   40  O  3 XX   -0.542428   0.000000   0.137135   0.417043  -0.000000
   41  O  3 YY   -0.356350   0.000000   0.321747  -0.397114   0.000000
   42  O  3 ZZ   -0.411164   0.000000  -0.439382  -0.136084   0.000000
   43  O  3 XY   -0.160627   0.000000  -0.208700  -0.264959   0.000000
   44  O  3 XZ   -0.000000  -0.514383   0.000000  -0.000000  -0.245421
   45  O  3 YZ   -0.000000   0.022780  -0.000000   0.000000   0.801364
   46  H  4  S   -0.022239  -0.000000  -0.508856  -0.491291   0.000000
   47  H  4  S   -0.281232   0.000000  -0.311718  -0.243488   0.000000
   48  H  5  S   -0.001813   0.000000   0.141392  -0.243033   0.000000
   49  H  5  S   -0.232476  -0.000000  -0.124052  -0.049182  -0.000000
   50  H  6  S    0.095350   0.069914   0.169800  -0.111824   0.014470
   51  H  6  S    0.190707   0.140955   0.136921   0.075821   0.136111
   52  H  7  S    0.095350  -0.069914   0.169800  -0.111825  -0.014470
   53  H  7  S    0.190706  -0.140956   0.136920   0.075821  -0.136112

                     41         42         43         44         45
                    1.8445     2.0535     2.0586     2.1375     2.2810
                     A          A          A          A          A   
    1  C  1  S    0.035798  -0.000000  -0.007465   0.010796   0.000000
    2  C  1  S    0.329898  -0.000001   0.092711   0.155646  -0.000001
    3  C  1  X    0.020151  -0.000000  -0.035087  -0.028324  -0.000000
    4  C  1  Y   -0.127339  -0.000000   0.041315  -0.089300  -0.000000
    5  C  1  Z   -0.000000   0.059913  -0.000000  -0.000000   0.073540
    6  C  1  S   -1.554844   0.000001  -0.070395  -0.655630   0.000001
    7  C  1  X    0.718399   0.000001   0.307499   0.104747   0.000000
    8  C  1  Y    0.510323   0.000001   0.109924  -0.593691   0.000000
    9  C  1  Z    0.000000   0.671675  -0.000002   0.000000   0.203829
   10  C  1 XX   -0.312019  -0.000001  -0.296114  -0.230735  -0.000000
   11  C  1 YY    0.106157  -0.000000  -0.165054   0.839455  -0.000000
   12  C  1 ZZ    0.180030   0.000001   0.468840  -0.598845   0.000000
   13  C  1 XY   -0.605651   0.000001   0.365283   0.250468   0.000000
   14  C  1 XZ   -0.000000   0.164513  -0.000000   0.000000   0.964567
   15  C  1 YZ    0.000000   0.756755  -0.000002   0.000000   0.300929
   16  C  2  S   -0.021646   0.000000   0.026772  -0.033577  -0.000000
   17  C  2  S   -0.298875   0.000001   0.259710  -0.007094  -0.000000
   18  C  2  X   -0.223363   0.000001   0.309629   0.051756   0.000000
   19  C  2  Y    0.048478  -0.000000  -0.125078  -0.174337  -0.000000
   20  C  2  Z   -0.000000  -0.038439   0.000000   0.000000   0.076860
   21  C  2  S    1.964461  -0.000001  -0.601885   0.396697   0.000000
   22  C  2  X   -0.083600   0.000000   0.186628   0.367183  -0.000000
   23  C  2  Y   -1.574750  -0.000001  -0.208662  -0.201678  -0.000000
   24  C  2  Z   -0.000000  -0.393618   0.000001  -0.000000   0.056231
   25  C  2 XX    0.247255  -0.000000  -0.232516   0.256120   0.000000
   26  C  2 YY   -0.022143  -0.000001  -0.303033  -0.281649   0.000000
   27  C  2 ZZ   -0.237787   0.000001   0.664205  -0.034301  -0.000000
   28  C  2 XY    0.052442  -0.000000  -0.066913   0.422562   0.000000
   29  C  2 XZ   -0.000000  -0.351306   0.000001   0.000000   0.264823
   30  C  2 YZ   -0.000000   0.476861  -0.000001  -0.000000  -0.423042
   31  O  3  S    0.036819  -0.000000  -0.002657  -0.004474   0.000000
   32  O  3  S    0.367619   0.000000   0.009060  -0.241468   0.000000
   33  O  3  X   -0.100958   0.000000   0.185486  -0.173964  -0.000000
   34  O  3  Y   -0.095858   0.000000   0.071234  -0.237413  -0.000000
   35  O  3  Z   -0.000000  -0.071668   0.000000   0.000000   0.019360
   36  O  3  S   -1.915322   0.000000   0.335627   0.253819  -0.000000
   37  O  3  X   -0.541793  -0.000000  -0.014903  -0.016422  -0.000000
   38  O  3  Y   -0.082764   0.000000   0.147421   0.285031   0.000000
   39  O  3  Z    0.000000   0.201418  -0.000000  -0.000000  -0.072828
   40  O  3 XX    0.373044  -0.000000  -0.147637  -0.204707  -0.000000
   41  O  3 YY    0.364594   0.000001   0.602146   0.211047   0.000000
   42  O  3 ZZ   -0.487993  -0.000001  -0.362812  -0.214598  -0.000000
   43  O  3 XY   -0.328771  -0.000000  -0.151970   0.077244   0.000000
   44  O  3 XZ   -0.000000   0.434323  -0.000001  -0.000000  -0.263885
   45  O  3 YZ    0.000000  -0.213248   0.000000   0.000000   0.150873
   46  H  4  S    0.149889   0.000001   0.356727   0.265863  -0.000000
   47  H  4  S    0.389716   0.000000   0.118135  -0.009085   0.000000
   48  H  5  S    0.190270   0.000000   0.113783  -0.641282   0.000000
   49  H  5  S    0.337052   0.000000   0.022856   0.033458  -0.000000
   50  H  6  S    0.137412   0.432884  -0.250399   0.291202   0.508842
   51  H  6  S   -0.073494   0.080956   0.016685   0.041806  -0.115620
   52  H  7  S    0.137412  -0.432885  -0.250398   0.291202  -0.508841
   53  H  7  S   -0.073495  -0.080958   0.016685   0.041805   0.115619

                     46         47         48         49         50
                    2.3506     2.5442     2.5831     2.8439     2.9439
                     A          A          A          A          A   
    1  C  1  S    0.045149   0.055406   0.000000  -0.040336  -0.025128
    2  C  1  S    0.307735  -0.008295   0.000000   0.182266   0.132384
    3  C  1  X    0.128363   0.259242   0.000000  -0.207585  -0.074127
    4  C  1  Y   -0.008377  -0.096150   0.000000   0.133610   0.046271
    5  C  1  Z   -0.000000  -0.000000  -0.026560  -0.000000  -0.000000
    6  C  1  S   -1.726209  -1.381913  -0.000000   0.244759   0.204557
    7  C  1  X    0.923282   0.740003   0.000000  -0.200632  -0.171632
    8  C  1  Y   -0.033045  -0.240122  -0.000000   0.241987  -0.097032
    9  C  1  Z   -0.000000   0.000000  -0.029830   0.000000  -0.000000
   10  C  1 XX   -0.364574  -0.739886  -0.000000   0.168347  -0.001882
   11  C  1 YY   -0.230609   0.699016   0.000000   0.020219  -0.030839
   12  C  1 ZZ    0.636827   0.171926   0.000000  -0.323852  -0.134748
   13  C  1 XY    0.325440   0.101339   0.000000  -0.511658  -0.153955
   14  C  1 XZ   -0.000000   0.000000   0.136591   0.000000  -0.000000
   15  C  1 YZ   -0.000000   0.000000  -0.158341   0.000000  -0.000000
   16  C  2  S   -0.103584  -0.020038  -0.000000   0.066761  -0.035301
   17  C  2  S   -0.098517  -0.035102  -0.000000   0.095538  -1.326644
   18  C  2  X    0.213733   0.227259   0.000000  -0.308409   1.084166
   19  C  2  Y   -0.131455  -0.048472  -0.000000  -0.157178   0.722163
   20  C  2  Z   -0.000000   0.000000  -0.246723   0.000000  -0.000000
   21  C  2  S    1.825808   1.535224   0.000000  -0.309728  -1.666559
   22  C  2  X    0.492342   0.690245   0.000000  -0.296070   0.644309
   23  C  2  Y   -0.927807  -0.687648  -0.000000  -0.552825   0.584130
   24  C  2  Z    0.000000  -0.000000  -0.242387  -0.000000   0.000000
   25  C  2 XX    0.252755  -0.062459   0.000000  -0.835907  -0.600476
   26  C  2 YY    0.328519   0.320564   0.000000   0.945260   0.135518
   27  C  2 ZZ   -0.860007  -0.223657  -0.000000   0.211879   0.432291
   28  C  2 XY    0.323882  -0.900395  -0.000000   0.448470  -0.490535
   29  C  2 XZ   -0.000000  -0.000000   0.882181   0.000000   0.000000
   30  C  2 YZ    0.000000  -0.000000   0.467045   0.000000   0.000000
   31  O  3  S    0.007689   0.007673   0.000000  -0.005100  -0.037729
   32  O  3  S   -0.203592   0.547687   0.000000   0.309469  -0.702115
   33  O  3  X   -0.267913   0.355326   0.000000  -0.014807   0.255901
   34  O  3  Y   -0.216223   0.177644   0.000000   0.040051   0.183996
   35  O  3  Z    0.000000  -0.000000   0.011325  -0.000000   0.000000
   36  O  3  S   -0.383967  -0.871460  -0.000000  -0.780281   2.926401
   37  O  3  X   -0.155253  -0.504614  -0.000000  -0.592292   1.464814
   38  O  3  Y    0.294487  -0.042984  -0.000000   0.107989   1.011485
   39  O  3  Z    0.000000  -0.000000   0.458070   0.000000  -0.000000
   40  O  3 XX   -0.372235  -0.068999  -0.000000  -0.859827   0.758023
   41  O  3 YY    0.256296   0.087973   0.000000   0.636213   0.118034
   42  O  3 ZZ   -0.031514   0.253888   0.000000   0.093856  -0.640716
   43  O  3 XY    0.349262   0.088455   0.000000   0.097145   1.190915
   44  O  3 XZ    0.000000  -0.000000   0.820099   0.000000   0.000000
   45  O  3 YZ   -0.000000  -0.000000   0.583333   0.000000  -0.000000
   46  H  4  S   -0.153617  -0.254391  -0.000000  -0.250710  -0.010551
   47  H  4  S    0.244539   0.295266   0.000000   0.446109  -0.014849
   48  H  5  S    0.288942  -0.291162  -0.000000  -0.012648  -0.015174
   49  H  5  S    0.058277   0.178121   0.000000   0.098315  -0.044898
   50  H  6  S   -0.155027   0.083360  -0.009389   0.102785   0.029423
   51  H  6  S    0.067073  -0.054811  -0.030958  -0.040876   0.011616
   52  H  7  S   -0.155027   0.083360   0.009389   0.102785   0.029423
   53  H  7  S    0.067073  -0.054811   0.030958  -0.040876   0.011616

                     51         52         53
                    3.8074     4.0627     4.3267
                     A          A          A   
    1  C  1  S   -0.008577  -0.297935  -0.396340
    2  C  1  S    0.080777   1.710170   2.297647
    3  C  1  X   -0.037679  -0.090396   0.150290
    4  C  1  Y    0.041972   0.037918  -0.066183
    5  C  1  Z   -0.000000   0.000000   0.000000
    6  C  1  S    0.229349   1.253038   2.461318
    7  C  1  X   -0.230741   0.083714  -0.158252
    8  C  1  Y   -0.447838  -0.107735   0.139185
    9  C  1  Z   -0.000000   0.000000   0.000000
   10  C  1 XX   -0.001757  -0.960142  -1.732358
   11  C  1 YY   -0.094872  -1.103302  -1.534141
   12  C  1 ZZ   -0.001374  -1.169653  -1.471184
   13  C  1 XY    0.067664  -0.095389   0.130865
   14  C  1 XZ   -0.000000   0.000000   0.000000
   15  C  1 YZ   -0.000000   0.000000   0.000000
   16  C  2  S    0.014915  -0.382140   0.287223
   17  C  2  S   -0.347289   2.341888  -1.654770
   18  C  2  X    0.023863   0.193795  -0.071845
   19  C  2  Y   -0.037694   0.104127  -0.181149
   20  C  2  Z   -0.000000   0.000000   0.000000
   21  C  2  S   -2.368047   0.570059  -0.984257
   22  C  2  X    1.152806   0.221792  -0.626093
   23  C  2  Y    1.245460   0.325291  -0.117736
   24  C  2  Z    0.000000  -0.000000  -0.000000
   25  C  2 XX    0.248144  -1.574726   1.504103
   26  C  2 YY    0.086062  -1.519165   1.100049
   27  C  2 ZZ    0.233236  -1.389578   0.991042
   28  C  2 XY    0.030782  -0.200780  -0.018645
   29  C  2 XZ    0.000000  -0.000000  -0.000000
   30  C  2 YZ   -0.000000   0.000000   0.000000
   31  O  3  S   -0.540944  -0.033102   0.051972
   32  O  3  S   -0.310933   0.053562   0.080041
   33  O  3  X   -0.230191   0.184254  -0.105569
   34  O  3  Y   -0.145524   0.108887  -0.083938
   35  O  3  Z    0.000000  -0.000000  -0.000000
   36  O  3  S    6.271008   0.593425  -0.939438
   37  O  3  X    1.212781   0.296775  -0.365647
   38  O  3  Y    0.672205   0.202288  -0.316817
   39  O  3  Z   -0.000000   0.000000   0.000000
   40  O  3 XX   -1.593215   0.069849   0.005864
   41  O  3 YY   -1.824997  -0.042184   0.036064
   42  O  3 ZZ   -1.864893  -0.140443   0.271437
   43  O  3 XY    0.144489   0.165176  -0.192284
   44  O  3 XZ   -0.000000   0.000000  -0.000000
   45  O  3 YZ   -0.000000   0.000000   0.000000
   46  H  4  S    0.044931   0.150104  -0.069374
   47  H  4  S   -0.226476  -0.401105   0.246564
   48  H  5  S    0.002408   0.077049   0.059394
   49  H  5  S   -0.267879  -0.334186  -0.377775
   50  H  6  S   -0.015772   0.101053   0.043859
   51  H  6  S    0.095786  -0.335127  -0.390182
   52  H  7  S   -0.015772   0.101053   0.043859
   53  H  7  S    0.095786  -0.335127  -0.390182
 ...... END OF RHF CALCULATION ......
 STEP CPU TIME =     4.60 TOTAL CPU TIME =          4.7 (      0.1 MIN)
 TOTAL WALL CLOCK TIME=          4.8 SECONDS, CPU UTILIZATION IS    98.75%

     ---------------------------------------------------------------------
     PROPERTIES FOR THE B3LYP    DFT FUNCTIONAL (RHF  TYPE) DENSITY MATRIX
     ---------------------------------------------------------------------

          -----------------
          ENERGY COMPONENTS
          -----------------

         WAVEFUNCTION NORMALIZATION =       1.0000000000

                ONE ELECTRON ENERGY =    -345.3258008300
                TWO ELECTRON ENERGY =     122.3049190205
           NUCLEAR REPULSION ENERGY =      69.2802272799
                                      ------------------
                       TOTAL ENERGY =    -153.7406545296

 ELECTRON-ELECTRON POTENTIAL ENERGY =     122.3049190205
  NUCLEUS-ELECTRON POTENTIAL ENERGY =    -497.6723067304
   NUCLEUS-NUCLEUS POTENTIAL ENERGY =      69.2802272799
                                      ------------------
             TOTAL POTENTIAL ENERGY =    -306.0871604299
               TOTAL KINETIC ENERGY =     152.3465059004
                 VIRIAL RATIO (V/T) =       2.0091511690

          ---------------------------------------
          MULLIKEN AND LOWDIN POPULATION ANALYSES
          ---------------------------------------

     ATOMIC MULLIKEN POPULATION IN EACH MOLECULAR ORBITAL

                      1          2          3          4          5

                  2.000000   2.000000   2.000000   2.000000   2.000000

    1             0.000004   0.000726   1.997388   0.021089   1.141345
    2            -0.000967   1.999767   0.001084   0.519668   0.438921
    3             2.000976  -0.000912  -0.000001   1.460288   0.088245
    4            -0.000011   0.000396   0.000009  -0.001242   0.022538
    5            -0.000002   0.000008   0.000509  -0.000299   0.088239
    6             0.000000   0.000008   0.000506   0.000248   0.110354
    7             0.000000   0.000008   0.000506   0.000248   0.110356

                      6          7          8          9         10

                  2.000000   2.000000   2.000000   2.000000   2.000000

    1             0.339363   0.491930   0.837209   0.435090   0.784438
    2             0.828235   0.545090   0.342267   0.439538   0.131138
    3             0.279008   0.601963   0.222931   0.989265   0.266892
    4             0.367382   0.145709  -0.000000   0.000539   0.112265
    5             0.102799   0.008192  -0.000000   0.123866   0.483017
    6             0.041606   0.103557   0.298799   0.005851   0.111124
    7             0.041607   0.103559   0.298794   0.005851   0.111126

                     11         12

                  2.000000   2.000000

    1             0.239627   0.227011
    2             0.405747   0.087512
    3             1.070902   1.391671
    4             0.000000   0.248249
    5             0.000000   0.014065
    6             0.141863   0.015746
    7             0.141861   0.015746

               ----- POPULATIONS IN EACH AO -----
                             MULLIKEN      LOWDIN
              1  C  1  S      1.99186     1.97873
              2  C  1  S      0.67703     0.36746
              3  C  1  X      0.70240     0.63220
              4  C  1  Y      0.71689     0.64415
              5  C  1  Z      0.70449     0.62809
              6  C  1  S      0.66536     0.34110
              7  C  1  X      0.30694     0.41464
              8  C  1  Y      0.36289     0.48261
              9  C  1  Z      0.36156     0.49062
             10  C  1 XX     -0.00225     0.14840
             11  C  1 YY      0.00601     0.15736
             12  C  1 ZZ      0.00639     0.15606
             13  C  1 XY      0.00486     0.00884
             14  C  1 XZ      0.00759     0.01498
             15  C  1 YZ      0.00320     0.00503
             16  C  2  S      1.99194     1.97326
             17  C  2  S      0.73426     0.37115
             18  C  2  X      0.74304     0.64915
             19  C  2  Y      0.74966     0.65219
             20  C  2  Z      0.45420     0.40776
             21  C  2  S      0.46308     0.31152
             22  C  2  X      0.09861     0.28356
             23  C  2  Y      0.17681     0.37173
             24  C  2  Z      0.27753     0.32895
             25  C  2 XX      0.01636     0.21138
             26  C  2 YY      0.02018     0.19626
             27  C  2 ZZ     -0.02695     0.10349
             28  C  2 XY      0.02300     0.04668
             29  C  2 XZ      0.01259     0.02392
             30  C  2 YZ      0.00369     0.00642
             31  O  3  S      1.99265     1.97652
             32  O  3  S      0.91666     0.71823
             33  O  3  X      1.00667     0.94344
             34  O  3  Y      1.08616     1.03655
             35  O  3  Z      0.76947     0.71844
             36  O  3  S      1.00377     0.47816
             37  O  3  X      0.49571     0.57943
             38  O  3  Y      0.58656     0.65744
             39  O  3  Z      0.51311     0.54960
             40  O  3 XX     -0.00329     0.18165
             41  O  3 YY     -0.00933     0.17369
             42  O  3 ZZ     -0.00595     0.17185
             43  O  3 XY      0.00779     0.01627
             44  O  3 XZ      0.00784     0.01018
             45  O  3 YZ      0.00341     0.00444
             46  H  4  S      0.53404     0.49951
             47  H  4  S      0.36179     0.38729
             48  H  5  S      0.51316     0.47655
             49  H  5  S      0.30724     0.35569
             50  H  6  S      0.51306     0.47282
             51  H  6  S      0.31660     0.35588
             52  H  7  S      0.51306     0.47282
             53  H  7  S      0.31660     0.35587

          ----- MULLIKEN ATOMIC OVERLAP POPULATIONS -----
          (OFF-DIAGONAL ELEMENTS NEED TO BE MULTIPLIED BY 2)

             1           2           3           4           5

    1    5.3775388
    2    0.2981840   4.5734722
    3   -0.0805184   0.5878287   7.9168403
    4   -0.1167190   0.3370875  -0.0614694   0.7231684
    5    0.3479420  -0.0211263   0.0055043   0.0053945   0.5268101
    6    0.3443950  -0.0187226   0.0015204   0.0041863  -0.0220648
    7    0.3443988  -0.0187233   0.0015204   0.0041864  -0.0220652

             6           7

    6    0.5433807
    7   -0.0230330   0.5433770

          TOTAL MULLIKEN AND LOWDIN ATOMIC POPULATIONS
       ATOM         MULL.POP.    CHARGE          LOW.POP.     CHARGE
    1 C             6.515221   -0.515221         6.470262   -0.470262
    2 C             5.738000    0.262000         5.937414    0.062586
    3 O             8.371226   -0.371226         8.215897   -0.215897
    4 H             0.895835    0.104165         0.886800    0.113200
    5 H             0.820395    0.179605         0.832236    0.167764
    6 H             0.829662    0.170338         0.828696    0.171304
    7 H             0.829661    0.170339         0.828695    0.171305

          -------------------------------
          BOND ORDER AND VALENCE ANALYSIS     BOND ORDER THRESHOLD=0.050
          -------------------------------

                   BOND                       BOND                       BOND
  ATOM PAIR DIST  ORDER      ATOM PAIR DIST  ORDER      ATOM PAIR DIST  ORDER
    1   2  1.514  0.955        1   5  1.114  0.940        1   6  1.114  0.929
    1   7  1.114  0.929        2   3  1.209  1.988        2   4  1.114  0.883

                       TOTAL       BONDED        FREE
      ATOM            VALENCE     VALENCE     VALENCE
    1 C                 3.756       3.756      -0.000
    2 C                 3.822       3.822      -0.000
    3 O                 2.079       2.079       0.000
    4 H                 0.925       0.925       0.000
    5 H                 0.937       0.937       0.000
    6 H                 0.932       0.932       0.000
    7 H                 0.932       0.932      -0.000

          ---------------------
          ELECTROSTATIC MOMENTS
          ---------------------

 POINT   1           X           Y           Z (BOHR)    CHARGE
                 0.000000    0.000000    0.000000       -0.00 (A.U.)
         DX          DY          DZ         /D/  (DEBYE)
     2.382490    1.015846    0.000006    2.590020
 ...... END OF PROPERTY EVALUATION ......
 STEP CPU TIME =     0.01 TOTAL CPU TIME =          4.8 (      0.1 MIN)
 TOTAL WALL CLOCK TIME=          4.8 SECONDS, CPU UTILIZATION IS    98.75%

 BEGINNING ONE ELECTRON GRADIENT...
 ..... END OF 1-ELECTRON GRADIENT ......
 STEP CPU TIME =     0.01 TOTAL CPU TIME =          4.8 (      0.1 MIN)
 TOTAL WALL CLOCK TIME=          4.8 SECONDS, CPU UTILIZATION IS    98.55%

          ----------------------
          GRADIENT OF THE ENERGY
          ----------------------
 MEMORY FOR GRID POINT CONTRIBUTIONS TO THE DFT GRADIENT=    269593 WORDS.
 STEP CPU TIME =     1.22 TOTAL CPU TIME =          6.0 (      0.1 MIN)
 TOTAL WALL CLOCK TIME=          6.0 SECONDS, CPU UTILIZATION IS    98.84%

 THE MINIMUM MEMORY REQUIRED FOR THIS RUN IS      88877 WORDS.
 USING     991233 WORDS FOR 2E- DERIVATIVE INTEGRAL CONTRIBUTIONS.
 THE COARSE/FINE SCHWARZ SCREENINGS SKIPPED          781/        1299 BLOCKS.
 THE NUMBER OF GRADIENT INTEGRAL BLOCKS COMPUTED WAS     19886
 ...... END OF 2-ELECTRON GRADIENT ......
 STEP CPU TIME =     0.17 TOTAL CPU TIME =          6.2 (      0.1 MIN)
 TOTAL WALL CLOCK TIME=          6.2 SECONDS, CPU UTILIZATION IS    98.87%

          NSERCH=  0     ENERGY=    -153.7406545

                                 -----------------------
                                 GRADIENT (HARTREE/BOHR)
                                 -----------------------
        ATOM     ZNUC       DE/DX         DE/DY         DE/DZ
 --------------------------------------------------------------
    1  C            6.0    -0.0077375     0.0067094    -0.0000002
    2  C            6.0    -0.0011920     0.0029017     0.0000000
    3  O            8.0     0.0045534     0.0023415     0.0000001
    4  H            1.0    -0.0043382     0.0003198    -0.0000000
    5  H            1.0     0.0025421    -0.0131186     0.0000000
    6  H            1.0     0.0030862     0.0004231    -0.0099605
    7  H            1.0     0.0030860     0.0004231     0.0099606

          MAXIMUM GRADIENT = 0.0131186    RMS GRADIENT = 0.0051467

 NSERCH:   0  E=     -153.7406545296  GRAD. MAX=  0.0131186  R.M.S.=  0.0051467

          FORCE CONSTANT MATRIX NOT UPDATED --- TAKING FIRST STEP
          MIN SEARCH, CORRECT HESSIAN, TRYING PURE NR STEP
               NR STEP HAS LENGTH         =   0.209418
          RADIUS OF STEP TAKEN=   0.20942  CURRENT TRUST RADIUS=   0.30000

 BEGINNING GEOMETRY SEARCH POINT NSERCH=   1 ...

 COORDINATES OF ALL ATOMS ARE (ANGS)
   ATOM   CHARGE       X              Y              Z
 ------------------------------------------------------------
 C           6.0   1.2578062225  -0.1743023350   0.0000016099
 C           6.0  -0.1457730166   0.3983031852   0.0000065455
 O           8.0  -1.1702635600  -0.2452129423  -0.0000153695
 H           1.0  -0.1623906955   1.5167543707   0.0000083379
 H           1.0   1.1949300619  -1.2675120126   0.0000069105
 H           1.0   1.8310692696   0.2068457108  -0.8655145855
 H           1.0   1.8310811828   0.2068554924   0.8655065512

          INTERNUCLEAR DISTANCES (ANGS.)
          ------------------------------

                1 C          2 C          3 O          4 H          5 H     

   1 C       0.0000000    1.5158865 *  2.4291050 *  2.2083098 *  1.0950164 *
   2 C       1.5158865 *  0.0000000    1.2098322 *  1.1185746 *  2.1383229 *
   3 O       2.4291050 *  1.2098322 *  0.0000000    2.0298612 *  2.5766715 *
   4 H       2.2083098 *  1.1185746 *  2.0298612 *  0.0000000    3.0974924  
   5 H       1.0950164 *  2.1383229 *  2.5766715 *  3.0974924    0.0000000  
   6 H       1.1059035 *  2.1664921 *  3.1561756    2.5374935 *  1.8241522 *
   7 H       1.1059043 *  2.1664937 *  3.1561946    2.5374894 *  1.8241539 *

                6 H          7 H     

   1 C       1.1059035 *  1.1059043 *
   2 C       2.1664921 *  2.1664937 *
   3 O       3.1561756    3.1561946  
   4 H       2.5374935 *  2.5374894 *
   5 H       1.8241522 *  1.8241539 *
   6 H       0.0000000    1.7310211 *
   7 H       1.7310211 *  0.0000000  

[...]
    1  C  1  S   -0.000002   0.038121   0.000003  -0.123131  -0.090983
    2  C  1  S    0.000004  -0.072317   0.000000   0.144642   0.112558
    3  C  1  X    0.000024   0.221315  -0.000008   0.233612  -0.085947
    4  C  1  Y   -0.000009  -0.069962  -0.000003   0.024368  -0.110770
    5  C  1  Z   -0.225605  -0.000009   0.019932  -0.000063  -0.000053
    6  C  1  S    0.000006  -0.298541  -0.000044   2.065684   1.455179
    7  C  1  X    0.000016   0.166707  -0.000011   0.617655  -0.306998
    8  C  1  Y   -0.000001  -0.046813   0.000002  -0.010787  -0.098664
    9  C  1  Z   -0.108562  -0.000015  -0.041797  -0.000209  -0.000178
   10  C  1 XX   -0.000001  -0.002035  -0.000001  -0.004690  -0.003011
   11  C  1 YY   -0.000001   0.005011   0.000002  -0.005787  -0.013762
   12  C  1 ZZ    0.000003   0.003527   0.000000  -0.016335   0.000100
   13  C  1 XY    0.000001   0.005792  -0.000001  -0.008113   0.014140
   14  C  1 XZ   -0.019197  -0.000001   0.032734   0.000002   0.000003
   15  C  1 YZ   -0.007179   0.000000  -0.006073   0.000001   0.000004
   16  C  2  S    0.000005   0.001922  -0.000004  -0.030278   0.104695
   17  C  2  S   -0.000011  -0.017931   0.000010   0.102967  -0.141193
   18  C  2  X   -0.000054  -0.087562   0.000060   0.015463  -0.064289
   19  C  2  Y   -0.000004   0.120300   0.000017   0.142939  -0.271385
   20  C  2  Z    0.275411  -0.000005  -0.511002   0.000013  -0.000017
   21  C  2  S   -0.000012   0.033034   0.000030   0.259280  -1.632962
   22  C  2  X   -0.000031   0.066195   0.000063   0.031584  -0.368887
   23  C  2  Y   -0.000006  -0.042059   0.000027   0.400343  -0.627544
   24  C  2  Z    0.168497   0.000005  -0.560198   0.000062  -0.000027
   25  C  2 XX    0.000006  -0.038053   0.000003   0.004457   0.008357
   26  C  2 YY   -0.000001   0.041864   0.000001   0.005036   0.015037
   27  C  2 ZZ   -0.000005  -0.001379  -0.000005  -0.005345   0.001204
   28  C  2 XY    0.000002   0.019072   0.000002   0.000779  -0.010782
   29  C  2 XZ   -0.028741  -0.000005  -0.023806  -0.000000  -0.000001
   30  C  2 YZ   -0.012310   0.000003  -0.017485   0.000003   0.000003
   31  O  3  S    0.000001   0.000408   0.000000  -0.011735  -0.001529
   32  O  3  S   -0.000000  -0.004016  -0.000003   0.019117   0.023919
   33  O  3  X   -0.000048   0.313864  -0.000048   0.049254   0.018745
   34  O  3  Y    0.000017  -0.485554  -0.000012  -0.072015   0.046730
   35  O  3  Z    0.473675   0.000024   0.429216  -0.000003   0.000007
   36  O  3  S   -0.000015   0.011013   0.000003   0.172229  -0.089418
   37  O  3  X   -0.000035   0.223121  -0.000047   0.120268  -0.017969
   38  O  3  Y    0.000009  -0.343601  -0.000012  -0.070779   0.100022
   39  O  3  Z    0.304475   0.000017   0.449389  -0.000003  -0.000003
   40  O  3 XX   -0.000004   0.013034  -0.000000   0.001842   0.010522
   41  O  3 YY    0.000001  -0.014658  -0.000000  -0.005203   0.005185
   42  O  3 ZZ    0.000006  -0.001150  -0.000001  -0.004230   0.001714
   43  O  3 XY   -0.000001  -0.007946   0.000000   0.005782  -0.004287
   44  O  3 XZ    0.024462   0.000001  -0.000584   0.000000  -0.000000
   45  O  3 YZ    0.015896  -0.000001  -0.000730   0.000001   0.000001
   46  H  4  S   -0.000002   0.178024  -0.000004   0.015312   0.104858
   47  H  4  S   -0.000001   0.290626  -0.000020  -0.631839   1.630715
   48  H  5  S   -0.000001   0.018481   0.000010  -0.008263  -0.054818
   49  H  5  S    0.000002   0.095699   0.000036  -0.648638  -0.961795
   50  H  6  S    0.137293   0.032230  -0.100689  -0.041691   0.011950
   51  H  6  S    0.136781   0.067624  -0.225039  -1.228009  -0.239227
   52  H  7  S   -0.137265   0.032228   0.100676  -0.041657   0.011982
   53  H  7  S   -0.136756   0.067625   0.225016  -1.227675  -0.238831

                     16         17         18         19         20
                    0.1553     0.1574     0.2581     0.2830     0.5283
                     A          A          A          A          A   
    1  C  1  S    0.006067  -0.000032  -0.074502  -0.024555   0.000004
    2  C  1  S   -0.007614   0.000042   0.032871   0.047854  -0.000083
    3  C  1  X   -0.014843  -0.000001  -0.132327  -0.180915   0.000208
    4  C  1  Y   -0.339330  -0.000258   0.124232  -0.169314  -0.000164
    5  C  1  Z   -0.000311   0.424815  -0.000051  -0.000021  -0.318849
    6  C  1  S    0.031309   0.000663   1.689139  -0.034973  -0.000016
    7  C  1  X   -0.139018  -0.000117  -1.678358  -0.725270  -0.000044
    8  C  1  Y   -1.289035  -0.000972   0.657568  -0.695774   0.000220
    9  C  1  Z   -0.001007   1.399487  -0.000264  -0.000117   0.612958
   10  C  1 XX    0.012117   0.000001  -0.039242  -0.034090  -0.000018
   11  C  1 YY   -0.025326  -0.000020  -0.001750   0.033654   0.000000
   12  C  1 ZZ    0.012913   0.000012   0.020924   0.000594   0.000005
   13  C  1 XY   -0.006062  -0.000002   0.027670  -0.006194   0.000000
   14  C  1 XZ    0.000008  -0.006150  -0.000002  -0.000005  -0.033536
   15  C  1 YZ    0.000013  -0.013268   0.000001  -0.000002  -0.050848
   16  C  2  S   -0.069568  -0.000034   0.053456   0.058026  -0.000021
   17  C  2  S    0.085562   0.000028  -0.108449  -0.024647  -0.000069
   18  C  2  X    0.008877  -0.000042  -0.391562  -0.032956   0.000029
   19  C  2  Y    0.056290   0.000067   0.312283   0.243764  -0.000009
   20  C  2  Z    0.000069  -0.075825  -0.000026   0.000005  -0.901199
   21  C  2  S    1.215358   0.000731  -0.928554  -1.820374   0.000291
   22  C  2  X   -0.110601  -0.000188  -1.822733   1.484869   0.000009
   23  C  2  Y    0.250045   0.000218   0.746526   1.513047  -0.000157
   24  C  2  Z    0.000296  -0.401991  -0.000090   0.000202   0.864465
   25  C  2 XX   -0.026975  -0.000020   0.001549  -0.008063  -0.000037
   26  C  2 YY    0.002942   0.000002   0.002479   0.003989  -0.000025
   27  C  2 ZZ    0.011090   0.000011   0.000594  -0.015483   0.000023
   28  C  2 XY   -0.022203  -0.000013  -0.008716   0.001591   0.000017
   29  C  2 XZ   -0.000014   0.011798  -0.000002   0.000001   0.010269
   30  C  2 YZ    0.000015  -0.020731   0.000002   0.000002   0.003677
   31  O  3  S    0.029602   0.000020   0.031637  -0.110099   0.000009
   32  O  3  S   -0.042825  -0.000015  -0.031197   0.103419  -0.000033
   33  O  3  X   -0.096607  -0.000042   0.069357   0.149728  -0.000015
   34  O  3  Y   -0.105300  -0.000105  -0.133231   0.055194  -0.000002
   35  O  3  Z   -0.000038   0.042012   0.000000   0.000021  -0.062526
   36  O  3  S   -0.387110  -0.000324  -0.645186   2.222014  -0.000092
   37  O  3  X   -0.174117  -0.000112   0.034843   0.826990  -0.000085
   38  O  3  Y   -0.176001  -0.000171  -0.444509   0.414406  -0.000005
   39  O  3  Z   -0.000116   0.125908  -0.000024   0.000089  -0.053071
   40  O  3 XX    0.010343   0.000009  -0.000024  -0.017833   0.000007
   41  O  3 YY    0.006249   0.000008   0.023363  -0.039935  -0.000004
   42  O  3 ZZ    0.017279   0.000018   0.014714  -0.069047  -0.000007
   43  O  3 XY   -0.001636  -0.000000  -0.012708   0.042298   0.000011
   44  O  3 XZ   -0.000006   0.006022  -0.000003   0.000006  -0.047484
   45  O  3 YZ    0.000004  -0.004721  -0.000000   0.000006  -0.039882
   46  H  4  S   -0.006930   0.000001   0.004766   0.067871  -0.000096
   47  H  4  S   -0.722532  -0.000486  -0.793178  -0.606339   0.000049
   48  H  5  S   -0.134389  -0.000099   0.025472   0.107805   0.000048
   49  H  5  S   -1.679027  -0.001590   0.144249  -0.719894  -0.000020
   50  H  6  S    0.048348   0.077203   0.092662   0.002447   0.256008
   51  H  6  S    0.643608   1.505764   0.104108   0.469894   0.141493
   52  H  7  S    0.048492  -0.077114   0.092650   0.002389  -0.256056
   53  H  7  S    0.645961  -1.505176   0.104594   0.470246  -0.141530

                     21         22
                    0.5403     0.5890
                     A          A   
    1  C  1  S    0.019059  -0.008631
    2  C  1  S   -0.245774   0.075929
    3  C  1  X    0.793522  -0.481669
    4  C  1  Y   -0.521030  -0.486372
    5  C  1  Z    0.000012   0.000058
    6  C  1  S   -0.024001   0.327382
    7  C  1  X   -0.846399   0.831024
    8  C  1  Y    0.823355   1.408520
    9  C  1  Z   -0.000103  -0.000141
   10  C  1 XX   -0.035430  -0.000304
   11  C  1 YY    0.024912   0.101098
   12  C  1 ZZ   -0.017334  -0.087043
   13  C  1 XY    0.018019  -0.017635
   14  C  1 XZ    0.000009  -0.000006
   15  C  1 YZ    0.000008  -0.000006
   16  C  2  S   -0.064551  -0.001026
   17  C  2  S   -0.105863  -0.038141
   18  C  2  X   -0.073412   0.034276
   19  C  2  Y   -0.076887  -0.048695
   20  C  2  Z    0.000291   0.000034
   21  C  2  S   -0.040817   0.626398
   22  C  2  X    0.243972  -0.955807
   23  C  2  Y   -0.120960  -0.269311
   24  C  2  Z   -0.000314  -0.000069
   25  C  2 XX   -0.133119   0.057845
   26  C  2 YY   -0.053719  -0.039022
   27  C  2 ZZ    0.064711   0.002047
   28  C  2 XY    0.062111   0.015564
   29  C  2 XZ   -0.000024   0.000007
   30  C  2 YZ   -0.000002  -0.000002
   31  O  3  S    0.013294   0.021370
   32  O  3  S   -0.136755  -0.003318
   33  O  3  X   -0.119889   0.186311
   34  O  3  Y    0.065411  -0.182359
   35  O  3  Z    0.000009   0.000011
   36  O  3  S    0.155603  -0.790270
   37  O  3  X   -0.076069  -0.261865
   38  O  3  Y    0.053152  -0.197224
   39  O  3  Z    0.000024  -0.000043
   40  O  3 XX   -0.005188  -0.035109
   41  O  3 YY   -0.042474   0.014060
   42  O  3 ZZ   -0.019718   0.028393
   43  O  3 XY    0.014318  -0.001766
   44  O  3 XZ    0.000020  -0.000006
   45  O  3 YZ    0.000012   0.000002
   46  H  4  S   -0.219095  -0.361259
   47  H  4  S    0.092807   0.113074
   48  H  5  S    0.227706   0.399773
   49  H  5  S    0.157527   0.337240
   50  H  6  S    0.016216  -0.259078
   51  H  6  S   -0.015268  -0.232666
   52  H  7  S    0.016333  -0.259069
   53  H  7  S   -0.015119  -0.232632

     ---------------------------------------------------------------------
     PROPERTIES FOR THE B3LYP    DFT FUNCTIONAL (RHF  TYPE) DENSITY MATRIX
     ---------------------------------------------------------------------

          -----------------
          ENERGY COMPONENTS
          -----------------

         WAVEFUNCTION NORMALIZATION =       1.0000000000

                ONE ELECTRON ENERGY =    -345.6517893760
                TWO ELECTRON ENERGY =     122.4525731185
           NUCLEAR REPULSION ENERGY =      69.4575813420
                                      ------------------
                       TOTAL ENERGY =    -153.7416349155

 ELECTRON-ELECTRON POTENTIAL ENERGY =     122.4525731185
  NUCLEUS-ELECTRON POTENTIAL ENERGY =    -498.0611045728
   NUCLEUS-NUCLEUS POTENTIAL ENERGY =      69.4575813420
                                      ------------------
             TOTAL POTENTIAL ENERGY =    -306.1509501123
               TOTAL KINETIC ENERGY =     152.4093151968
                 VIRIAL RATIO (V/T) =       2.0087417210

          ---------------------------------------
          MULLIKEN AND LOWDIN POPULATION ANALYSES
          ---------------------------------------

     ATOMIC MULLIKEN POPULATION IN EACH MOLECULAR ORBITAL

                      1          2          3          4          5

                  2.000000   2.000000   2.000000   2.000000   2.000000

    1             0.000003   0.000745   1.997274   0.020625   1.134840
    2            -0.000973   1.999774   0.001113   0.516329   0.436553
    3             2.000982  -0.000951  -0.000001   1.464358   0.085392
    4            -0.000011   0.000407   0.000009  -0.001597   0.023787
    5            -0.000002   0.000009   0.000528  -0.000305   0.092294
    6             0.000000   0.000008   0.000538   0.000295   0.113568
    7             0.000000   0.000008   0.000538   0.000295   0.113565

                      6          7          8          9         10

                  2.000000   2.000000   2.000000   2.000000   2.000000

    1             0.351413   0.528096   0.842893   0.444338   0.730564
    2             0.824517   0.516294   0.343073   0.450130   0.158596
    3             0.271590   0.576513   0.219111   0.970211   0.325504
    4             0.360241   0.133656   0.000000   0.001200   0.124513
    5             0.107062   0.022554   0.000000   0.121284   0.457808
    6             0.042576   0.111376   0.297530   0.006470   0.101439
    7             0.042602   0.111511   0.297393   0.006366   0.101575

                     11         12

                  2.000000   2.000000

    1             0.239368   0.226116
    2             0.403630   0.089924
    3             1.078474   1.382701
    4             0.000000   0.256402
    5             0.000000   0.017028
    6             0.139292   0.013916
    7             0.139235   0.013914

               ----- POPULATIONS IN EACH AO -----
                             MULLIKEN      LOWDIN
              1  C  1  S      1.99185     1.97893
              2  C  1  S      0.67974     0.36737
              3  C  1  X      0.70649     0.63585
              4  C  1  Y      0.72867     0.65466
              5  C  1  Z      0.71211     0.63558
              6  C  1  S      0.65011     0.33540
              7  C  1  X      0.30434     0.41219
              8  C  1  Y      0.35720     0.47654
              9  C  1  Z      0.35886     0.48860
             10  C  1 XX     -0.00208     0.14855
             11  C  1 YY      0.00717     0.15893
             12  C  1 ZZ      0.00544     0.15432
             13  C  1 XY      0.00508     0.00928
             14  C  1 XZ      0.00764     0.01518
             15  C  1 YZ      0.00365     0.00580
             16  C  2  S      1.99195     1.97335
             17  C  2  S      0.73386     0.37108
             18  C  2  X      0.74448     0.65018
             19  C  2  Y      0.74962     0.65230
             20  C  2  Z      0.45270     0.40633
             21  C  2  S      0.46132     0.30960
             22  C  2  X      0.09744     0.28207
             23  C  2  Y      0.18148     0.37324
             24  C  2  Z      0.27764     0.32896
             25  C  2 XX      0.01648     0.21267
             26  C  2 YY      0.01966     0.19467
             27  C  2 ZZ     -0.02709     0.10335
             28  C  2 XY      0.02307     0.04718
             29  C  2 XZ      0.01284     0.02450
             30  C  2 YZ      0.00352     0.00612
             31  O  3  S      1.99265     1.97653
             32  O  3  S      0.91687     0.71865
             33  O  3  X      1.00185     0.93794
             34  O  3  Y      1.08704     1.03748
             35  O  3  Z      0.77177     0.72077
             36  O  3  S      1.00535     0.47829
             37  O  3  X      0.49269     0.57748
             38  O  3  Y      0.59070     0.66016
             39  O  3  Z      0.51462     0.55111
             40  O  3 XX     -0.00301     0.18204
             41  O  3 YY     -0.00954     0.17350
             42  O  3 ZZ     -0.00605     0.17190
             43  O  3 XY      0.00776     0.01616
             44  O  3 XZ      0.00796     0.01030
             45  O  3 YZ      0.00324     0.00420
             46  H  4  S      0.53486     0.50119
             47  H  4  S      0.36375     0.38847
             48  H  5  S      0.52028     0.48113
             49  H  5  S      0.29798     0.34807
             50  H  6  S      0.51792     0.47643
             51  H  6  S      0.30908     0.34949
             52  H  7  S      0.51793     0.47644
             53  H  7  S      0.30907     0.34948

          ----- MULLIKEN ATOMIC OVERLAP POPULATIONS -----
          (OFF-DIAGONAL ELEMENTS NEED TO BE MULTIPLIED BY 2)

             1           2           3           4           5

    1    5.3751111
    2    0.3012250   4.5711623
    3   -0.0779687   0.5883254   7.9152012
    4   -0.1229633   0.3375303  -0.0604387   0.7295847
    5    0.3472677  -0.0212292   0.0059156   0.0061459   0.5214496
    6    0.3467995  -0.0190309   0.0014248   0.0043735  -0.0206401
    7    0.3468057  -0.0190206   0.0014260   0.0043728  -0.0206497

             6           7

    6    0.5406054
    7   -0.0265248   0.5405927

          TOTAL MULLIKEN AND LOWDIN ATOMIC POPULATIONS
       ATOM         MULL.POP.    CHARGE          LOW.POP.     CHARGE
    1 C             6.516277   -0.516277         6.477185   -0.477185
    2 C             5.738962    0.261038         5.935598    0.064402
    3 O             8.373886   -0.373886         8.216504   -0.216504
    4 H             0.898605    0.101395         0.889664    0.110336
    5 H             0.818260    0.181740         0.829207    0.170793
    6 H             0.827007    0.172993         0.825921    0.174079
    7 H             0.827002    0.172998         0.825921    0.174079

          -------------------------------
          BOND ORDER AND VALENCE ANALYSIS     BOND ORDER THRESHOLD=0.050
          -------------------------------

                   BOND                       BOND                       BOND
  ATOM PAIR DIST  ORDER      ATOM PAIR DIST  ORDER      ATOM PAIR DIST  ORDER
    1   2  1.509  0.962        1   5  1.093  0.940        1   6  1.098  0.928
    1   7  1.098  0.928        2   3  1.211  1.987        2   4  1.115  0.883

                       TOTAL       BONDED        FREE
      ATOM            VALENCE     VALENCE     VALENCE
    1 C                 3.760       3.760       0.000
    2 C                 3.827       3.827      -0.000
    3 O                 2.082       2.082       0.000
    4 H                 0.925       0.925       0.000
    5 H                 0.937       0.937      -0.000
    6 H                 0.929       0.929      -0.000
    7 H                 0.929       0.929      -0.000

          ---------------------
          ELECTROSTATIC MOMENTS
          ---------------------

 POINT   1           X           Y           Z (BOHR)    CHARGE
                -0.010117   -0.013115   -0.000093        0.00 (A.U.)
         DX          DY          DZ         /D/  (DEBYE)
     2.441222    1.001630    0.000238    2.638717
 ...... END OF PROPERTY EVALUATION ......
 STEP CPU TIME =     0.01 TOTAL CPU TIME =         69.9 (      1.2 MIN)
 TOTAL WALL CLOCK TIME=         70.5 SECONDS, CPU UTILIZATION IS    99.15%
  $VIB   
          IVIB=   0 IATOM=   0 ICOORD=   0 E=     -153.7416349155
  3.155798946E-05 6.666946361E-06 1.304200481E-05-4.604813320E-05-2.292269029E-05
 -1.157481035E-05 9.016417437E-06 2.443174493E-05 1.600417332E-06-6.339636270E-06
  5.261834637E-06 1.771042984E-06 4.360536330E-06-2.965817265E-06 6.144250554E-06
  1.785557366E-06 2.955773352E-06-5.781713442E-06 5.667268877E-06-1.342779173E-05
 -5.201191884E-06
  2.441222028E+00 1.001629592E+00 2.380388252E-04
 ......END OF GEOMETRY SEARCH......
 STEP CPU TIME =     0.01 TOTAL CPU TIME =         69.9 (      1.2 MIN)
 TOTAL WALL CLOCK TIME=         70.5 SECONDS, CPU UTILIZATION IS    99.15%
                991401  WORDS OF DYNAMIC MEMORY USED
 EXECUTION OF GAMESS TERMINATED NORMALLY Wed Oct 16 08:13:27 2019
 DDI: 263640 bytes (0.3 MB / 0 MWords) used by master data server.

 ----------------------------------------
 CPU timing information for all processes
 ========================================
 0: 68.748 + 1.160 = 69.908
 ----------------------------------------
 ddikick.x: exited gracefully.
----- accounting info -----
Files used on the master node crcfe02.crc.nd.edu were:
-rw-r--r-- 1 cdrisko campus      519 Oct 16 08:12 /afs/crc.nd.edu/user/c/cdrisko/acetaldehyde_opt.F05
-rw-r--r-- 1 cdrisko campus   234135 Oct 16 08:13 /afs/crc.nd.edu/user/c/cdrisko/acetaldehyde_opt.F07
-rw-r--r-- 1 cdrisko campus 11521024 Oct 16 08:13 /afs/crc.nd.edu/user/c/cdrisko/acetaldehyde_opt.F08
-rw-r--r-- 1 cdrisko campus  1701440 Oct 16 08:13 /afs/crc.nd.edu/user/c/cdrisko/acetaldehyde_opt.F10
-rw-r--r-- 1 cdrisko campus  2039576 Oct 16 08:13 /afs/crc.nd.edu/user/c/cdrisko/acetaldehyde_opt.F22
Wed Oct 16 08:13:30 EDT 2019
0.449u 0.255s 1:14.36 0.9%	0+0k 0+24io 0pf+0w
