----- GAMESS execution script 'rungms' -----
This job is running on host crcfe01.crc.nd.edu
under operating system Linux at Wed Oct 16 17:53:21 EDT 2019
Available scratch disk space (Kbyte units) at beginning of the job is
Filesystem      1K-blocks  Used  Available Use% Mounted on
AFS            2147483647     0 2147483647   0% /afs
GAMESS temporary binary files will be written to /afs/crc.nd.edu/user/c/cdrisko
GAMESS supplementary output files will be written to /afs/crc.nd.edu/user/c/cdrisko/scr
Copying input file acetaldehyde_vib.inp to your run's scratch directory...

 Distributed Data Interface kickoff program.
 Initiating 1 compute processes on 1 nodes to run the following command:
 /afs/crc.nd.edu/x86_64_linux/g/gamess/nov-2017/gamess/gamess.00.x acetaldehyde_vib 

          ******************************************************
          *         GAMESS VERSION = 11 NOV 2017 (R3)         *
          *             FROM IOWA STATE UNIVERSITY             *
          * M.W.SCHMIDT, K.K.BALDRIDGE, J.A.BOATZ, S.T.ELBERT, *
          *   M.S.GORDON, J.H.JENSEN, S.KOSEKI, N.MATSUNAGA,   *
          *          K.A.NGUYEN, S.J.SU, T.L.WINDUS,           *
          *       TOGETHER WITH M.DUPUIS, J.A.MONTGOMERY       *
          *         J.COMPUT.CHEM.  14, 1347-1363(1993)        *
          **************** 64 BIT INTEL VERSION ****************

  SINCE 1993, STUDENTS AND POSTDOCS WORKING AT IOWA STATE UNIVERSITY
  AND ALSO IN THEIR VARIOUS JOBS AFTER LEAVING ISU HAVE MADE IMPORTANT
  CONTRIBUTIONS TO THE CODE:
     IVANA ADAMOVIC, CHRISTINE AIKENS, YURI ALEXEEV, POOJA ARORA,
     ANDREY ASADCHEV, ROB BELL, PRADIPTA BANDYOPADHYAY, JONATHAN BENTZ,
     BRETT BODE, KURT BRORSEN, CALEB CARLIN, GALINA CHABAN, WEI CHEN,
     CHEOL HO CHOI, PAUL DAY, ALBERT DEFUSCO, NUWAN DESILVA, TIM DUDLEY,
     DMITRI FEDOROV, ALEX FINDLATER, GRAHAM FLETCHER, MARK FREITAG,
     KURT GLAESEMANN, ANASTASIA GUININA,
     DAN KEMP, GRANT MERRILL, NORIYUKI MINEZAWA, JONATHAN MULLIN,
     TAKESHI NAGATA, SEAN NEDD, HEATHER NETZLOFF, BOSILJKA NJEGIC, RYAN OLSON,
     MIKE PAK, BUU PHAM,
     SPENCER PRUITT, LUKE ROSKOP, JIM SHOEMAKER, LYUDMILA SLIPCHENKO,
     TONY SMITH, SAROM SOK LEANG, JIE SONG, TETSUYA TAKETSUGU, SIMON WEBB,
     PENG XU, SOOHAENG YOO, FEDERICO ZAHARIEV

  ADDITIONAL CODE HAS BEEN PROVIDED BY COLLABORATORS IN OTHER GROUPS:
     IOWA STATE UNIVERSITY:
          JOE IVANIC, AARON WEST, LAIMUTIS BYTAUTAS, KLAUS RUEDENBERG
     UNIVERSITY OF TOKYO: KIMIHIKO HIRAO, TAKAHITO NAKAJIMA,
          TAKAO TSUNEDA, MUNEAKI KAMIYA, SUSUMU YANAGISAWA,
          KIYOSHI YAGI, MAHITO CHIBA, SEIKEN TOKURA, NAOAKI KAWAKAMI
     UNIVERSITY OF AARHUS: FRANK JENSEN
     UNIVERSITY OF IOWA: VISVALDAS KAIRYS, HUI LI
     NATIONAL INST. OF STANDARDS AND TECHNOLOGY: WALT STEVENS, DAVID GARMER
     UNIVERSITY OF PISA: BENEDETTA MENNUCCI, JACOPO TOMASI
     UNIVERSITY OF MEMPHIS: HENRY KURTZ, PRAKASHAN KORAMBATH
     UNIVERSITY OF ALBERTA: TOBY ZENG, MARIUSZ KLOBUKOWSKI
     UNIVERSITY OF NEW ENGLAND: MARK SPACKMAN
     MIE UNIVERSITY: HIROAKI UMEDA
     NAT. INST. OF ADVANCED INDUSTRIAL SCIENCE AND TECHNOLOGY: KAZUO KITAURA
     MICHIGAN STATE UNIVERSITY:
          KAROL KOWALSKI, MARTA WLOCH, JEFFREY GOUR, JESSE LUTZ,
          WEI LI, PIOTR PIECUCH
     UNIVERSITY OF SILESIA: MONIKA MUSIAL, STANISLAW KUCHARSKI
     FACULTES UNIVERSITAIRES NOTRE-DAME DE LA PAIX:
          OLIVIER QUINET, BENOIT CHAMPAGNE
     UNIVERSITY OF CALIFORNIA - SANTA BARBARA: BERNARD KIRTMAN
     INSTITUTE FOR MOLECULAR SCIENCE:
          KAZUYA ISHIMURA, MICHIO KATOUDA, AND SHIGERU NAGASE
     UNIVERSITY OF NOTRE DAME: ANNA POMOGAEVA, DAN CHIPMAN
     KYUSHU UNIVERSITY:
          HARUYUKI NAKANO,
          FENG LONG GU, JACEK KORCHOWIEC, MARCIN MAKOWSKI, AND YURIKO AOKI,
          HIROTOSHI MORI AND EISAKU MIYOSHI
     PENNSYLVANIA STATE UNIVERSITY:
          TZVETELIN IORDANOV, CHET SWALINA, JONATHAN SKONE,
          SHARON HAMMES-SCHIFFER
     WASEDA UNIVERSITY:
          MASATO KOBAYASHI, TOMOKO AKAMA, TSUGUKI TOUMA,
          TAKESHI YOSHIKAWA, YASUHIRO IKABATA, JUNJI SEINO,
          YUYA NAKAJIMA, HIROMI NAKAI
     NANJING UNIVERSITY: SHUHUA LI
     UNIVERSITY OF NEBRASKA:
          PEIFENG SU, DEJUN SI, NANDUN THELLAMUREGE, YALI WANG, HUI LI
     UNIVERSITY OF ZURICH: ROBERTO PEVERATI, KIM BALDRIDGE
     N. COPERNICUS UNIVERSITY AND JACKSON STATE UNIVERSITY:
          MARIA BARYSZ
     UNIVERSITY OF COPENHAGEN: Jimmy Kromann, CASPER STEINMANN
     TOKYO INSTITUTE OF TECHNOLOGY: HIROYA NAKATA
     NAGOYA UNIVERSITY: YOSHIO NISHIMOTO, STEPHAN IRLE
     MOSCOW STATE UNIVERSITY: VLADIMIR MIRONOV

 EXECUTION OF GAMESS BEGUN Wed Oct 16 17:53:22 2019

            ECHO OF THE FIRST FEW INPUT CARDS -
 INPUT CARD> $CONTRL SCFTYP=RHF RUNTYP=HESSIAN DFTTYP=B3LYP                                 
 INPUT CARD>       ISPHER=1 COORD=CART $END                                                 
 INPUT CARD> $BASIS GBASIS=N31 NGAUSS=6 NDFUNC=1 $END                                       
 INPUT CARD> $FORCE METHOD=SEMINUM $END                                                     
 INPUT CARD> $DATA                                                                          
 INPUT CARD>Title Vibrational Spectrum Calculation for Acetaldehyde                         
 INPUT CARD>C1                                                                              
 INPUT CARD>C 6 0.00000000 0.00000000 0.00000000                                            
 INPUT CARD>C 6 -1.39107184 0.58400542 0.00001130                                           
 INPUT CARD>O 8 -2.41207250 -0.06669530 -0.00000318                                         
 INPUT CARD>H 1 -1.42997222 1.69790682 0.00003254                                           
 INPUT CARD>H 1 -0.04301737 -1.09183097 0.00010466                                          
 INPUT CARD>H 1 0.55236712 0.35340436 -0.88121815                                           
 INPUT CARD>H 1 0.55262272 0.35346549 0.88100431                                            
 INPUT CARD> $END                                                                           
    1000000 WORDS OF MEMORY AVAILABLE


                    * * * WARNING * * *
 OLD KEYWORD COORD=CART SELECTED, AUTOMATICALLY CHANGED TO COORD=PRINAXIS.
 YOUR MOLECULE'S COORDINATES WILL BE CHANGED TO PRINCIPAL AXES BY
   A) TRANSLATION TO THE CENTER OF MASS, THEN
   B) ROTATION TO HAVE A DIAGONAL MOMENT OF INERTIA TENSOR.

 HOWEVER, NOTHING ELSE IN YOUR INPUT WILL BE ROTATED IN THE SAME WAY,
 SO IF YOU HAVE A $VEC, $VIB, $GRAD, $HESS, EFP PARTICLE COORDINATES,
 OR ANYTHING ELSE THAT DEPENDS ON THE INITIAL ORIENTATION, THAT DATA
 WILL NOT BE USED CORRECTLY IN THIS RUN.

 THE PURPOSE OF COORD=PRINAXIS IS TO BE USED ONCE, ONLY AT THE VERY
 BEGINNING OF A SERIES OF COMPUTATIONS, PERHAPS TO FIND THE SYMMETRY
 UNIQUE ATOMS FROM AN ARBITRARY INITIAL ORIENTATION.

 AFTER THE FIRST RUN, YOU SHOULD USE ONLY COORD=UNIQUE, TO ENSURE THAT
 THE COORDINATES WHICH YOU READ IN ARE THE COORDINATES THAT ARE USED.


     BASIS OPTIONS
     -------------
     GBASIS=N31          IGAUSS=       6      POLAR=POPN31  
     NDFUNC=       1     NFFUNC=       0     DIFFSP=       F
     NPFUNC=       0      DIFFS=       F     BASNAM=        


     RUN TITLE
     ---------
 Title Vibrational Spectrum Calculation for Acetaldehyde                         

 THE POINT GROUP OF THE MOLECULE IS C1      
 THE ORDER OF THE PRINCIPAL AXIS IS     0

 THE MOMENTS OF INERTIA ARE (AMU-ANGSTROM**2)
 IXX=     8.889   IYY=    50.195   IZZ=    55.954

 ATOM      ATOMIC                      COORDINATES (BOHR)
           CHARGE         X                   Y                   Z
 C           6.0    -2.3884202613        0.3118122839       -0.0000003232
 C           6.0     0.2403243442       -0.7917979385        0.0000210353
 O           8.0     2.1697358264        0.4378481200       -0.0000063326
 H           1.0     0.3138354006       -2.8967663619        0.0000611813
 H           1.0    -2.3071292168        2.3750736420        0.0001974475
 H           1.0    -3.4322427634       -0.3560251246       -1.6652611596
 H           1.0    -3.4327257777       -0.3561406305        1.6648564192

          INTERNUCLEAR DISTANCES (ANGS.)
          ------------------------------

                1 C          2 C          3 O          4 H          5 H     

   1 C       0.0000000    1.5086892 *  2.4129944 *  2.2198442 *  1.0926781 *
   2 C       1.5086892 *  0.0000000    1.2107245 *  1.1145804 *  2.1507391 *
   3 O       2.4129944 *  1.2107245 *  0.0000000    2.0194904 *  2.5813418 *
   4 H       2.2198442 *  1.1145804 *  2.0194904 *  0.0000000    3.1154904  
   5 H       1.0926781 *  2.1507391 *  2.5813418 *  3.1154904    0.0000000  
   6 H       1.0984305 *  2.1463218 *  3.1210456    2.5522459 *  1.7944129 *
   7 H       1.0984072 *  2.1464496 *  3.1212381    2.5523159 *  1.7943392 *

                6 H          7 H     

   1 C       1.0984305 *  1.0984072 *
   2 C       2.1463218 *  2.1464496 *
   3 O       3.1210456    3.1212381  
   4 H       2.5522459 *  2.5523159 *
   5 H       1.7944129 *  1.7943392 *
   6 H       0.0000000    1.7622225 *
   7 H       1.7622225 *  0.0000000  

  * ... LESS THAN  3.000


     ATOMIC BASIS SET
     ----------------
 THE CONTRACTED PRIMITIVE FUNCTIONS HAVE BEEN UNNORMALIZED
 THE CONTRACTED BASIS FUNCTIONS ARE NOW NORMALIZED TO UNITY

  SHELL TYPE  PRIMITIVE        EXPONENT          CONTRACTION COEFFICIENT(S)

 C         

      1   S       1          3047.5248800    0.001834737132
      1   S       2           457.3695180    0.014037322813
      1   S       3           103.9486850    0.068842622264
      1   S       4            29.2101553    0.232184443216
      1   S       5             9.2866630    0.467941348435
      1   S       6             3.1639270    0.362311985337

      2   L       7             7.8682723   -0.119332419775    0.068999066591
      2   L       8             1.8812885   -0.160854151696    0.316423960957
      2   L       9             0.5442493    1.143456437840    0.744308290898

      3   L      10             0.1687145    1.000000000000    1.000000000000

      4   D      11             0.8000000    1.000000000000

 C         

      5   S      12          3047.5248800    0.001834737132
      5   S      13           457.3695180    0.014037322813
      5   S      14           103.9486850    0.068842622264
      5   S      15            29.2101553    0.232184443216
      5   S      16             9.2866630    0.467941348435
      5   S      17             3.1639270    0.362311985337

      6   L      18             7.8682723   -0.119332419775    0.068999066591
      6   L      19             1.8812885   -0.160854151696    0.316423960957
      6   L      20             0.5442493    1.143456437840    0.744308290898

      7   L      21             0.1687145    1.000000000000    1.000000000000

      8   D      22             0.8000000    1.000000000000

 O         

      9   S      23          5484.6716600    0.001831074430
      9   S      24           825.2349460    0.013950172200
      9   S      25           188.0469580    0.068445078098
      9   S      26            52.9645000    0.232714335992
      9   S      27            16.8975704    0.470192897984
      9   S      28             5.7996353    0.358520852987

     10   L      29            15.5396162   -0.110777549525    0.070874268231
     10   L      30             3.5999336   -0.148026262701    0.339752839147
     10   L      31             1.0137618    1.130767015354    0.727158577316

     11   L      32             0.2700058    1.000000000000    1.000000000000

     12   D      33             0.8000000    1.000000000000

 H         

     13   S      34            18.7311370    0.033494604338
     13   S      35             2.8253944    0.234726953484
     13   S      36             0.6401217    0.813757326146

     14   S      37             0.1612778    1.000000000000

 H         

     15   S      38            18.7311370    0.033494604338
     15   S      39             2.8253944    0.234726953484
     15   S      40             0.6401217    0.813757326146

     16   S      41             0.1612778    1.000000000000

 H         

     17   S      42            18.7311370    0.033494604338
     17   S      43             2.8253944    0.234726953484
     17   S      44             0.6401217    0.813757326146

     18   S      45             0.1612778    1.000000000000

 H         

     19   S      46            18.7311370    0.033494604338
     19   S      47             2.8253944    0.234726953484
     19   S      48             0.6401217    0.813757326146

     20   S      49             0.1612778    1.000000000000

 TOTAL NUMBER OF BASIS SET SHELLS             =   20
 NUMBER OF CARTESIAN GAUSSIAN BASIS FUNCTIONS =   53
 NOTE: THIS RUN WILL RESTRICT THE MO VARIATION SPACE TO SPHERICAL HARMONICS.
 THE NUMBER OF ORBITALS KEPT IN THE VARIATIONAL SPACE WILL BE PRINTED LATER.
 NUMBER OF ELECTRONS                          =   24
 CHARGE OF MOLECULE                           =    0
 SPIN MULTIPLICITY                            =    1
 NUMBER OF OCCUPIED ORBITALS (ALPHA)          =   12
 NUMBER OF OCCUPIED ORBITALS (BETA )          =   12
 TOTAL NUMBER OF ATOMS                        =    7
 THE NUCLEAR REPULSION ENERGY IS       69.4575812450

     LEBEDEV GRID-BASED DFT OPTIONS
     ------------------------------
     DFTTYP=B3LYP   
     NRAD  =      96     NLEB  =     302
     NRAD0 =      96     NLEB0 =     302
     SWOFF =    5.00E-03 (PURE SCF -> DFT)
     SWITCH=    3.00E-04 (COARSE -> TIGHT GRID)
     THRESH=    0.00E+00 GTHRE=    1.00E+00

 GRIMME'S EMPIRICAL DISPERSION CORRECTION= F

     $CONTRL OPTIONS
     ---------------
 SCFTYP=RHF          RUNTYP=HESSIAN      EXETYP=RUN     
 MPLEVL=       0     CITYP =NONE         CCTYP =NONE         VBTYP =NONE    
 DFTTYP=B3LYP        TDDFT =NONE    
 MULT  =       1     ICHARG=       0     NZVAR =       0     COORD =PRINAXIS
 PP    =NONE         RELWFN=NONE         LOCAL =NONE         NUMGRD=       F
 ISPHER=       1     NOSYM =       0     MAXIT =      30     UNITS =ANGS    
 PLTORB=       F     MOLPLT=       F     AIMPAC=       F     FRIEND=        
 NPRINT=       7     IREST =       0     GEOM  =INPUT   
 NORMF =       0     NORMP =       0     ITOL  =      20     ICUT  =       9
 INTTYP=BEST         GRDTYP=BEST         QMTTOL= 1.0E-06

     $SYSTEM OPTIONS
     ---------------
  REPLICATED MEMORY=     1000000 WORDS (ON EVERY NODE).
 DISTRIBUTED MEMDDI=           0 MILLION WORDS IN AGGREGATE,
 MEMDDI DISTRIBUTED OVER   1 PROCESSORS IS           0 WORDS/PROCESSOR.
 TOTAL MEMORY REQUESTED ON EACH PROCESSOR=     1000000 WORDS.
 TIMLIM=      525600.00 MINUTES, OR     365.0 DAYS.
 PARALL= F  BALTYP=  DLB     KDIAG=    0  COREFL= F
 MXSEQ2=     300 MXSEQ3=     150  mem10=         0

          ----------------
          PROPERTIES INPUT
          ----------------

     MOMENTS            FIELD           POTENTIAL          DENSITY
 IEMOM =       1   IEFLD =       0   IEPOT =       0   IEDEN =       0
 WHERE =COMASS     WHERE =NUCLEI     WHERE =NUCLEI     WHERE =NUCLEI  
 OUTPUT=BOTH       OUTPUT=BOTH       OUTPUT=BOTH       OUTPUT=BOTH    
 IEMINT=       0   IEFINT=       0                     IEDINT=       0
                                                       MORB  =       0
          EXTRAPOLATION IN EFFECT
          DIIS IN EFFECT
 ORBITAL PRINTING OPTION: NPREO=     1    53     2     1

     -------------------------------
     INTEGRAL TRANSFORMATION OPTIONS
     -------------------------------
     NWORD  =            0
     CUTOFF = 1.0E-09     MPTRAN =       0
     DIRTRF =       F     AOINTS =DUP     

          ----------------------
          INTEGRAL INPUT OPTIONS
          ----------------------
 NOPK  =       1 NORDER=       0 SCHWRZ=       T

     ------------------------------------------
     THE POINT GROUP IS C1 , NAXIS= 0, ORDER= 1
     ------------------------------------------

 -- VARIATIONAL SPACE WILL BE RESTRICTED TO PURE SPHERICAL HARMONICS ONLY --
 AFTER EXCLUDING CONTAMINANT COMBINATIONS FROM THE CARTESIAN GAUSSIAN BASIS
 SET, THE NUMBER OF SPHERICAL HARMONICS KEPT IN THE VARIATION SPACE IS   50

     DIMENSIONS OF THE SYMMETRY SUBSPACES ARE
 A   =   50

 ..... DONE SETTING UP THE RUN .....
 STEP CPU TIME =     0.02 TOTAL CPU TIME =          0.0 (      0.0 MIN)
 TOTAL WALL CLOCK TIME=          0.0 SECONDS, CPU UTILIZATION IS   100.00%

     ---------------------------------
     HESSIAN MATRIX CONTROL PARAMETERS
     ---------------------------------
     METHOD=SEMINUM    NVIB  =       2   VIBSIZ= 0.01000
     RDHESS=       F   PURIFY=       F   PRTIFC=       F
     VIBANL=       T   DECOMP=       F   PROJCT=       F
     SCLFAC= 1.00000   PRTSCN=       F   NPRT  =       0
     PULCOR=       F   NPUN  =       0   REDOVB=       T
     HSSTYP=GENERAL 
     THERMOCHEMISTRY WILL BE PRINTED FOR    1 TEMPERATURES:
      298.15000

               * * * EFFICIENCY NOTE * * *
 THIS CALCULATION CAN BE RUN WITH DIFFERENTIATION METHOD=ANALYTIC
 THIS MIGHT BE MORE ACCURATE AND/OR FASTER THAN YOUR CHOICE,
 BUT THE REQUESTED CALCULATION METHOD=SEMINUM  IS PROCEEDING.

1   ATOM  0
                                        -------------------
   COORD  0                             NUCLEAR COORDINATES
                                        -------------------
     VIB  0

                       ATOM             X              Y              Z

                 1  C               -2.388420       0.311812      -0.000000
                 2  C                0.240324      -0.791798       0.000021
                 3  O                2.169736       0.437848      -0.000006
                 4  H                0.313835      -2.896766       0.000061
                 5  H               -2.307129       2.375074       0.000197
                 6  H               -3.432243      -0.356025      -1.665261
                 7  H               -3.432726      -0.356141       1.664856

          ********************
          1 ELECTRON INTEGRALS
          ********************
 ...... END OF ONE-ELECTRON INTEGRALS ......
 STEP CPU TIME =     0.00 TOTAL CPU TIME =          0.0 (      0.0 MIN)
 TOTAL WALL CLOCK TIME=          0.0 SECONDS, CPU UTILIZATION IS    66.67%

          -------------
          GUESS OPTIONS
          -------------
          GUESS =HUCKEL            NORB  =       0          NORDER=       0
          MIX   =       F          PRTMO =       F          PUNMO =       F
          TOLZ  = 1.0E-08          TOLE  = 1.0E-05
          SYMDEN=       F          PURIFY=       F

 INITIAL GUESS ORBITALS GENERATED BY HUCKEL   ROUTINE.
 HUCKEL GUESS REQUIRES     27154 WORDS.

 STATISTICS FOR GENERATION OF SYMMETRY ORBITAL -Q- MATRIX
 NUMBER OF CARTESIAN ATOMIC ORBITALS=         53
 NUMBER OF SPHERICAL CONTAMINANTS DROPPED=     3
 NUMBER OF LINEARLY DEPENDENT MOS DROPPED=     0
 TOTAL NUMBER OF MOS IN VARIATION SPACE=      50

 SYMMETRIES FOR INITIAL GUESS ORBITALS FOLLOW.   BOTH SET(S).
    12 ORBITALS ARE OCCUPIED (    3 CORE ORBITALS).
     4=A        5=A        6=A        7=A        8=A        9=A       10=A   
    11=A       12=A       13=A       14=A       15=A       16=A       17=A   
    18=A       19=A       20=A       21=A       22=A   
 ...... END OF INITIAL ORBITAL SELECTION ......
 STEP CPU TIME =     0.00 TOTAL CPU TIME =          0.0 (      0.0 MIN)
 TOTAL WALL CLOCK TIME=          0.1 SECONDS, CPU UTILIZATION IS    22.22%

                    ----------------------
                    AO INTEGRAL TECHNOLOGY
                    ----------------------
     S,P,L SHELL ROTATED AXIS INTEGRALS, REPROGRAMMED BY
        KAZUYA ISHIMURA (IMS) AND JOSE SIERRA (SYNSTAR).
     S,P,D,L SHELL ROTATED AXIS INTEGRALS PROGRAMMED BY
        KAZUYA ISHIMURA (INSTITUTE FOR MOLECULAR SCIENCE).
     S,P,D,F,G SHELL TO TOTAL QUARTET ANGULAR MOMENTUM SUM 5,
        ERIC PROGRAM BY GRAHAM FLETCHER (ELORET AND NASA ADVANCED
        SUPERCOMPUTING DIVISION, AMES RESEARCH CENTER).
     S,P,D,F,G,L SHELL GENERAL RYS QUADRATURE PROGRAMMED BY
        MICHEL DUPUIS (PACIFIC NORTHWEST NATIONAL LABORATORY).

          --------------------
          2 ELECTRON INTEGRALS
          --------------------

 THE -PK- OPTION IS OFF, THE INTEGRALS ARE NOT IN SUPERMATRIX FORM.
 STORING   15000 INTEGRALS/RECORD ON DISK, USING 12 BYTES/INTEGRAL.
 TWO ELECTRON INTEGRAL EVALUATION REQUIRES   90606 WORDS OF MEMORY.
 SCHWARZ INEQUALITY OVERHEAD:      1430 INTEGRALS, T=        0.00
 II,JST,KST,LST =  1  1  1  1 NREC =         1 INTLOC =    1
 II,JST,KST,LST =  2  1  1  1 NREC =         1 INTLOC =    2
 II,JST,KST,LST =  3  1  1  1 NREC =         1 INTLOC =   34
 II,JST,KST,LST =  4  1  1  1 NREC =         1 INTLOC =  214
 II,JST,KST,LST =  5  1  1  1 NREC =         1 INTLOC = 1189
 II,JST,KST,LST =  6  1  1  1 NREC =         1 INTLOC = 3098
 II,JST,KST,LST =  7  1  1  1 NREC =         2 INTLOC =  537
 II,JST,KST,LST =  8  1  1  1 NREC =         3 INTLOC = 7459
 II,JST,KST,LST =  9  1  1  1 NREC =         7 INTLOC = 3992
 II,JST,KST,LST = 10  1  1  1 NREC =         7 INTLOC =14001
 II,JST,KST,LST = 11  1  1  1 NREC =        11 INTLOC =12951
 II,JST,KST,LST = 12  1  1  1 NREC =        18 INTLOC =  338
 II,JST,KST,LST = 13  1  1  1 NREC =        30 INTLOC = 3352
 II,JST,KST,LST = 14  1  1  1 NREC =        33 INTLOC = 1638
 II,JST,KST,LST = 15  1  1  1 NREC =        36 INTLOC = 5024
 II,JST,KST,LST = 16  1  1  1 NREC =        39 INTLOC = 7507
 II,JST,KST,LST = 17  1  1  1 NREC =        43 INTLOC = 2776
 II,JST,KST,LST = 18  1  1  1 NREC =        47 INTLOC = 2009
 II,JST,KST,LST = 19  1  1  1 NREC =        51 INTLOC = 7681
 II,JST,KST,LST = 20  1  1  1 NREC =        55 INTLOC =14232
 SCHWARZ INEQUALITY TEST SKIPPED         774 INTEGRAL BLOCKS.
 TOTAL NUMBER OF NONZERO TWO-ELECTRON INTEGRALS =              897882
         60 INTEGRAL RECORDS WERE STORED ON DISK FILE  8.
  ...... END OF TWO-ELECTRON INTEGRALS .....
 STEP CPU TIME =     0.11 TOTAL CPU TIME =          0.1 (      0.0 MIN)
 TOTAL WALL CLOCK TIME=          0.2 SECONDS, CPU UTILIZATION IS    59.09%

          --------------------------
             R-B3LYP SCF CALCULATION
          --------------------------

     NUCLEAR ENERGY =        69.4575812450
     MAXIT =   30     NPUNCH=    2
     EXTRAP=T  DAMP=F  SHIFT=F  RSTRCT=F  DIIS=T  DEM=F  SOSCF=F
         DENSITY MATRIX CONVERGENCE THRESHOLD=  1.00E-05
     COARSE -> FINE DFT GRID SWITCH THRESHOLD=  3.00E-04 (SWITCH IN $DFT)
                   HF -> DFT SWITCH THRESHOLD=  5.00E-03 (SWOFF IN $DFT)
     MEMORY REQUIRED FOR RHF ITERS=    307447 WORDS.

     EXCHANGE FUNCTIONAL   =B88&HFX   
     CORRELATION FUNCTIONAL=LYP88&VWN5
     DFT THRESHOLD         =.493E-08
 FOR AN EULER-MACLAURIN QUADRATURE USING  96 RADIAL POINTS:
 SMALLEST GAUSSIAN PRIMITIVE EXPONENT=        0.1612777588 OF TYPE -S-
 ON ATOM NUMBER   4 HAS RADIAL NORMALIZATION=  1.000000
  LARGEST GAUSSIAN PRIMITIVE EXPONENT=     5484.6716600000 OF TYPE -S-
 ON ATOM NUMBER   3 HAS RADIAL NORMALIZATION=  1.000000
 DFT IS SWITCHED OFF, PERFORMING PURE SCF UNTIL SWOFF THRESHOLD IS REACHED.

 ITER EX DEM     TOTAL ENERGY        E CHANGE  DENSITY CHANGE    DIIS ERROR
   1  0  0     -152.4614363003  -152.4614363003   0.248843931   0.512830983
          * * *   INITIATING DIIS PROCEDURE   * * *
   2  1  0     -152.8550930317    -0.3936567313   0.150288721   0.130321355
   3  2  0     -152.8864138786    -0.0313208469   0.074675641   0.112074059
   4  3  0     -152.9129287154    -0.0265148369   0.009198035   0.007409803
   5  4  0     -152.9134886355    -0.0005599200   0.004568556   0.003589125
 CONVERGED TO SWOFF, SO DFT CALCULATION IS NOW SWITCHED ON.
          * * *   INITIATING DIIS PROCEDURE   * * *
   6  5  0     -153.7247780848    -0.8112894493   0.092302031   0.059242105
   7  6  0     -153.7348645160    -0.0100864312   0.056475002   0.035302455
   8  7  0     -153.7329014350     0.0019630810   0.043023606   0.046084777
   9  8  0     -153.7384648663    -0.0055634313   0.008435508   0.010844090
  10  9  0     -153.7387056163    -0.0002407499   0.000716523   0.000693283
  11 10  0     -153.7387078816    -0.0000022653   0.000252898   0.000188326
  12 11  0     -153.7387080286    -0.0000001470   0.000044860   0.000055351
  13 12  0     -153.7387080423    -0.0000000138   0.000005985   0.000007464
  14 13  0     -153.7387080426    -0.0000000002   0.000001108   0.000001208
  15 14  0     -153.7387080426    -0.0000000000   0.000000262   0.000000274

          -----------------
          DENSITY CONVERGED
          -----------------
     TIME TO FORM FOCK OPERATORS=       7.4 SECONDS (       0.5 SEC/ITER)
     TIME TO SOLVE SCF EQUATIONS=       0.0 SECONDS (       0.0 SEC/ITER)

 FINAL R-B3LYP ENERGY IS     -153.7387080426 AFTER  15 ITERATIONS
 DFT EXCHANGE + CORRELATION ENERGY =       -16.8247972643
 TOTAL ELECTRON NUMBER             =        24.0001019850

          ------------
          EIGENVECTORS
          ------------

                      1          2          3          4          5
                  -19.1431   -10.2725   -10.1865    -1.0423    -0.7501
                     A          A          A          A          A   
    1  C  1  S    0.000029   0.000968   0.995272  -0.017855  -0.181424
    2  C  1  S   -0.000074  -0.000839   0.037468   0.033147   0.347902
    3  C  1  X   -0.000255  -0.000941   0.000143   0.025616   0.030970
    4  C  1  Y    0.000202   0.000390  -0.000243  -0.004092  -0.031025
    5  C  1  Z    0.000000  -0.000000  -0.000000  -0.000000  -0.000004
    6  C  1  S   -0.000914   0.004834  -0.033343   0.020330   0.317318
    7  C  1  X   -0.001404   0.002663  -0.001672   0.006171   0.000629
    8  C  1  Y   -0.002486  -0.002127   0.000859   0.008712  -0.007559
    9  C  1  Z   -0.000000   0.000000   0.000000  -0.000001  -0.000003
   10  C  1 XX   -0.000374  -0.000995  -0.000000   0.004984  -0.001007
   11  C  1 YY    0.000276   0.000311   0.000030  -0.002254   0.000620
   12  C  1 ZZ    0.000098   0.000684  -0.000030  -0.002730   0.000387
   13  C  1 XY   -0.000223   0.000691  -0.000068  -0.001505  -0.000492
   14  C  1 XZ   -0.000000  -0.000000  -0.000000   0.000000  -0.000002
   15  C  1 YZ   -0.000000  -0.000000  -0.000000   0.000000   0.000002
   16  C  2  S    0.000227   0.995142  -0.000921  -0.117410  -0.079998
   17  C  2  S    0.000037   0.035738  -0.001248   0.224202   0.161231
   18  C  2  X   -0.000039   0.001733   0.000527   0.154293  -0.183061
   19  C  2  Y   -0.000220   0.001350  -0.000364   0.101941  -0.010804
   20  C  2  Z    0.000000  -0.000000  -0.000000  -0.000003  -0.000002
   21  C  2  S    0.009406  -0.015775   0.007916   0.082965   0.118194
   22  C  2  X    0.005277   0.005754  -0.004058  -0.013116  -0.039942
   23  C  2  Y    0.005778   0.002734   0.002532  -0.018686  -0.015014
   24  C  2  Z   -0.000000  -0.000000   0.000000   0.000000  -0.000002
   25  C  2 XX   -0.000520   0.001314  -0.000905   0.016121   0.003384
   26  C  2 YY    0.000266  -0.000105   0.000473  -0.000616   0.001610
   27  C  2 ZZ    0.000254  -0.001209   0.000431  -0.015505  -0.004994
   28  C  2 XY   -0.000806   0.001308   0.000745   0.022854  -0.013846
   29  C  2 XZ    0.000000  -0.000000  -0.000000  -0.000000   0.000001
   30  C  2 YZ    0.000000  -0.000000   0.000000  -0.000001  -0.000000
   31  O  3  S    0.995121  -0.000045  -0.000006  -0.194440   0.053492
   32  O  3  S    0.029543   0.000492  -0.000266   0.428657  -0.124401
   33  O  3  X   -0.001958   0.000954   0.000128  -0.138724  -0.016722
   34  O  3  Y   -0.001205   0.000559   0.000029  -0.087173   0.015508
   35  O  3  Z    0.000000  -0.000000   0.000000   0.000002  -0.000001
   36  O  3  S   -0.019961  -0.006050  -0.000037   0.376609  -0.119872
   37  O  3  X    0.005251   0.003742   0.000273  -0.042142  -0.015260
   38  O  3  Y    0.002831   0.002768  -0.000605  -0.024300   0.001342
   39  O  3  Z   -0.000000  -0.000000  -0.000000   0.000000   0.000000
   40  O  3 XX   -0.000203  -0.001093  -0.000074   0.005960   0.003468
   41  O  3 YY    0.000120  -0.000039   0.000286  -0.002819  -0.001672
   42  O  3 ZZ    0.000082   0.001132  -0.000212  -0.003141  -0.001796
   43  O  3 XY   -0.000125  -0.001536   0.000083   0.010166   0.000276
   44  O  3 XZ    0.000000   0.000000   0.000000  -0.000000  -0.000000
   45  O  3 YZ   -0.000000   0.000000  -0.000000  -0.000000   0.000000
   46  H  4  S   -0.000184  -0.000976  -0.000344   0.027987   0.053472
   47  H  4  S    0.001314   0.004954   0.000851  -0.011308   0.009254
   48  H  5  S    0.000135  -0.000243  -0.000544   0.007365   0.104723
   49  H  5  S    0.001358   0.000812   0.005717  -0.003240   0.019480
   50  H  6  S   -0.000023  -0.000433  -0.000497   0.005412   0.115091
   51  H  6  S   -0.000571   0.000688   0.005750  -0.000177   0.024524
   52  H  7  S   -0.000023  -0.000433  -0.000497   0.005411   0.115090
   53  H  7  S   -0.000571   0.000687   0.005751  -0.000176   0.024524

                      6          7          8          9         10
                   -0.5776    -0.4733    -0.4413    -0.4297    -0.3952
                     A          A          A          A          A   
    1  C  1  S    0.071423   0.013485  -0.000004  -0.006987  -0.003368
    2  C  1  S   -0.140373  -0.024426   0.000008   0.013707   0.006822
    3  C  1  X    0.131546   0.281017  -0.000094  -0.189462   0.126146
    4  C  1  Y   -0.115096   0.112245   0.000174   0.214227   0.356679
    5  C  1  Z   -0.000010  -0.000036   0.385739  -0.000231  -0.000031
    6  C  1  S   -0.170914  -0.033983   0.000016   0.021601   0.015632
    7  C  1  X    0.042465   0.122146  -0.000047  -0.091789   0.059403
    8  C  1  Y   -0.032982   0.071034   0.000092   0.121319   0.164121
    9  C  1  Z   -0.000002  -0.000014   0.178983  -0.000110  -0.000012
   10  C  1 XX    0.008489   0.010274  -0.000000  -0.008580  -0.009630
   11  C  1 YY   -0.003496   0.002717   0.000010   0.007651   0.023958
   12  C  1 ZZ   -0.004992  -0.012992  -0.000010   0.000930  -0.014328
   13  C  1 XY   -0.011556  -0.005340   0.000006   0.008039  -0.006906
   14  C  1 XZ    0.000002   0.000005  -0.011792   0.000006   0.000004
   15  C  1 YZ   -0.000001   0.000003  -0.015207   0.000010   0.000005
   16  C  2  S   -0.134275  -0.045360  -0.000016  -0.008722   0.005013
   17  C  2  S    0.282770   0.105976   0.000043   0.028314  -0.018589
   18  C  2  X   -0.034247  -0.089812   0.000203   0.366542  -0.076196
   19  C  2  Y   -0.219604   0.317678   0.000004  -0.004016  -0.207540
   20  C  2  Z    0.000001  -0.000017   0.231166  -0.000164  -0.000021
   21  C  2  S    0.265740   0.063380   0.000016  -0.013149   0.033961
   22  C  2  X   -0.040265  -0.053936   0.000041   0.081098   0.018419
   23  C  2  Y   -0.089286   0.079948  -0.000017  -0.034970  -0.054936
   24  C  2  Z   -0.000000  -0.000007   0.118543  -0.000085  -0.000015
   25  C  2 XX   -0.008769  -0.003024   0.000001   0.004657  -0.012892
   26  C  2 YY    0.013532   0.001945   0.000003  -0.001785   0.013892
   27  C  2 ZZ   -0.004764   0.001078  -0.000003  -0.002873  -0.001000
   28  C  2 XY   -0.004233  -0.000040   0.000002   0.005445  -0.016562
   29  C  2 XZ    0.000000   0.000000  -0.001154  -0.000001  -0.000000
   30  C  2 YZ   -0.000000  -0.000001   0.008712  -0.000006  -0.000001
   31  O  3  S    0.068770   0.051254   0.000044   0.063782  -0.024060
   32  O  3  S   -0.161932  -0.118931  -0.000099  -0.139542   0.050130
   33  O  3  X   -0.062044  -0.295053  -0.000166  -0.250126   0.262680
   34  O  3  Y   -0.125092   0.072700  -0.000187  -0.341367   0.064115
   35  O  3  Z    0.000001  -0.000009   0.205110  -0.000148  -0.000032
   36  O  3  S   -0.192793  -0.178963  -0.000179  -0.268617   0.101902
   37  O  3  X   -0.039428  -0.162223  -0.000086  -0.126079   0.147333
   38  O  3  Y   -0.065358   0.042703  -0.000099  -0.184015   0.038078
   39  O  3  Z    0.000001  -0.000005   0.115978  -0.000086  -0.000019
   40  O  3 XX   -0.000361   0.019992   0.000002   0.001597  -0.011261
   41  O  3 YY    0.005516  -0.013382   0.000004   0.007944   0.006579
   42  O  3 ZZ   -0.005154  -0.006611  -0.000006  -0.009541   0.004682
   43  O  3 XY    0.009823   0.000802   0.000010   0.017263  -0.005961
   44  O  3 XZ   -0.000000   0.000001  -0.013505   0.000010   0.000002
   45  O  3 YZ   -0.000000   0.000000  -0.007799   0.000005   0.000001
   46  H  4  S    0.211689  -0.120794   0.000023   0.017140   0.126469
   47  H  4  S    0.100328  -0.106638   0.000011   0.000452   0.120550
   48  H  5  S   -0.111211   0.055094   0.000126   0.132912   0.244778
   49  H  5  S   -0.055844   0.027249   0.000077   0.073438   0.206934
   50  H  6  S   -0.073101  -0.117415  -0.193789   0.026691  -0.117766
   51  H  6  S   -0.032042  -0.079336  -0.150475   0.020771  -0.101319
   52  H  7  S   -0.073123  -0.117489   0.193743   0.026470  -0.117843
   53  H  7  S   -0.032053  -0.079386   0.150432   0.020592  -0.101391

                     11         12         13         14         15
                   -0.3606    -0.2514    -0.0182     0.1104     0.1342
                     A          A          A          A          A   
    1  C  1  S   -0.000002   0.037562  -0.000003  -0.120491   0.089911
    2  C  1  S    0.000005  -0.069524  -0.000001   0.133391  -0.105934
    3  C  1  X   -0.000004  -0.220879  -0.000006  -0.233858  -0.085726
    4  C  1  Y    0.000014   0.070566  -0.000003  -0.023710  -0.110324
    5  C  1  Z   -0.224911  -0.000026  -0.019748  -0.000084   0.000047
    6  C  1  S    0.000008  -0.294678   0.000044   2.041690  -1.445490
    7  C  1  X   -0.000007  -0.166918  -0.000015  -0.621157  -0.305499
    8  C  1  Y    0.000004   0.046945   0.000002   0.012657  -0.103449
    9  C  1  Z   -0.108385  -0.000027   0.042077  -0.000265   0.000165
   10  C  1 XX   -0.000004  -0.004137  -0.000003   0.004329  -0.003379
   11  C  1 YY   -0.000001   0.002792  -0.000002   0.003168   0.008518
   12  C  1 ZZ    0.000006   0.001344   0.000005  -0.007497  -0.005139
   13  C  1 XY   -0.000000   0.005780   0.000001  -0.008335  -0.013673
   14  C  1 XZ    0.019233   0.000000   0.032728  -0.000002   0.000003
   15  C  1 YZ    0.007094   0.000000  -0.006185  -0.000001   0.000003
   16  C  2  S    0.000005   0.001724   0.000004  -0.030929  -0.102541
   17  C  2  S   -0.000010  -0.016887  -0.000009   0.104826   0.130769
   18  C  2  X    0.000030   0.086852   0.000016  -0.016330  -0.064283
   19  C  2  Y   -0.000003  -0.120313   0.000004  -0.143613  -0.270450
   20  C  2  Z    0.276058  -0.000001   0.510692   0.000008   0.000005
   21  C  2  S   -0.000014   0.034570  -0.000031   0.276041   1.635313
   22  C  2  X    0.000015  -0.065093   0.000014  -0.032981  -0.353914
   23  C  2  Y    0.000000   0.043230   0.000013  -0.397058  -0.615610
   24  C  2  Z    0.169075  -0.000000   0.560111   0.000050  -0.000024
   25  C  2 XX    0.000002  -0.038761   0.000000   0.002271   0.000663
   26  C  2 YY   -0.000001   0.040942  -0.000000   0.003930  -0.007035
   27  C  2 ZZ   -0.000001  -0.002181   0.000000  -0.006201   0.006371
   28  C  2 XY    0.000000   0.019160   0.000000   0.001015   0.010674
   29  C  2 XZ    0.028773   0.000001  -0.023936   0.000001  -0.000001
   30  C  2 YZ    0.012229  -0.000001  -0.017448  -0.000003   0.000003
   31  O  3  S    0.000001   0.000652  -0.000001  -0.010983   0.003527
   32  O  3  S   -0.000001  -0.003309   0.000002   0.021013  -0.018800
   33  O  3  X    0.000008  -0.312516  -0.000011  -0.048880   0.019352
   34  O  3  Y   -0.000029   0.486696  -0.000001   0.072376   0.047134
   35  O  3  Z    0.473768   0.000009  -0.429535  -0.000005  -0.000004
   36  O  3  S   -0.000010   0.007028   0.000000   0.159206   0.052059
   37  O  3  X    0.000008  -0.221441  -0.000009  -0.117587  -0.008750
   38  O  3  Y   -0.000017   0.344615  -0.000002   0.072319   0.105891
   39  O  3  Z    0.304354   0.000006  -0.449529  -0.000012   0.000005
   40  O  3 XX   -0.000001   0.014041  -0.000000   0.004376  -0.005530
   41  O  3 YY    0.000001  -0.013767  -0.000000  -0.002587   0.000627
   42  O  3 ZZ    0.000000  -0.000275   0.000000  -0.001789   0.004904
   43  O  3 XY    0.000001  -0.007982   0.000000   0.005964   0.003005
   44  O  3 XZ   -0.024559  -0.000000  -0.000534   0.000001  -0.000001
   45  O  3 YZ   -0.015847  -0.000000  -0.000691  -0.000001   0.000001
   46  H  4  S   -0.000002   0.178016   0.000004   0.014872  -0.105140
   47  H  4  S   -0.000001   0.290759   0.000020  -0.635342  -1.625244
   48  H  5  S   -0.000001   0.018499  -0.000010  -0.008581   0.054821
   49  H  5  S    0.000002   0.094933  -0.000037  -0.642846   0.963897
   50  H  6  S    0.137061   0.032311   0.100678  -0.042041  -0.011778
   51  H  6  S    0.136620   0.066595   0.225237  -1.223933   0.239753
   52  H  7  S   -0.137032   0.032310  -0.100666  -0.042005  -0.011812
   53  H  7  S   -0.136595   0.066596  -0.225214  -1.223593   0.239325

                     16         17         18         19         20
                    0.1556     0.1575     0.2585     0.2849     0.5286
                     A          A          A          A          A   
    1  C  1  S   -0.006127  -0.000032  -0.073363  -0.022903  -0.000004
    2  C  1  S    0.007738   0.000042   0.025572   0.048786   0.000074
    3  C  1  X   -0.016667  -0.000033   0.134673   0.180042   0.000141
    4  C  1  Y   -0.339616   0.000255  -0.120988   0.170096  -0.000148
    5  C  1  Z    0.000308   0.424585  -0.000038  -0.000001   0.319280
    6  C  1  S   -0.030799   0.000662   1.677406  -0.071715   0.000025
    7  C  1  X   -0.148101  -0.000002   1.693689   0.682121   0.000050
    8  C  1  Y   -1.297707   0.000973  -0.641465   0.677271   0.000199
    9  C  1  Z    0.000985   1.400039  -0.000135  -0.000036  -0.614043
   10  C  1 XX   -0.012194   0.000002  -0.032555  -0.035333   0.000018
   11  C  1 YY    0.025203  -0.000018   0.005170   0.034460  -0.000001
   12  C  1 ZZ   -0.013009   0.000016   0.027385   0.000873  -0.000017
   13  C  1 XY    0.005913  -0.000003   0.027738  -0.006559   0.000005
   14  C  1 XZ    0.000008   0.006171  -0.000003   0.000002  -0.033805
   15  C  1 YZ    0.000015   0.013265   0.000001   0.000002  -0.050859
   16  C  2  S    0.068355  -0.000034   0.054065   0.059361   0.000015
   17  C  2  S   -0.080658   0.000026  -0.106515  -0.031813   0.000076
   18  C  2  X    0.008844   0.000047   0.391266   0.024069  -0.000047
   19  C  2  Y    0.055717  -0.000062  -0.317465  -0.239322  -0.000027
   20  C  2  Z   -0.000068  -0.075903  -0.000001   0.000001   0.900786
   21  C  2  S   -1.183614   0.000716  -0.981386  -1.732920  -0.000282
   22  C  2  X   -0.091361   0.000195   1.775807  -1.468935   0.000064
   23  C  2  Y    0.265056  -0.000216  -0.793810  -1.445273  -0.000138
   24  C  2  Z   -0.000306  -0.402220   0.000047   0.000039  -0.863432
   25  C  2 XX    0.021978  -0.000016  -0.000159  -0.002770   0.000017
   26  C  2 YY   -0.007291   0.000004   0.001314   0.010809   0.000011
   27  C  2 ZZ   -0.014687   0.000012  -0.001155  -0.008039  -0.000028
   28  C  2 XY    0.020987  -0.000014  -0.007602  -0.000891  -0.000015
   29  C  2 XZ   -0.000010  -0.011718   0.000001  -0.000000   0.010279
   30  C  2 YZ    0.000017   0.020778  -0.000002  -0.000001   0.003587
   31  O  3  S   -0.026167   0.000017   0.026278  -0.099025  -0.000009
   32  O  3  S    0.051899  -0.000025  -0.040151   0.143444   0.000026
   33  O  3  X   -0.097001   0.000041  -0.071542  -0.148965  -0.000015
   34  O  3  Y   -0.104727   0.000104   0.132492  -0.056599  -0.000007
   35  O  3  Z    0.000028   0.042110  -0.000002   0.000007   0.062349
   36  O  3  S    0.326657  -0.000265  -0.544184   2.022532   0.000107
   37  O  3  X   -0.164280   0.000095  -0.058613  -0.793329  -0.000091
   38  O  3  Y   -0.169117   0.000160   0.431016  -0.399947  -0.000011
   39  O  3  Z    0.000099   0.126014  -0.000016   0.000008   0.052978
   40  O  3 XX    0.001174  -0.000001  -0.012129   0.024117   0.000000
   41  O  3 YY    0.005033  -0.000004   0.010775   0.002087   0.000003
   42  O  3 ZZ   -0.006206   0.000005   0.001354  -0.026204  -0.000004
   43  O  3 XY    0.002106  -0.000001  -0.011622   0.041793  -0.000005
   44  O  3 XZ   -0.000005  -0.006016   0.000001   0.000000  -0.047594
   45  O  3 YZ    0.000004   0.004730  -0.000000  -0.000001  -0.039734
   46  H  4  S    0.006541   0.000002   0.006331   0.067031   0.000086
   47  H  4  S    0.722726  -0.000480  -0.807140  -0.579297  -0.000051
   48  H  5  S    0.134589  -0.000101   0.026649   0.109434  -0.000038
   49  H  5  S    1.685266  -0.001632   0.126285  -0.701007   0.000024
   50  H  6  S   -0.048331   0.077131   0.092767  -0.000267  -0.256514
   51  H  6  S   -0.647627   1.505988   0.117179   0.460840  -0.141212
   52  H  7  S   -0.048477  -0.077040   0.092755  -0.000325   0.256564
   53  H  7  S   -0.650027  -1.505383   0.117660   0.461182   0.141243

                     21         22         23         24         25
                    0.5428     0.5893     0.6005     0.6713     0.7104
                     A          A          A          A          A   
    1  C  1  S   -0.022492   0.010296  -0.000002   0.019168  -0.015722
    2  C  1  S    0.253297  -0.082651   0.000063  -0.142610   0.037556
    3  C  1  X    0.790763  -0.491411   0.000117  -0.331299   0.084274
    4  C  1  Y   -0.534879  -0.478038  -0.000058  -0.122776   0.250527
    5  C  1  Z    0.000057  -0.000114  -0.731121  -0.000035  -0.000078
    6  C  1  S    0.039792  -0.338296  -0.000069   1.136080  -0.602198
    7  C  1  X   -0.844368   0.845803  -0.000401   1.340221  -0.954704
    8  C  1  Y    0.870984   1.390884   0.000186   0.360137  -0.616091
    9  C  1  Z    0.000021   0.000252   1.784842   0.000030   0.000209
   10  C  1 XX    0.028661   0.004461  -0.000013   0.016674  -0.015537
   11  C  1 YY   -0.036307  -0.096236  -0.000014   0.004089   0.013536
   12  C  1 ZZ    0.007645   0.091775   0.000028  -0.020763   0.002001
   13  C  1 XY   -0.020243   0.017821  -0.000024  -0.092238   0.025678
   14  C  1 XZ    0.000008  -0.000014   0.063713  -0.000010   0.000013
   15  C  1 YZ    0.000002  -0.000009   0.080402  -0.000005   0.000005
   16  C  2  S    0.054008   0.002319  -0.000000   0.041407   0.039332
   17  C  2  S    0.143720   0.031824  -0.000053  -0.222307  -0.442626
   18  C  2  X   -0.074741   0.034914   0.000014  -0.974480  -0.202760
   19  C  2  Y   -0.077409  -0.047685   0.000099   0.102388  -0.912026
   20  C  2  Z   -0.000254  -0.000029   0.494723  -0.000032   0.000047
   21  C  2  S    0.062243  -0.634985   0.000476  -0.918034   0.659814
   22  C  2  X    0.189452  -0.951738  -0.000024   1.456444  -0.162901
   23  C  2  Y   -0.164878  -0.258435  -0.000078  -1.435371   2.339753
   24  C  2  Z    0.000289  -0.000024  -1.150581   0.000082  -0.000146
   25  C  2 XX    0.091306  -0.051972   0.000016   0.036775   0.072396
   26  C  2 YY    0.012898   0.046295  -0.000013  -0.016360  -0.008944
   27  C  2 ZZ   -0.104204   0.005677  -0.000004  -0.020415  -0.063452
   28  C  2 XY   -0.063808  -0.014140  -0.000005   0.107585   0.093757
   29  C  2 XZ   -0.000006   0.000001  -0.008814   0.000002  -0.000006
   30  C  2 YZ   -0.000004  -0.000002   0.047921  -0.000006   0.000009
   31  O  3  S   -0.019869  -0.020428   0.000003  -0.043129  -0.011441
   32  O  3  S    0.111384   0.005094   0.000012   0.158114   0.075169
   33  O  3  X   -0.122563   0.187625  -0.000040  -0.293601  -0.179829
   34  O  3  Y    0.062142  -0.183334   0.000055  -0.006492  -0.352207
   35  O  3  Z   -0.000014   0.000001   0.044043  -0.000006   0.000011
   36  O  3  S   -0.022053   0.775354  -0.000119   0.146131  -0.665256
   37  O  3  X   -0.104151  -0.257641   0.000080  -0.436110   0.148379
   38  O  3  Y    0.036025  -0.194479   0.000038  -0.051503  -0.106425
   39  O  3  Z   -0.000027   0.000016   0.181750  -0.000004   0.000018
   40  O  3 XX   -0.013835   0.037139  -0.000003  -0.020138  -0.117876
   41  O  3 YY    0.019497  -0.011683  -0.000001  -0.024685   0.039114
   42  O  3 ZZ   -0.005663  -0.025456   0.000005   0.044823   0.078761
   43  O  3 XY   -0.009773   0.000959   0.000001  -0.106157  -0.083942
   44  O  3 XZ    0.000016  -0.000000  -0.046681   0.000005  -0.000002
   45  O  3 YZ    0.000009   0.000003   0.004440   0.000001   0.000004
   46  H  4  S    0.222440   0.359561  -0.000042  -0.109519   0.023335
   47  H  4  S   -0.120311  -0.107348  -0.000052  -0.684061   1.179495
   48  H  5  S   -0.234662  -0.397511  -0.000025   0.076900  -0.171154
   49  H  5  S   -0.182184  -0.328717  -0.000133  -0.349777   0.254831
   50  H  6  S   -0.013947   0.259629   0.311948   0.050888  -0.106877
   51  H  6  S    0.010800   0.234815   0.340298   0.408016  -0.260918
   52  H  7  S   -0.014039   0.259620  -0.311961   0.050923  -0.106893
   53  H  7  S    0.010669   0.234778  -0.340376   0.408080  -0.261200

                     26         27         28         29         30
                    0.7564     0.8473     0.8594     0.8954     0.9313
                     A          A          A          A          A   
    1  C  1  S   -0.038158  -0.000003  -0.015660  -0.023020  -0.021953
    2  C  1  S    0.075103   0.000186   0.072325  -0.112163   0.678986
    3  C  1  X   -0.144253   0.000075   0.052040   0.210065  -0.132069
    4  C  1  Y   -0.535416   0.000027   0.183749   0.515510   0.366089
    5  C  1  Z    0.000032  -0.793438  -0.000137   0.000097   0.000066
    6  C  1  S   -0.621062  -0.000274  -0.417418   0.329243  -1.064063
    7  C  1  X   -0.296037   0.000009  -0.393295  -0.355846   0.607432
    8  C  1  Y    1.662090  -0.000060  -0.224476  -0.580774  -0.239697
    9  C  1  Z   -0.000177   1.200624   0.000146  -0.000186  -0.000115
   10  C  1 XX   -0.101012   0.000048  -0.024477   0.036064   0.029142
   11  C  1 YY    0.055088   0.000008   0.001621  -0.150472  -0.128314
   12  C  1 ZZ    0.045924  -0.000056   0.022856   0.114408   0.099172
   13  C  1 XY   -0.058949   0.000016   0.034442   0.020611  -0.114903
   14  C  1 XZ   -0.000013  -0.181328  -0.000041  -0.000001  -0.000007
   15  C  1 YZ   -0.000034  -0.086095  -0.000026  -0.000028  -0.000035
   16  C  2  S   -0.005039  -0.000005   0.050649  -0.019248   0.016537
   17  C  2  S   -0.975730   0.000210  -0.978166  -0.848194   0.761768
   18  C  2  X    0.365765  -0.000001   0.128835  -0.062448   0.025963
   19  C  2  Y   -0.015602  -0.000104   0.553354   0.110231   0.016993
   20  C  2  Z   -0.000001  -0.049286  -0.000016   0.000011  -0.000002
   21  C  2  S    2.147429  -0.000642   2.805137   0.590798  -0.839607
   22  C  2  X   -1.149483  -0.000016   0.013706  -0.262197   0.192696
   23  C  2  Y   -0.500980   0.000049  -0.663253  -0.899083  -0.372916
   24  C  2  Z    0.000078  -0.048183   0.000016   0.000008   0.000020
   25  C  2 XX    0.067385   0.000002  -0.002628  -0.091117   0.105272
   26  C  2 YY   -0.150835  -0.000017   0.104429   0.005167  -0.061894
   27  C  2 ZZ    0.083450   0.000015  -0.101801   0.085950  -0.043378
   28  C  2 XY    0.049706  -0.000044   0.095154  -0.107968   0.058408
   29  C  2 XZ    0.000005   0.071656   0.000014  -0.000008  -0.000008
   30  C  2 YZ   -0.000008  -0.035881  -0.000015   0.000007  -0.000001
   31  O  3  S    0.002685  -0.000012   0.026253  -0.043961   0.025108
   32  O  3  S   -0.031550   0.000066  -0.094344   0.176757  -0.124710
   33  O  3  X   -0.091621   0.000083  -0.310324   0.307263  -0.417451
   34  O  3  Y    0.058671   0.000101  -0.302734   0.274749  -0.111161
   35  O  3  Z    0.000032  -0.243367  -0.000044   0.000016  -0.000014
   36  O  3  S    0.154666   0.000146  -0.532190   0.432274   0.095510
   37  O  3  X    0.136603  -0.000208   0.662172  -0.827433   0.624488
   38  O  3  Y    0.028742  -0.000136   0.520157  -0.448678   0.385523
   39  O  3  Z   -0.000048   0.229019   0.000033  -0.000008   0.000011
   40  O  3 XX   -0.047687  -0.000001   0.004007   0.000657  -0.008004
   41  O  3 YY    0.012104   0.000016  -0.052905   0.001576   0.040843
   42  O  3 ZZ    0.035583  -0.000016   0.048898  -0.002232  -0.032839
   43  O  3 XY    0.001291   0.000027  -0.068839   0.007233   0.018506
   44  O  3 XZ    0.000004  -0.015118  -0.000001  -0.000000   0.000000
   45  O  3 YZ   -0.000005   0.001744   0.000001   0.000001  -0.000001
   46  H  4  S   -0.601176  -0.000138   0.711417  -0.130687  -0.397766
   47  H  4  S   -0.089222   0.000296  -1.744857  -0.693812   0.321672
   48  H  5  S   -0.082106  -0.000014  -0.120097  -0.727445  -0.728211
   49  H  5  S   -1.007004   0.000083   0.321714   1.089098   1.107333
   50  H  6  S   -0.334014  -0.693600  -0.086725   0.143583   0.025338
   51  H  6  S    0.362724   1.364125  -0.111399  -0.591726   0.298168
   52  H  7  S   -0.333925   0.693532  -0.086408   0.143546   0.025311
   53  H  7  S    0.362970  -1.363811  -0.111918  -0.591588   0.298349

                     31         32         33         34         35
                    0.9411     0.9941     1.0838     1.2616     1.4027
                     A          A          A          A          A   
    1  C  1  S    0.054222   0.000001  -0.016695  -0.112923  -0.000032
    2  C  1  S   -1.086481   0.000141  -0.165755  -2.128332  -0.000509
    3  C  1  X    0.410218  -0.000037  -0.109452  -0.071954  -0.000037
    4  C  1  Y    0.008832  -0.000033  -0.040495   0.043471   0.000024
    5  C  1  Z   -0.000027   0.194014   0.000012  -0.000054   0.119757
    6  C  1  S    1.620905  -0.000367  -0.398695   6.556922   0.001583
    7  C  1  X   -0.839962  -0.000025  -0.312624   1.217993   0.000227
    8  C  1  Y    0.385422   0.000102  -0.097216  -0.424284  -0.000140
    9  C  1  Z    0.000036  -0.206100  -0.000041   0.000061   0.063381
   10  C  1 XX   -0.110878  -0.000010  -0.013239   0.051755   0.000007
   11  C  1 YY   -0.033940   0.000002  -0.006559   0.012280  -0.000035
   12  C  1 ZZ    0.144817   0.000008   0.019798  -0.064035   0.000028
   13  C  1 XY    0.010137  -0.000009   0.051652  -0.053631  -0.000080
   14  C  1 XZ   -0.000061   0.031980   0.000009   0.000101  -0.350116
   15  C  1 YZ   -0.000012   0.065321  -0.000006  -0.000147   0.478360
   16  C  2  S   -0.009107  -0.000004   0.000889   0.040088   0.000010
   17  C  2  S   -0.191762  -0.000099   0.039083   0.598656   0.000118
   18  C  2  X    0.094007   0.000003   0.132782  -0.015941   0.000010
   19  C  2  Y   -0.049720   0.000005  -0.265233   0.043583  -0.000005
   20  C  2  Z    0.000004   0.123095   0.000014   0.000039  -0.039348
   21  C  2  S    0.927046   0.000265  -0.200492  -3.301271  -0.000772
   22  C  2  X   -0.521866  -0.000111  -0.829537   1.716037   0.000384
   23  C  2  Y    0.130237   0.000015   1.543732  -1.303425  -0.000204
   24  C  2  Z   -0.000046  -0.586453  -0.000048  -0.000130   0.087905
   25  C  2 XX    0.009166   0.000002  -0.136312   0.016515   0.000018
   26  C  2 YY   -0.059172  -0.000009   0.152711   0.108534   0.000024
   27  C  2 ZZ    0.050006   0.000007  -0.016399  -0.125049  -0.000043
   28  C  2 XY    0.108004  -0.000006   0.054787  -0.015062  -0.000009
   29  C  2 XZ    0.000010  -0.054619  -0.000006  -0.000111   0.569820
   30  C  2 YZ   -0.000008   0.012168  -0.000002   0.000037  -0.155361
   31  O  3  S    0.014509  -0.000001   0.002300   0.002286   0.000001
   32  O  3  S   -0.090700   0.000006  -0.039043  -0.089328  -0.000031
   33  O  3  X   -0.280469   0.000032  -0.426834   0.051880   0.000016
   34  O  3  Y   -0.068981  -0.000020   0.695771  -0.099824  -0.000007
   35  O  3  Z   -0.000068  -0.915558  -0.000032  -0.000048  -0.056757
   36  O  3  S   -0.014411  -0.000013   0.021294   0.391281   0.000085
   37  O  3  X    0.477993  -0.000036   0.776838  -0.359540  -0.000085
   38  O  3  Y    0.112495   0.000012  -1.298836   0.360604   0.000045
   39  O  3  Z    0.000085   1.255812   0.000055   0.000133  -0.127156
   40  O  3 XX   -0.017096  -0.000005   0.092391   0.057773   0.000010
   41  O  3 YY   -0.010937  -0.000001  -0.090784   0.115841   0.000039
   42  O  3 ZZ    0.028032   0.000006  -0.001607  -0.173614  -0.000050
   43  O  3 XY   -0.006797  -0.000001  -0.055213  -0.020455  -0.000018
   44  O  3 XZ    0.000000   0.029884   0.000003   0.000023  -0.120361
   45  O  3 YZ   -0.000000   0.023492   0.000003   0.000037  -0.275231
   46  H  4  S   -0.324089  -0.000002   0.229177   0.021913   0.000027
   47  H  4  S    0.253947  -0.000022   0.732663  -0.346216  -0.000039
   48  H  5  S    0.167138   0.000017  -0.074382  -0.454597  -0.000152
   49  H  5  S   -0.609341  -0.000018   0.087243  -0.774785  -0.000167
   50  H  6  S    0.636329   0.163099  -0.120330  -0.493157   0.131508
   51  H  6  S   -1.071996  -0.379862  -0.052926  -0.638821  -0.047773
   52  H  7  S    0.636488  -0.163124  -0.120332  -0.493063  -0.131826
   53  H  7  S   -1.072227   0.379987  -0.052886  -0.638959   0.047429

                     36         37         38         39         40
                    1.5340     1.6135     1.6956     1.8028     1.8122
                     A          A          A          A          A   
    1  C  1  S    0.000003   0.010762  -0.042290   0.022131  -0.000014
    2  C  1  S    0.000031   0.102976  -0.283505  -0.367920   0.000149
    3  C  1  X   -0.000007  -0.000120   0.114410  -0.274656   0.000137
    4  C  1  Y   -0.000013  -0.016809   0.059014   0.063916   0.000012
    5  C  1  Z    0.039240  -0.000016  -0.000008   0.000049   0.069099
    6  C  1  S   -0.000115  -0.467704   1.602466  -0.146815   0.000152
    7  C  1  X    0.000061   0.100173   0.274316   0.045574  -0.000089
    8  C  1  Y    0.000087   0.501656  -0.684080  -0.111909  -0.000181
    9  C  1  Z   -0.322815   0.000049   0.000058  -0.000303  -0.327505
   10  C  1 XX    0.000019  -0.080942  -0.457282   0.353331  -0.000306
   11  C  1 YY    0.000016   0.021861   0.109389  -0.215970   0.000153
   12  C  1 ZZ   -0.000035   0.059081   0.347893  -0.137361   0.000153
   13  C  1 XY    0.000053  -0.228914  -0.428449  -0.046521  -0.000228
   14  C  1 XZ    0.119840  -0.000039  -0.000047  -0.000153  -0.339881
   15  C  1 YZ   -0.053364  -0.000080  -0.000192   0.000301   0.408761
   16  C  2  S   -0.000001  -0.015632   0.024520   0.016700  -0.000010
   17  C  2  S   -0.000030  -0.102450   0.525722  -0.208168   0.000080
   18  C  2  X    0.000005  -0.072539  -0.026234   0.029140   0.000067
   19  C  2  Y    0.000005  -0.006143   0.048018   0.076652  -0.000046
   20  C  2  Z   -0.187302  -0.000016  -0.000012   0.000053   0.090600
   21  C  2  S    0.000189  -1.820966  -1.576299   0.098217   0.000246
   22  C  2  X    0.000002  -1.575691   1.087838  -0.526226   0.000559
   23  C  2  Y   -0.000054  -1.009281   0.508600   0.660437   0.000092
   24  C  2  Z    0.206890   0.000032  -0.000050   0.000142   0.211207
   25  C  2 XX   -0.000002  -0.012986  -0.009045   0.315285  -0.000080
   26  C  2 YY    0.000027   0.044938  -0.293066  -0.376045   0.000172
   27  C  2 ZZ   -0.000025  -0.031953   0.302110   0.060761  -0.000092
   28  C  2 XY    0.000018  -0.258497   0.267292  -0.276169   0.000205
   29  C  2 XZ    0.127716  -0.000000   0.000045  -0.000110  -0.143534
   30  C  2 YZ    0.718355   0.000045   0.000020  -0.000002  -0.066444
   31  O  3  S   -0.000003   0.035358   0.011874  -0.007970   0.000008
   32  O  3  S    0.000085  -1.629070  -0.008883   0.106826   0.000105
   33  O  3  X   -0.000016   0.099768   0.161740  -0.226407   0.000176
   34  O  3  Y   -0.000010   0.096955   0.059311   0.172074  -0.000049
   35  O  3  Z   -0.091420  -0.000007  -0.000024   0.000046   0.073634
   36  O  3  S   -0.000147   3.817509  -0.434698  -0.049128  -0.000630
   37  O  3  X    0.000060  -1.099251  -0.076747   0.299939   0.000001
   38  O  3  Y    0.000039  -0.731203   0.029637  -0.338756   0.000229
   39  O  3  Z   -0.117243   0.000011   0.000024  -0.000070  -0.113045
   40  O  3 XX    0.000008  -0.126392  -0.085641  -0.512862   0.000354
   41  O  3 YY   -0.000000   0.121823  -0.358620   0.252428  -0.000061
   42  O  3 ZZ   -0.000008   0.004569   0.444261   0.260434  -0.000293
   43  O  3 XY   -0.000003  -0.196688   0.208062   0.372533  -0.000262
   44  O  3 XZ   -0.512356  -0.000040  -0.000041  -0.000122  -0.227634
   45  O  3 YZ    0.037620   0.000017  -0.000033   0.000473   0.809097
   46  H  4  S   -0.000039   0.035939   0.481855   0.476159  -0.000166
   47  H  4  S   -0.000045  -0.154564   0.325088   0.134509   0.000040
   48  H  5  S   -0.000001   0.014214  -0.140489   0.181605  -0.000113
   49  H  5  S   -0.000020  -0.172610   0.153335  -0.038360   0.000109
   50  H  6  S   -0.067247   0.082607  -0.180595   0.061712  -0.012085
   51  H  6  S   -0.144264   0.116795  -0.145992  -0.063883  -0.132394
   52  H  7  S    0.067300   0.082614  -0.180583   0.061760   0.011971
   53  H  7  S    0.144330   0.116740  -0.146110  -0.063598   0.132348

                     41         42         43         44         45
                    1.8563     2.0632     2.0633     2.1548     2.2965
                     A          A          A          A          A   
    1  C  1  S    0.045716  -0.010187  -0.000778   0.007372  -0.000003
    2  C  1  S    0.234901   0.103705   0.007694   0.148227  -0.000034
    3  C  1  X   -0.077750   0.040239   0.003065   0.032594   0.000061
    4  C  1  Y    0.144829  -0.042936  -0.003190   0.105962   0.000011
    5  C  1  Z   -0.000023   0.005254  -0.070278   0.000018  -0.093942
    6  C  1  S   -1.639282  -0.028842  -0.001703  -0.551222   0.000210
    7  C  1  X   -0.734435  -0.314051  -0.023211  -0.013669   0.000286
    8  C  1  Y   -0.583740  -0.133375  -0.009910   0.662771   0.000031
    9  C  1  Z    0.000076   0.048290  -0.645056   0.000257  -0.221477
   10  C  1 XX   -0.214242  -0.309384  -0.023300  -0.221735   0.000028
   11  C  1 YY    0.066686  -0.125538  -0.009290   0.847062  -0.000099
   12  C  1 ZZ    0.147557   0.434921   0.032590  -0.625327   0.000071
   13  C  1 XY   -0.617176   0.377528   0.028183   0.239078  -0.000147
   14  C  1 XZ    0.000055  -0.008000   0.107141   0.000012   0.972528
   15  C  1 YZ   -0.000234  -0.056025   0.748016  -0.000042   0.360617
   16  C  2  S   -0.018473   0.014672   0.001103  -0.027631   0.000005
   17  C  2  S   -0.360169   0.341190   0.025642  -0.032128  -0.000005
   18  C  2  X    0.244011  -0.311831  -0.023340  -0.046702   0.000086
   19  C  2  Y   -0.017264   0.131244   0.009873   0.166227  -0.000005
   20  C  2  Z   -0.000033  -0.003521   0.047020  -0.000011  -0.076144
   21  C  2  S    2.159438  -0.566254  -0.042964   0.300662  -0.000338
   22  C  2  X    0.097816  -0.109509  -0.008070  -0.330671   0.000066
   23  C  2  Y    1.846486   0.254176   0.018781   0.076714  -0.000265
   24  C  2  Z   -0.000079  -0.029737   0.396929  -0.000110  -0.039009
   25  C  2 XX    0.363461  -0.260763  -0.019507   0.282446   0.000059
   26  C  2 YY   -0.136055  -0.360006  -0.027041  -0.233935  -0.000089
   27  C  2 ZZ   -0.227406   0.620769   0.046548  -0.048511   0.000030
   28  C  2 XY    0.037989  -0.029393  -0.002065   0.428330   0.000111
   29  C  2 XZ    0.000003   0.026264  -0.350253   0.000076   0.237800
   30  C  2 YZ    0.000047  -0.037485   0.500278  -0.000111  -0.403476
   31  O  3  S    0.007256  -0.011906  -0.000886   0.019254   0.000005
   32  O  3  S    0.554930   0.043290   0.003088  -0.321217  -0.000131
   33  O  3  X    0.068597  -0.169965  -0.012659   0.189251   0.000066
   34  O  3  Y    0.159724  -0.055132  -0.004085   0.227175   0.000030
   35  O  3  Z   -0.000019  -0.005563   0.074250  -0.000015  -0.016545
   36  O  3  S   -2.108502   0.292471   0.022186   0.220953   0.000232
   37  O  3  X    0.695809   0.017647   0.001192  -0.016829  -0.000119
   38  O  3  Y    0.013646  -0.148334  -0.011145  -0.262079   0.000015
   39  O  3  Z    0.000024   0.015733  -0.209951   0.000044   0.064644
   40  O  3 XX    0.165929  -0.171986  -0.012862  -0.138838   0.000074
   41  O  3 YY    0.357553   0.581078   0.043517   0.243850  -0.000070
   42  O  3 ZZ   -0.523482  -0.409092  -0.030655  -0.105012  -0.000003
   43  O  3 XY   -0.204132  -0.120683  -0.009060   0.086324  -0.000069
   44  O  3 XZ    0.000057  -0.033705   0.449618  -0.000064  -0.244140
   45  O  3 YZ   -0.000251   0.016319  -0.217622   0.000024   0.141636
   46  H  4  S    0.289427   0.377515   0.028356   0.210129   0.000027
   47  H  4  S    0.436371   0.119681   0.008882  -0.030886  -0.000102
   48  H  5  S    0.238116   0.083760   0.006066  -0.693646   0.000003
   49  H  5  S    0.361844   0.041161   0.003086  -0.004755  -0.000013
   50  H  6  S    0.170201  -0.220162  -0.434710   0.297430  -0.547506
   51  H  6  S   -0.097787   0.010023  -0.077006   0.069998   0.126786
   52  H  7  S    0.170197  -0.282376   0.397081   0.297202   0.547658
   53  H  7  S   -0.097905  -0.001633   0.077680   0.069930  -0.126741

                     46         47         48         49         50
                    2.3642     2.5423     2.5841     2.8575     2.9475
                     A          A          A          A          A   
    1  C  1  S    0.044747   0.041222   0.000003   0.029286  -0.012845
    2  C  1  S    0.325572   0.063178   0.000037  -0.138190   0.047494
    3  C  1  X   -0.150098  -0.244764   0.000010  -0.232579   0.090711
    4  C  1  Y    0.007001   0.101613  -0.000004   0.140851  -0.055695
    5  C  1  Z   -0.000019  -0.000017   0.030702  -0.000004  -0.000006
    6  C  1  S   -1.759031  -1.274791  -0.000104  -0.143401   0.165824
    7  C  1  X   -0.954857  -0.697089   0.000005  -0.188200   0.199977
    8  C  1  Y    0.032780   0.242396  -0.000004   0.236125   0.116546
    9  C  1  Z   -0.000063  -0.000041   0.031071   0.000020   0.000008
   10  C  1 XX   -0.411299  -0.773679   0.000049  -0.242350   0.074106
   11  C  1 YY   -0.223854   0.678783  -0.000047  -0.045138   0.021532
   12  C  1 ZZ    0.635152   0.094896  -0.000002   0.287488  -0.095638
   13  C  1 XY    0.338133   0.069463   0.000002   0.521845  -0.172063
   14  C  1 XZ    0.000022   0.000147   0.146753  -0.000050   0.000026
   15  C  1 YZ    0.000013   0.000089  -0.165411  -0.000002   0.000011
   16  C  2  S   -0.080522  -0.020591  -0.000001  -0.043158  -0.029705
   17  C  2  S   -0.247875   0.005528  -0.000018  -0.293370  -1.334794
   18  C  2  X   -0.225135  -0.220398   0.000015  -0.344930  -1.073602
   19  C  2  Y    0.137386   0.054632   0.000000  -0.156176  -0.696540
   20  C  2  Z   -0.000006   0.000005   0.243069   0.000005   0.000014
   21  C  2  S    1.870081   1.375894   0.000025   0.156118  -1.766722
   22  C  2  X   -0.495513  -0.693831  -0.000004  -0.323626  -0.692880
   23  C  2  Y    0.937882   0.628472   0.000007  -0.562708  -0.618001
   24  C  2  Z    0.000011   0.000013   0.237021   0.000003   0.000016
   25  C  2 XX    0.341203  -0.106160   0.000029   0.938069  -0.643931
   26  C  2 YY    0.441952   0.297572  -0.000009  -0.825180   0.185375
   27  C  2 ZZ   -0.783155  -0.191412  -0.000020  -0.112889   0.458556
   28  C  2 XY    0.286539  -0.886205   0.000064  -0.491066  -0.457251
   29  C  2 XZ   -0.000019   0.000089   0.893634  -0.000006   0.000016
   30  C  2 YZ   -0.000024  -0.000017   0.445517   0.000020   0.000004
   31  O  3  S    0.022906  -0.022038   0.000002  -0.008403  -0.062038
   32  O  3  S   -0.193029   0.572327  -0.000033  -0.328427  -0.698843
   33  O  3  X    0.252196  -0.357931   0.000022  -0.000861  -0.246159
   34  O  3  Y    0.200533  -0.166271   0.000014   0.049065  -0.175094
   35  O  3  Z   -0.000002   0.000006  -0.011115  -0.000002   0.000004
   36  O  3  S   -0.522153  -0.606318   0.000016   0.957417   3.157851
   37  O  3  X    0.200605   0.462244  -0.000017  -0.634092  -1.514494
   38  O  3  Y   -0.276240   0.011257  -0.000012   0.086391  -1.009672
   39  O  3  Z   -0.000002  -0.000032  -0.453562   0.000006   0.000020
   40  O  3 XX   -0.333601  -0.144683   0.000018   0.823634   0.699864
   41  O  3 YY    0.293067  -0.009054   0.000014  -0.673912   0.020284
   42  O  3 ZZ    0.040535   0.153737  -0.000032  -0.149722  -0.720148
   43  O  3 XY    0.359328   0.089993   0.000008  -0.093855   1.182821
   44  O  3 XZ   -0.000009   0.000037   0.824761  -0.000005  -0.000025
   45  O  3 YZ   -0.000007   0.000048   0.567866   0.000005  -0.000017
   46  H  4  S   -0.202468  -0.217049   0.000012   0.251781  -0.019396
   47  H  4  S    0.268273   0.270599  -0.000009  -0.427464  -0.016908
   48  H  5  S    0.286403  -0.318816   0.000048   0.003129  -0.019160
   49  H  5  S    0.072912   0.169183   0.000001  -0.108766  -0.045159
   50  H  6  S   -0.155159   0.095533   0.011623  -0.109646   0.031630
   51  H  6  S    0.057292  -0.062054   0.029412   0.028710   0.029405
   52  H  7  S   -0.155025   0.095765  -0.011589  -0.109691   0.031670
   53  H  7  S    0.057227  -0.062144  -0.029366   0.028698   0.029379
 ...... END OF RHF CALCULATION ......
 STEP CPU TIME =     7.55 TOTAL CPU TIME =          7.7 (      0.1 MIN)
 TOTAL WALL CLOCK TIME=          7.8 SECONDS, CPU UTILIZATION IS    97.83%

     ---------------------------------------------------------------------
     PROPERTIES FOR THE B3LYP    DFT FUNCTIONAL (RHF  TYPE) DENSITY MATRIX
     ---------------------------------------------------------------------

          -----------------
          ENERGY COMPONENTS
          -----------------

         WAVEFUNCTION NORMALIZATION =       1.0000000000

                ONE ELECTRON ENERGY =    -345.6743739917
                TWO ELECTRON ENERGY =     122.4780847041
           NUCLEAR REPULSION ENERGY =      69.4575812450
                                      ------------------
                       TOTAL ENERGY =    -153.7387080426

 ELECTRON-ELECTRON POTENTIAL ENERGY =     122.4780847041
  NUCLEUS-ELECTRON POTENTIAL ENERGY =    -498.4951618030
   NUCLEUS-NUCLEUS POTENTIAL ENERGY =      69.4575812450
                                      ------------------
             TOTAL POTENTIAL ENERGY =    -306.5594958539
               TOTAL KINETIC ENERGY =     152.8207878113
                 VIRIAL RATIO (V/T) =       2.0060065142

          ---------------------------------------
          MULLIKEN AND LOWDIN POPULATION ANALYSES
          ---------------------------------------

     ATOMIC MULLIKEN POPULATION IN EACH MOLECULAR ORBITAL

                      1          2          3          4          5

                  2.000000   2.000000   2.000000   2.000000   2.000000

    1            -0.000053   0.001177   1.994814   0.022247   1.135667
    2             0.002394   2.000690   0.001864   0.524290   0.435324
    3             1.997619  -0.002828  -0.000004   1.453911   0.085632
    4             0.000033   0.000895   0.000022  -0.000562   0.023802
    5             0.000008   0.000025   0.001099  -0.000289   0.091962
    6            -0.000001   0.000021   0.001102   0.000202   0.113808
    7            -0.000001   0.000021   0.001102   0.000202   0.113805

                      6          7          8          9         10

                  2.000000   2.000000   2.000000   2.000000   2.000000

    1             0.350949   0.534697   0.844223   0.447654   0.722320
    2             0.823705   0.515410   0.342084   0.451000   0.163802
    3             0.270443   0.571853   0.217437   0.966025   0.329895
    4             0.362213   0.132370   0.000000   0.001305   0.124746
    5             0.107966   0.022234   0.000000   0.122061   0.456337
    6             0.042349   0.111650   0.298200   0.006026   0.101382
    7             0.042375   0.111787   0.298055   0.005929   0.101517

                     11         12

                  2.000000   2.000000

    1             0.237940   0.226254
    2             0.405688   0.089518
    3             1.078920   1.383574
    4             0.000000   0.256264
    5             0.000000   0.016868
    6             0.138755   0.013762
    7             0.138698   0.013760

               ----- POPULATIONS IN EACH AO -----
                             MULLIKEN      LOWDIN
              1  C  1  S      1.99672     1.98031
              2  C  1  S      0.67331     0.36597
              3  C  1  X      0.70595     0.63572
              4  C  1  Y      0.72812     0.65439
              5  C  1  Z      0.71173     0.63529
              6  C  1  S      0.64623     0.33501
              7  C  1  X      0.30618     0.41228
              8  C  1  Y      0.35896     0.47658
              9  C  1  Z      0.35912     0.48871
             10  C  1 XX      0.00633     0.14870
             11  C  1 YY      0.00889     0.15900
             12  C  1 ZZ      0.00504     0.15436
             13  C  1 XY      0.00769     0.00927
             14  C  1 XZ      0.00363     0.01526
             15  C  1 YZ      0.00000     0.00575
             16  C  2  S      1.99655     1.97465
             17  C  2  S      0.70969     0.36697
             18  C  2  X      0.74475     0.65088
             19  C  2  Y      0.75011     0.65253
             20  C  2  Z      0.45327     0.40688
             21  C  2  S      0.45018     0.30807
             22  C  2  X      0.10176     0.28180
             23  C  2  Y      0.18608     0.37362
             24  C  2  Z      0.27816     0.32936
             25  C  2 XX      0.00504     0.21571
             26  C  2 YY      0.04067     0.19667
             27  C  2 ZZ      0.02316     0.10491
             28  C  2 XY      0.01287     0.04744
             29  C  2 XZ      0.00349     0.02454
             30  C  2 YZ      0.00000     0.00605
             31  O  3  S      1.99730     1.97770
             32  O  3  S      0.92816     0.71999
             33  O  3  X      0.99959     0.93786
             34  O  3  Y      1.08710     1.03863
             35  O  3  Z      0.77110     0.72009
             36  O  3  S      0.93162     0.46971
             37  O  3  X      0.50003     0.57495
             38  O  3  Y      0.59549     0.65977
             39  O  3  Z      0.51404     0.55069
             40  O  3 XX      0.00227     0.18358
             41  O  3 YY      0.00731     0.17491
             42  O  3 ZZ      0.00726     0.17351
             43  O  3 XY      0.00801     0.01589
             44  O  3 XZ      0.00321     0.01037
             45  O  3 YZ      0.00000     0.00417
             46  H  4  S      0.53476     0.50122
             47  H  4  S      0.36632     0.38869
             48  H  5  S      0.52044     0.48126
             49  H  5  S      0.29783     0.34808
             50  H  6  S      0.51817     0.47660
             51  H  6  S      0.30908     0.34953
             52  H  7  S      0.51818     0.47660
             53  H  7  S      0.30907     0.34953

          ----- MULLIKEN ATOMIC OVERLAP POPULATIONS -----
          (OFF-DIAGONAL ELEMENTS NEED TO BE MULTIPLIED BY 2)

             1           2           3           4           5

    1    5.3683361
    2    0.3075352   4.5403023
    3   -0.0793154   0.6257012   7.8593393
    4   -0.1220724   0.3403793  -0.0619900   0.7303075
    5    0.3477676  -0.0205062   0.0057712   0.0061091   0.5210344
    6    0.3478158  -0.0188262   0.0014848   0.0041768  -0.0209473
    7    0.3478219  -0.0188156   0.0014859   0.0041761  -0.0209569

             6           7

    6    0.5402871
    7   -0.0267359   0.5402747

          TOTAL MULLIKEN AND LOWDIN ATOMIC POPULATIONS
       ATOM         MULL.POP.    CHARGE          LOW.POP.     CHARGE
    1 C             6.517889   -0.517889         6.476596   -0.476596
    2 C             5.755770    0.244230         5.940080    0.059920
    3 O             8.352477   -0.352477         8.211819   -0.211819
    4 H             0.901087    0.098913         0.889908    0.110092
    5 H             0.818272    0.181728         0.829342    0.170658
    6 H             0.827255    0.172745         0.826127    0.173873
    7 H             0.827250    0.172750         0.826127    0.173873

          MULLIKEN SPHERICAL HARMONIC POPULATIONS
       ATOM           S       P       D      F      G      H      I    TOTAL
    1 C             3.32    3.17    0.03   0.00   0.00   0.00   0.00    6.52
    2 C             3.16    2.51    0.09   0.00   0.00   0.00   0.00    5.76
    3 O             3.86    4.47    0.03   0.00   0.00   0.00   0.00    8.35
    4 H             0.90    0.00    0.00   0.00   0.00   0.00   0.00    0.90
    5 H             0.82    0.00    0.00   0.00   0.00   0.00   0.00    0.82
    6 H             0.83    0.00    0.00   0.00   0.00   0.00   0.00    0.83
    7 H             0.83    0.00    0.00   0.00   0.00   0.00   0.00    0.83

          -------------------------------
          BOND ORDER AND VALENCE ANALYSIS     BOND ORDER THRESHOLD=0.050
          -------------------------------

                   BOND                       BOND                       BOND
  ATOM PAIR DIST  ORDER      ATOM PAIR DIST  ORDER      ATOM PAIR DIST  ORDER
    1   2  1.509  0.967        1   5  1.093  0.940        1   6  1.098  0.929
    1   7  1.098  0.929        2   3  1.211  2.024        2   4  1.115  0.885

                       TOTAL       BONDED        FREE
      ATOM            VALENCE     VALENCE     VALENCE
    1 C                 3.767       3.767       0.000
    2 C                 3.872       3.872      -0.000
    3 O                 2.120       2.120       0.000
    4 H                 0.927       0.927       0.000
    5 H                 0.937       0.937      -0.000
    6 H                 0.930       0.930       0.000
    7 H                 0.930       0.930       0.000

          ---------------------
          ELECTROSTATIC MOMENTS
          ---------------------

 POINT   1           X           Y           Z (BOHR)    CHARGE
                -0.000000    0.000000   -0.000000        0.00 (A.U.)
         DX          DY          DZ         /D/  (DEBYE)
    -2.438497   -0.990565    0.000007    2.632012
 ...... END OF PROPERTY EVALUATION ......
 STEP CPU TIME =     0.00 TOTAL CPU TIME =          7.7 (      0.1 MIN)
 TOTAL WALL CLOCK TIME=          7.9 SECONDS, CPU UTILIZATION IS    97.71%

 BEGINNING ONE ELECTRON GRADIENT...
 ..... END OF 1-ELECTRON GRADIENT ......
 STEP CPU TIME =     0.01 TOTAL CPU TIME =          7.7 (      0.1 MIN)
 TOTAL WALL CLOCK TIME=          7.9 SECONDS, CPU UTILIZATION IS    97.71%

          ----------------------
          GRADIENT OF THE ENERGY
          ----------------------
 MEMORY FOR GRID POINT CONTRIBUTIONS TO THE DFT GRADIENT=    269593 WORDS.
 STEP CPU TIME =     1.11 TOTAL CPU TIME =          8.8 (      0.1 MIN)
 TOTAL WALL CLOCK TIME=          9.0 SECONDS, CPU UTILIZATION IS    98.00%

 THE MINIMUM MEMORY REQUIRED FOR THIS RUN IS      88877 WORDS.
 USING     991233 WORDS FOR 2E- DERIVATIVE INTEGRAL CONTRIBUTIONS.
 THE COARSE/FINE SCHWARZ SCREENINGS SKIPPED          774/        1299 BLOCKS.
 THE NUMBER OF GRADIENT INTEGRAL BLOCKS COMPUTED WAS     19893
 ...... END OF 2-ELECTRON GRADIENT ......
 STEP CPU TIME =     0.16 TOTAL CPU TIME =          9.0 (      0.1 MIN)
 TOTAL WALL CLOCK TIME=          9.1 SECONDS, CPU UTILIZATION IS    97.92%
 THE VIB 0 GRADIENT RMS = 5.67680056E-05

 THE VIB 0 GEOMETRY GRADIENT IS

 UNITS ARE HARTREE/BOHR    E'X               E'Y               E'Z 
    1 C                0.000111124       0.000020326       0.000013010
    2 C               -0.000205847      -0.000032575      -0.000011604
    3 O               -0.000009196       0.000017834       0.000001615
    4 H                0.000031479       0.000034467       0.000001750
    5 H                0.000003778      -0.000038797       0.000006171
    6 H                0.000036268      -0.000008869       0.000041800
    7 H                0.000032394       0.000007614      -0.000052742
  $VIB   
          IVIB=   0 IATOM=   0 ICOORD=   0 E=     -153.7387080426
  1.111244361E-04 2.032632958E-05 1.300992703E-05-2.058466553E-04-3.257541795E-05
 -1.160430491E-05-9.195608525E-06 1.783423764E-05 1.614712060E-06 3.147852793E-05
  3.446721783E-05 1.750436194E-06 3.777864386E-06-3.879735906E-05 6.171141324E-06
  3.626771843E-05-8.869260680E-06 4.179976879E-05 3.239371699E-05 7.614252637E-06
 -5.274168049E-05
 -2.438497243E+00-9.905647142E-01 7.226110592E-06
1   ATOM  1
                                        -------------------
   COORD  1                             NUCLEAR COORDINATES
                                        -------------------
     VIB  1

                       ATOM             X              Y              Z

                 1  C               -2.378420       0.311812      -0.000000
                 2  C                0.240324      -0.791798       0.000021
                 3  O                2.169736       0.437848      -0.000006
                 4  H                0.313835      -2.896766       0.000061
                 5  H               -2.307129       2.375074       0.000197
                 6  H               -3.432243      -0.356025      -1.665261
                 7  H               -3.432726      -0.356141       1.664856
 ...... END OF ONE-ELECTRON INTEGRALS ......
 STEP CPU TIME =     0.02 TOTAL CPU TIME =          9.0 (      0.1 MIN)
 TOTAL WALL CLOCK TIME=          9.2 SECONDS, CPU UTILIZATION IS    98.03%
 TOTAL NUMBER OF NONZERO TWO-ELECTRON INTEGRALS =              898457
         60 INTEGRAL RECORDS WERE STORED ON DISK FILE  8.
  ...... END OF TWO-ELECTRON INTEGRALS .....
 STEP CPU TIME =     0.12 TOTAL CPU TIME =          9.1 (      0.2 MIN)
 TOTAL WALL CLOCK TIME=          9.3 SECONDS, CPU UTILIZATION IS    98.06%

          --------------------------
             R-B3LYP SCF CALCULATION
          --------------------------
         DENSITY MATRIX CONVERGENCE THRESHOLD=  1.00E-05
     COARSE -> FINE DFT GRID SWITCH THRESHOLD=  3.00E-04 (SWITCH IN $DFT)
                   HF -> DFT SWITCH THRESHOLD=  5.00E-03 (SWOFF IN $DFT)

 ITER EX DEM     TOTAL ENERGY        E CHANGE  DENSITY CHANGE    DIIS ERROR
          * * *   INITIATING DIIS PROCEDURE   * * *
   1  0  0     -153.7386705470  -153.7386705470   0.001366326   0.001139257
   2  1  0     -153.7386816723    -0.0000111252   0.001122656   0.000499597
   3  2  0     -153.7386808604     0.0000008118   0.000794339   0.000795434
   4  3  0     -153.7386825721    -0.0000017117   0.000108492   0.000130472
   5  4  0     -153.7386826330    -0.0000000609   0.000020192   0.000019022
   6  5  0     -153.7386826345    -0.0000000015   0.000003801   0.000002361
   7  6  0     -153.7386826345    -0.0000000000   0.000001051   0.000000958

          -----------------
          DENSITY CONVERGED
          -----------------
     TIME TO FORM FOCK OPERATORS=       4.6 SECONDS (       0.7 SEC/ITER)
     TIME TO SOLVE SCF EQUATIONS=       0.0 SECONDS (       0.0 SEC/ITER)

 FINAL R-B3LYP ENERGY IS     -153.7386826345 AFTER   7 ITERATIONS
 DFT EXCHANGE + CORRELATION ENERGY =       -16.8249203997
 TOTAL ELECTRON NUMBER             =        24.0001100183
 ...... END OF RHF CALCULATION ......
 STEP CPU TIME =     4.65 TOTAL CPU TIME =         13.8 (      0.2 MIN)
 TOTAL WALL CLOCK TIME=         14.0 SECONDS, CPU UTILIZATION IS    98.50%
 ..... END OF 1-ELECTRON GRADIENT ......
 STEP CPU TIME =     0.00 TOTAL CPU TIME =         13.8 (      0.2 MIN)
 TOTAL WALL CLOCK TIME=         14.0 SECONDS, CPU UTILIZATION IS    98.43%
 MEMORY FOR GRID POINT CONTRIBUTIONS TO THE DFT GRADIENT=    269593 WORDS.
 STEP CPU TIME =     1.35 TOTAL CPU TIME =         15.1 (      0.3 MIN)
 TOTAL WALL CLOCK TIME=         15.3 SECONDS, CPU UTILIZATION IS    98.56%
 ...... END OF 2-ELECTRON GRADIENT ......
 STEP CPU TIME =     0.17 TOTAL CPU TIME =         15.3 (      0.3 MIN)
 TOTAL WALL CLOCK TIME=         15.5 SECONDS, CPU UTILIZATION IS    98.58%

 UNITS ARE HARTREE/BOHR    E'X               E'Y               E'Z 
    1 C                0.004986468       0.000355126       0.000012516
    2 C               -0.001851204       0.000537819      -0.000011574
    3 O               -0.000562483      -0.000022497       0.000001601
    4 H                0.000056755       0.000033012       0.000001749
[...]
                   Y 0.012291 0.349751 0.000025 0.000058-0.006719 0.000633
                   Z-0.000000 0.000025 0.047481 0.000768-0.026726 0.001671
  6   H            X-0.000739 0.000058 0.000768 0.119941 0.045291 0.117411
                   Y-0.016123-0.006719-0.026726 0.045291 0.075673 0.075223
                   Z 0.002170 0.000633 0.001671 0.117411 0.075223 0.232620
  7   H            X-0.000738 0.000057-0.000768 0.009970 0.005623-0.014286
                   Y-0.016130-0.006726 0.026723 0.005623 0.002769-0.008628
                   Z-0.002171-0.000633 0.001673 0.014294 0.008633-0.022015

                                   7
                               H         
                          X        Y        Z
  7   H            X 0.120011 0.045334-0.117458
                   Y 0.045334 0.075694-0.075240
                   Z-0.117458-0.075240 0.232568

          ------------------------          ----------------
          DIPOLE DERIVATIVE TENSOR          (DEBYE/ANGSTROM)
          ------------------------          ----------------

        ATOM                 MU-X           MU-Y           MU-Z
     C          D/DX    -1.768159856    0.497851433   -0.000141514
                D/DY     0.706673072   -0.137517436    0.000052354
                D/DZ    -0.000339934   -0.000014866    0.369550286
     C          D/DX     5.747537517    0.391398828    0.000070467
                D/DY    -0.176438860    4.407191764   -0.000057286
                D/DZ     0.000012462    0.000005816    0.718635767
     O          D/DX    -4.353309817   -0.834677521   -0.000011128
                D/DY    -0.973184920   -2.796301232    0.000009644
                D/DZ     0.000063497   -0.000009640   -1.430038539
     H          D/DX    -0.186572375    0.133887118   -0.000007743
                D/DY     0.277478856   -1.510214167    0.000039286
                D/DZ     0.000020969    0.000024481    0.198198750
     H          D/DX     0.219815144   -0.102849143   -0.000010971
                D/DY     0.111047468   -0.405255229   -0.000034761
                D/DZ     0.000033018   -0.000048699    0.366481927
     H          D/DX     0.170159198   -0.042611230   -0.233583694
                D/DY     0.027047293    0.220917451   -0.350821765
                D/DZ    -0.372118529   -0.235137790   -0.111476449
     H          D/DX     0.170080543   -0.042694594    0.233679996
                D/DY     0.026893603    0.220867785    0.350810414
                D/DZ     0.372346588    0.235181275   -0.111222440

          --------------------------------------------------------
          NORMAL COORDINATE ANALYSIS IN THE HARMONIC APPROXIMATION
          --------------------------------------------------------

          ATOMIC WEIGHTS (AMU)

    1     C                12.00000
    2     C                12.00000
    3     O                15.99491
    4     H                 1.00782
    5     H                 1.00782
    6     H                 1.00782
    7     H                 1.00782

 MODES    1 TO    6 ARE TAKEN AS ROTATIONS AND TRANSLATIONS.

 ANALYZING SYMMETRY OF NORMAL MODES...

     FREQUENCIES IN CM**-1, IR INTENSITIES IN DEBYE**2/AMU-ANGSTROM**2,
     REDUCED MASSES IN AMU.

                            1           2           3           4           5
       FREQUENCY:        16.19       11.11       10.69        0.01        0.07  
        SYMMETRY:         A           A           A           A           A   
    REDUCED MASS:      1.49714     3.76561     3.85933     6.29095     6.24008
    IR INTENSITY:      0.07919     0.13074     0.14032     0.00000     0.00001

  1   C            X -0.00028593 -0.01860561 -0.01383911  0.04602495  0.07519941
                   Y -0.00214072 -0.13548590 -0.10044051  0.14347254 -0.02491564
                   Z -0.07929712  0.10110822 -0.13460330  0.00018663  0.12906212
  2   C            X  0.00070068  0.04417469  0.03270689  0.04604165  0.07548189
                   Y  0.00021822  0.01404659  0.01043666  0.14351202 -0.02424426
                   Z  0.13937075 -0.00265390  0.00062002  0.00018424  0.12863273
  3   O            X -0.00039547 -0.02556022 -0.01900472  0.04602336  0.07516967
                   Y  0.00193305  0.12343588  0.09156025  0.14354394 -0.02375063
                   Z -0.05423512 -0.10089628  0.13734026  0.00016495  0.12715115
  4   H            X  0.00257390  0.16310450  0.12090181  0.04607911  0.07601853
                   Y  0.00029029  0.01825710  0.01355867  0.14351477 -0.02422553
                   Z  0.50862521  0.01767109 -0.03474752  0.00020145  0.12978918
  5   H            X -0.00212592 -0.13667842 -0.10139247  0.04599489  0.07466998
                   Y -0.00203526 -0.13085068 -0.09701052  0.14347318 -0.02489573
                   Z -0.44789076  0.06663435 -0.08057014  0.00017561  0.12787009
  6   H            X  0.01191298 -0.05758504  0.11744777  0.04603145  0.07472084
                   Y -0.30100667 -0.22051081 -0.10436735  0.14344630 -0.02611573
                   Z  0.03283277  0.15963351 -0.21545836  0.00019336  0.12984359
  7   H            X -0.01129169  0.09613284 -0.08893042  0.04604029  0.07601937
                   Y  0.29482841 -0.16978990 -0.18497234  0.14346336 -0.02425329
                   Z  0.03287152  0.15945117 -0.21564977  0.00019214  0.12984279

 TRANS. SAYVETZ    X -0.00027087 -0.03652214 -0.02916291  2.02652541  3.31429502
                   Y -0.00013626  0.01024461  0.00874313  6.31817542 -1.07007665
                   Z -0.01917428 -0.02582836  0.03824403  0.00785726  5.64750332
               TOTAL  0.01917668  0.04589034  0.04888275  6.63522476  6.63505157

   ROT. SAYVETZ    X -5.58121724 -0.39483322  0.65082312 -0.00023176 -0.01796532
                   Y -1.80640047  7.91821073-10.64004580  0.00078604  0.07213942
                   Z  0.17844407 11.35321333  8.41873426  0.00313400  0.05107287
               TOTAL  5.86897869 13.84736103 13.58341753  0.00323937  0.09019582

                            6           7           8           9          10
       FREQUENCY:         0.08      157.55      508.48      782.15      894.59  
        SYMMETRY:         A           A           A           A           A   
    REDUCED MASS:      6.25367     1.26427     2.56388     1.12686     2.17596
    IR INTENSITY:      0.00001     0.00886     0.30559     0.01564     0.19913

  1   C            X  0.12203320  0.00000050 -0.10504361  0.00002137  0.17200492
                   Y -0.04016530 -0.00007137 -0.01264800  0.00001073  0.00437795
                   Z -0.07964112 -0.00115586 -0.00001311 -0.06585250  0.00000217
  2   C            X  0.12253113  0.00002483 -0.00710114 -0.00000503 -0.08946219
                   Y -0.03898090 -0.00000752  0.12979544 -0.00001334  0.06162876
                   Z -0.07933602  0.09982899  0.00000583 -0.06456283  0.00001064
  3   O            X  0.12198031 -0.00002580  0.12271335 -0.00001654 -0.07112364
                   Y -0.03811029  0.00006891 -0.06952529  0.00000189 -0.01980061
                   Z -0.07835140 -0.07889274  0.00000060  0.02846773 -0.00000321
  4   H            X  0.12347795  0.00010422 -0.13916413  0.00000910 -0.27184139
                   Y -0.03894789 -0.00000067  0.11971014 -0.00000355  0.04760157
                   Z -0.08009017  0.29672376  0.00006807  0.59225597 -0.00006780
  5   H            X  0.12109897 -0.00007281 -0.47225657  0.00004576 -0.16196317
                   Y -0.04013037 -0.00010286  0.00150494 -0.00001785  0.01027041
                   Z -0.07886210  0.38231989  0.00003768  0.24989693 -0.00003444
  6   H            X  0.12277410  0.25696359 -0.00045056 -0.41955910  0.28988724
                   Y -0.04003106  0.33640892 -0.20624352  0.19908906 -0.26476583
                   Z -0.08015993 -0.30169084  0.00975343  0.12947622  0.03088751
  7   H            X  0.12189430 -0.25688740 -0.00037762  0.41957196  0.28991880
                   Y -0.04124766 -0.33654710 -0.20639073 -0.19906652 -0.26478887
                   Z -0.08016244 -0.30181231 -0.00978260  0.12958889 -0.03088556

 TRANS. SAYVETZ    X  5.37890963 -0.00000017  0.00001237 -0.00000025  0.00004050
                   Y -1.72093693 -0.00008815  0.00001893  0.00000007 -0.00000213
                   Z -3.48272226 -0.00167322 -0.00000051  0.00018980  0.00000128
               TOTAL  6.63503181  0.00167554  0.00002262  0.00018980  0.00004058

   ROT. SAYVETZ    X  0.01172357 -0.11063439 -0.00008190  0.01069998 -0.00008896
                   Y -0.04876047  0.26202754 -0.00044686  0.00888742 -0.00005411
                   Z  0.09008996  0.00618667 -0.02421334 -0.00026247 -0.00522487
               TOTAL  0.10310784  0.28449372  0.02421761  0.01391203  0.00522591

                           11          12          13          14          15
       FREQUENCY:      1137.98     1144.62     1405.79     1447.28     1489.09  
        SYMMETRY:         A           A           A           A           A   
    REDUCED MASS:      2.06325     1.76267     1.25104     1.21050     1.05518
    IR INTENSITY:      0.56998     0.03678     0.42805     0.30959     0.39641

  1   C            X  0.01123866 -0.00000490 -0.11626466  0.04976471 -0.00177672
                   Y -0.13366741 -0.00008745  0.06111820  0.01554327  0.05240389
                   Z  0.00007095 -0.10510239 -0.00000197  0.00000615 -0.00005746
  2   C            X -0.08924184 -0.00005634  0.00327981 -0.04720244 -0.01029963
                   Y  0.13607896  0.00008973 -0.00361521  0.05899869 -0.00639009
                   Z -0.00011623  0.16214364 -0.00001353  0.00000238 -0.00002095
  3   O            X  0.03182123  0.00002129 -0.00968436 -0.03345265  0.02472955
                   Y -0.02234489 -0.00001589 -0.01437600 -0.06222312  0.01607689
                   Z  0.00002405 -0.03448618  0.00000262  0.00000037  0.00000087
  4   H            X -0.06804641 -0.00001738  0.26200065  0.85370835 -0.10302558
                   Y  0.14441095  0.00008451  0.00187946  0.11839482 -0.00871556
                   Z  0.00036956 -0.51417108  0.00002854 -0.00001934  0.00007693
  5   H            X  0.56492073  0.00043569  0.39989472 -0.12707852  0.43320005
                   Y -0.15175517 -0.00012915  0.03562382  0.02097667  0.02208497
                   Z -0.00009836  0.22043490  0.00005416 -0.00004946  0.00083332
  6   H            X -0.03631368 -0.31267036  0.41861978 -0.11314039 -0.28935071
                   Y  0.16658494  0.06022251 -0.24703010 -0.01969480 -0.40872736
                   Z -0.08015012  0.08080549 -0.19939583  0.11595798  0.34949639
  7   H            X -0.03680345  0.31264347  0.41845349 -0.11307438 -0.28953231
                   Y  0.16668031 -0.05995233 -0.24700710 -0.01972591 -0.40767969
                   Z  0.08003717  0.08106468  0.19945567 -0.11599503 -0.34948622

 TRANS. SAYVETZ    X  0.00001270  0.00000013 -0.00002048  0.00000585 -0.00002401
                   Y  0.00000549  0.00000052 -0.00001320 -0.00001678 -0.00000736
                   Z  0.00000087 -0.00000618 -0.00000046  0.00000148  0.00000063
               TOTAL  0.00001387  0.00000620  0.00002437  0.00001784  0.00002512

   ROT. SAYVETZ    X  0.00014725 -0.00309713 -0.00000571 -0.00002057 -0.00012775
                   Y  0.00011219  0.00135998 -0.00003892  0.00003877  0.00005008
                   Z  0.00369753 -0.00009793  0.00785558  0.00518696 -0.00216714
               TOTAL  0.00370216  0.00338399  0.00785568  0.00518714  0.00217148

                           16          17          18          19          20
       FREQUENCY:      1500.59     1845.19     2897.11     3041.83     3097.40  
        SYMMETRY:         A           A           A           A           A   
    REDUCED MASS:      1.04704     8.99320     1.08382     1.03803     1.09913
    IR INTENSITY:      0.22020     3.71871     3.29144     0.06327     0.22353

  1   C            X  0.00001944 -0.01575491  0.00181897 -0.05118343  0.00009820
                   Y -0.00005462 -0.00628846  0.00333579 -0.00134320 -0.00003800
                   Z -0.05256890 -0.00000017  0.00000294 -0.00017003 -0.08692914
  2   C            X  0.00001019  0.19759879  0.00829642  0.00103827 -0.00000411
                   Y  0.00001258  0.10629708 -0.07930732 -0.00491342  0.00000490
                   Z -0.02521488 -0.00000178  0.00000140 -0.00000224 -0.00072894
  3   O            X -0.00003093 -0.12609015 -0.00200299  0.00027505 -0.00000006
                   Y -0.00002144 -0.07881727 -0.00048267  0.00043815 -0.00000027
                   Z  0.00241046  0.00000196  0.00000002 -0.00000040 -0.00025768
  4   H            X  0.00014065 -0.13487875 -0.06017531 -0.00801482  0.00001112
                   Y  0.00001934  0.07245749  0.95354482  0.04611757 -0.00004248
                   Z  0.07464898  0.00000105 -0.00001504  0.00000114  0.00037486
  5   H            X -0.00059922  0.08389336 -0.00160791 -0.02260308  0.00006456
                   Y -0.00007412 -0.00280974 -0.00828600 -0.38178294  0.00119215
                   Z  0.70757790  0.00000079 -0.00000025 -0.00006032 -0.01588072
  6   H            X  0.14132272 -0.05649343 -0.01344072  0.31224313  0.34543534
                   Y -0.44680485 -0.00476555 -0.01651781  0.20198879  0.22007803
                   Z  0.05246256  0.02770374 -0.03495250  0.51908593  0.53085066
  7   H            X -0.14072637 -0.05649029 -0.01342703  0.31107178 -0.34663023
                   Y  0.44769882 -0.00477181 -0.01650957  0.20121729 -0.22082906
                   Z  0.05321987 -0.02771458  0.03491555 -0.51696893  0.53246419

 TRANS. SAYVETZ    X -0.00000026  0.00007383  0.00000238 -0.00000761  0.00000011
                   Y -0.00000157  0.00000902 -0.00000903 -0.00000202  0.00000008
                   Z  0.00000700 -0.00000118 -0.00000021  0.00000029 -0.00001047
               TOTAL  0.00000718  0.00007439  0.00000934  0.00000788  0.00001047

   ROT. SAYVETZ    X -0.00345183  0.00000572 -0.00000737 -0.00001359 -0.00096349
                   Y -0.00369123 -0.00001772 -0.00000030 -0.00001939 -0.00045379
                   Z  0.00000905 -0.00173006 -0.00137506  0.00085544  0.00001666
               TOTAL  0.00505375  0.00173016  0.00137508  0.00085577  0.00106514

                           21
       FREQUENCY:      3161.92  
        SYMMETRY:         A   
    REDUCED MASS:      1.10204
    IR INTENSITY:      0.25130

  1   C            X -0.02270730
                   Y -0.08511058
                   Z  0.00003756
  2   C            X -0.00153336
                   Y -0.00374140
                   Z  0.00000009
  3   O            X  0.00066467
                   Y  0.00073276
                   Z  0.00000016
  4   H            X -0.00331904
                   Y  0.02908225
                   Z -0.00000082
  5   H            X  0.03522489
                   Y  0.87847223
                   Z  0.00008146
  6   H            X  0.12287858
                   Y  0.06925339
                   Z  0.20697005
  7   H            X  0.12330603
                   Y  0.06950646
                   Z -0.20750168

 TRANS. SAYVETZ    X  0.00000993
                   Y -0.00000169
                   Z -0.00000014
               TOTAL  0.00001007

   ROT. SAYVETZ    X -0.00001914
                   Y -0.00000612
                   Z  0.00065336
               TOTAL  0.00065367

 REFERENCE ON SAYVETZ CONDITIONS - A. SAYVETZ, J.CHEM.PHYS., 7, 383-389(1939).

 NOTE - THE MODES J,K ARE ORTHONORMALIZED ACCORDING TO
 SUM ON I   M(I) * (X(I,J)*X(I,K) + Y(I,J)*Y(I,K) + Z(I,J)*Z(I,K)) = DELTA(J,K)

  MODE FREQ(CM**-1)  SYMMETRY  RED. MASS  IR INTENS.
     1      16.193    A        1.497139    0.079187
     2      11.108    A        3.765607    0.130737
     3      10.693    A        3.859331    0.140317
     4       0.011    A        6.290951    0.000000
     5       0.075    A        6.240077    0.000010
     6       0.078    A        6.253667    0.000009
     7     157.552    A        1.264272    0.008859
     8     508.478    A        2.563878    0.305593
     9     782.154    A        1.126859    0.015636
    10     894.593    A        2.175957    0.199126
    11    1137.977    A        2.063247    0.569985
    12    1144.617    A        1.762671    0.036782
    13    1405.791    A        1.251042    0.428053
    14    1447.285    A        1.210497    0.309586
    15    1489.089    A        1.055176    0.396411
    16    1500.595    A        1.047039    0.220204
    17    1845.193    A        8.993203    3.718709
    18    2897.107    A        1.083818    3.291438
    19    3041.833    A        1.038030    0.063273
    20    3097.398    A        1.099131    0.223532
    21    3161.916    A        1.102035    0.251302

     -------------------------------
     THERMOCHEMISTRY AT T=  298.15 K
     -------------------------------

 USING IDEAL GAS, RIGID ROTOR, HARMONIC NORMAL MODE APPROXIMATIONS.
 P=  1.01325E+05 PASCAL.
 ALL FREQUENCIES ARE SCALED BY   1.00000
 THE MOMENTS OF INERTIA ARE (IN AMU*BOHR**2)
     31.74229   179.24805   199.81388
 THE ROTATIONAL SYMMETRY NUMBER IS  1.0
 THE ROTATIONAL CONSTANTS ARE (IN GHZ)
     56.80398    10.05918     9.02384
      7 -     21 VIBRATIONAL MODES ARE USED IN THERMOCHEMISTRY.
 THE HARMONIC ZERO POINT ENERGY IS (SCALED BY   1.000)
        0.055841 HARTREE/MOLECULE    12255.787997 CM**-1/MOLECULE 
       35.041091 KCAL/MOL              146.611927 KJ/MOL

               Q               LN Q
 ELEC.     1.00000E+00       0.000000
 TRANS.    1.14821E+07      16.256298
 ROT.      1.20698E+04       9.398463
 VIB.      2.15666E+00       0.768559
 TOT.      2.98884E+11      26.423320

              E         H         G         CV        CP        S
           KJ/MOL    KJ/MOL    KJ/MOL   J/MOL-K   J/MOL-K   J/MOL-K
 ELEC.      0.000     0.000     0.000     0.000     0.000     0.000
 TRANS.     3.718     6.197   -40.298    12.472    20.786   155.948
 ROT.       3.718     3.718   -23.298    12.472    12.472    90.614
 VIB.     149.379   149.379   144.707    21.652    21.652    15.671
 TOTAL    156.816   159.295    81.110    46.595    54.909   262.233
 VIB. THERMAL CORRECTION E(T)-E(0) = H(T)-H(0) =  2767.171 J/MOL

              E         H         G         CV        CP        S
         KCAL/MOL  KCAL/MOL  KCAL/MOL CAL/MOL-K CAL/MOL-K CAL/MOL-K
 ELEC.      0.000     0.000     0.000     0.000     0.000     0.000
 TRANS.     0.889     1.481    -9.632     2.981     4.968    37.272
 ROT.       0.889     0.889    -5.568     2.981     2.981    21.657
 VIB.      35.702    35.702    34.586     5.175     5.175     3.746
 TOTAL     37.480    38.072    19.386    11.136    13.124    62.675
 VIB. THERMAL CORRECTION E(T)-E(0) = H(T)-H(0) =   661.370 CAL/MOL
 ......END OF NORMAL COORDINATE ANALYSIS......
 STEP CPU TIME =     0.01 TOTAL CPU TIME =        258.9 (      4.3 MIN)
 TOTAL WALL CLOCK TIME=        261.0 SECONDS, CPU UTILIZATION IS    99.22%
                994878  WORDS OF DYNAMIC MEMORY USED
 EXECUTION OF GAMESS TERMINATED NORMALLY Wed Oct 16 17:57:43 2019
 DDI: 263640 bytes (0.3 MB / 0 MWords) used by master data server.

 ----------------------------------------
 CPU timing information for all processes
 ========================================
 0: 255.824 + 3.125 = 258.949
 ----------------------------------------
 ddikick.x: exited gracefully.
----- accounting info -----
Files used on the master node crcfe01.crc.nd.edu were:
-rw-r--r-- 1 cdrisko campus      490 Oct 16 17:53 /afs/crc.nd.edu/user/c/cdrisko/acetaldehyde_vib.F05
-rw-r--r-- 1 cdrisko campus    66747 Oct 16 17:57 /afs/crc.nd.edu/user/c/cdrisko/acetaldehyde_vib.F07
-rw-r--r-- 1 cdrisko campus 10800960 Oct 16 17:57 /afs/crc.nd.edu/user/c/cdrisko/acetaldehyde_vib.F08
-rw-r--r-- 1 cdrisko campus  1865040 Oct 16 17:57 /afs/crc.nd.edu/user/c/cdrisko/acetaldehyde_vib.F10
-rw-r--r-- 1 cdrisko campus  2039576 Oct 16 17:57 /afs/crc.nd.edu/user/c/cdrisko/acetaldehyde_vib.F22
Wed Oct 16 17:57:46 EDT 2019
0.391u 0.198s 4:24.57 0.2%	0+0k 0+160io 0pf+0w
