   4   4   0   0
  0.1697933E+02  0.4080000E-09  0.4080000E-09  0.4080000E-09  0.5000000E-15
  1.000000000000000E-004
  CAR 
 unknown system                          
     39.57463102     -2.25980403  301      9.53160111      1.00000000
     -2.260  0.0000E+00  0.0000E+00
     -2.120  0.0000E+00  0.0000E+00
     -1.981  0.0000E+00  0.0000E+00
     -1.841  0.0000E+00  0.0000E+00
     -1.702  0.0000E+00  0.0000E+00
     -1.563  0.0000E+00  0.0000E+00
     -1.423  0.0000E+00  0.0000E+00
     -1.284 -0.1801E-38 -0.2511E-39
     -1.144 -0.3540E-28 -0.4937E-29
     -1.005 -0.1380E-19 -0.1924E-20
     -0.865 -0.1009E-12 -0.1407E-13
     -0.726 -0.1404E-07 -0.1958E-08
     -0.586 -0.3263E-04 -0.4552E-05
     -0.447 -0.8964E-03 -0.1295E-03
     -0.308  0.1592E-01  0.2091E-02
     -0.168  0.1210E+00  0.1896E-01
     -0.029  0.1433E+00  0.3895E-01
      0.111  0.1871E+00  0.6504E-01
      0.250  0.3662E+00  0.1161E+00
      0.390  0.1053E+00  0.1308E+00
      0.529  0.3884E+00  0.1849E+00
      0.669  0.4287E+00  0.2447E+00
      0.808  0.2682E+00  0.2821E+00
      0.948  0.6155E+00  0.3679E+00
      1.087  0.1814E+00  0.3932E+00
      1.226  0.6289E+00  0.4809E+00
      1.366  0.5778E+00  0.5615E+00
      1.505  0.8793E+00  0.6841E+00
      1.645  0.2726E+00  0.7221E+00
      1.784  0.7213E+00  0.8227E+00
      1.924  0.1290E+01  0.1003E+01
      2.063  0.7188E+00  0.1103E+01
      2.203  0.1535E+01  0.1317E+01
      2.342  0.2783E+01  0.1705E+01
      2.481  0.2509E+01  0.2055E+01
      2.621  0.3696E+01  0.2570E+01
      2.760  0.4926E+01  0.3257E+01
      2.900  0.6156E+01  0.4116E+01
      3.039  0.7216E+01  0.5122E+01
      3.179  0.7601E+01  0.6182E+01
      3.318  0.6852E+01  0.7137E+01
      3.458  0.6849E+01  0.8093E+01
      3.597  0.5728E+01  0.8891E+01
      3.736  0.6245E+01  0.9762E+01
      3.876  0.4178E+01  0.1034E+02
      4.015  0.5771E+01  0.1115E+02
      4.155  0.7549E+01  0.1220E+02
      4.294  0.7592E+01  0.1326E+02
      4.434  0.7579E+01  0.1432E+02
      4.573  0.7644E+01  0.1538E+02
      4.713  0.8504E+01  0.1657E+02
      4.852  0.8842E+01  0.1780E+02
      4.991  0.9259E+01  0.1909E+02
      5.131  0.1338E+02  0.2096E+02
      5.270  0.1267E+02  0.2273E+02
      5.410  0.7192E+01  0.2373E+02
      5.549  0.7079E+01  0.2472E+02
      5.689  0.6331E+01  0.2560E+02
      5.828  0.6242E+01  0.2647E+02
      5.968  0.7599E+01  0.2753E+02
      6.107  0.7671E+01  0.2860E+02
      6.247  0.8473E+01  0.2978E+02
      6.386  0.9081E+01  0.3105E+02
      6.525  0.6120E+01  0.3190E+02
      6.665  0.6774E+01  0.3284E+02
      6.804  0.7655E+01  0.3391E+02
      6.944  0.5915E+01  0.3474E+02
      7.083  0.5520E+01  0.3551E+02
      7.223  0.8140E+01  0.3664E+02
      7.362  0.7500E+01  0.3769E+02
      7.502  0.1194E+02  0.3935E+02
      7.641  0.1111E+02  0.4090E+02
      7.780  0.5065E+01  0.4161E+02
      7.920  0.2769E+01  0.4199E+02
      8.059  0.2873E+01  0.4239E+02
      8.199  0.1157E+01  0.4256E+02
      8.338  0.4708E+00  0.4262E+02
      8.478  0.3109E+00  0.4267E+02
      8.617  0.1695E+01  0.4290E+02
      8.757  0.1685E+01  0.4314E+02
      8.896  0.8574E+00  0.4326E+02
      9.035  0.9335E+00  0.4339E+02
      9.175  0.9960E+00  0.4353E+02
      9.314  0.1624E+01  0.4375E+02
      9.454  0.1251E+01  0.4393E+02
      9.593  0.7574E+00  0.4403E+02
      9.733  0.1158E+01  0.4419E+02
      9.872  0.3526E+00  0.4424E+02
     10.012  0.1409E+01  0.4444E+02
     10.151  0.1787E+01  0.4469E+02
     10.291  0.1422E+01  0.4489E+02
     10.430  0.9908E+00  0.4502E+02
     10.569  0.4763E+00  0.4509E+02
     10.709  0.9533E+00  0.4522E+02
     10.848  0.1129E+01  0.4538E+02
     10.988  0.1365E+01  0.4557E+02
     11.127  0.1489E+01  0.4578E+02
     11.267  0.4032E+00  0.4584E+02
     11.406  0.1431E+01  0.4603E+02
     11.546  0.9174E+00  0.4616E+02
     11.685  0.1226E+01  0.4633E+02
     11.824  0.8736E+00  0.4646E+02
     11.964  0.5448E+00  0.4653E+02
     12.103  0.1256E+01  0.4671E+02
     12.243  0.1144E+01  0.4687E+02
     12.382  0.1053E+01  0.4701E+02
     12.522  0.4413E+00  0.4707E+02
     12.661  0.1254E+01  0.4725E+02
     12.801  0.2881E+01  0.4765E+02
     12.940  0.1309E+01  0.4783E+02
     13.079  0.1201E+01  0.4800E+02
     13.219  0.9555E+00  0.4813E+02
     13.358  0.1739E+01  0.4838E+02
     13.498  0.1511E+01  0.4859E+02
     13.637  0.1031E+01  0.4873E+02
     13.777  0.2603E+00  0.4877E+02
     13.916  0.1039E+01  0.4891E+02
     14.056  0.1030E+01  0.4906E+02
     14.195  0.1373E+01  0.4925E+02
     14.335  0.1691E+01  0.4948E+02
     14.474  0.1787E+01  0.4973E+02
     14.613  0.6723E+00  0.4983E+02
     14.753  0.8659E+00  0.4995E+02
     14.892  0.1341E+01  0.5013E+02
     15.032  0.2426E+01  0.5047E+02
     15.171  0.1232E+01  0.5064E+02
     15.311  0.1194E+01  0.5081E+02
     15.450  0.4668E+00  0.5088E+02
     15.590  0.2214E+01  0.5118E+02
     15.729  0.2020E+01  0.5147E+02
     15.868  0.9400E+00  0.5160E+02
     16.008  0.8345E+00  0.5171E+02
     16.147  0.4767E+00  0.5178E+02
     16.287  0.1361E+01  0.5197E+02
     16.426  0.1316E+01  0.5215E+02
     16.566  0.1146E+01  0.5231E+02
     16.705  0.1399E+01  0.5251E+02
     16.845  0.1664E+01  0.5274E+02
     16.984  0.1249E+01  0.5291E+02
     17.123  0.1548E+01  0.5313E+02
     17.263  0.1031E+01  0.5327E+02
     17.402  0.8248E+00  0.5339E+02
     17.542  0.1222E+01  0.5356E+02
     17.681  0.1012E+01  0.5370E+02
     17.821  0.1757E+01  0.5395E+02
     17.960  0.1450E+01  0.5415E+02
     18.100  0.2708E+01  0.5453E+02
     18.239  0.2623E+01  0.5489E+02
     18.379  0.3098E+00  0.5493E+02
     18.518  0.6176E+00  0.5502E+02
     18.657  0.1353E+01  0.5521E+02
     18.797  0.8233E+00  0.5532E+02
     18.936  0.1664E+01  0.5556E+02
     19.076  0.2011E+01  0.5584E+02
     19.215  0.1869E+01  0.5610E+02
     19.355  0.1830E+01  0.5635E+02
     19.494  0.1003E+01  0.5649E+02
     19.634  0.2063E+01  0.5678E+02
     19.773  0.1991E+01  0.5706E+02
     19.912  0.2282E+01  0.5738E+02
     20.052  0.2624E+01  0.5774E+02
     20.191  0.2739E+01  0.5812E+02
     20.331  0.1847E+01  0.5838E+02
     20.470  0.1540E+01  0.5860E+02
     20.610  0.1297E+01  0.5878E+02
     20.749  0.1066E+01  0.5893E+02
     20.889  0.2475E+01  0.5927E+02
     21.028  0.2263E+01  0.5959E+02
     21.167  0.2377E+01  0.5992E+02
     21.307  0.1464E+01  0.6012E+02
     21.446  0.2299E+01  0.6044E+02
     21.586  0.2468E+01  0.6079E+02
     21.725  0.1846E+01  0.6104E+02
     21.865  0.3117E+01  0.6148E+02
     22.004  0.1861E+01  0.6174E+02
     22.144  0.9699E+00  0.6187E+02
     22.283  0.7806E+00  0.6198E+02
     22.423  0.2452E+01  0.6232E+02
     22.562  0.2954E+01  0.6274E+02
     22.701  0.1087E+01  0.6289E+02
     22.841  0.2443E+01  0.6323E+02
     22.980  0.1695E+01  0.6346E+02
     23.120  0.1595E+01  0.6369E+02
     23.259  0.2656E+01  0.6406E+02
     23.399  0.2947E+01  0.6447E+02
     23.538  0.1691E+01  0.6470E+02
     23.678  0.3856E+01  0.6524E+02
     23.817  0.3186E+01  0.6569E+02
     23.956  0.1791E+01  0.6594E+02
     24.096  0.2215E+01  0.6625E+02
     24.235  0.2146E+01  0.6654E+02
     24.375  0.8770E+00  0.6667E+02
     24.514  0.2030E+01  0.6695E+02
     24.654  0.3233E+01  0.6740E+02
     24.793  0.2511E+01  0.6775E+02
     24.933  0.3140E+01  0.6819E+02
     25.072  0.3298E+01  0.6865E+02
     25.211  0.2466E+01  0.6899E+02
     25.351  0.2490E+01  0.6934E+02
     25.490  0.2139E+01  0.6964E+02
     25.630  0.8322E+00  0.6975E+02
     25.769  0.1234E+01  0.6993E+02
     25.909  0.1450E+01  0.7013E+02
     26.048  0.1341E+01  0.7032E+02
     26.188  0.2274E+01  0.7063E+02
     26.327  0.3312E+01  0.7109E+02
     26.467  0.1950E+01  0.7137E+02
     26.606  0.3494E+01  0.7185E+02
     26.745  0.2643E+01  0.7222E+02
     26.885  0.3290E+01  0.7268E+02
     27.024  0.2833E+01  0.7308E+02
     27.164  0.2728E+01  0.7346E+02
     27.303  0.4632E+01  0.7410E+02
     27.443  0.3519E+01  0.7459E+02
     27.582  0.2224E+01  0.7490E+02
     27.722  0.2707E+01  0.7528E+02
     27.861  0.3136E+01  0.7572E+02
     28.000  0.2430E+01  0.7606E+02
     28.140  0.3481E+01  0.7654E+02
     28.279  0.3356E+01  0.7701E+02
     28.419  0.2042E+01  0.7729E+02
     28.558  0.2796E+01  0.7768E+02
     28.698  0.2722E+01  0.7806E+02
     28.837  0.2365E+01  0.7839E+02
     28.977  0.1464E+01  0.7860E+02
     29.116  0.1575E+01  0.7882E+02
     29.255  0.1698E+01  0.7905E+02
     29.395  0.1953E+01  0.7933E+02
     29.534  0.2357E+01  0.7966E+02
     29.674  0.3046E+01  0.8008E+02
     29.813  0.1849E+01  0.8034E+02
     29.953  0.1338E+01  0.8052E+02
     30.092  0.1549E+01  0.8074E+02
     30.232  0.1485E+01  0.8095E+02
     30.371  0.1462E+01  0.8115E+02
     30.511  0.9236E+00  0.8128E+02
     30.650  0.1361E+01  0.8147E+02
     30.789  0.2076E+01  0.8176E+02
     30.929  0.7056E+00  0.8186E+02
     31.068  0.8531E+00  0.8198E+02
     31.208  0.2472E+01  0.8232E+02
     31.347  0.2567E+01  0.8268E+02
     31.487  0.3545E+01  0.8317E+02
     31.626  0.2024E+01  0.8346E+02
     31.766  0.1411E+01  0.8365E+02
     31.905  0.1213E+01  0.8382E+02
     32.044  0.6511E+00  0.8391E+02
     32.184  0.1465E+01  0.8412E+02
     32.323  0.1679E+01  0.8435E+02
     32.463  0.2127E+01  0.8465E+02
     32.602  0.1717E+01  0.8489E+02
     32.742  0.2004E+01  0.8517E+02
     32.881  0.3031E+01  0.8559E+02
     33.021  0.3386E+01  0.8606E+02
     33.160  0.2356E+01  0.8639E+02
     33.299  0.1207E+01  0.8656E+02
     33.439  0.2759E+01  0.8694E+02
     33.578  0.2957E+01  0.8736E+02
     33.718  0.1992E+01  0.8763E+02
     33.857  0.2274E+01  0.8795E+02
     33.997  0.2215E+01  0.8826E+02
     34.136  0.3352E+01  0.8873E+02
     34.276  0.3397E+01  0.8920E+02
     34.415  0.4804E+01  0.8987E+02
     34.554  0.3472E+01  0.9035E+02
     34.694  0.3421E+01  0.9083E+02
     34.833  0.4311E+01  0.9143E+02
     34.973  0.3989E+01  0.9199E+02
     35.112  0.4222E+01  0.9258E+02
     35.252  0.4804E+01  0.9325E+02
     35.391  0.5350E+01  0.9399E+02
     35.531  0.3922E+01  0.9454E+02
     35.670  0.1556E+01  0.9476E+02
     35.810  0.2107E+01  0.9505E+02
     35.949  0.1488E+01  0.9526E+02
     36.088  0.1245E+01  0.9543E+02
     36.228  0.1418E+01  0.9563E+02
     36.367  0.1901E+01  0.9590E+02
     36.507  0.1167E+00  0.9591E+02
     36.646  0.9986E-01  0.9593E+02
     36.786  0.1463E+00  0.9595E+02
     36.925  0.2411E+00  0.9598E+02
     37.065  0.1319E+00  0.9600E+02
     37.204  0.1820E-02  0.9600E+02
     37.343 -0.6470E-03  0.9600E+02
     37.483 -0.1177E-03  0.9600E+02
     37.622  0.1475E-02  0.9600E+02
     37.762  0.9516E-02  0.9600E+02
     37.901 -0.6737E-04  0.9600E+02
     38.041 -0.3125E-04  0.9600E+02
     38.180 -0.1400E-07  0.9600E+02
     38.320 -0.1009E-12  0.9600E+02
     38.459  0.0000E+00  0.9600E+02
     38.598  0.0000E+00  0.9600E+02
     38.738  0.0000E+00  0.9600E+02
     38.877  0.0000E+00  0.9600E+02
     39.017  0.0000E+00  0.9600E+02
     39.156  0.0000E+00  0.9600E+02
     39.296  0.0000E+00  0.9600E+02
     39.435  0.0000E+00  0.9600E+02
     39.575  0.0000E+00  0.9600E+02
