    4    4    1    1
  0.1697933E+02  0.4080000E-09  0.4080000E-09  0.4080000E-09  0.5000000E-15
  1.000000000000000E-004
  CAR 
 unknown system                          
     44     56     48
 
  0.0000000E+00  0.0000000E+00  0.0000000E+00  0.7513148E-03
    1       -0.358239   1.000000
    2        2.439054   1.000000
    3        2.439054   1.000000
    4        2.439054   1.000000
    5        2.754946   1.000000
    6        2.754946   1.000000
    7        2.754946   1.000000
    8        4.826140   1.000000
    9        4.826140   1.000000
   10        4.826140   1.000000
   11        6.352955   1.000000
   12        6.352955   1.000000
   13        7.516366   1.000000
   14        7.516366   1.000000
   15        7.516366   1.000000
   16        7.883890   1.000000
   17        7.883890   1.000000
   18        7.883890   1.000000
   19        7.883890   1.000000
   20        7.883890   1.000000
   21        7.883890   1.000000
   22       10.548191  -0.000000
   23       10.548191  -0.000000
   24       10.548191  -0.000000
   25       15.341974   0.000000
   26       15.341974   0.000000
   27       15.341974   0.000000
   28       19.556962   0.000000
   29       19.556962   0.000000
   30       19.556962   0.000000
   31       19.556962   0.000000
   32       19.556962   0.000000
   33       19.556962   0.000000
   34       24.055121   0.000000
   35       26.789412   0.000000
   36       26.789412   0.000000
   37       26.789412   0.000000
   38       28.075391   0.000000
   39       28.075391   0.000000
   40       28.075391   0.000000
   41       29.403474   0.000000
   42       29.403474   0.000000
   43       29.403474   0.000000
   44       32.992437   0.000000
   45       37.024580   0.000000
   46       37.024592   0.000000
   47       37.024656   0.000000
   48       37.673066   0.000000
 
  0.9090909E-01  0.0000000E+00  0.0000000E+00  0.4507889E-02
    1       -0.261266   1.000000
    2        2.472270   1.000000
    3        2.504020   1.000000
    4        2.504020   1.000000
    5        2.790261   1.000000
    6        2.808697   1.000000
    7        2.808697   1.000000
    8        4.775363   1.000000
    9        4.869760   1.000000
   10        4.869760   1.000000
   11        6.298639   1.000000
   12        6.374614   1.000000
   13        7.438317   1.000000
   14        7.438317   1.000000
   15        7.490511   1.000000
   16        7.533256   1.000000
   17        7.533256   1.000000
   18        7.788698   1.000000
   19        7.788698   1.000000
   20        7.884062   1.000000
   21        7.884062   1.000000
   22        9.882098  -0.000004
   23       10.965269  -0.000000
   24       10.965269  -0.000000
   25       15.239738   0.000000
   26       15.239738   0.000000
   27       16.171337   0.000000
   28       19.412777   0.000000
   29       19.412777   0.000000
   30       19.486506   0.000000
   31       19.486506   0.000000
   32       19.760530   0.000000
   33       19.760530   0.000000
   34       24.174983   0.000000
   35       26.713102   0.000000
   36       27.198390   0.000000
   37       27.198390   0.000000
   38       27.723598   0.000000
   39       28.023413   0.000000
   40       28.023413   0.000000
   41       29.309753   0.000000
   42       29.480902   0.000000
   43       29.480902   0.000000
   44       33.641083   0.000000
   45       36.584593   0.000000
   46       36.584597   0.000000
   47       36.857561   0.000000
   48       36.857780   0.000000
 
  0.1818182E+00  0.0000000E+00  0.0000000E+00  0.4507889E-02
    1        0.025460   1.000000
    2        2.558231   1.000000
    3        2.690737   1.000000
    4        2.690737   1.000000
    5        2.894565   1.000000
    6        2.969683   1.000000
    7        2.969683   1.000000
    8        4.629870   1.000000
    9        4.999634   1.000000
   10        4.999634   1.000000
   11        6.144355   1.000000
   12        6.437996   1.000000
   13        6.817208   1.000000
   14        6.817208   1.000000
   15        7.213310   1.000000
   16        7.213310   1.000000
   17        7.415605   1.000000
   18        7.525458   1.000000
   19        7.525458   1.000000
   20        7.884474   1.000000
   21        7.884474   1.000000
   22        8.574639   1.000000
   23       11.877675  -0.000000
   24       11.877675  -0.000000
   25       14.982410   0.000000
   26       14.982410   0.000000
   27       17.978163   0.000000
   28       18.989174   0.000000
   29       18.989174   0.000000
   30       19.330140   0.000000
   31       19.330140   0.000000
   32       20.345968   0.000000
   33       20.345968   0.000000
   34       24.522293   0.000000
   35       26.511177   0.000000
   36       27.032076   0.000000
   37       27.801032   0.000000
   38       27.801032   0.000000
   39       28.315723   0.000000
   40       28.315723   0.000000
   41       29.031951   0.000000
   42       29.726892   0.000000
   43       29.726892   0.000000
   44       35.045973   0.000000
   45       35.272258   0.000000
   46       35.272258   0.000000
   47       36.239069   0.000000
   48       36.268959   0.000000
 
  0.2727273E+00  0.0000000E+00  0.0000000E+00  0.4507889E-02
    1        0.487326   1.000000
    2        2.647547   1.000000
    3        2.971194   1.000000
    4        2.971194   1.000000
    5        3.062786   1.000000
    6        3.236960   1.000000
    7        3.236960   1.000000
    8        4.408446   1.000000
    9        5.212799   1.000000
   10        5.212799   1.000000
   11        5.918376   1.000000
   12        6.044226   1.000000
   13        6.044226   1.000000
   14        6.539206   1.000000
   15        6.875832   1.000000
   16        6.875832   1.000000
   17        7.147516   1.000000
   18        7.147516   1.000000
   19        7.259468   1.000000
   20        7.299487   1.000000
   21        7.884942   1.000000
   22        7.884942   1.000000
   23       12.968084   0.000000
   24       12.968084   0.000000
   25       14.679855   0.000000
   26       14.679855   0.000000
   27       18.314498   0.000000
   28       18.314498   0.000000
   29       19.172863   0.000000
   30       19.172863   0.000000
   31       20.164822   0.000000
   32       21.250046   0.000000
   33       21.250046   0.000000
   34       25.062729   0.000000
   35       26.253194   0.000000
   36       26.398286   0.000000
   37       27.249611   0.000000
   38       27.249611   0.000000
   39       28.581236   0.000000
   40       29.922277   0.000000
   41       29.922277   0.000000
   42       30.170059   0.000000
   43       30.170059   0.000000
   44       33.274956   0.000000
   45       34.477503   0.000000
   46       34.477503   0.000000
   47       35.237617   0.000000
   48       35.237617   0.000000
 
  0.3636364E+00  0.0000000E+00  0.0000000E+00  0.4507889E-02
    1        1.090876   1.000000
    2        2.628411   1.000000
    3        3.284135   1.000000
    4        3.284135   1.000000
    5        3.286169   1.000000
    6        3.608728   1.000000
    7        3.608728   1.000000
    8        4.136836   1.000000
    9        5.311375   1.000000
   10        5.311375   1.000000
   11        5.503533   1.000000
   12        5.503533   1.000000
   13        5.675248   1.000000
   14        6.208762   1.000000
   15        6.503716   1.000000
   16        6.503716   1.000000
   17        6.671574   1.000000
   18        6.713908   1.000000
   19        6.713908   1.000000
   20        7.153473   1.000000
   21        7.885460   1.000000
   22        7.885460   1.000000
   23       14.123237   0.000000
   24       14.123237   0.000000
   25       14.432646   0.000000
   26       14.432646   0.000000
   27       17.434969   0.000000
   28       17.434969   0.000000
   29       19.057558   0.000000
   30       19.057558   0.000000
   31       22.393799   0.000000
   32       22.393799   0.000000
   33       22.539331   0.000000
   34       25.743804   0.000000
   35       25.954593   0.000000
   36       26.032705   0.000000
   37       26.287788   0.000000
   38       26.287788   0.000000
   39       27.980815   0.000000
   40       30.578913   0.000000
   41       30.831122   0.000000
   42       30.831122   0.000000
   43       31.797370   0.000000
   44       31.797370   0.000000
   45       34.000300   0.000000
   46       34.000300   0.000000
   47       34.374712   0.000000
   48       34.374712   0.000000
 
  0.4545455E+00  0.0000000E+00  0.0000000E+00  0.4507889E-02
    1        1.760653   1.000000
    2        2.337409   1.000000
    3        3.512151   1.000000
    4        3.512151   1.000000
    5        3.551911   1.000000
    6        3.842774   1.000000
    7        4.082102   1.000000
    8        4.082102   1.000000
    9        4.652327   1.000000
   10        4.652327   1.000000
   11        5.515617   1.000000
   12        5.623256   1.000000
   13        5.862293   1.000000
   14        5.862293   1.000000
   15        6.237597   1.000000
   16        6.237597   1.000000
   17        6.273656   1.000000
   18        6.273656   1.000000
   19        6.825946   1.000000
   20        6.990951   1.000000
   21        7.885791   1.000000
   22        7.885791   1.000000
   23       14.298313   0.000000
   24       14.298313   0.000000
   25       15.285539   0.000000
   26       15.285539   0.000000
   27       16.406580   0.000000
   28       16.406580   0.000000
   29       18.997982   0.000000
   30       18.997982   0.000000
   31       23.690881   0.000000
   32       23.690881   0.000000
   33       24.892502   0.000000
   34       25.037641   0.000000
   35       25.037641   0.000000
   36       25.691110   0.000000
   37       26.069719   0.000000
   38       26.502195   0.000000
   39       27.269622   0.000000
   40       27.922403   0.000000
   41       31.710522   0.000000
   42       31.710522   0.000000
   43       32.785353   0.000000
   44       32.785353   0.000000
   45       33.553913   0.000000
   46       33.553913   0.000000
   47       34.888569   0.000000
   48       34.888571   0.000000
 
  0.9090909E-01  0.9090909E-01  0.0000000E+00  0.9015778E-02
    1       -0.165566   1.000000
    2        2.537958   1.000000
    3        2.537958   1.000000
    4        2.559161   1.000000
    5        2.843211   1.000000
    6        2.843211   1.000000
    7        2.869083   1.000000
    8        4.753629   1.000000
    9        4.886052   1.000000
   10        4.908852   1.000000
   11        6.284043   1.000000
   12        6.362253   1.000000
   13        7.307234   1.000000
   14        7.313625   1.000000
   15        7.313625   1.000000
   16        7.365935   1.000000
   17        7.513436   1.000000
   18        7.513436   1.000000
   19        7.788592   1.000000
   20        7.788592   1.000000
   21        7.821652   1.000000
   22       10.305007  -0.000000
   23       10.305007  -0.000000
   24       11.320830  -0.000000
   25       15.119355   0.000000
   26       16.064861   0.000000
   27       16.064861   0.000000
   28       18.854207   0.000000
   29       19.613522   0.000000
   30       19.613522   0.000000
   31       19.697300   0.000000
   32       19.697300   0.000000
   33       19.939468   0.000000
   34       24.283066   0.000000
   35       27.040216   0.000000
   36       27.131320   0.000000
   37       27.131320   0.000000
   38       27.385704   0.000000
   39       27.970491   0.000000
   40       28.472045   0.000000
   41       29.393410   0.000000
   42       29.393410   0.000000
   43       29.683333   0.000000
   44       33.902786   0.000000
   45       35.848954   0.000000
   46       36.197173   0.000000
   47       36.740755   0.000000
   48       36.957290   0.000000
 
  0.1818182E+00  0.9090909E-01  0.0000000E+00  0.1803156E-01
    1        0.117432   1.000000
    2        2.626127   1.000000
    3        2.719252   1.000000
    4        2.727012   1.000000
    5        2.945101   1.000000
    6        3.001720   1.000000
    7        3.046957   1.000000
    8        4.626796   1.000000
    9        5.002169   1.000000
   10        5.023451   1.000000
   11        6.152413   1.000000
   12        6.421943   1.000000
   13        6.634487   1.000000
   14        6.703468   1.000000
   15        6.975039   1.000000
   16        7.155941   1.000000
   17        7.251263   1.000000
   18        7.422606   1.000000
   19        7.524578   1.000000
   20        7.788114   1.000000
   21        7.788781   1.000000
   22        9.086417   1.000000
   23       11.153738  -0.000000
   24       12.156266  -0.000000
   25       14.810467   0.000000
   26       15.812584   0.000000
   27       17.787944   0.000000
   28       18.275468   0.000000
   29       19.182989   0.000000
   30       19.568324   0.000000
   31       20.162351   0.000000
   32       20.189689   0.000000
   33       20.320302   0.000000
   34       24.589141   0.000000
   35       26.187687   0.000000
   36       26.963517   0.000000
   37       27.757853   0.000000
   38       27.938342   0.000000
   39       28.257331   0.000000
   40       28.650924   0.000000
   41       29.134070   0.000000
   42       29.656050   0.000000
   43       30.307354   0.000000
   44       33.551985   0.000000
   45       35.270454   0.000000
   46       36.159337   0.000000
   47       36.260890   0.000000
   48       36.300015   0.000000
 
  0.2727273E+00  0.9090909E-01  0.0000000E+00  0.1803156E-01
    1        0.573158   1.000000
    2        2.718757   1.000000
    3        2.969587   1.000000
    4        3.011903   1.000000
    5        3.109318   1.000000
    6        3.264651   1.000000
    7        3.327253   1.000000
    8        4.415756   1.000000
    9        5.199431   1.000000
   10        5.212006   1.000000
   11        5.880277   1.000000
   12        5.953321   1.000000
   13        5.988184   1.000000
   14        6.434862   1.000000
   15        6.538271   1.000000
   16        6.838090   1.000000
   17        6.920882   1.000000
   18        7.145891   1.000000
   19        7.242097   1.000000
   20        7.781702   1.000000
   21        7.787244   1.000000
   22        8.010108   1.000000
   23       12.068157  -0.000000
   24       13.199922   0.000000
   25       14.430918   0.000000
   26       15.576895   0.000000
   27       17.712023   0.000000
   28       18.500847   0.000000
   29       19.463401   0.000000
   30       19.714755   0.000000
   31       20.094091   0.000000
   32       21.075531   0.000000
   33       21.372344   0.000000
   34       25.022950   0.000000
   35       25.401195   0.000000
   36       26.786365   0.000000
   37       27.283268   0.000000
   38       28.294846   0.000000
   39       28.714334   0.000000
   40       28.768572   0.000000
   41       29.819515   0.000000
   42       30.121869   0.000000
   43       31.388826   0.000000
   44       32.476482   0.000000
   45       34.610400   0.000000
   46       34.770874   0.000000
   47       35.274745   0.000000
   48       35.287103   0.000000
 
  0.3636364E+00  0.9090909E-01  0.0000000E+00  0.1803156E-01
    1        1.168914   1.000000
    2        2.701531   1.000000
    3        3.278721   1.000000
    4        3.327169   1.000000
    5        3.331817   1.000000
    6        3.629843   1.000000
    7        3.675984   1.000000
    8        4.153681   1.000000
    9        5.176818   1.000000
   10        5.288325   1.000000
   11        5.356294   1.000000
   12        5.501629   1.000000
   13        5.801374   1.000000
   14        5.825020   1.000000
   15        6.486995   1.000000
   16        6.551947   1.000000
   17        6.693996   1.000000
   18        6.711709   1.000000
   19        6.886295   1.000000
   20        7.385023   1.000000
   21        7.781047   1.000000
   22        7.785948   1.000000
   23       12.870570   0.000000
   24       14.078919   0.000000
   25       14.328089   0.000000
   26       15.547530   0.000000
   27       17.108158   0.000000
   28       17.616837   0.000000
   29       19.427657   0.000000
   30       19.866118   0.000000
   31       21.417130   0.000000
   32       22.186444   0.000000
   33       22.976058   0.000000
   34       24.666607   0.000000
   35       25.292817   0.000000
   36       26.722732   0.000000
   37       26.746218   0.000000
   38       27.436993   0.000000
   39       28.159522   0.000000
   40       29.740784   0.000000
   41       30.705464   0.000000
   42       30.807429   0.000000
   43       31.382627   0.000000
   44       32.895022   0.000000
   45       34.045519   0.000000
   46       34.071462   0.000000
   47       34.355726   0.000000
   48       34.545014   0.000000
 
  0.4545455E+00  0.9090909E-01  0.0000000E+00  0.1803156E-01
    1        1.831958   1.000000
    2        2.408044   1.000000
    3        3.543746   1.000000
    4        3.564683   1.000000
    5        3.585949   1.000000
    6        3.868588   1.000000
    7        4.070375   1.000000
    8        4.093648   1.000000
    9        4.563775   1.000000
   10        4.649993   1.000000
   11        5.329871   1.000000
   12        5.391499   1.000000
   13        5.859873   1.000000
   14        6.018318   1.000000
   15        6.245317   1.000000
   16        6.271196   1.000000
   17        6.272329   1.000000
   18        6.415431   1.000000
   19        6.880346   1.000000
   20        7.095253   1.000000
   21        7.782331   1.000000
   22        7.784223   1.000000
   23       13.425525   0.000000
   24       13.773058   0.000000
   25       15.475121   0.000000
   26       15.864013   0.000000
   27       16.454239   0.000000
   28       16.589081   0.000000
   29       19.481292   0.000000
   30       19.633659   0.000000
   31       22.761017   0.000000
   32       23.421797   0.000000
   33       23.837473   0.000000
   34       24.620314   0.000000
   35       24.903431   0.000000
   36       26.370782   0.000000
   37       26.903421   0.000000
   38       27.137576   0.000000
   39       27.519308   0.000000
   40       28.563364   0.000000
   41       30.768143   0.000000
   42       31.660853   0.000000
   43       31.711161   0.000000
   44       32.809460   0.000000
   45       34.505952   0.000000
   46       34.549017   0.000000
   47       34.711749   0.000000
   48       35.049492   0.000000
 
  0.1818182E+00  0.1818182E+00  0.0000000E+00  0.9015778E-02
    1        0.389050   1.000000
    2        2.820612   1.000000
    3        2.822322   1.000000
    4        2.822322   1.000000
    5        3.096176   1.000000
    6        3.096176   1.000000
    7        3.254072   1.000000
    8        4.570292   1.000000
    9        5.061601   1.000000
   10        5.091495   1.000000
   11        6.108014   1.000000
   12        6.229431   1.000000
   13        6.229431   1.000000
   14        6.345216   1.000000
   15        6.450889   1.000000
   16        6.985994   1.000000
   17        7.233991   1.000000
   18        7.233991   1.000000
   19        7.522075   1.000000
   20        7.522075   1.000000
   21        7.639623   1.000000
   22        9.921398  -0.000000
   23        9.921398  -0.000000
   24       12.868477   0.000000
   25       14.361730   0.000000
   26       17.334835   0.000000
   27       17.334835   0.000000
   28       17.636548   0.000000
   29       19.736686   0.000000
   30       19.736686   0.000000
   31       20.298948   0.000000
   32       20.298948   0.000000
   33       21.009927   0.000000
   34       24.750903   0.000000
   35       25.141626   0.000000
   36       27.547511   0.000000
   37       27.615138   0.000000
   38       28.128757   0.000000
   39       28.128757   0.000000
   40       29.445743   0.000000
   41       29.445743   0.000000
   42       29.617935   0.000000
   43       31.413261   0.000000
   44       31.897267   0.000000
   45       35.186325   0.000000
   46       36.124965   0.000000
   47       36.309861   0.000000
   48       36.309874   0.000000
 
  0.2727273E+00  0.1818182E+00  0.0000000E+00  0.1803156E-01
    1        0.826019   1.000000
    2        2.925643   1.000000
    3        3.010657   1.000000
    4        3.121050   1.000000
    5        3.248002   1.000000
    6        3.346043   1.000000
    7        3.544010   1.000000
    8        4.415891   1.000000
    9        5.180936   1.000000
   10        5.235098   1.000000
   11        5.507725   1.000000
   12        5.721640   1.000000
   13        5.806590   1.000000
   14        5.976361   1.000000
   15        6.600090   1.000000
   16        6.720914   1.000000
   17        6.945278   1.000000
   18        7.086121   1.000000
   19        7.141464   1.000000
   20        7.518380   1.000000
   21        7.556671   1.000000
   22        8.818274   1.000000
   23       10.760216  -0.000000
   24       13.796392   0.000000
   25       13.821233   0.000000
   26       16.853988   0.000000
   27       17.171954   0.000000
   28       18.846737   0.000000
   29       19.030615   0.000000
   30       20.347345   0.000000
   31       20.579953   0.000000
   32       21.439965   0.000000
   33       21.544068   0.000000
   34       24.190105   0.000000
   35       24.857300   0.000000
   36       27.406627   0.000000
   37       27.668828   0.000000
   38       28.055747   0.000000
   39       29.104837   0.000000
   40       29.484973   0.000000
   41       29.590820   0.000000
   42       29.976961   0.000000
   43       31.231520   0.000000
   44       32.748912   0.000000
   45       34.883445   0.000000
   46       35.003774   0.000000
   47       35.307162   0.000000
   48       35.430117   0.000000
 
  0.3636364E+00  0.1818182E+00  0.0000000E+00  0.1803156E-01
    1        1.397372   1.000000
    2        2.913518   1.000000
    3        3.287332   1.000000
    4        3.448547   1.000000
    5        3.464428   1.000000
    6        3.691204   1.000000
    7        3.848436   1.000000
    8        4.193716   1.000000
    9        4.863266   1.000000
   10        5.201889   1.000000
   11        5.211924   1.000000
   12        5.250642   1.000000
   13        5.508415   1.000000
   14        5.922290   1.000000
   15        6.424708   1.000000
   16        6.604651   1.000000
   17        6.706531   1.000000
   18        6.799485   1.000000
   19        6.829502   1.000000
   20        7.514137   1.000000
   21        7.522966   1.000000
   22        8.012257   1.000000
   23       11.522150  -0.000000
   24       13.242316   0.000000
   25       14.891305   0.000000
   26       16.526379   0.000000
   27       16.812636   0.000000
   28       18.131406   0.000000
   29       20.178440   0.000000
   30       20.493152   0.000000
   31       21.386760   0.000000
   32       21.621234   0.000000
   33       23.188047   0.000000
   34       23.301798   0.000000
   35       24.598630   0.000000
   36       27.361835   0.000000
   37       28.057372   0.000000
   38       28.225719   0.000000
   39       28.370352   0.000000
   40       28.654978   0.000000
   41       30.625248   0.000000
   42       30.732093   0.000000
   43       31.385464   0.000000
   44       33.392841   0.000000
   45       34.178566   0.000000
   46       34.289609   0.000000
   47       34.934449   0.000000
   48       35.039647   0.000000
 
  0.4545455E+00  0.1818182E+00  0.0000000E+00  0.1803156E-01
    1        2.038003   1.000000
    2        2.610336   1.000000
    3        3.609402   1.000000
    4        3.685155   1.000000
    5        3.717352   1.000000
    6        3.940835   1.000000
    7        4.073501   1.000000
    8        4.125678   1.000000
    9        4.344711   1.000000
   10        4.639015   1.000000
   11        5.032703   1.000000
   12        5.090258   1.000000
   13        5.859145   1.000000
   14        6.097107   1.000000
   15        6.240847   1.000000
   16        6.267020   1.000000
   17        6.317301   1.000000
   18        6.429555   1.000000
   19        7.119450   1.000000
   20        7.486945   1.000000
   21        7.510977   1.000000
   22        7.511959   1.000000
   23       12.169513  -0.000000
   24       12.719994   0.000000
   25       16.004151   0.000000
   26       16.429467   0.000000
   27       16.547587   0.000000
   28       17.102639   0.000000
   29       20.745928   0.000000
   30       21.079630   0.000000
   31       21.352224   0.000000
   32       22.384438   0.000000
   33       22.751678   0.000000
   34       23.822098   0.000000
   35       24.932975   0.000000
   36       26.541590   0.000000
   37       27.656381   0.000000
   38       28.142193   0.000000
   39       28.878994   0.000000
   40       29.393985   0.000000
   41       30.148890   0.000000
   42       30.371561   0.000000
   43       31.704666   0.000000
   44       32.872739   0.000000
   45       33.651343   0.000000
   46       34.531055   0.000000
   47       35.471315   0.000000
   48       36.000925   0.000000
 
  0.2727273E+00  0.2727273E+00  0.0000000E+00  0.9015778E-02
    1        1.231040   1.000000
    2        3.130598   1.000000
    3        3.245562   1.000000
    4        3.245562   1.000000
    5        3.475833   1.000000
    6        3.475833   1.000000
    7        3.820920   1.000000
    8        4.359492   1.000000
    9        5.077209   1.000000
   10        5.077209   1.000000
   11        5.170942   1.000000
   12        5.340482   1.000000
   13        5.486777   1.000000
   14        5.900102   1.000000
   15        6.524720   1.000000
   16        6.812411   1.000000
   17        6.840886   1.000000
   18        6.840886   1.000000
   19        7.136036   1.000000
   20        7.136036   1.000000
   21        7.351469   1.000000
   22        9.603736   0.032893
   23        9.603736   0.032893
   24       13.028230   0.000000
   25       14.693568   0.000000
   26       16.864266   0.000000
   27       17.994082   0.000000
   28       17.994082   0.000000
   29       19.830623   0.000000
   30       19.830623   0.000000
   31       21.742186   0.000000
   32       21.742186   0.000000
   33       22.602565   0.000000
   34       23.083229   0.000000
   35       24.468001   0.000000
   36       26.982057   0.000000
   37       27.659737   0.000000
   38       29.151956   0.000000
   39       29.419716   0.000000
   40       29.419716   0.000000
   41       29.734741   0.000000
   42       29.734741   0.000000
   43       31.348503   0.000000
   44       34.141814   0.000000
   45       34.258190   0.000000
   46       35.173921   0.000000
   47       35.173926   0.000000
   48       35.569817   0.000000
 
  0.3636364E+00  0.2727273E+00  0.0000000E+00  0.1803156E-01
    1        1.758411   1.000000
    2        3.238360   1.000000
    3        3.338333   1.000000
    4        3.630323   1.000000
    5        3.645016   1.000000
    6        3.786825   1.000000
    7        4.078243   1.000000
    8        4.226693   1.000000
    9        4.513368   1.000000
   10        4.757412   1.000000
   11        5.064513   1.000000
   12        5.107919   1.000000
   13        5.560359   1.000000
   14        5.850928   1.000000
   15        6.294672   1.000000
   16        6.542631   1.000000
   17        6.592528   1.000000
   18        6.703065   1.000000
   19        7.132964   1.000000
   20        7.139457   1.000000
   21        7.225051   1.000000
   22        8.701399   1.000000
   23       10.337920  -0.000000
   24       12.300888   0.000000
   25       15.706514   0.000000
   26       16.710188   0.000000
   27       17.325837   0.000000
   28       18.903728   0.000000
   29       19.041578   0.000000
   30       20.809350   0.000000
   31       22.020620   0.000000
   32       22.058976   0.000000
   33       23.070925   0.000000
   34       23.392691   0.000000
   35       23.803549   0.000000
   36       27.155391   0.000000
   37       27.839943   0.000000
   38       28.043637   0.000000
   39       29.397401   0.000000
   40       29.522179   0.000000
   41       29.963174   0.000000
   42       30.588830   0.000000
   43       32.281749   0.000000
   44       32.943044   0.000000
   45       34.365727   0.000000
   46       34.779687   0.000000
   47       35.335384   0.000000
   48       35.593232   0.000000
 
  0.4545455E+00  0.2727273E+00  0.0000000E+00  0.1803156E-01
    1        2.353309   1.000000
    2        2.910198   1.000000
    3        3.635175   1.000000
    4        3.840167   1.000000
    5        3.953917   1.000000
    6        4.042599   1.000000
    7        4.069847   1.000000
    8        4.170291   1.000000
    9        4.176494   1.000000
   10        4.607330   1.000000
   11        4.738070   1.000000
   12        4.926012   1.000000
   13        5.880014   1.000000
   14        5.983607   1.000000
   15        6.166377   1.000000
   16        6.267330   1.000000
   17        6.271299   1.000000
   18        6.271906   1.000000
   19        7.138376   1.000000
   20        7.162952   1.000000
   21        7.544412   1.000000
   22        8.042448   1.000000
   23       11.010279  -0.000000
   24       11.645109  -0.000000
   25       16.707457   0.000000
   26       16.784332   0.000000
   27       16.898844   0.000000
   28       17.868438   0.000000
   29       20.061262   0.000000
   30       21.064411   0.000000
   31       21.868914   0.000000
   32       22.401462   0.000000
   33       22.833967   0.000000
   34       22.904279   0.000000
   35       25.023738   0.000000
   36       26.485352   0.000000
   37       28.140385   0.000000
   38       28.506214   0.000000
   39       28.976831   0.000000
   40       29.293746   0.000000
   41       30.111006   0.000000
   42       31.273174   0.000000
   43       31.656021   0.000000
   44       32.924666   0.000000
   45       33.351819   0.000000
   46       34.148453   0.000000
   47       35.843990   0.000000
   48       36.347089   0.000000
 
  0.3636364E+00  0.3636364E+00  0.0000000E+00  0.9015778E-02
    1        2.219612   1.000000
    2        3.445293   1.000000