       N       E                     dE             d eps       ncg     rms          rms(c)
DAV:   1     0.181392080976E+03    0.18139E+03   -0.18807E+04  5520   0.717E+02
DAV:   2    -0.114090978558E+02   -0.19280E+03   -0.18165E+03  7080   0.179E+02
DAV:   3    -0.138349662637E+02   -0.24259E+01   -0.24233E+01  6912   0.199E+01
DAV:   4    -0.138449657472E+02   -0.99995E-02   -0.99993E-02  7608   0.145E+00
DAV:   5    -0.138450558139E+02   -0.90067E-04   -0.90067E-04  6672   0.137E-01    0.190E+01
DAV:   6    -0.128696727363E+02    0.97538E+00   -0.17169E+00  6816   0.650E+00    0.121E+01
DAV:   7    -0.127932229746E+02    0.76450E-01   -0.22258E-01  6888   0.235E+00    0.483E+00
DAV:   8    -0.127844458865E+02    0.87771E-02   -0.13815E-02  7224   0.539E-01    0.482E-01
DAV:   9    -0.127844145906E+02    0.31296E-04   -0.68721E-05  5976   0.391E-02
   1 F= -.12784415E+02 E0= -.12784725E+02  d E =0.932134E-03
