 vasp.5.4.1 05Feb16 (build Feb 08 2018 09:21:51) complex                        
  
 executed on             LinuxIFC date 2019.11.21  13:19:58
 running on   24 total cores
 distrk:  each k-point on   24 cores,    1 groups
 distr:  one band on NCORES_PER_BAND=   1 cores,   24 groups


--------------------------------------------------------------------------------------------------------


 INCAR:
 POTCAR:    PAW_PBE Au 04Oct2007                  

 ----------------------------------------------------------------------------- 
|                                                                             |
|           W    W    AA    RRRRR   N    N  II  N    N   GGGG   !!!           |
|           W    W   A  A   R    R  NN   N  II  NN   N  G    G  !!!           |
|           W    W  A    A  R    R  N N  N  II  N N  N  G       !!!           |
|           W WW W  AAAAAA  RRRRR   N  N N  II  N  N N  G  GGG   !            |
|           WW  WW  A    A  R   R   N   NN  II  N   NN  G    G                |
|           W    W  A    A  R    R  N    N  II  N    N   GGGG   !!!           |
|                                                                             |
|      For optimal performance we recommend to set                            |
|        NCORE= 4 - approx SQRT( number of cores)                             |
|      NCORE specifies how many cores store one orbital (NPAR=cpu/NCORE).     |
|      This setting can  greatly improve the performance of VASP for DFT.     |
|      The default, NPAR=number of cores might be grossly inefficient         |
|      on modern multi-core architectures or massively parallel machines.     |
|      Do your own testing !!!!                                               |
|      Unfortunately you need to use the default for GW and RPA calculations. |
|      (for HF NCORE is supported but not extensively tested yet)             |
|                                                                             |
 ----------------------------------------------------------------------------- 

 POTCAR:    PAW_PBE Au 04Oct2007                  
   VRHFIN =Au: s1d10                                                            
   LEXCH  = PE                                                                  
   EATOM  =   926.0867 eV,   68.0654 Ry                                         
                                                                                
   TITEL  = PAW_PBE Au 04Oct2007                                                
   LULTRA =        F    use ultrasoft PP ?                                      
   IUNSCR =        1    unscreen: 0-lin 1-nonlin 2-no                           
   RPACOR =    2.330    partial core radius                                     
   POMASS =  196.966; ZVAL   =   11.000    mass and valenz                      
   RCORE  =    2.500    outmost cutoff radius                                   
   RWIGS  =    2.840; RWIGS  =    1.503    wigner-seitz radius (au A)           
   ENMAX  =  229.943; ENMIN  =  172.457 eV                                      
   ICORE  =        3    local potential                                         
   LCOR   =        T    correct aug charges                                     
   LPAW   =        T    paw PP                                                  
   EAUG   =  356.670                                                            
   DEXC   =    0.000                                                            
   RMAX   =    2.562    core radius for proj-oper                               
   RAUG   =    1.300    factor for augmentation sphere                          
   RDEP   =    2.598    radius for radial grids                                 
   RDEPT  =    2.193    core radius for aug-charge                              
                                                                                
   Atomic configuration                                                         
   16 entries                                                                   
     n  l   j            E        occ.                                          
     1  0  0.50    -80748.5001   2.0000                                         
     2  0  0.50    -14244.7466   2.0000                                         
     2  1  1.50    -12310.9591   6.0000                                         
     3  0  0.50     -3362.1768   2.0000                                         
     3  1  1.50     -2801.5463   6.0000                                         
     3  2  2.50     -2203.8206  10.0000                                         
     4  0  0.50      -729.8168   2.0000                                         
     4  1  1.50      -546.0527   6.0000                                         
     4  2  2.50      -325.7302  10.0000                                         
     4  3  3.50       -81.1472  14.0000                                         
     5  0  0.50      -108.3201   2.0000                                         
     5  1  1.50       -59.7479   6.0000                                         
     5  2  2.50        -6.8783  10.0000                                         
     6  0  0.50        -5.7602   1.0000                                         
     6  1  1.50        -6.8029   0.0000                                         
     5  3  2.50        -1.3606   0.0000                                         
   Description                                                                  
     l       E           TYP  RCUT    TYP  RCUT                                 
     2     -6.8782861     23  2.500                                             
     2     -8.2388687     23  2.500                                             
     0     -5.7601759     23  2.500                                             
     0     -0.8493231     23  2.500                                             
     1     -2.7211652     23  2.500                                             
     1     27.2116520     23  2.500                                             
     3     -1.3605826     23  2.500                                             
  local pseudopotential read in
  partial core-charges read in
  partial kinetic energy density read in
  atomic valenz-charges read in
  non local Contribution for L=           2  read in
    real space projection operators read in
  non local Contribution for L=           2  read in
    real space projection operators read in
  non local Contribution for L=           0  read in
    real space projection operators read in
  non local Contribution for L=           0  read in
    real space projection operators read in
  non local Contribution for L=           1  read in
    real space projection operators read in
  non local Contribution for L=           1  read in
    real space projection operators read in
    PAW grid and wavefunctions read in
 
   number of l-projection  operators is LMAX  =           6
   number of lm-projection operators is LMMAX =          18
 
  PAW_PBE Au 04Oct2007                  :
 energy of atom  1       EATOM= -926.0867
 kinetic energy error for atom=    0.0062 (will be added to EATOM!!)
 
 
 POSCAR: Au                                      
  positions in cartesian coordinates
  No initial velocities read in
 exchange correlation table for  LEXCH =        8
   RHO(1)=    0.500       N(1)  =     2000
   RHO(2)=  100.500       N(2)  =     4000
 


--------------------------------------------------------------------------------------------------------


 ion  position               nearest neighbor table
   1  0.000  0.000  0.000-   2 2.88   3 2.88   4 2.88   2 2.88   3 2.88   2 2.88   4 2.88   2 2.88
                             3 2.88   4 2.88   3 2.88   4 2.88
   2  0.000  0.500  0.500-   1 2.88   3 2.88   4 2.88   1 2.88   4 2.88   1 2.88   3 2.88   1 2.88
                             3 2.88   4 2.88   4 2.88   3 2.88
   3  0.500  0.000  0.500-   1 2.88   2 2.88   4 2.88   1 2.88   4 2.88   2 2.88   4 2.88   4 2.88
                             1 2.88   2 2.88   1 2.88   2 2.88
   4  0.500  0.500  0.000-   1 2.88   2 2.88   3 2.88   2 2.88   3 2.88   1 2.88   3 2.88   3 2.88
                             1 2.88   2 2.88   2 2.88   1 2.88
 
  LATTYP: Found a simple cubic cell.
 ALAT       =     4.0800000000
  
  Lattice vectors:
  
 A1 = (   4.0800000000,   0.0000000000,   0.0000000000)
 A2 = (   0.0000000000,   4.0800000000,   0.0000000000)
 A3 = (   0.0000000000,   0.0000000000,   4.0800000000)


Analysis of symmetry for initial positions (statically):
=====================================================================
 Subroutine PRICEL returns following result:
 
  LATTYP: Found a face centered cubic cell.
 ALAT       =     4.0800000000
  
  Lattice vectors:
  
 A1 = (   2.0400000000,   2.0400000000,   0.0000000000)
 A2 = (   2.0400000000,   0.0000000000,  -2.0400000000)
 A3 = (   0.0000000000,   2.0400000000,  -2.0400000000)
 
   4 primitive cells build up your supercell.
 

 Routine SETGRP: Setting up the symmetry group for a 
 simple cubic supercell.


 Subroutine GETGRP returns: Found 48 space group operations
 (whereof 48 operations were pure point group operations)
 out of a pool of 48 trial point group operations.


The static configuration has the point symmetry O_h .


Analysis of symmetry for dynamics (positions and initial velocities):
=====================================================================
 Subroutine PRICEL returns following result:
 
  LATTYP: Found a face centered cubic cell.
 ALAT       =     4.0800000000
  
  Lattice vectors:
  
 A1 = (   2.0400000000,   2.0400000000,   0.0000000000)
 A2 = (   2.0400000000,   0.0000000000,  -2.0400000000)
 A3 = (   0.0000000000,   2.0400000000,  -2.0400000000)
 
   4 primitive cells build up your supercell.
 

 Routine SETGRP: Setting up the symmetry group for a 
 simple cubic supercell.


 Subroutine GETGRP returns: Found 48 space group operations
 (whereof 48 operations were pure point group operations)
 out of a pool of 48 trial point group operations.


The dynamic configuration has the point symmetry O_h .


 Subroutine INISYM returns: Found 48 space group operations
 (whereof 48 operations are pure point group operations),
 and found     4 'primitive' translations

 
 
 KPOINTS: KPOINTS created by Atomic Simulation Env

Automatic generation of k-mesh.
Space group operators:
 irot       det(A)        alpha          n_x          n_y          n_z        tau_x        tau_y        tau_z
    1     1.000000     0.000001     1.000000     0.000000     0.000000     0.000000     0.000000     0.000000
    2    -1.000000     0.000001     1.000000     0.000000     0.000000     0.000000     0.000000     0.000000
    3     1.000000   120.000000    -0.577350    -0.577350    -0.577350     0.000000     0.000000     0.000000
    4    -1.000000   120.000000    -0.577350    -0.577350    -0.577350     0.000000     0.000000     0.000000
    5     1.000000   120.000000     0.577350     0.577350     0.577350     0.000000     0.000000     0.000000
    6    -1.000000   120.000000     0.577350     0.577350     0.577350     0.000000     0.000000     0.000000
    7     1.000000    90.000000     0.000000     0.000000    -1.000000     0.000000     0.000000     0.000000
    8    -1.000000    90.000000     0.000000     0.000000    -1.000000     0.000000     0.000000     0.000000
    9     1.000000   180.000000     0.000000     0.707107     0.707107     0.000000     0.000000     0.000000
   10    -1.000000   180.000000     0.000000     0.707107     0.707107     0.000000     0.000000     0.000000
   11     1.000000    90.000000     0.000000     1.000000     0.000000     0.000000     0.000000     0.000000
   12    -1.000000    90.000000     0.000000     1.000000     0.000000     0.000000     0.000000     0.000000
   13     1.000000   180.000000     0.000000     0.000000     1.000000     0.000000     0.000000     0.000000
   14    -1.000000   180.000000     0.000000     0.000000     1.000000     0.000000     0.000000     0.000000
   15     1.000000   120.000000    -0.577350     0.577350     0.577350     0.000000     0.000000     0.000000
   16    -1.000000   120.000000    -0.577350     0.577350     0.577350     0.000000     0.000000     0.000000
   17     1.000000   120.000000    -0.577350     0.577350    -0.577350     0.000000     0.000000     0.000000
   18    -1.000000   120.000000    -0.577350     0.577350    -0.577350     0.000000     0.000000     0.000000
   19     1.000000    90.000000     0.000000     0.000000     1.000000     0.000000     0.000000     0.000000
   20    -1.000000    90.000000     0.000000     0.000000     1.000000     0.000000     0.000000     0.000000
   21     1.000000    90.000000    -1.000000     0.000000     0.000000     0.000000     0.000000     0.000000
   22    -1.000000    90.000000    -1.000000     0.000000     0.000000     0.000000     0.000000     0.000000
   23     1.000000   180.000000     0.707107     0.000000     0.707107     0.000000     0.000000     0.000000
   24    -1.000000   180.000000     0.707107     0.000000     0.707107     0.000000     0.000000     0.000000
   25     1.000000   120.000000     0.577350    -0.577350     0.577350     0.000000     0.000000     0.000000
   26    -1.000000   120.000000     0.577350    -0.577350     0.577350     0.000000     0.000000     0.000000
   27     1.000000   120.000000    -0.577350    -0.577350     0.577350     0.000000     0.000000     0.000000
   28    -1.000000   120.000000    -0.577350    -0.577350     0.577350     0.000000     0.000000     0.000000
   29     1.000000   180.000000     1.000000     0.000000     0.000000     0.000000     0.000000     0.000000
   30    -1.000000   180.000000     1.000000     0.000000     0.000000     0.000000     0.000000     0.000000
   31     1.000000    90.000000     0.000000    -1.000000     0.000000     0.000000     0.000000     0.000000
   32    -1.000000    90.000000     0.000000    -1.000000     0.000000     0.000000     0.000000     0.000000
   33     1.000000   180.000000     0.707107     0.707107     0.000000     0.000000     0.000000     0.000000
   34    -1.000000   180.000000     0.707107     0.707107     0.000000     0.000000     0.000000     0.000000
   35     1.000000    90.000000     1.000000     0.000000     0.000000     0.000000     0.000000     0.000000
   36    -1.000000    90.000000     1.000000     0.000000     0.000000     0.000000     0.000000     0.000000
   37     1.000000   120.000000     0.577350    -0.577350    -0.577350     0.000000     0.000000     0.000000
   38    -1.000000   120.000000     0.577350    -0.577350    -0.577350     0.000000     0.000000     0.000000
   39     1.000000   180.000000     0.000000     1.000000     0.000000     0.000000     0.000000     0.000000
   40    -1.000000   180.000000     0.000000     1.000000     0.000000     0.000000     0.000000     0.000000
   41     1.000000   120.000000     0.577350     0.577350    -0.577350     0.000000     0.000000     0.000000
   42    -1.000000   120.000000     0.577350     0.577350    -0.577350     0.000000     0.000000     0.000000
   43     1.000000   180.000000     0.000000    -0.707107     0.707107     0.000000     0.000000     0.000000
   44    -1.000000   180.000000     0.000000    -0.707107     0.707107     0.000000     0.000000     0.000000
   45     1.000000   180.000000     0.707107    -0.707107     0.000000     0.000000     0.000000     0.000000
   46    -1.000000   180.000000     0.707107    -0.707107     0.000000     0.000000     0.000000     0.000000
   47     1.000000   180.000000     0.707107     0.000000    -0.707107     0.000000     0.000000     0.000000
   48    -1.000000   180.000000     0.707107     0.000000    -0.707107     0.000000     0.000000     0.000000
 
 Subroutine IBZKPT returns following result:
 ===========================================
 
 Found     56 irreducible k-points:
 
 Following reciprocal coordinates:
            Coordinates               Weight
  0.000000  0.000000  0.000000      1.000000
  0.090909  0.000000  0.000000      6.000000
  0.181818  0.000000  0.000000      6.000000
  0.272727  0.000000  0.000000      6.000000
  0.363636  0.000000  0.000000      6.000000
  0.454545  0.000000  0.000000      6.000000
  0.090909  0.090909  0.000000     12.000000
  0.181818  0.090909  0.000000     24.000000
  0.272727  0.090909  0.000000     24.000000
  0.363636  0.090909  0.000000     24.000000
  0.454545  0.090909  0.000000     24.000000
  0.181818  0.181818  0.000000     12.000000
  0.272727  0.181818  0.000000     24.000000
  0.363636  0.181818  0.000000     24.000000
  0.454545  0.181818  0.000000     24.000000
  0.272727  0.272727  0.000000     12.000000
  0.363636  0.272727  0.000000     24.000000
  0.454545  0.272727  0.000000     24.000000
  0.363636  0.363636  0.000000     12.000000
  0.454545  0.363636  0.000000     24.000000
  0.454545  0.454545  0.000000     12.000000
  0.090909  0.090909  0.090909      8.000000
  0.181818  0.090909  0.090909     24.000000
  0.272727  0.090909  0.090909     24.000000
  0.363636  0.090909  0.090909     24.000000
  0.454545  0.090909  0.090909     24.000000
  0.181818  0.181818  0.090909     24.000000
  0.272727  0.181818  0.090909     48.000000
  0.363636  0.181818  0.090909     48.000000
  0.454545  0.181818  0.090909     48.000000
  0.272727  0.272727  0.090909     24.000000
  0.363636  0.272727  0.090909     48.000000
  0.454545  0.272727  0.090909     48.000000
  0.363636  0.363636  0.090909     24.000000
  0.454545  0.363636  0.090909     48.000000
  0.454545  0.454545  0.090909     24.000000
  0.181818  0.181818  0.181818      8.000000
  0.272727  0.181818  0.181818     24.000000
  0.363636  0.181818  0.181818     24.000000
  0.454545  0.181818  0.181818     24.000000
  0.272727  0.272727  0.181818     24.000000
  0.363636  0.272727  0.181818     48.000000
  0.454545  0.272727  0.181818     48.000000
  0.363636  0.363636  0.181818     24.000000
  0.454545  0.363636  0.181818     48.000000
  0.454545  0.454545  0.181818     24.000000
  0.272727  0.272727  0.272727      8.000000
  0.363636  0.272727  0.272727     24.000000
  0.454545  0.272727  0.272727     24.000000
  0.363636  0.363636  0.272727     24.000000
  0.454545  0.363636  0.272727     48.000000
  0.454545  0.454545  0.272727     24.000000
  0.363636  0.363636  0.363636      8.000000
  0.454545  0.363636  0.363636     24.000000
  0.454545  0.454545  0.363636     24.000000
  0.454545  0.454545  0.454545      8.000000
 
 Following cartesian coordinates:
            Coordinates               Weight
  0.000000  0.000000  0.000000      1.000000
  0.022282  0.000000  0.000000      6.000000
  0.044563  0.000000  0.000000      6.000000
  0.066845  0.000000  0.000000      6.000000
  0.089127  0.000000  0.000000      6.000000
  0.111408  0.000000  0.000000      6.000000
  0.022282  0.022282  0.000000     12.000000
  0.044563  0.022282  0.000000     24.000000
  0.066845  0.022282  0.000000     24.000000
  0.089127  0.022282  0.000000     24.000000
  0.111408  0.022282  0.000000     24.000000
  0.044563  0.044563  0.000000     12.000000
  0.066845  0.044563  0.000000     24.000000
  0.089127  0.044563  0.000000     24.000000
  0.111408  0.044563  0.000000     24.000000
  0.066845  0.066845  0.000000     12.000000
  0.089127  0.066845  0.000000     24.000000
  0.111408  0.066845  0.000000     24.000000
  0.089127  0.089127  0.000000     12.000000
  0.111408  0.089127  0.000000     24.000000
  0.111408  0.111408  0.000000     12.000000
  0.022282  0.022282  0.022282      8.000000
  0.044563  0.022282  0.022282     24.000000
  0.066845  0.022282  0.022282     24.000000
  0.089127  0.022282  0.022282     24.000000
  0.111408  0.022282  0.022282     24.000000
  0.044563  0.044563  0.022282     24.000000
  0.066845  0.044563  0.022282     48.000000
  0.089127  0.044563  0.022282     48.000000
  0.111408  0.044563  0.022282     48.000000
  0.066845  0.066845  0.022282     24.000000
  0.089127  0.066845  0.022282     48.000000
  0.111408  0.066845  0.022282     48.000000
  0.089127  0.089127  0.022282     24.000000
  0.111408  0.089127  0.022282     48.000000
  0.111408  0.111408  0.022282     24.000000
  0.044563  0.044563  0.044563      8.000000
  0.066845  0.044563  0.044563     24.000000
  0.089127  0.044563  0.044563     24.000000
  0.111408  0.044563  0.044563     24.000000
  0.066845  0.066845  0.044563     24.000000
  0.089127  0.066845  0.044563     48.000000
  0.111408  0.066845  0.044563     48.000000
  0.089127  0.089127  0.044563     24.000000
  0.111408  0.089127  0.044563     48.000000
  0.111408  0.111408  0.044563     24.000000
  0.066845  0.066845  0.066845      8.000000
  0.089127  0.066845  0.066845     24.000000
  0.111408  0.066845  0.066845     24.000000
  0.089127  0.089127  0.066845     24.000000
  0.111408  0.089127  0.066845     48.000000
  0.111408  0.111408  0.066845     24.000000
  0.089127  0.089127  0.089127      8.000000
  0.111408  0.089127  0.089127     24.000000
  0.111408  0.111408  0.089127     24.000000
  0.111408  0.111408  0.111408      8.000000
 


--------------------------------------------------------------------------------------------------------




 Dimension of arrays:
   k-points           NKPTS =     56   k-points in BZ     NKDIM =     56   number of bands    NBANDS=     48
   number of dos      NEDOS =    301   number of ions     NIONS =      4
   non local maximal  LDIM  =      6   non local SUM 2l+1 LMDIM =     18
   total plane-waves  NPLWV =   8000
   max r-space proj   IRMAX =      1   max aug-charges    IRDMAX=   7402
   dimension x,y,z NGX =    20 NGY =   20 NGZ =   20
   dimension x,y,z NGXF=    40 NGYF=   40 NGZF=   40
   support grid    NGXF=    40 NGYF=   40 NGZF=   40
   ions per type =               4
 NGX,Y,Z   is equivalent  to a cutoff of   8.15,  8.15,  8.15 a.u.
 NGXF,Y,Z  is equivalent  to a cutoff of  16.30, 16.30, 16.30 a.u.


 I would recommend the setting:
   dimension x,y,z NGX =    20 NGY =   20 NGZ =   20
 SYSTEM =  unknown system                          
 POSCAR =  Au                                      

 Startparameter for this run:
   NWRITE =      2    write-flag & timer
   PREC   = normal    normal or accurate (medium, high low for compatibility)
   ISTART =      0    job   : 0-new  1-cont  2-samecut
   ICHARG =      2    charge: 1-file 2-atom 10-const
   ISPIN  =      1    spin polarized calculation?
   LNONCOLLINEAR =      F non collinear calculations
   LSORBIT =      F    spin-orbit coupling
   INIWAV =      1    electr: 0-lowe 1-rand  2-diag
   LASPH  =      F    aspherical Exc in radial PAW
   METAGGA=      F    non-selfconsistent MetaGGA calc.

 Electronic Relaxation 1
   ENCUT  =  400.0 eV  29.40 Ry    5.42 a.u.   6.65  6.65  6.65*2*pi/ulx,y,z
   ENINI  =  400.0     initial cutoff
   ENAUG  =  356.7 eV  augmentation charge cutoff
   NELM   =     60;   NELMIN=  2; NELMDL= -5     # of ELM steps 
   EDIFF  = 0.1E-03   stopping-criterion for ELM
   LREAL  =      F    real-space projection
   NLSPLINE    = F    spline interpolate recip. space projectors
   LCOMPAT=      F    compatible to vasp.4.4
   GGA_COMPAT  = T    GGA compatible to vasp.4.4-vasp.4.6
   LMAXPAW     = -100 max onsite density
   LMAXMIX     =    2 max onsite mixed and CHGCAR
   VOSKOWN=      0    Vosko Wilk Nusair interpolation
   ROPT   =    0.00000
 Ionic relaxation
   EDIFFG = 0.1E-02   stopping-criterion for IOM
   NSW    =      0    number of steps for IOM
   NBLOCK =      1;   KBLOCK =      1    inner block; outer block 
   IBRION =     -1    ionic relax: 0-MD 1-quasi-New 2-CG
   NFREE  =      0    steps in history (QN), initial steepest desc. (CG)
   ISIF   =      2    stress and relaxation
   IWAVPR =     10    prediction:  0-non 1-charg 2-wave 3-comb
   ISYM   =      2    0-nonsym 1-usesym 2-fastsym
   LCORR  =      T    Harris-Foulkes like correction to forces

   POTIM  = 0.5000    time-step for ionic-motion
   TEIN   =    0.0    initial temperature
   TEBEG  =    0.0;   TEEND  =   0.0 temperature during run
   SMASS  =  -3.00    Nose mass-parameter (am)
   estimated Nose-frequenzy (Omega)   =  0.10E-29 period in steps =****** mass=  -0.380E-27a.u.
   SCALEE = 1.0000    scale energy and forces
   NPACO  =    256;   APACO  = 16.0  distance and # of slots for P.C.
   PSTRESS=    0.0 pullay stress

  Mass of Ions in am
   POMASS = 196.97
  Ionic Valenz
   ZVAL   =  11.00
  Atomic Wigner-Seitz radii
   RWIGS  =  -1.00
  virtual crystal weights 
   VCA    =   1.00
   NELECT =      44.0000    total number of electrons
   NUPDOWN=      -1.0000    fix difference up-down

 DOS related values:
   EMIN   =  10.00;   EMAX   =-10.00  energy-range for DOS
   EFERMI =   0.00
   ISMEAR =     1;   SIGMA  =   0.10  broadening in eV -4-tet -1-fermi 0-gaus

 Electronic relaxation 2 (details)
   IALGO  =     38    algorithm
   LDIAG  =      T    sub-space diagonalisation (order eigenvalues)
   LSUBROT=      F    optimize rotation matrix (better conditioning)
   TURBO    =      0    0=normal 1=particle mesh
   IRESTART =      0    0=no restart 2=restart with 2 vectors
   NREBOOT  =      0    no. of reboots
   NMIN     =      0    reboot dimension
   EREF     =   0.00    reference energy to select bands
   IMIX   =      4    mixing-type and parameters
     AMIX     =   0.40;   BMIX     =  1.00
     AMIX_MAG =   1.60;   BMIX_MAG =  1.00
     AMIN     =   0.10
     WC   =   100.;   INIMIX=   1;  MIXPRE=   1;  MAXMIX= -45

 Intra band minimization:
   WEIMIN = 0.0000     energy-eigenvalue tresh-hold
   EBREAK =  0.52E-06  absolut break condition
   DEPER  =   0.30     relativ break condition  

   TIME   =   0.40     timestep for ELM

  volume/ion in A,a.u.               =      16.98       114.58
  Fermi-wavevector in a.u.,A,eV,Ry     =   1.416551  2.676893 27.301680  2.006617
  Thomas-Fermi vector in A             =   2.537874
 
 Write flags
   LWAVE  =      F    write WAVECAR
   LCHARG =      F    write CHGCAR
   LVTOT  =      F    write LOCPOT, total local potential
   LVHAR  =      F    write LOCPOT, Hartree potential only
   LELF   =      F    write electronic localiz. function (ELF)
   LORBIT =      0    0 simple, 1 ext, 2 COOP (PROOUT)


 Dipole corrections
   LMONO  =      F    monopole corrections only (constant potential shift)
   LDIPOL =      F    correct potential (dipole corrections)
   IDIPOL =      0    1-x, 2-y, 3-z, 4-all directions 
   EPSILON=  1.0000000 bulk dielectric constant

 Exchange correlation treatment:
   GGA     =    --    GGA type
   LEXCH   =     8    internal setting for exchange type
   VOSKOWN=      0    Vosko Wilk Nusair interpolation
   LHFCALC =     F    Hartree Fock is set to
   LHFONE  =     F    Hartree Fock one center treatment
   AEXX    =    0.0000 exact exchange contribution

 Linear response parameters
   LEPSILON=     F    determine dielectric tensor
   LRPA    =     F    only Hartree local field effects (RPA)
   LNABLA  =     F    use nabla operator in PAW spheres
   LVEL    =     F    velocity operator in full k-point grid
   LINTERFAST=   F  fast interpolation
   KINTER  =     0    interpolate to denser k-point grid
   CSHIFT  =0.1000    complex shift for real part using Kramers Kronig
   OMEGAMAX=  -1.0    maximum frequency
   DEG_THRESHOLD= 0.2000000E-02 threshold for treating states as degnerate
   RTIME   =    0.100 relaxation time in fs

 Orbital magnetization related:
   ORBITALMAG=     F  switch on orbital magnetization
   LCHIMAG   =     F  perturbation theory with respect to B field
   DQ        =  0.001000  dq finite difference perturbation B field



--------------------------------------------------------------------------------------------------------


 Static calculation
 charge density and potential will be updated during run
 non-spin polarized calculation
 Variant of blocked Davidson
 Davidson routine will perform the subspace rotation
 perform sub-space diagonalisation
    after iterative eigenvector-optimisation
 modified Broyden-mixing scheme, WC =      100.0
 initial mixing is a Kerker type mixing with AMIX =  0.4000 and BMIX =      1.0000
 Hartree-type preconditioning will be used
 using additional bands           26
 reciprocal scheme for non local part
 use partial core corrections
 calculate Harris-corrections to forces 
   (improved forces if not selfconsistent)
 use gradient corrections 
 use of overlap-Matrix (Vanderbilt PP)
 Methfessel and Paxton  Order N= 1 SIGMA  =   0.10


--------------------------------------------------------------------------------------------------------


  energy-cutoff  :      400.00
  volume of cell :       67.92
      direct lattice vectors                 reciprocal lattice vectors
     4.080000000  0.000000000  0.000000000     0.245098039  0.000000000  0.000000000
     0.000000000  4.080000000  0.000000000     0.000000000  0.245098039  0.000000000
     0.000000000  0.000000000  4.080000000     0.000000000  0.000000000  0.245098039

  length of vectors
     4.080000000  4.080000000  4.080000000     0.245098039  0.245098039  0.245098039


 
 k-points in units of 2pi/SCALE and weight: KPOINTS created by Atomic Simulation Env
   0.00000000  0.00000000  0.00000000       0.001
   0.02228164  0.00000000  0.00000000       0.005
   0.04456328  0.00000000  0.00000000       0.005
   0.06684492  0.00000000  0.00000000       0.005
   0.08912656  0.00000000  0.00000000       0.005
   0.11140820  0.00000000  0.00000000       0.005
   0.02228164  0.02228164  0.00000000       0.009
   0.04456328  0.02228164  0.00000000       0.018
   0.06684492  0.02228164  0.00000000       0.018
   0.08912656  0.02228164  0.00000000       0.018
   0.11140820  0.02228164  0.00000000       0.018
   0.04456328  0.04456328  0.00000000       0.009
   0.06684492  0.04456328  0.00000000       0.018
   0.08912656  0.04456328  0.00000000       0.018
   0.11140820  0.04456328  0.00000000       0.018
   0.06684492  0.06684492  0.00000000       0.009
   0.08912656  0.06684492  0.00000000       0.018
   0.11140820  0.06684492  0.00000000       0.018
   0.08912656  0.08912656  0.00000000       0.009
   0.11140820  0.08912656  0.00000000       0.018
   0.11140820  0.11140820  0.00000000       0.009
   0.02228164  0.02228164  0.02228164       0.006
   0.04456328  0.02228164  0.02228164       0.018
   0.06684492  0.02228164  0.02228164       0.018
   0.08912656  0.02228164  0.02228164       0.018
   0.11140820  0.02228164  0.02228164       0.018
   0.04456328  0.04456328  0.02228164       0.018
   0.06684492  0.04456328  0.02228164       0.036
   0.08912656  0.04456328  0.02228164       0.036
   0.11140820  0.04456328  0.02228164       0.036
   0.06684492  0.06684492  0.02228164       0.018
   0.08912656  0.06684492  0.02228164       0.036
   0.11140820  0.06684492  0.02228164       0.036
   0.08912656  0.08912656  0.02228164       0.018
   0.11140820  0.08912656  0.02228164       0.036
   0.11140820  0.11140820  0.02228164       0.018
   0.04456328  0.04456328  0.04456328       0.006
   0.06684492  0.04456328  0.04456328       0.018
   0.08912656  0.04456328  0.04456328       0.018
   0.11140820  0.04456328  0.04456328       0.018
   0.06684492  0.06684492  0.04456328       0.018
   0.08912656  0.06684492  0.04456328       0.036
   0.11140820  0.06684492  0.04456328       0.036
   0.08912656  0.08912656  0.04456328       0.018
   0.11140820  0.08912656  0.04456328       0.036
   0.11140820  0.11140820  0.04456328       0.018
   0.06684492  0.06684492  0.06684492       0.006
   0.08912656  0.06684492  0.06684492       0.018
   0.11140820  0.06684492  0.06684492       0.018
   0.08912656  0.08912656  0.06684492       0.018
   0.11140820  0.08912656  0.06684492       0.036
   0.11140820  0.11140820  0.06684492       0.018
   0.08912656  0.08912656  0.08912656       0.006
   0.11140820  0.08912656  0.08912656       0.018
   0.11140820  0.11140820  0.08912656       0.018
   0.11140820  0.11140820  0.11140820       0.006
 
 k-points in reciprocal lattice and weights: KPOINTS created by Atomic Simulation Env
   0.00000000  0.00000000  0.00000000       0.001
   0.09090909  0.00000000  0.00000000       0.005
   0.18181818  0.00000000  0.00000000       0.005
   0.27272727  0.00000000  0.00000000       0.005
   0.36363636  0.00000000  0.00000000       0.005
   0.45454545  0.00000000  0.00000000       0.005
   0.09090909  0.09090909  0.00000000       0.009
   0.18181818  0.09090909  0.00000000       0.018
   0.27272727  0.09090909  0.00000000       0.018
   0.36363636  0.09090909  0.00000000       0.018
   0.45454545  0.09090909  0.00000000       0.018
   0.18181818  0.18181818  0.00000000       0.009
   0.27272727  0.18181818  0.00000000       0.018
   0.36363636  0.18181818  0.00000000       0.018
   0.45454545  0.18181818  0.00000000       0.018
   0.27272727  0.27272727  0.00000000       0.009
   0.36363636  0.27272727  0.00000000       0.018
   0.45454545  0.27272727  0.00000000       0.018
   0.36363636  0.36363636  0.00000000       0.009
   0.45454545  0.36363636  0.00000000       0.018
   0.45454545  0.45454545  0.00000000       0.009
   0.09090909  0.09090909  0.09090909       0.006
   0.18181818  0.09090909  0.09090909       0.018
   0.27272727  0.09090909  0.09090909       0.018
   0.36363636  0.09090909  0.09090909       0.018
   0.45454545  0.09090909  0.09090909       0.018
   0.18181818  0.18181818  0.09090909       0.018
   0.27272727  0.18181818  0.09090909       0.036
   0.36363636  0.18181818  0.09090909       0.036
   0.45454545  0.18181818  0.09090909       0.036
   0.27272727  0.27272727  0.09090909       0.018
   0.36363636  0.27272727  0.09090909       0.036
   0.45454545  0.27272727  0.09090909       0.036
   0.36363636  0.36363636  0.09090909       0.018
   0.45454545  0.36363636  0.09090909       0.036
   0.45454545  0.45454545  0.09090909       0.018
   0.18181818  0.18181818  0.18181818       0.006
   0.27272727  0.18181818  0.18181818       0.018
   0.36363636  0.18181818  0.18181818       0.018
   0.45454545  0.18181818  0.18181818       0.018
   0.27272727  0.27272727  0.18181818       0.018
   0.36363636  0.27272727  0.18181818       0.036
   0.45454545  0.27272727  0.18181818       0.036
   0.36363636  0.36363636  0.18181818       0.018
   0.45454545  0.36363636  0.18181818       0.036
   0.45454545  0.45454545  0.18181818       0.018
   0.27272727  0.27272727  0.27272727       0.006
   0.36363636  0.27272727  0.27272727       0.018
   0.45454545  0.27272727  0.27272727       0.018
   0.36363636  0.36363636  0.27272727       0.018
   0.45454545  0.36363636  0.27272727       0.036
   0.45454545  0.45454545  0.27272727       0.018
   0.36363636  0.36363636  0.36363636       0.006
   0.45454545  0.36363636  0.36363636       0.018
   0.45454545  0.45454545  0.36363636       0.018
   0.45454545  0.45454545  0.45454545       0.006
 
 position of ions in fractional coordinates (direct lattice) 
   0.00000000  0.00000000  0.00000000
   0.00000000  0.50000000  0.50000000
   0.50000000  0.00000000  0.50000000
   0.50000000  0.50000000  0.00000000
 
 position of ions in cartesian coordinates  (Angst):
   0.00000000  0.00000000  0.00000000
   0.00000000  2.04000000  2.04000000
   2.04000000  0.00000000  2.04000000
   2.04000000  2.04000000  0.00000000
 


--------------------------------------------------------------------------------------------------------


 k-point  1 :   0.0000 0.0000 0.0000  plane waves:    1237
 k-point  2 :   0.0909 0.0000 0.0000  plane waves:    1237
 k-point  3 :   0.1818 0.0000 0.0000  plane waves:    1253
 k-point  4 :   0.2727 0.0000 0.0000  plane waves:    1237
 k-point  5 :   0.3636 0.0000 0.0000  plane waves:    1230
 k-point  6 :   0.4545 0.0000 0.0000  plane waves:    1230
 k-point  7 :   0.0909 0.0909 0.0000  plane waves:    1241
 k-point  8 :   0.1818 0.0909 0.0000  plane waves:    1248
 k-point  9 :   0.2727 0.0909 0.0000  plane waves:    1245
 k-point 10 :   0.3636 0.0909 0.0000  plane waves:    1227
 k-point 11 :   0.4545 0.0909 0.0000  plane waves:    1231
 k-point 12 :   0.1818 0.1818 0.0000  plane waves:    1255
 k-point 13 :   0.2727 0.1818 0.0000  plane waves:    1236
 k-point 14 :   0.3636 0.1818 0.0000  plane waves:    1228
 k-point 15 :   0.4545 0.1818 0.0000  plane waves:    1231
 k-point 16 :   0.2727 0.2727 0.0000  plane waves:    1241
 k-point 17 :   0.3636 0.2727 0.0000  plane waves:    1235
 k-point 18 :   0.4545 0.2727 0.0000  plane waves:    1236
 k-point 19 :   0.3636 0.3636 0.0000  plane waves:    1238
 k-point 20 :   0.4545 0.3636 0.0000  plane waves:    1235
 k-point 21 :   0.4545 0.4545 0.0000  plane waves:    1234
 k-point 22 :   0.0909 0.0909 0.0909  plane waves:    1246
 k-point 23 :   0.1818 0.0909 0.0909  plane waves:    1252
 k-point 24 :   0.2727 0.0909 0.0909  plane waves:    1239
 k-point 25 :   0.3636 0.0909 0.0909  plane waves:    1234
 k-point 26 :   0.4545 0.0909 0.0909  plane waves:    1226
 k-point 27 :   0.1818 0.1818 0.0909  plane waves:    1244
 k-point 28 :   0.2727 0.1818 0.0909  plane waves:    1239
 k-point 29 :   0.3636 0.1818 0.0909  plane waves:    1233
 k-point 30 :   0.4545 0.1818 0.0909  plane waves:    1236
 k-point 31 :   0.2727 0.2727 0.0909  plane waves:    1236
 k-point 32 :   0.3636 0.2727 0.0909  plane waves:    1232
 k-point 33 :   0.4545 0.2727 0.0909  plane waves:    1232
 k-point 34 :   0.3636 0.3636 0.0909  plane waves:    1232
 k-point 35 :   0.4545 0.3636 0.0909  plane waves:    1234
 k-point 36 :   0.4545 0.4545 0.0909  plane waves:    1240
 k-point 37 :   0.1818 0.1818 0.1818  plane waves:    1232
 k-point 38 :   0.2727 0.1818 0.1818  plane waves:    1232
 k-point 39 :   0.3636 0.1818 0.1818  plane waves:    1232
 k-point 40 :   0.4545 0.1818 0.1818  plane waves:    1230
 k-point 41 :   0.2727 0.2727 0.1818  plane waves:    1231
 k-point 42 :   0.3636 0.2727 0.1818  plane waves:    1235
 k-point 43 :   0.4545 0.2727 0.1818  plane waves:    1227
 k-point 44 :   0.3636 0.3636 0.1818  plane waves:    1233
 k-point 45 :   0.4545 0.3636 0.1818  plane waves:    1225
 k-point 46 :   0.4545 0.4545 0.1818  plane waves:    1231
 k-point 47 :   0.2727 0.2727 0.2727  plane waves:    1238
 k-point 48 :   0.3636 0.2727 0.2727  plane waves:    1229
 k-point 49 :   0.4545 0.2727 0.2727  plane waves:    1226
 k-point 50 :   0.3636 0.3636 0.2727  plane waves:    1234
 k-point 51 :   0.4545 0.3636 0.2727  plane waves:    1229
 k-point 52 :   0.4545 0.4545 0.2727  plane waves:    1231
 k-point 53 :   0.3636 0.3636 0.3636  plane waves:    1229
 k-point 54 :   0.4545 0.3636 0.3636  plane waves:    1230
 k-point 55 :   0.4545 0.4545 0.3636  plane waves:    1237
 k-point 56 :   0.4545 0.4545 0.4545  plane waves:    1241

 maximum and minimum number of plane-waves per node :      1255     1225

 maximum number of plane-waves:      1255
 maximum index in each direction: 
   IXMAX=    6   IYMAX=    6   IZMAX=    6
   IXMIN=   -7   IYMIN=   -7   IZMIN=   -7

 WARNING: aliasing errors must be expected set NGX to  28 to avoid them
 WARNING: aliasing errors must be expected set NGY to  28 to avoid them
 WARNING: aliasing errors must be expected set NGZ to  28 to avoid them
 aliasing errors are usually negligible using standard VASP settings
 and one can safely disregard these warnings

 serial   3D FFT for wavefunctions
 parallel 3D FFT for charge:
    minimum data exchange during FFTs selected (reduces bandwidth)


 total amount of memory used by VASP on root node    43440. kBytes
========================================================================

   base      :      30000. kBytes
   nonl-proj :      10338. kBytes
   fftplans  :        147. kBytes
   grid      :        485. kBytes
   one-center:         62. kBytes
   wavefun   :       2408. kBytes
 
     INWAV:  cpu time    0.0000: real time    0.0001
 Broyden mixing: mesh for mixing (old mesh)
   NGX = 13   NGY = 13   NGZ = 13
  (NGX  = 40   NGY  = 40   NGZ  = 40)
  gives a total of   2197 points

 initial charge density was supplied:
 charge density of overlapping atoms calculated
 number of electron      44.0000000 magnetization 
 keeping initial charge density in first step


--------------------------------------------------------------------------------------------------------


 Maximum index for augmentation-charges          437 (set IRDMAX)


--------------------------------------------------------------------------------------------------------


 First call to EWALD:  gamma=   0.434
 Maximum number of real-space cells 3x 3x 3
 Maximum number of reciprocal cells 3x 3x 3

 FEWALD executed in parallel
    FEWALD:  cpu time    0.0016: real time    0.0016


----------------------------------------- Iteration    1(   1)  ---------------------------------------


    POTLOK:  cpu time    0.0042: real time    0.0042
    SETDIJ:  cpu time    0.0028: real time    0.0029
     EDDAV:  cpu time    0.9262: real time    0.9332
       DOS:  cpu time    0.0018: real time    0.0018
    --------------------------------------------
      LOOP:  cpu time    0.9372: real time    0.9520

 eigenvalue-minimisations  :  5520
 total energy-change (2. order) : 0.1813921E+03  (-0.1880698E+04)
 number of electron      44.0000000 magnetization 
 augmentation part       44.0000000 magnetization 

 Free energy of the ion-electron system (eV)
  ---------------------------------------------------
  alpha Z        PSCENC =       274.40333328
  Ewald energy   TEWEN  =     -3915.95376942
  -Hartree energ DENC   =      -494.00614683
  -exchange      EXHF   =         0.00000000
  -V(xc)+E(xc)   XCENC  =        62.70648169
  PAW double counting   =      3496.39001341    -3404.04053930
  entropy T*S    EENTRO =         0.00115784
  eigenvalues    EBANDS =       457.56947524
  atomic energy  EATOM  =      3704.32207507
  Solvation  Ediel_sol  =         0.00000000
  ---------------------------------------------------
  free energy    TOTEN  =       181.39208098 eV

  energy without entropy =      181.39092314  energy(sigma->0) =      181.39169503


--------------------------------------------------------------------------------------------------------




----------------------------------------- Iteration    1(   2)  ---------------------------------------


     EDDAV:  cpu time    1.1395: real time    1.1409
       DOS:  cpu time    0.0015: real time    0.0014
    --------------------------------------------
      LOOP:  cpu time    1.1424: real time    1.1451

 eigenvalue-minimisations  :  7080
 total energy-change (2. order) :-0.1928012E+03  (-0.1816487E+03)
 number of electron      44.0000000 magnetization 
 augmentation part       44.0000000 magnetization 

 Free energy of the ion-electron system (eV)
  ---------------------------------------------------
  alpha Z        PSCENC =       274.40333328
  Ewald energy   TEWEN  =     -3915.95376942
  -Hartree energ DENC   =      -494.00614683
  -exchange      EXHF   =         0.00000000
  -V(xc)+E(xc)   XCENC  =        62.70648169
  PAW double counting   =      3496.39001341    -3404.04053930
  entropy T*S    EENTRO =         0.00003911
  eigenvalues    EBANDS =       264.76941513
  atomic energy  EATOM  =      3704.32207507
  Solvation  Ediel_sol  =         0.00000000
  ---------------------------------------------------
  free energy    TOTEN  =       -11.40909786 eV

  energy without entropy =      -11.40913697  energy(sigma->0) =      -11.40911089


--------------------------------------------------------------------------------------------------------




----------------------------------------- Iteration    1(   3)  ---------------------------------------


     EDDAV:  cpu time    1.0735: real time    1.0738
       DOS:  cpu time    0.0015: real time    0.0015
    --------------------------------------------
      LOOP:  cpu time    1.0760: real time    1.0778

 eigenvalue-minimisations  :  6912
 total energy-change (2. order) :-0.2425868E+01  (-0.2423328E+01)
 number of electron      44.0000000 magnetization 
 augmentation part       44.0000000 magnetization 

 Free energy of the ion-electron system (eV)
  ---------------------------------------------------
  alpha Z        PSCENC =       274.40333328
  Ewald energy   TEWEN  =     -3915.95376942
  -Hartree energ DENC   =      -494.00614683
  -exchange      EXHF   =         0.00000000
  -V(xc)+E(xc)   XCENC  =        62.70648169
  PAW double counting   =      3496.39001341    -3404.04053930
  entropy T*S    EENTRO =        -0.00003362
  eigenvalues    EBANDS =       262.34361945
  atomic energy  EATOM  =      3704.32207507
  Solvation  Ediel_sol  =         0.00000000
  ---------------------------------------------------
  free energy    TOTEN  =       -13.83496626 eV

  energy without entropy =      -13.83493265  energy(sigma->0) =      -13.83495506


--------------------------------------------------------------------------------------------------------




----------------------------------------- Iteration    1(   4)  ---------------------------------------


     EDDAV:  cpu time    1.2392: real time    1.2394
       DOS:  cpu time    0.0010: real time    0.0010
    --------------------------------------------
      LOOP:  cpu time    1.2410: real time    1.2429

 eigenvalue-minimisations  :  7608
 total energy-change (2. order) :-0.9999484E-02  (-0.9999270E-02)
 number of electron      44.0000000 magnetization 
 augmentation part       44.0000000 magnetization 

 Free energy of the ion-electron system (eV)
  ---------------------------------------------------
  alpha Z        PSCENC =       274.40333328
  Ewald energy   TEWEN  =     -3915.95376942
  -Hartree energ DENC   =      -494.00614683
  -exchange      EXHF   =         0.00000000
  -V(xc)+E(xc)   XCENC  =        62.70648169
  PAW double counting   =      3496.39001341    -3404.04053930
  entropy T*S    EENTRO =        -0.00003268
  eigenvalues    EBANDS =       262.33361903
  atomic energy  EATOM  =      3704.32207507
  Solvation  Ediel_sol  =         0.00000000
  ---------------------------------------------------
  free energy    TOTEN  =       -13.84496575 eV

  energy without entropy =      -13.84493307  energy(sigma->0) =      -13.84495485


--------------------------------------------------------------------------------------------------------




----------------------------------------- Iteration    1(   5)  ---------------------------------------


     EDDAV:  cpu time    1.0317: real time    1.0331
       DOS:  cpu time    0.0010: real time    0.0010
    CHARGE:  cpu time    0.0152: real time    0.0152
    MIXING:  cpu time    0.0006: real time    0.0006
    --------------------------------------------
      LOOP:  cpu time    1.0495: real time    1.0628

 eigenvalue-minimisations  :  6672
 total energy-change (2. order) :-0.9006669E-04  (-0.9006727E-04)
 number of electron      43.9999811 magnetization 
 augmentation part       15.4413471 magnetization 

 Broyden mixing:
  rms(total) = 0.18997E+01    rms(broyden)= 0.18997E+01
  rms(prec ) = 0.23572E+01
  weight for this iteration     100.00

 Free energy of the ion-electron system (eV)
  ---------------------------------------------------
  alpha Z        PSCENC =       274.40333328
  Ewald energy   TEWEN  =     -3915.95376942
  -Hartree energ DENC   =      -494.00614683
  -exchange      EXHF   =         0.00000000
  -V(xc)+E(xc)   XCENC  =        62.70648169
  PAW double counting   =      3496.39001341    -3404.04053930
  entropy T*S    EENTRO =        -0.00003267
  eigenvalues    EBANDS =       262.33352896
  atomic energy  EATOM  =      3704.32207507
  Solvation  Ediel_sol  =         0.00000000
  ---------------------------------------------------
  free energy    TOTEN  =       -13.84505581 eV

  energy without entropy =      -13.84502314  energy(sigma->0) =      -13.84504492


--------------------------------------------------------------------------------------------------------




----------------------------------------- Iteration    1(   6)  ---------------------------------------


    POTLOK:  cpu time    0.0060: real time    0.0060
    SETDIJ:  cpu time    0.0029: real time    0.0029
     EDDAV:  cpu time    1.0925: real time    1.0925
       DOS:  cpu time    0.0011: real time    0.0011
    CHARGE:  cpu time    0.0139: real time    0.0139
    MIXING:  cpu time    0.0009: real time    0.0009
    --------------------------------------------
      LOOP:  cpu time    1.1184: real time    1.1324

 eigenvalue-minimisations  :  6816
 total energy-change (2. order) : 0.9753831E+00  (-0.1716930E+00)
 number of electron      43.9999806 magnetization 
 augmentation part       15.9252588 magnetization 

 Broyden mixing:
  rms(total) = 0.12051E+01    rms(broyden)= 0.12051E+01
  rms(prec ) = 0.12622E+01
  weight for this iteration     100.00

 eigenvalues of (default mixing * dielectric matrix)
  average eigenvalue GAMMA=   2.2251
  2.2251

 Free energy of the ion-electron system (eV)
  ---------------------------------------------------
  alpha Z        PSCENC =       274.40333328
  Ewald energy   TEWEN  =     -3915.95376942
  -Hartree energ DENC   =      -463.44995819
  -exchange      EXHF   =         0.00000000
  -V(xc)+E(xc)   XCENC  =        61.36195149
  PAW double counting   =      3783.55492482    -3696.37328413
  entropy T*S    EENTRO =         0.00099134
  eigenvalues    EBANDS =       239.26406301
  atomic energy  EATOM  =      3704.32207507
  Solvation  Ediel_sol  =         0.00000000
  ---------------------------------------------------
  free energy    TOTEN  =       -12.86967274 eV

  energy without entropy =      -12.87066408  energy(sigma->0) =      -12.87000318


--------------------------------------------------------------------------------------------------------




----------------------------------------- Iteration    1(   7)  ---------------------------------------


    POTLOK:  cpu time    0.0037: real time    0.0037
    SETDIJ:  cpu time    0.0022: real time    0.0022
     EDDAV:  cpu time    1.0935: real time    1.1360
       DOS:  cpu time    0.0013: real time    0.0013
    CHARGE:  cpu time    0.0160: real time    0.0160
    MIXING:  cpu time    0.0003: real time    0.0003
    --------------------------------------------
      LOOP:  cpu time    1.1182: real time    1.1673

 eigenvalue-minimisations  :  6888
 total energy-change (2. order) : 0.7644976E-01  (-0.2225791E-01)
 number of electron      43.9999804 magnetization 
 augmentation part       16.0946592 magnetization 

 Broyden mixing:
  rms(total) = 0.48329E+00    rms(broyden)= 0.48329E+00
  rms(prec ) = 0.48652E+00
  weight for this iteration     100.00

 eigenvalues of (default mixing * dielectric matrix)
  average eigenvalue GAMMA=   1.9696
  1.2560  2.6832

 Free energy of the ion-electron system (eV)
  ---------------------------------------------------
  alpha Z        PSCENC =       274.40333328
  Ewald energy   TEWEN  =     -3915.95376942
  -Hartree energ DENC   =      -450.25018398
  -exchange      EXHF   =         0.00000000
  -V(xc)+E(xc)   XCENC  =        60.77355683
  PAW double counting   =      4079.54954693    -3996.47368789
  entropy T*S    EENTRO =         0.00083589
  eigenvalues    EBANDS =       230.83507031
  atomic energy  EATOM  =      3704.32207507
  Solvation  Ediel_sol  =         0.00000000
  ---------------------------------------------------
  free energy    TOTEN  =       -12.79322297 eV

  energy without entropy =      -12.79405887  energy(sigma->0) =      -12.79350161


--------------------------------------------------------------------------------------------------------




----------------------------------------- Iteration    1(   8)  ---------------------------------------


    POTLOK:  cpu time    0.0060: real time    0.0060
    SETDIJ:  cpu time    0.0021: real time    0.0021
     EDDAV:  cpu time    1.1741: real time    1.1758
       DOS:  cpu time    0.0015: real time    0.0015
    CHARGE:  cpu time    0.0130: real time    0.0130
    MIXING:  cpu time    0.0003: real time    0.0003
    --------------------------------------------
      LOOP:  cpu time    1.1981: real time    1.2062

 eigenvalue-minimisations  :  7224
 total energy-change (2. order) : 0.8777088E-02  (-0.1381491E-02)
 number of electron      43.9999805 magnetization 
 augmentation part       16.0654692 magnetization 

 Broyden mixing:
  rms(total) = 0.48247E-01    rms(broyden)= 0.48246E-01
  rms(prec ) = 0.48582E-01
  weight for this iteration     100.00

 eigenvalues of (default mixing * dielectric matrix)
  average eigenvalue GAMMA=   1.5630
  2.5247  0.8972  1.2671

 Free energy of the ion-electron system (eV)
  ---------------------------------------------------
  alpha Z        PSCENC =       274.40333328
  Ewald energy   TEWEN  =     -3915.95376942
  -Hartree energ DENC   =      -449.60847434
  -exchange      EXHF   =         0.00000000
  -V(xc)+E(xc)   XCENC  =        60.73017738
  PAW double counting   =      4246.52203717    -4165.34665916
  entropy T*S    EENTRO =         0.00092861
  eigenvalues    EBANDS =       232.14590552
  atomic energy  EATOM  =      3704.32207507
  Solvation  Ediel_sol  =         0.00000000
  ---------------------------------------------------
  free energy    TOTEN  =       -12.78444589 eV

  energy without entropy =      -12.78537450  energy(sigma->0) =      -12.78475542


--------------------------------------------------------------------------------------------------------




----------------------------------------- Iteration    1(   9)  ---------------------------------------


    POTLOK:  cpu time    0.0055: real time    0.0055
    SETDIJ:  cpu time    0.0020: real time    0.0020
     EDDAV:  cpu time    1.0151: real time    1.0163
       DOS:  cpu time    0.0015: real time    0.0015
    --------------------------------------------
      LOOP:  cpu time    1.0252: real time    1.0281

 eigenvalue-minimisations  :  5976
 total energy-change (2. order) : 0.3129585E-04  (-0.6872111E-05)
 number of electron      43.9999805 magnetization 
 augmentation part       16.0654692 magnetization 

 Free energy of the ion-electron system (eV)
  ---------------------------------------------------
  alpha Z        PSCENC =       274.40333328
  Ewald energy   TEWEN  =     -3915.95376942
  -Hartree energ DENC   =      -449.90770164
  -exchange      EXHF   =         0.00000000
  -V(xc)+E(xc)   XCENC  =        60.74355620
  PAW double counting   =      4230.81337103    -4149.39125509
  entropy T*S    EENTRO =         0.00093213
  eigenvalues    EBANDS =       232.18504386
  atomic energy  EATOM  =      3704.32207507
  Solvation  Ediel_sol  =         0.00000000
  ---------------------------------------------------
  free energy    TOTEN  =       -12.78441459 eV

  energy without entropy =      -12.78534672  energy(sigma->0) =      -12.78472530


--------------------------------------------------------------------------------------------------------




 average (electrostatic) potential at core
  the test charge radii are     1.2098
  (the norm of the test charge is              1.0000)
       1 -64.0849       2 -64.0849       3 -64.0849       4 -64.0849
 
 
 
 E-fermi :   9.5316     XC(G=0): -12.7376     alpha+bet :-13.9847


 k-point     1 :       0.0000    0.0000    0.0000
  band No.  band energies     occupation 
      1      -0.3582      2.00000
      2       2.4391      2.00000
      3       2.4391      2.00000
      4       2.4391      2.00000
      5       2.7549      2.00000
      6       2.7549      2.00000
      7       2.7549      2.00000
      8       4.8261      2.00000
      9       4.8261      2.00000
     10       4.8261      2.00000
     11       6.3530      2.00000
     12       6.3530      2.00000
     13       7.5164      2.00000
     14       7.5164      2.00000
     15       7.5164      2.00000
     16       7.8839      2.00000
     17       7.8839      2.00000
     18       7.8839      2.00000
     19       7.8839      2.00000
     20       7.8839      2.00000
     21       7.8839      2.00000
     22      10.5482     -0.00000
     23      10.5482     -0.00000
     24      10.5482     -0.00000
     25      15.3420      0.00000
     26      15.3420      0.00000
     27      15.3420      0.00000
     28      19.5570      0.00000
     29      19.5570      0.00000
     30      19.5570      0.00000
     31      19.5570      0.00000
     32      19.5570      0.00000
     33      19.5570      0.00000
     34      24.0551      0.00000
     35      26.7894      0.00000
     36      26.7894      0.00000
     37      26.7894      0.00000
     38      28.0754      0.00000
     39      28.0754      0.00000
     40      28.0754      0.00000
     41      29.4035      0.00000
     42      29.4035      0.00000
     43      29.4035      0.00000
     44      32.9924      0.00000
     45      37.0246      0.00000
     46      37.0246      0.00000
     47      37.0247      0.00000
     48      37.6731      0.00000

 k-point     2 :       0.0909    0.0000    0.0000
  band No.  band energies     occupation 
      1      -0.2613      2.00000
      2       2.4723      2.00000
      3       2.5040      2.00000
      4       2.5040      2.00000
      5       2.7903      2.00000
      6       2.8087      2.00000
      7       2.8087      2.00000
      8       4.7754      2.00000
      9       4.8698      2.00000
     10       4.8698      2.00000
     11       6.2986      2.00000
     12       6.3746      2.00000
     13       7.4383      2.00000
     14       7.4383      2.00000
     15       7.4905      2.00000
     16       7.5333      2.00000
     17       7.5333      2.00000
     18       7.7887      2.00000
     19       7.7887      2.00000
     20       7.8841      2.00000
     21       7.8841      2.00000
     22       9.8821     -0.00001
     23      10.9653     -0.00000
     24      10.9653     -0.00000
     25      15.2397      0.00000
     26      15.2397      0.00000
     27      16.1713      0.00000
     28      19.4128      0.00000
     29      19.4128      0.00000
     30      19.4865      0.00000
     31      19.4865      0.00000
     32      19.7605      0.00000
     33      19.7605      0.00000
     34      24.1750      0.00000
     35      26.7131      0.00000
     36      27.1984      0.00000
     37      27.1984      0.00000
     38      27.7236      0.00000
     39      28.0234      0.00000
     40      28.0234      0.00000
     41      29.3098      0.00000
     42      29.4809      0.00000
     43      29.4809      0.00000
     44      33.6411      0.00000
     45      36.5846      0.00000
     46      36.5846      0.00000
     47      36.8576      0.00000
     48      36.8578      0.00000

 k-point     3 :       0.1818    0.0000    0.0000
  band No.  band energies     occupation 
      1       0.0255      2.00000
      2       2.5582      2.00000
      3       2.6907      2.00000
      4       2.6907      2.00000
      5       2.8946      2.00000
      6       2.9697      2.00000
      7       2.9697      2.00000
      8       4.6299      2.00000
      9       4.9996      2.00000
     10       4.9996      2.00000
     11       6.1444      2.00000
     12       6.4380      2.00000
     13       6.8172      2.00000
     14       6.8172      2.00000
     15       7.2133      2.00000
     16       7.2133      2.00000
     17       7.4156      2.00000
     18       7.5255      2.00000
     19       7.5255      2.00000
     20       7.8845      2.00000
     21       7.8845      2.00000
     22       8.5746      2.00000
     23      11.8777     -0.00000
     24      11.8777     -0.00000
     25      14.9824      0.00000
     26      14.9824      0.00000
     27      17.9782      0.00000
     28      18.9892      0.00000
     29      18.9892      0.00000
     30      19.3301      0.00000
     31      19.3301      0.00000
     32      20.3460      0.00000
     33      20.3460      0.00000
     34      24.5223      0.00000
     35      26.5112      0.00000
     36      27.0321      0.00000
     37      27.8010      0.00000
     38      27.8010      0.00000
     39      28.3157      0.00000
     40      28.3157      0.00000
     41      29.0320      0.00000
     42      29.7269      0.00000
     43      29.7269      0.00000
     44      35.0460      0.00000
     45      35.2723      0.00000
     46      35.2723      0.00000
     47      36.2391      0.00000
     48      36.2690      0.00000

 k-point     4 :       0.2727    0.0000    0.0000
  band No.  band energies     occupation 
      1       0.4873      2.00000
      2       2.6475      2.00000
      3       2.9712      2.00000
      4       2.9712      2.00000
      5       3.0628      2.00000
      6       3.2370      2.00000
      7       3.2370      2.00000
      8       4.4084      2.00000
      9       5.2128      2.00000
     10       5.2128      2.00000
     11       5.9184      2.00000
     12       6.0442      2.00000
     13       6.0442      2.00000
     14       6.5392      2.00000
     15       6.8758      2.00000
     16       6.8758      2.00000
     17       7.1475      2.00000
     18       7.1475      2.00000
     19       7.2595      2.00000
     20       7.2995      2.00000
     21       7.8849      2.00000
     22       7.8849      2.00000
     23      12.9681      0.00000
     24      12.9681      0.00000
     25      14.6799      0.00000
     26      14.6799      0.00000
     27      18.3145      0.00000
     28      18.3145      0.00000
     29      19.1729      0.00000
     30      19.1729      0.00000
     31      20.1648      0.00000
     32      21.2500      0.00000
     33      21.2500      0.00000
     34      25.0627      0.00000
     35      26.2532      0.00000
     36      26.3983      0.00000
     37      27.2496      0.00000
     38      27.2496      0.00000
     39      28.5812      0.00000
     40      29.9223      0.00000
     41      29.9223      0.00000
     42      30.1701      0.00000
     43      30.1701      0.00000
     44      33.2750      0.00000
     45      34.4775      0.00000
     46      34.4775      0.00000
     47      35.2376      0.00000
     48      35.2376      0.00000

 k-point     5 :       0.3636    0.0000    0.0000
  band No.  band energies     occupation 
      1       1.0909      2.00000
      2       2.6284      2.00000
      3       3.2841      2.00000
      4       3.2841      2.00000
      5       3.2862      2.00000
      6       3.6087      2.00000
      7       3.6087      2.00000
      8       4.1368      2.00000
      9       5.3114      2.00000
     10       5.3114      2.00000
     11       5.5035      2.00000
     12       5.5035      2.00000
     13       5.6752      2.00000
     14       6.2088      2.00000
     15       6.5037      2.00000
     16       6.5037      2.00000
     17       6.6716      2.00000
     18       6.7139      2.00000
     19       6.7139      2.00000
     20       7.1535      2.00000
     21       7.8855      2.00000
     22       7.8855      2.00000
     23      14.1232      0.00000
     24      14.1232      0.00000
     25      14.4326      0.00000
     26      14.4326      0.00000
     27      17.4350      0.00000
     28      17.4350      0.00000
     29      19.0576      0.00000
     30      19.0576      0.00000
     31      22.3938      0.00000
     32      22.3938      0.00000
     33      22.5393      0.00000
     34      25.7438      0.00000
     35      25.9546      0.00000
     36      26.0327      0.00000
     37      26.2878      0.00000
     38      26.2878      0.00000
     39      27.9808      0.00000
     40      30.5789      0.00000
     41      30.8311      0.00000
     42      30.8311      0.00000
     43      31.7974      0.00000
     44      31.7974      0.00000
     45      34.0003      0.00000
     46      34.0003      0.00000
     47      34.3747      0.00000
     48      34.3747      0.00000

 k-point     6 :       0.4545    0.0000    0.0000
  band No.  band energies     occupation 
      1       1.7607      2.00000
      2       2.3374      2.00000
      3       3.5122      2.00000
      4       3.5122      2.00000
      5       3.5519      2.00000
      6       3.8428      2.00000
      7       4.0821      2.00000
      8       4.0821      2.00000
      9       4.6523      2.00000
     10       4.6523      2.00000
     11       5.5156      2.00000
     12       5.6233      2.00000
     13       5.8623      2.00000
     14       5.8623      2.00000
     15       6.2376      2.00000
     16       6.2376      2.00000
     17       6.2737      2.00000
     18       6.2737      2.00000
     19       6.8259      2.00000
     20       6.9910      2.00000
     21       7.8858      2.00000
     22       7.8858      2.00000
     23      14.2983      0.00000
     24      14.2983      0.00000
     25      15.2855      0.00000
     26      15.2855      0.00000
     27      16.4066      0.00000
     28      16.4066      0.00000
     29      18.9980      0.00000
     30      18.9980      0.00000
     31      23.6909      0.00000
     32      23.6909      0.00000
     33      24.8925      0.00000
     34      25.0376      0.00000
     35      25.0376      0.00000
     36      25.6911      0.00000
     37      26.0697      0.00000
     38      26.5022      0.00000
     39      27.2696      0.00000
     40      27.9224      0.00000
     41      31.7105      0.00000
     42      31.7105      0.00000
     43      32.7854      0.00000
     44      32.7854      0.00000
     45      33.5539      0.00000
     46      33.5539      0.00000
     47      34.8886      0.00000
     48      34.8886      0.00000

 k-point     7 :       0.0909    0.0909    0.0000
  band No.  band energies     occupation 
      1      -0.1656      2.00000
      2       2.5380      2.00000
      3       2.5380      2.00000
      4       2.5592      2.00000
      5       2.8432      2.00000
      6       2.8432      2.00000
      7       2.8691      2.00000
      8       4.7536      2.00000
      9       4.8861      2.00000
     10       4.9089      2.00000
     11       6.2840      2.00000
     12       6.3623      2.00000
     13       7.3072      2.00000
     14       7.3136      2.00000
     15       7.3136      2.00000
     16       7.3659      2.00000
     17       7.5134      2.00000
     18       7.5134      2.00000
     19       7.7886      2.00000
     20       7.7886      2.00000
     21       7.8217      2.00000
     22      10.3050     -0.00000
     23      10.3050     -0.00000
     24      11.3208     -0.00000
     25      15.1194      0.00000
     26      16.0649      0.00000
     27      16.0649      0.00000
     28      18.8542      0.00000
     29      19.6135      0.00000
     30      19.6135      0.00000
     31      19.6973      0.00000
     32      19.6973      0.00000
     33      19.9395      0.00000
     34      24.2831      0.00000
     35      27.0402      0.00000
     36      27.1313      0.00000
     37      27.1313      0.00000
     38      27.3857      0.00000
     39      27.9705      0.00000
     40      28.4720      0.00000
     41      29.3934      0.00000
     42      29.3934      0.00000
     43      29.6833      0.00000
     44      33.9028      0.00000
     45      35.8490      0.00000
     46      36.1972      0.00000
     47      36.7408      0.00000
     48      36.9573      0.00000

 k-point     8 :       0.1818    0.0909    0.0000
  band No.  band energies     occupation 
      1       0.1174      2.00000
      2       2.6261      2.00000
      3       2.7193      2.00000
      4       2.7270      2.00000
      5       2.9451      2.00000
      6       3.0017      2.00000
      7       3.0470      2.00000
      8       4.6268      2.00000
      9       5.0022      2.00000
     10       5.0235      2.00000
     11       6.1524      2.00000
     12       6.4219      2.00000
     13       6.6345      2.00000
     14       6.7035      2.00000
     15       6.9750      2.00000
     16       7.1559      2.00000
     17       7.2513      2.00000
     18       7.4226      2.00000
     19       7.5246      2.00000
     20       7.7881      2.00000
     21       7.7888      2.00000
     22       9.0864      2.00000
     23      11.1537     -0.00000
     24      12.1563     -0.00000
     25      14.8105      0.00000
     26      15.8126      0.00000
     27      17.7879      0.00000
     28      18.2755      0.00000
     29      19.1830      0.00000
     30      19.5683      0.00000
     31      20.1624      0.00000
     32      20.1897      0.00000
     33      20.3203      0.00000
     34      24.5891      0.00000
     35      26.1877      0.00000
     36      26.9635      0.00000
     37      27.7579      0.00000
     38      27.9383      0.00000
     39      28.2573      0.00000
     40      28.6509      0.00000
     41      29.1341      0.00000
     42      29.6561      0.00000
     43      30.3074      0.00000
     44      33.5520      0.00000
     45      35.2705      0.00000
     46      36.1593      0.00000
     47      36.2609      0.00000
     48      36.3000      0.00000

 k-point     9 :       0.2727    0.0909    0.0000
  band No.  band energies     occupation 
      1       0.5732      2.00000
      2       2.7188      2.00000
      3       2.9696      2.00000
      4       3.0119      2.00000
      5       3.1093      2.00000
      6       3.2647      2.00000
      7       3.3273      2.00000
      8       4.4158      2.00000
      9       5.1994      2.00000
     10       5.2120      2.00000
     11       5.8803      2.00000
     12       5.9533      2.00000
     13       5.9882      2.00000
     14       6.4349      2.00000
     15       6.5383      2.00000
     16       6.8381      2.00000
     17       6.9209      2.00000
     18       7.1459      2.00000
     19       7.2421      2.00000
     20       7.7817      2.00000
     21       7.7872      2.00000
     22       8.0101      2.00000
     23      12.0682     -0.00000
     24      13.1999      0.00000
     25      14.4309      0.00000
     26      15.5769      0.00000
     27      17.7120      0.00000
     28      18.5008      0.00000
     29      19.4634      0.00000
     30      19.7148      0.00000
     31      20.0941      0.00000
     32      21.0755      0.00000
     33      21.3723      0.00000
     34      25.0230      0.00000
     35      25.4012      0.00000
     36      26.7864      0.00000
     37      27.2833      0.00000
     38      28.2948      0.00000
     39      28.7143      0.00000
     40      28.7686      0.00000
     41      29.8195      0.00000
     42      30.1219      0.00000
     43      31.3888      0.00000
     44      32.4765      0.00000
     45      34.6104      0.00000
     46      34.7709      0.00000
     47      35.2747      0.00000
     48      35.2871      0.00000

 k-point    10 :       0.3636    0.0909    0.0000
  band No.  band energies     occupation 
      1       1.1689      2.00000
      2       2.7015      2.00000
      3       3.2787      2.00000
      4       3.3272      2.00000
      5       3.3318      2.00000
      6       3.6298      2.00000
      7       3.6760      2.00000
      8       4.1537      2.00000
      9       5.1768      2.00000
     10       5.2883      2.00000
     11       5.3563      2.00000
     12       5.5016      2.00000
     13       5.8014      2.00000
     14       5.8250      2.00000
     15       6.4870      2.00000
     16       6.5519      2.00000
     17       6.6940      2.00000
     18       6.7117      2.00000
     19       6.8863      2.00000
     20       7.3850      2.00000
     21       7.7810      2.00000
     22       7.7859      2.00000
     23      12.8706      0.00000
     24      14.0789      0.00000
     25      14.3281      0.00000
     26      15.5475      0.00000
     27      17.1082      0.00000
     28      17.6168      0.00000
     29      19.4277      0.00000
     30      19.8661      0.00000
     31      21.4171      0.00000
     32      22.1864      0.00000
     33      22.9761      0.00000
     34      24.6666      0.00000
     35      25.2928      0.00000
     36      26.7227      0.00000
     37      26.7462      0.00000
     38      27.4370      0.00000
     39      28.1595      0.00000
     40      29.7408      0.00000
     41      30.7055      0.00000
     42      30.8074      0.00000
     43      31.3826      0.00000
     44      32.8950      0.00000
     45      34.0455      0.00000
     46      34.0715      0.00000
     47      34.3557      0.00000
     48      34.5450      0.00000

 k-point    11 :       0.4545    0.0909    0.0000
  band No.  band energies     occupation 
      1       1.8320      2.00000
      2       2.4080      2.00000
      3       3.5437      2.00000
      4       3.5647      2.00000
      5       3.5859      2.00000
      6       3.8686      2.00000
      7       4.0704      2.00000
      8       4.0936      2.00000
      9       4.5638      2.00000
     10       4.6500      2.00000
     11       5.3299      2.00000
     12       5.3915      2.00000
     13       5.8599      2.00000
     14       6.0183      2.00000
     15       6.2453      2.00000
     16       6.2712      2.00000
     17       6.2723      2.00000
     18       6.4154      2.00000
     19       6.8803      2.00000
     20       7.0953      2.00000
     21       7.7823      2.00000
     22       7.7842      2.00000
     23      13.4255      0.00000
     24      13.7731      0.00000
     25      15.4751      0.00000
     26      15.8640      0.00000
     27      16.4542      0.00000
     28      16.5891      0.00000
     29      19.4813      0.00000
     30      19.6337      0.00000
     31      22.7610      0.00000
     32      23.4218      0.00000
     33      23.8375      0.00000
     34      24.6203      0.00000
     35      24.9034      0.00000
     36      26.3708      0.00000
     37      26.9034      0.00000
     38      27.1376      0.00000
     39      27.5193      0.00000
     40      28.5634      0.00000
     41      30.7681      0.00000
     42      31.6609      0.00000
     43      31.7112      0.00000
     44      32.8095      0.00000
     45      34.5060      0.00000
     46      34.5490      0.00000
     47      34.7117      0.00000
     48      35.0495      0.00000

 k-point    12 :       0.1818    0.1818    0.0000
  band No.  band energies     occupation 
      1       0.3891      2.00000
      2       2.8206      2.00000
      3       2.8223      2.00000
      4       2.8223      2.00000
      5       3.0962      2.00000
      6       3.0962      2.00000
      7       3.2541      2.00000
      8       4.5703      2.00000
      9       5.0616      2.00000
     10       5.0915      2.00000
     11       6.1080      2.00000
     12       6.2294      2.00000
     13       6.2294      2.00000
     14       6.3452      2.00000
     15       6.4509      2.00000
     16       6.9860      2.00000
     17       7.2340      2.00000
     18       7.2340      2.00000
     19       7.5221      2.00000
     20       7.5221      2.00000
     21       7.6396      2.00000
     22       9.9214     -0.00000
     23       9.9214     -0.00000
     24      12.8685      0.00000
     25      14.3617      0.00000
     26      17.3348      0.00000
     27      17.3348      0.00000
     28      17.6365      0.00000
     29      19.7367      0.00000
     30      19.7367      0.00000
     31      20.2989      0.00000
     32      20.2989      0.00000
     33      21.0099      0.00000
     34      24.7509      0.00000
     35      25.1416      0.00000
     36      27.5475      0.00000
     37      27.6151      0.00000
     38      28.1288      0.00000
     39      28.1288      0.00000
     40      29.4457      0.00000
     41      29.4457      0.00000
     42      29.6179      0.00000
     43      31.4133      0.00000
     44      31.8973      0.00000
     45      35.1863      0.00000
     46      36.1250      0.00000
     47      36.3099      0.00000
     48      36.3099      0.00000

 k-point    13 :       0.2727    0.1818    0.0000
  band No.  band energies     occupation 
      1       0.8260      2.00000
      2       2.9256      2.00000
      3       3.0107      2.00000
      4       3.1210      2.00000
      5       3.2480      2.00000
      6       3.3460      2.00000
      7       3.5440      2.00000
      8       4.4159      2.00000
      9       5.1809      2.00000
     10       5.2351      2.00000
     11       5.5077      2.00000
     12       5.7216      2.00000
     13       5.8066      2.00000
     14       5.9764      2.00000
     15       6.6001      2.00000
     16       6.7209      2.00000
     17       6.9453      2.00000
     18       7.0861      2.00000
     19       7.1415      2.00000
     20       7.5184      2.00000
     21       7.5567      2.00000
     22       8.8183      2.00000
     23      10.7602     -0.00000
     24      13.7964      0.00000
     25      13.8212      0.00000
     26      16.8540      0.00000
     27      17.1720      0.00000
     28      18.8467      0.00000
     29      19.0306      0.00000
     30      20.3473      0.00000
     31      20.5800      0.00000
     32      21.4400      0.00000
     33      21.5441      0.00000
     34      24.1901      0.00000
     35      24.8573      0.00000
     36      27.4066      0.00000
     37      27.6688      0.00000
     38      28.0557      0.00000
     39      29.1048      0.00000
     40      29.4850      0.00000
     41      29.5908      0.00000
     42      29.9770      0.00000
     43      31.2315      0.00000
     44      32.7489      0.00000
     45      34.8834      0.00000
     46      35.0038      0.00000
     47      35.3072      0.00000
     48      35.4301      0.00000

 k-point    14 :       0.3636    0.1818    0.0000
  band No.  band energies     occupation 
      1       1.3974      2.00000
      2       2.9135      2.00000
      3       3.2873      2.00000
      4       3.4485      2.00000
      5       3.4644      2.00000
      6       3.6912      2.00000
      7       3.8484      2.00000
      8       4.1937      2.00000
      9       4.8633      2.00000
     10       5.2019      2.00000
     11       5.2119      2.00000
     12       5.2506      2.00000
     13       5.5084      2.00000
     14       5.9223      2.00000
     15       6.4247      2.00000
     16       6.6047      2.00000
     17       6.7065      2.00000
     18       6.7995      2.00000
     19       6.8295      2.00000
     20       7.5141      2.00000
     21       7.5230      2.00000
     22       8.0123      2.00000
     23      11.5221     -0.00000
     24      13.2423      0.00000
     25      14.8913      0.00000
     26      16.5264      0.00000
     27      16.8126      0.00000
     28      18.1314      0.00000
     29      20.1784      0.00000
     30      20.4932      0.00000
     31      21.3868      0.00000
     32      21.6212      0.00000
     33      23.1880      0.00000
     34      23.3018      0.00000
     35      24.5986      0.00000
     36      27.3618      0.00000
     37      28.0574      0.00000
     38      28.2257      0.00000
     39      28.3704      0.00000
     40      28.6550      0.00000
     41      30.6252      0.00000
     42      30.7321      0.00000
     43      31.3855      0.00000
     44      33.3928      0.00000
     45      34.1786      0.00000
     46      34.2896      0.00000
     47      34.9344      0.00000
     48      35.0396      0.00000

 k-point    15 :       0.4545    0.1818    0.0000
  band No.  band energies     occupation 
      1       2.0380      2.00000
      2       2.6103      2.00000
      3       3.6094      2.00000
      4       3.6852      2.00000
      5       3.7174      2.00000
      6       3.9408      2.00000
      7       4.0735      2.00000
      8       4.1257      2.00000
      9       4.3447      2.00000
     10       4.6390      2.00000
     11       5.0327      2.00000
     12       5.0903      2.00000
     13       5.8591      2.00000
     14       6.0971      2.00000
     15       6.2408      2.00000
     16       6.2670      2.00000
[...]
  band No.  band energies     occupation 
      1       2.3004      2.00000
      2       2.5373      2.00000
      3       2.7865      2.00000
      4       2.8238      2.00000
      5       4.4069      2.00000
      6       4.4360      2.00000
      7       4.6595      2.00000
      8       4.8359      2.00000
      9       5.0461      2.00000
     10       5.1655      2.00000
     11       5.2812      2.00000
     12       5.2990      2.00000
     13       5.5275      2.00000
     14       5.6109      2.00000
     15       5.7139      2.00000
     16       5.7765      2.00000
     17       7.0681      2.00000
     18       7.3877      2.00000
     19       7.4172      2.00000
     20       7.4274      2.00000
     21       7.7391      2.00000
     22       8.5472      2.00000
     23      10.3083     -0.00000
     24      10.9766     -0.00000
     25      12.7660      0.00000
     26      13.4542      0.00000
     27      15.3176      0.00000
     28      16.3540      0.00000
     29      22.7441      0.00000
     30      23.3506      0.00000
     31      23.9382      0.00000
     32      24.0893      0.00000
     33      24.2278      0.00000
     34      24.4745      0.00000
     35      25.1558      0.00000
     36      26.1838      0.00000
     37      26.2514      0.00000
     38      26.5928      0.00000
     39      26.9493      0.00000
     40      28.1746      0.00000
     41      32.8292      0.00000
     42      33.6367      0.00000
     43      33.7826      0.00000
     44      33.9280      0.00000
     45      34.0951      0.00000
     46      34.8604      0.00000
     47      35.0839      0.00000
     48      35.2517      0.00000

 k-point    52 :       0.4545    0.4545    0.2727
  band No.  band energies     occupation 
      1       2.3976      2.00000
      2       2.5611      2.00000
      3       2.5611      2.00000
      4       2.6566      2.00000
      5       4.5438      2.00000
      6       4.6249      2.00000
      7       4.6249      2.00000
      8       4.7701      2.00000
      9       5.0119      2.00000
     10       5.1016      2.00000
     11       5.1016      2.00000
     12       5.1421      2.00000
     13       5.9487      2.00000
     14       5.9487      2.00000
     15       5.9864      2.00000
     16       6.0212      2.00000
     17       7.0488      2.00000
     18       7.2608      2.00000
     19       7.2608      2.00000
     20       7.2970      2.00000
     21       8.3479      2.00000
     22       9.1860      2.00001
     23       9.1860      2.00001
     24       9.9932     -0.00000
     25      13.4413      0.00000
     26      14.3023      0.00000
     27      14.3023      0.00000
     28      15.2703      0.00000
     29      23.1619      0.00000
     30      23.6492      0.00000
     31      23.6492      0.00000
     32      23.9212      0.00000
     33      24.9625      0.00000
     34      24.9625      0.00000
     35      25.0078      0.00000
     36      25.6182      0.00000
     37      26.4629      0.00000
     38      27.0639      0.00000
     39      27.0639      0.00000
     40      27.8981      0.00000
     41      32.9267      0.00000
     42      33.4821      0.00000
     43      33.4821      0.00000
     44      33.9162      0.00000
     45      34.3752      0.00000
     46      34.8049      0.00000
     47      34.8606      0.00000
     48      34.8606      0.00000

 k-point    53 :       0.3636    0.3636    0.3636
  band No.  band energies     occupation 
      1       2.1283      2.00000
      2       2.6315      2.00000
      3       2.6315      2.00000
      4       2.6315      2.00000
      5       4.5203      2.00000
      6       4.5203      2.00000
      7       4.5203      2.00000
      8       4.9240      2.00000
      9       4.9240      2.00000
     10       5.1813      2.00000
     11       5.1813      2.00000
     12       5.1813      2.00000
     13       5.8643      2.00000
     14       5.8643      2.00000
     15       5.8643      2.00000
     16       6.1190      2.00000
     17       7.1368      2.00000
     18       7.1368      2.00000
     19       7.5892      2.00000
     20       7.5892      2.00000
     21       7.5892      2.00000
     22       9.9643     -0.00000
     23       9.9643     -0.00000
     24       9.9643     -0.00000
     25      13.3200      0.00000
     26      13.3200      0.00000
     27      13.3200      0.00000
     28      16.2625      0.00000
     29      23.6099      0.00000
     30      23.6099      0.00000
     31      23.6099      0.00000
     32      24.1251      0.00000
     33      25.3945      0.00000
     34      25.3945      0.00000
     35      25.3945      0.00000
     36      25.4042      0.00000
     37      25.4042      0.00000
     38      25.4042      0.00000
     39      27.9070      0.00000
     40      27.9070      0.00000
     41      33.4569      0.00000
     42      33.4569      0.00000
     43      33.4761      0.00000
     44      34.5754      0.00000
     45      34.5754      0.00000
     46      34.5755      0.00000
     47      35.1298      0.00000
     48      35.1298      0.00000

 k-point    54 :       0.4545    0.3636    0.3636
  band No.  band energies     occupation 
      1       2.2264      2.00000
      2       2.3970      2.00000
      3       2.5488      2.00000
      4       2.5488      2.00000
      5       4.5597      2.00000
      6       4.5597      2.00000
      7       4.6927      2.00000
      8       4.8328      2.00000
      9       4.9258      2.00000
     10       5.0134      2.00000
     11       5.0779      2.00000
     12       5.0779      2.00000
     13       6.1556      2.00000
     14       6.2240      2.00000
     15       6.2240      2.00000
     16       6.3689      2.00000
     17       7.3942      2.00000
     18       7.5243      2.00000
     19       7.5243      2.00000
     20       7.5513      2.00000
     21       7.5960      2.00000
     22       8.6664      2.00000
     23      10.2022     -0.00000
     24      10.2022     -0.00000
     25      12.6782      0.00000
     26      12.6782      0.00000
     27      14.1776      0.00000
     28      15.1633      0.00000
     29      23.7014      0.00000
     30      23.7014      0.00000
     31      23.9091      0.00000
     32      23.9491      0.00000
     33      24.8805      0.00000
     34      24.8805      0.00000
     35      26.0220      0.00000
     36      26.1891      0.00000
     37      26.1891      0.00000
     38      26.4241      0.00000
     39      26.8652      0.00000
     40      27.5259      0.00000
     41      33.8198      0.00000
     42      33.9272      0.00000
     43      34.2113      0.00000
     44      34.3347      0.00000
     45      34.3347      0.00000
     46      34.6590      0.00000
     47      34.7937      0.00000
     48      35.0738      0.00000

 k-point    55 :       0.4545    0.4545    0.3636
  band No.  band energies     occupation 
      1       2.2425      2.00000
      2       2.3513      2.00000
      3       2.3513      2.00000
      4       2.4023      2.00000
      5       4.6600      2.00000
      6       4.7034      2.00000
      7       4.7034      2.00000
      8       4.8086      2.00000
      9       4.8660      2.00000
     10       4.9287      2.00000
     11       4.9287      2.00000
     12       4.9486      2.00000
     13       6.6226      2.00000
     14       6.6285      2.00000
     15       6.6285      2.00000
     16       6.8568      2.00000
     17       7.3277      2.00000
     18       7.4885      2.00000
     19       7.4885      2.00000
     20       7.4888      2.00000
     21       8.1128      2.00000
     22       9.0717      2.00000
     23       9.0717      2.00000
     24       9.6824     -0.05458
     25      12.6965      0.00000
     26      13.2750      0.00000
     27      13.2750      0.00000
     28      14.1296      0.00000
     29      23.6742      0.00000
     30      23.7337      0.00000
     31      23.7337      0.00000
     32      23.7589      0.00000
     33      25.5262      0.00000
     34      25.7851      0.00000
     35      25.7851      0.00000
     36      26.4271      0.00000
     37      26.4415      0.00000
     38      26.6926      0.00000
     39      26.6926      0.00000
     40      27.3139      0.00000
     41      33.9271      0.00000
     42      34.2322      0.00000
     43      34.2322      0.00000
     44      34.3279      0.00000
     45      34.5048      0.00000
     46      34.6478      0.00000
     47      34.7304      0.00000
     48      34.7304      0.00000

 k-point    56 :       0.4545    0.4545    0.4545
  band No.  band energies     occupation 
      1       2.1904      2.00000
      2       2.2444      2.00000
      3       2.2444      2.00000
      4       2.2444      2.00000
      5       4.7540      2.00000
      6       4.7540      2.00000
      7       4.7540      2.00000
      8       4.8055      2.00000
      9       4.8055      2.00000
     10       4.8338      2.00000
     11       4.8338      2.00000
     12       4.8338      2.00000
     13       7.1660      2.00000
     14       7.1660      2.00000
     15       7.1660      2.00000
     16       7.5073      2.00000
     17       7.5073      2.00000
     18       7.5634      2.00000
     19       7.5634      2.00000
     20       7.5634      2.00000
     21       8.0774      2.00000
     22       8.9285      2.00000
     23       8.9285      2.00000
     24       8.9285      2.00000
     25      12.6979      0.00000
     26      12.6979      0.00000
     27      12.6979      0.00000
     28      13.2417      0.00000
     29      23.5783      0.00000
     30      23.5792      0.00000
     31      23.5792      0.00000
     32      23.5792      0.00000
     33      26.4528      0.00000
     34      26.4528      0.00000
     35      26.4528      0.00000
     36      26.5425      0.00000
     37      26.5425      0.00000
     38      26.5425      0.00000
     39      26.8418      0.00000
     40      26.8418      0.00000
     41      34.3860      0.00000
     42      34.3860      0.00000
     43      34.5025      0.00000
     44      34.5025      0.00000
     45      34.5025      0.00000
     46      34.6129      0.00000
     47      34.6129      0.00000
     48      34.6129      0.00000


--------------------------------------------------------------------------------------------------------


 soft charge-density along one line, spin component           1
         0         1         2         3         4         5         6         7         8         9
 total charge-density along one line
 
 pseudopotential strength for first ion, spin component:           1
 -3.721  -0.000  -0.000  -0.000   0.000  -3.964  -0.000  -0.000
 -0.000  -3.721  -0.000   0.000   0.000  -0.000  -3.964  -0.000
 -0.000  -0.000  -3.706  -0.000   0.000  -0.000  -0.000  -3.949
 -0.000   0.000  -0.000  -3.721   0.000  -0.000   0.000  -0.000
  0.000   0.000  -0.000   0.000  -3.706   0.000   0.000   0.000
 -3.964  -0.000  -0.000  -0.000   0.000  -4.189  -0.000  -0.000
 -0.000  -3.964  -0.000   0.000   0.000  -0.000  -4.189  -0.000
 -0.000  -0.000  -3.949  -0.000   0.000  -0.000  -0.000  -4.174
 -0.000   0.000  -0.000  -3.964   0.000  -0.000   0.000  -0.000
  0.000   0.000   0.000   0.000  -3.949   0.000   0.000  -0.000
 -0.000   0.000   0.000   0.000  -0.000  -0.000   0.000   0.000
 -0.000   0.000   0.000   0.000   0.000  -0.000   0.000   0.000
 -0.000   0.000   0.000  -0.000   0.000  -0.000   0.000   0.000
 -0.000  -0.000   0.000   0.000   0.000  -0.000  -0.000   0.000
 -0.000  -0.000   0.000   0.000   0.000  -0.000  -0.000   0.000
 -0.000   0.000   0.000  -0.000   0.000  -0.000   0.000   0.000
 -0.000  -0.000   0.000  -0.000   0.000  -0.000  -0.000   0.000
 -0.000  -0.000   0.000   0.000  -0.000  -0.000  -0.000   0.000
 total augmentation occupancy for first ion, spin component:           1
  5.040  -0.000  -0.000   0.000   0.000  -3.043  -0.000   0.000  -0.000   0.000   0.000  -0.000   0.000   0.000  -0.000   0.000
 -0.000   5.040  -0.000   0.000  -0.000   0.000  -3.043  -0.000   0.000  -0.000   0.000  -0.000  -0.000  -0.000   0.000   0.000
  0.000  -0.000   4.775  -0.000   0.000  -0.000  -0.000  -2.568  -0.000  -0.000   0.000   0.000  -0.000  -0.000   0.000  -0.000
 -0.000  -0.000   0.000   5.040   0.000   0.000  -0.000   0.000  -3.043   0.000  -0.000  -0.000   0.000  -0.000  -0.000   0.000
  0.000  -0.000   0.000   0.000   4.775   0.000  -0.000   0.000  -0.000  -2.568   0.000   0.000   0.000  -0.000   0.000  -0.000
 -3.043   0.000  -0.000   0.000  -0.000   2.959   0.000   0.000   0.000   0.000  -0.000  -0.000  -0.000  -0.000   0.000  -0.000
 -0.000  -3.043  -0.000  -0.000  -0.000   0.000   2.959  -0.000   0.000   0.000   0.000  -0.000  -0.000   0.000  -0.000   0.000
  0.000   0.000  -2.568   0.000  -0.000   0.000  -0.000   2.326  -0.000  -0.000  -0.000   0.000   0.000   0.000  -0.000   0.000
 -0.000   0.000  -0.000  -3.043   0.000  -0.000   0.000  -0.000   2.959  -0.000  -0.000  -0.000  -0.000   0.000   0.000  -0.000
 -0.000  -0.000  -0.000   0.000  -2.568   0.000   0.000   0.000  -0.000   2.326   0.000   0.000   0.000  -0.000   0.000  -0.000
 -0.000  -0.000  -0.000  -0.000  -0.000  -0.000   0.000  -0.000  -0.000   0.000   2.687  -0.717   0.000   0.000   0.000  -0.000
 -0.000  -0.000   0.000  -0.000  -0.000   0.000  -0.000  -0.000  -0.000   0.000  -0.717   0.240   0.000   0.000   0.000  -0.000
 -0.000   0.000  -0.000   0.000   0.000  -0.000  -0.000  -0.000  -0.000   0.000   0.000   0.000   0.190   0.000   0.000  -0.007
 -0.000  -0.000   0.000   0.000   0.000  -0.000   0.000   0.000   0.000  -0.000   0.000   0.000  -0.000   0.190  -0.000  -0.000
  0.000   0.000   0.000  -0.000   0.000   0.000   0.000   0.000   0.000   0.000   0.000   0.000   0.000  -0.000   0.190   0.000
  0.000   0.000   0.000   0.000   0.000   0.000   0.000   0.000  -0.000  -0.000   0.000  -0.000  -0.007   0.000   0.000   0.000
  0.000   0.000   0.000  -0.000  -0.000   0.000   0.000   0.000  -0.000   0.000   0.000  -0.000   0.000  -0.007  -0.000   0.000
 -0.000  -0.000   0.000  -0.000   0.000  -0.000   0.000   0.000   0.000  -0.000   0.000  -0.000   0.000   0.000  -0.007   0.000


------------------------ aborting loop because EDIFF is reached ----------------------------------------


    CHARGE:  cpu time    0.0128: real time    0.0129
    FORLOC:  cpu time    0.0001: real time    0.0001
    FORNL :  cpu time    0.1254: real time    0.1256
    STRESS:  cpu time    0.3995: real time    0.4002
    FORCOR:  cpu time    0.0061: real time    0.0062
    FORHAR:  cpu time    0.0008: real time    0.0008
    MIXING:  cpu time    0.0003: real time    0.0003
    OFIELD:  cpu time    0.0000: real time    0.0000

  FORCE on cell =-STRESS in cart. coord.  units (eV):
  Direction    XX          YY          ZZ          XY          YZ          ZX
  --------------------------------------------------------------------------------------
  Alpha Z   274.40333   274.40333   274.40333
  Ewald   -1305.31850 -1305.31850 -1305.31850     0.00000     0.00000     0.00000
  Hartree   149.95122   149.95122   149.95122    -0.00000    -0.00000    -0.00000
  E(xc)    -198.96527  -198.96527  -198.96527    -0.00000    -0.00000     0.00000
  Local     195.51555   195.51555   195.51555    -0.00000     0.00000    -0.00000
  n-local    21.62970    -3.70774    -8.76527     1.83946     7.77969     3.04820
  augment   270.76245   270.76245   270.76245     0.00000    -0.00000     0.00000
  Kinetic   618.48200   615.04717   609.80568    -5.46832    -2.66836    -3.31710
  Fock        0.00000     0.00000     0.00000     0.00000     0.00000     0.00000
  -------------------------------------------------------------------------------------
  Total       3.84596     3.84596     3.84596     0.00000     0.00000     0.00000
  in kB      90.72661    90.72661    90.72661     0.00000     0.00000     0.00000
  external pressure =       90.73 kB  Pullay stress =        0.00 kB


 VOLUME and BASIS-vectors are now :
 -----------------------------------------------------------------------------
  energy-cutoff  :      400.00
  volume of cell :       67.92
      direct lattice vectors                 reciprocal lattice vectors
     4.080000000  0.000000000  0.000000000     0.245098039  0.000000000  0.000000000
     0.000000000  4.080000000  0.000000000     0.000000000  0.245098039  0.000000000
     0.000000000  0.000000000  4.080000000     0.000000000  0.000000000  0.245098039

  length of vectors
     4.080000000  4.080000000  4.080000000     0.245098039  0.245098039  0.245098039


 FORCES acting on ions
    electron-ion (+dipol)            ewald-force                    non-local-force                 convergence-correction
 -----------------------------------------------------------------------------------------------
   0.212E-13 0.330E-13 -.106E-13   0.688E-15 0.184E-14 -.914E-14   0.331E-23 -.165E-23 0.211E-22   0.171E-13 -.962E-14 0.153E-13
   0.204E-13 -.328E-13 -.706E-13   0.177E-16 -.398E-14 0.423E-14   -.910E-23 -.132E-22 0.000E+00   0.173E-13 0.300E-13 -.208E-13
   -.449E-13 0.339E-13 0.453E-12   -.282E-15 0.227E-14 0.435E-14   0.165E-23 -.132E-22 -.149E-22   -.178E-14 -.568E-14 -.490E-13
   -.467E-13 -.198E-13 -.422E-12   -.952E-15 -.355E-14 0.484E-16   0.993E-23 0.331E-23 0.827E-23   0.334E-14 0.209E-13 0.451E-13
 -----------------------------------------------------------------------------------------------
   -.500E-13 0.143E-13 -.501E-13   -.528E-15 -.343E-14 -.507E-15   0.579E-23 -.248E-22 0.145E-22   0.359E-13 0.356E-13 -.941E-14
 
 
 POSITION                                       TOTAL-FORCE (eV/Angst)
 -----------------------------------------------------------------------------------
      0.00000      0.00000      0.00000        -0.000000     -0.000000      0.000000
      0.00000      2.04000      2.04000         0.000000      0.000000     -0.000000
      2.04000      0.00000      2.04000        -0.000000     -0.000000     -0.000000
      2.04000      2.04000      0.00000        -0.000000     -0.000000      0.000000
 -----------------------------------------------------------------------------------
    total drift:                               -0.000000      0.000000     -0.000000


--------------------------------------------------------------------------------------------------------



  FREE ENERGIE OF THE ION-ELECTRON SYSTEM (eV)
  ---------------------------------------------------
  free  energy   TOTEN  =       -12.78441459 eV

  energy  without entropy=      -12.78534672  energy(sigma->0) =      -12.78472530
 


--------------------------------------------------------------------------------------------------------


    POTLOK:  cpu time    0.0055: real time    0.0055


--------------------------------------------------------------------------------------------------------


     LOOP+:  cpu time   10.4769: real time   10.6034
    4ORBIT:  cpu time    0.0000: real time    0.0000

 total amount of memory used by VASP on root node    43440. kBytes
========================================================================

   base      :      30000. kBytes
   nonl-proj :      10338. kBytes
   fftplans  :        147. kBytes
   grid      :        485. kBytes
   one-center:         62. kBytes
   wavefun   :       2408. kBytes
 
  
  
 General timing and accounting informations for this job:
 ========================================================
  
                  Total CPU time used (sec):       28.811
                            User time (sec):       28.665
                          System time (sec):        0.146
                         Elapsed time (sec):       29.233
  
                   Maximum memory used (kb):       49924.
                   Average memory used (kb):           0.
  
                          Minor page faults:        25576
                          Major page faults:           10
                 Voluntary context switches:         1571
