<?xml version="1.0" encoding="ISO-8859-1"?>
<modeling>
 <generator>
  <i name="program" type="string">vasp </i>
  <i name="version" type="string">5.4.1  </i>
  <i name="subversion" type="string">05Feb16 (build Feb 08 2018 09:21:51) complex                          parallel </i>
  <i name="platform" type="string">LinuxIFC </i>
  <i name="date" type="string">2019 11 21 </i>
  <i name="time" type="string">13:19:58 </i>
 </generator>
 <incar>
  <i type="string" name="PREC">normal</i>
  <i name="ENCUT">    400.00000000</i>
  <i type="int" name="ISMEAR">     1</i>
  <i name="SIGMA">      0.10000000</i>
  <i type="logical" name="LWAVE"> F  </i>
  <i type="logical" name="LCHARG"> F  </i>
  <v type="int" name="KPOINT_BSE">    -1     0     0     0</v>
 </incar>
 <kpoints>
  <generation param="Monkhorst-Pack">
   <v type="int" name="divisions">      11       11       11 </v>
   <v name="usershift">      0.00000000       0.00000000       0.00000000 </v>
   <v name="genvec1">      0.09090909       0.00000000       0.00000000 </v>
   <v name="genvec2">      0.00000000       0.09090909       0.00000000 </v>
   <v name="genvec3">      0.00000000       0.00000000       0.09090909 </v>
   <v name="shift">      0.00000000       0.00000000       0.00000000 </v>
  </generation>
  <varray name="kpointlist" >
   <v>       0.00000000       0.00000000       0.00000000 </v>
   <v>       0.09090909       0.00000000       0.00000000 </v>
   <v>       0.18181818       0.00000000       0.00000000 </v>
   <v>       0.27272727       0.00000000       0.00000000 </v>
   <v>       0.36363636       0.00000000       0.00000000 </v>
   <v>       0.45454545       0.00000000       0.00000000 </v>
   <v>       0.09090909       0.09090909       0.00000000 </v>
   <v>       0.18181818       0.09090909       0.00000000 </v>
   <v>       0.27272727       0.09090909       0.00000000 </v>
   <v>       0.36363636       0.09090909       0.00000000 </v>
   <v>       0.45454545       0.09090909       0.00000000 </v>
   <v>       0.18181818       0.18181818       0.00000000 </v>
   <v>       0.27272727       0.18181818       0.00000000 </v>
   <v>       0.36363636       0.18181818       0.00000000 </v>
   <v>       0.45454545       0.18181818       0.00000000 </v>
   <v>       0.27272727       0.27272727       0.00000000 </v>
   <v>       0.36363636       0.27272727       0.00000000 </v>
   <v>       0.45454545       0.27272727       0.00000000 </v>
   <v>       0.36363636       0.36363636       0.00000000 </v>
   <v>       0.45454545       0.36363636       0.00000000 </v>
   <v>       0.45454545       0.45454545       0.00000000 </v>
   <v>       0.09090909       0.09090909       0.09090909 </v>
   <v>       0.18181818       0.09090909       0.09090909 </v>
   <v>       0.27272727       0.09090909       0.09090909 </v>
   <v>       0.36363636       0.09090909       0.09090909 </v>
   <v>       0.45454545       0.09090909       0.09090909 </v>
   <v>       0.18181818       0.18181818       0.09090909 </v>
   <v>       0.27272727       0.18181818       0.09090909 </v>
   <v>       0.36363636       0.18181818       0.09090909 </v>
   <v>       0.45454545       0.18181818       0.09090909 </v>
   <v>       0.27272727       0.27272727       0.09090909 </v>
   <v>       0.36363636       0.27272727       0.09090909 </v>
   <v>       0.45454545       0.27272727       0.09090909 </v>
   <v>       0.36363636       0.36363636       0.09090909 </v>
   <v>       0.45454545       0.36363636       0.09090909 </v>
   <v>       0.45454545       0.45454545       0.09090909 </v>
   <v>       0.18181818       0.18181818       0.18181818 </v>
   <v>       0.27272727       0.18181818       0.18181818 </v>
   <v>       0.36363636       0.18181818       0.18181818 </v>
   <v>       0.45454545       0.18181818       0.18181818 </v>
   <v>       0.27272727       0.27272727       0.18181818 </v>
   <v>       0.36363636       0.27272727       0.18181818 </v>
   <v>       0.45454545       0.27272727       0.18181818 </v>
   <v>       0.36363636       0.36363636       0.18181818 </v>
   <v>       0.45454545       0.36363636       0.18181818 </v>
   <v>       0.45454545       0.45454545       0.18181818 </v>
   <v>       0.27272727       0.27272727       0.27272727 </v>
   <v>       0.36363636       0.27272727       0.27272727 </v>
   <v>       0.45454545       0.27272727       0.27272727 </v>
   <v>       0.36363636       0.36363636       0.27272727 </v>
   <v>       0.45454545       0.36363636       0.27272727 </v>
   <v>       0.45454545       0.45454545       0.27272727 </v>
   <v>       0.36363636       0.36363636       0.36363636 </v>
   <v>       0.45454545       0.36363636       0.36363636 </v>
   <v>       0.45454545       0.45454545       0.36363636 </v>
   <v>       0.45454545       0.45454545       0.45454545 </v>
  </varray>
  <varray name="weights" >
   <v>       0.00075131 </v>
   <v>       0.00450789 </v>
   <v>       0.00450789 </v>
   <v>       0.00450789 </v>
   <v>       0.00450789 </v>
   <v>       0.00450789 </v>
   <v>       0.00901578 </v>
   <v>       0.01803156 </v>
   <v>       0.01803156 </v>
   <v>       0.01803156 </v>
   <v>       0.01803156 </v>
   <v>       0.00901578 </v>
   <v>       0.01803156 </v>
   <v>       0.01803156 </v>
   <v>       0.01803156 </v>
   <v>       0.00901578 </v>
   <v>       0.01803156 </v>
   <v>       0.01803156 </v>
   <v>       0.00901578 </v>
   <v>       0.01803156 </v>
   <v>       0.00901578 </v>
   <v>       0.00601052 </v>
   <v>       0.01803156 </v>
   <v>       0.01803156 </v>
   <v>       0.01803156 </v>
   <v>       0.01803156 </v>
   <v>       0.01803156 </v>
   <v>       0.03606311 </v>
   <v>       0.03606311 </v>
   <v>       0.03606311 </v>
   <v>       0.01803156 </v>
   <v>       0.03606311 </v>
   <v>       0.03606311 </v>
   <v>       0.01803156 </v>
   <v>       0.03606311 </v>
   <v>       0.01803156 </v>
   <v>       0.00601052 </v>
   <v>       0.01803156 </v>
   <v>       0.01803156 </v>
   <v>       0.01803156 </v>
   <v>       0.01803156 </v>
   <v>       0.03606311 </v>
   <v>       0.03606311 </v>
   <v>       0.01803156 </v>
   <v>       0.03606311 </v>
   <v>       0.01803156 </v>
   <v>       0.00601052 </v>
   <v>       0.01803156 </v>
   <v>       0.01803156 </v>
   <v>       0.01803156 </v>
   <v>       0.03606311 </v>
   <v>       0.01803156 </v>
   <v>       0.00601052 </v>
   <v>       0.01803156 </v>
   <v>       0.01803156 </v>
   <v>       0.00601052 </v>
  </varray>
 </kpoints>
 <parameters>
  <separator name="general" >
   <i type="string" name="SYSTEM">unknown system</i>
   <i type="logical" name="LCOMPAT"> F  </i>
  </separator>
  <separator name="electronic" >
   <i type="string" name="PREC">normal</i>
   <i name="ENMAX">    400.00000000</i>
   <i name="ENAUG">    356.67000000</i>
   <i name="EDIFF">      0.00010000</i>
   <i type="int" name="IALGO">    38</i>
   <i type="int" name="IWAVPR">    10</i>
   <i type="int" name="NBANDS">    48</i>
   <i name="NELECT">     44.00000000</i>
   <i type="int" name="TURBO">     0</i>
   <i type="int" name="IRESTART">     0</i>
   <i type="int" name="NREBOOT">     0</i>
   <i type="int" name="NMIN">     0</i>
   <i name="EREF">      0.00000000</i>
   <separator name="electronic smearing" >
    <i type="int" name="ISMEAR">     1</i>
    <i name="SIGMA">      0.10000000</i>
    <i name="KSPACING">      0.50000000</i>
    <i type="logical" name="KGAMMA"> T  </i>
   </separator>
   <separator name="electronic projectors" >
    <i type="logical" name="LREAL"> F  </i>
    <v name="ROPT">      0.00000000</v>
    <i type="int" name="LMAXPAW">  -100</i>
    <i type="int" name="LMAXMIX">     2</i>
    <i type="logical" name="NLSPLINE"> F  </i>
   </separator>
   <separator name="electronic startup" >
    <i type="int" name="ISTART">     0</i>
    <i type="int" name="ICHARG">     2</i>
    <i type="int" name="INIWAV">     1</i>
   </separator>
   <separator name="electronic spin" >
    <i type="int" name="ISPIN">     1</i>
    <i type="logical" name="LNONCOLLINEAR"> F  </i>
    <v name="MAGMOM">      1.00000000      1.00000000      1.00000000      1.00000000</v>
    <i name="NUPDOWN">     -1.00000000</i>
    <i type="logical" name="LSORBIT"> F  </i>
    <v name="SAXIS">      0.00000000      0.00000000      1.00000000</v>
    <i type="logical" name="LSPIRAL"> F  </i>
    <v name="QSPIRAL">      0.00000000      0.00000000      0.00000000</v>
    <i type="logical" name="LZEROZ"> F  </i>
   </separator>
   <separator name="electronic exchange-correlation" >
    <i type="logical" name="LASPH"> F  </i>
    <i type="logical" name="LMETAGGA"> F  </i>
   </separator>
   <separator name="electronic convergence" >
    <i type="int" name="NELM">    60</i>
    <i type="int" name="NELMDL">    -5</i>
    <i type="int" name="NELMIN">     2</i>
    <i name="ENINI">    400.00000000</i>
    <separator name="electronic convergence detail" >
     <i type="logical" name="LDIAG"> T  </i>
     <i type="logical" name="LSUBROT"> F  </i>
     <i name="WEIMIN">      0.00000000</i>
     <i name="EBREAK">      0.00000052</i>
     <i name="DEPER">      0.30000000</i>
     <i type="int" name="NRMM">     4</i>
     <i name="TIME">      0.40000000</i>
    </separator>
   </separator>
   <separator name="electronic mixer" >
    <i name="AMIX">      0.40000000</i>
    <i name="BMIX">      1.00000000</i>
    <i name="AMIN">      0.10000000</i>
    <i name="AMIX_MAG">      1.60000000</i>
    <i name="BMIX_MAG">      1.00000000</i>
    <separator name="electronic mixer details" >
     <i type="int" name="IMIX">     4</i>
     <i type="logical" name="MIXFIRST"> F  </i>
     <i type="int" name="MAXMIX">   -45</i>
     <i name="WC">    100.00000000</i>
     <i type="int" name="INIMIX">     1</i>
     <i type="int" name="MIXPRE">     1</i>
     <i type="int" name="MREMOVE">     5</i>
    </separator>
   </separator>
   <separator name="electronic dipolcorrection" >
    <i type="logical" name="LDIPOL"> F  </i>
    <i type="logical" name="LMONO"> F  </i>
    <i type="int" name="IDIPOL">     0</i>
    <i name="EPSILON">      1.00000000</i>
    <v name="DIPOL">   -100.00000000   -100.00000000   -100.00000000</v>
    <i name="EFIELD">      0.00000000</i>
   </separator>
  </separator>
  <separator name="grids" >
   <i type="int" name="NGX">    20</i>
   <i type="int" name="NGY">    20</i>
   <i type="int" name="NGZ">    20</i>
   <i type="int" name="NGXF">    40</i>
   <i type="int" name="NGYF">    40</i>
   <i type="int" name="NGZF">    40</i>
   <i type="logical" name="ADDGRID"> F  </i>
  </separator>
  <separator name="ionic" >
   <i type="int" name="NSW">     0</i>
   <i type="int" name="IBRION">    -1</i>
   <i type="int" name="ISIF">     2</i>
   <i name="PSTRESS">      0.00000000</i>
   <i name="EDIFFG">      0.00100000</i>
   <i type="int" name="NFREE">     0</i>
   <i name="POTIM">      0.50000000</i>
   <i name="SMASS">     -3.00000000</i>
   <i name="SCALEE">      1.00000000</i>
  </separator>
  <separator name="ionic md" >
   <i name="TEBEG">      0.00010000</i>
   <i name="TEEND">      0.00010000</i>
   <i type="int" name="NBLOCK">     1</i>
   <i type="int" name="KBLOCK">     1</i>
   <i type="int" name="NPACO">   256</i>
   <i name="APACO">     16.00000000</i>
  </separator>
  <separator name="symmetry" >
   <i type="int" name="ISYM">     2</i>
   <i name="SYMPREC">      0.00001000</i>
  </separator>
  <separator name="dos" >
   <i type="logical" name="LORBIT"> F  </i>
   <v name="RWIGS">     -1.00000000</v>
   <i type="int" name="NEDOS">   301</i>
   <i name="EMIN">     10.00000000</i>
   <i name="EMAX">    -10.00000000</i>
   <i name="EFERMI">      0.00000000</i>
  </separator>
  <separator name="writing" >
   <i type="int" name="NWRITE">     2</i>
   <i type="logical" name="LWAVE"> F  </i>
   <i type="logical" name="LCHARG"> F  </i>
   <i type="logical" name="LPARD"> F  </i>
   <i type="logical" name="LVTOT"> F  </i>
   <i type="logical" name="LVHAR"> F  </i>
   <i type="logical" name="LELF"> F  </i>
   <i type="logical" name="LOPTICS"> F  </i>
   <v name="STM">      0.00000000      0.00000000      0.00000000      0.00000000      0.00000000      0.00000000      0.00000000</v>
  </separator>
  <separator name="performance" >
   <i type="int" name="NPAR">    24</i>
   <i type="int" name="NSIM">     4</i>
   <i type="int" name="NBLK">    -1</i>
   <i type="logical" name="LPLANE"> T  </i>
   <i type="logical" name="LSCALAPACK"> F  </i>
   <i type="logical" name="LSCAAWARE"> F  </i>
   <i type="logical" name="LSCALU"> F  </i>
   <i type="logical" name="LASYNC"> F  </i>
   <i type="logical" name="LORBITALREAL"> F  </i>
  </separator>
  <separator name="miscellaneous" >
   <i type="int" name="IDIOT">     3</i>
   <i type="logical" name="LMUSIC"> F  </i>
   <v name="POMASS">    196.96600000</v>
   <v name="DARWINR">      0.00000000</v>
   <v name="DARWINV">      1.00000000</v>
   <i type="logical" name="LCORR"> T  </i>
  </separator>
  <i type="logical" name="GGA_COMPAT"> T  </i>
  <i type="logical" name="LBERRY"> F  </i>
  <i type="int" name="ICORELEVEL">     0</i>
  <i type="logical" name="LDAU"> F  </i>
  <i type="int" name="I_CONSTRAINED_M">     0</i>
  <separator name="electronic exchange-correlation" >
   <i type="string" name="GGA">--</i>
   <i type="int" name="VOSKOWN">     0</i>
   <i type="logical" name="LHFCALC"> F  </i>
   <i type="string" name="PRECFOCK"></i>
   <i type="logical" name="LSYMGRAD"> F  </i>
   <i type="logical" name="LHFONE"> F  </i>
   <i type="logical" name="LRHFCALC"> F  </i>
   <i type="logical" name="LTHOMAS"> F  </i>
   <i type="logical" name="LMODELHF"> F  </i>
   <i name="ENCUT4O">     -1.00000000</i>
   <i type="int" name="EXXOEP">     0</i>
   <i type="int" name="FOURORBIT">     0</i>
   <i name="AEXX">      0.00000000</i>
   <i name="HFALPHA">      0.00000000</i>
   <i name="MCALPHA">      0.00000000</i>
   <i name="ALDAX">      1.00000000</i>
   <i name="AGGAX">      1.00000000</i>
   <i name="ALDAC">      1.00000000</i>
   <i name="AGGAC">      1.00000000</i>
   <i type="int" name="NKREDX">     1</i>
   <i type="int" name="NKREDY">     1</i>
   <i type="int" name="NKREDZ">     1</i>
   <i type="logical" name="SHIFTRED"> F  </i>
   <i type="logical" name="ODDONLY"> F  </i>
   <i type="logical" name="EVENONLY"> F  </i>
   <i type="int" name="LMAXFOCK">     0</i>
   <i type="int" name="NMAXFOCKAE">     0</i>
   <i type="logical" name="LFOCKAEDFT"> F  </i>
   <i name="HFSCREEN">      0.00000000</i>
   <i name="HFSCREENC">      0.00000000</i>
   <i type="int" name="NBANDSGWLOW">     0</i>
  </separator>
  <separator name="vdW DFT" >
   <i type="logical" name="LUSE_VDW"> F  </i>
   <i name="Zab_VDW">     -0.84910000</i>
   <i name="PARAM1">      0.12340000</i>
   <i name="PARAM2">      1.00000000</i>
   <i name="PARAM3">      0.00000000</i>
  </separator>
  <separator name="model GW" >
   <i type="int" name="MODEL_GW">     0</i>
   <i name="MODEL_EPS0">     10.18759680</i>
   <i name="MODEL_ALPHA">      1.00000000</i>
  </separator>
  <separator name="linear response parameters" >
   <i type="logical" name="LEPSILON"> F  </i>
   <i type="logical" name="LRPA"> F  </i>
   <i type="logical" name="LNABLA"> F  </i>
   <i type="logical" name="LVEL"> F  </i>
   <i type="int" name="KINTER">     0</i>
   <i name="CSHIFT">      0.10000000</i>
   <i name="OMEGAMAX">     -1.00000000</i>
   <i name="DEG_THRESHOLD">      0.00200000</i>
  </separator>
  <separator name="orbital magnetization" >
   <i type="logical" name="NUCIND"> F  </i>
   <v name="MAGPOS">      0.00000000      0.00000000      0.00000000</v>
   <i type="logical" name="LNICSALL"> T  </i>
   <i type="logical" name="ORBITALMAG"> F  </i>
   <i type="logical" name="LMAGBLOCH"> F  </i>
   <i type="logical" name="LCHIMAG"> F  </i>
   <i type="logical" name="LGAUGE"> T  </i>
   <i type="int" name="MAGATOM">     0</i>
   <v name="MAGDIPOL">      0.00000000      0.00000000      0.00000000</v>
   <v name="AVECCONST">      0.00000000      0.00000000      0.00000000</v>
  </separator>
  <separator name="response functions" >
   <i type="logical" name="LADDER"> F  </i>
   <i type="logical" name="LFXC"> F  </i>
   <i type="logical" name="LHARTREE"> T  </i>
   <i type="int" name="IBSE">     0</i>
   <v type="int" name="KPOINT">    -1     0     0     0</v>
   <i type="logical" name="LTCTE"> F  </i>
   <i type="logical" name="LTETE"> F  </i>
   <i type="logical" name="LTRIPLET"> F  </i>
   <i type="logical" name="LFXCEPS"> F  </i>
   <i type="logical" name="LFXHEG"> F  </i>
   <i type="int" name="NATURALO">     0</i>
   <i type="logical" name="L2ORDER"> F  </i>
   <i type="logical" name="LUSEW"> F  </i>
   <i name="ENCUTGW">     -2.00000000</i>
   <i name="ENCUTGWSOFT">     -2.00000000</i>
   <i name="ENCUTLF">     -1.00000000</i>
   <i type="int" name="LMAXMP2">    -1</i>
   <i name="SCISSOR">      0.00000000</i>
   <i type="int" name="NOMEGA">     0</i>
   <i type="int" name="NOMEGAR">     0</i>
   <i type="int" name="NBANDSGW">    -1</i>
   <i type="int" name="NBANDSO">    -1</i>
   <i type="int" name="NBANDSV">    -1</i>
   <i type="int" name="NELM">     1</i>
   <i type="int" name="NELMHF">     1</i>
   <i type="int" name="DIM">     3</i>
   <i type="int" name="ANTIRES">     0</i>
   <i name="OMEGAMAX">    -30.00000000</i>
   <i name="OMEGAMIN">    -30.00000000</i>
   <i name="OMEGATL">   -200.00000000</i>
   <i type="int" name="OMEGAGRID">     0</i>
   <i name="CSHIFT">     -0.10000000</i>
   <i type="logical" name="SELFENERGY"> F  </i>
   <i type="logical" name="LSPECTRAL"> F  </i>
   <i type="logical" name="LSPECTRALGW"> F  </i>
   <i type="logical" name="LSINGLES"> F  </i>
   <i type="logical" name="LFERMIGW"> F  </i>
   <i type="logical" name="ODDONLYGW"> F  </i>
   <i type="logical" name="EVENONLYGW"> F  </i>
   <i type="int" name="NKREDLFX">     1</i>
   <i type="int" name="NKREDLFY">     1</i>
   <i type="int" name="NKREDLFZ">     1</i>
   <i type="int" name="MAXMEM">  1800</i>
   <i type="int" name="TELESCOPE">     0</i>
   <i type="int" name="TAUPAR">     1</i>
   <i type="int" name="OMEGAPAR">    -1</i>
   <i name="LAMBDA">      1.00000000</i>
  </separator>
  <separator name="External order field" >
   <i name="OFIELD_KAPPA">      0.00000000</i>
   <v name="OFIELD_K">      0.00000000      0.00000000      0.00000000</v>
   <i name="OFIELD_Q6_NEAR">      0.00000000</i>
   <i name="OFIELD_Q6_FAR">      0.00000000</i>
   <i name="OFIELD_A">      0.00000000</i>
  </separator>
 </parameters>
 <atominfo>
  <atoms>       4 </atoms>
  <types>       1 </types>
  <array name="atoms" >
   <dimension dim="1">ion</dimension>
   <field type="string">element</field>
   <field type="int">atomtype</field>
   <set>
    <rc><c>Au</c><c>   1</c></rc>
    <rc><c>Au</c><c>   1</c></rc>
    <rc><c>Au</c><c>   1</c></rc>
    <rc><c>Au</c><c>   1</c></rc>
   </set>
  </array>
  <array name="atomtypes" >
   <dimension dim="1">type</dimension>
   <field type="int">atomspertype</field>
   <field type="string">element</field>
   <field>mass</field>
   <field>valence</field>
   <field type="string">pseudopotential</field>
   <set>
    <rc><c>   4</c><c>Au</c><c>    196.96600000</c><c>     11.00000000</c><c>  PAW_PBE Au 04Oct2007                  </c></rc>
   </set>
  </array>
 </atominfo>
 <structure name="initialpos" >
  <crystal>
   <varray name="basis" >
    <v>       4.08000000       0.00000000       0.00000000 </v>
    <v>       0.00000000       4.08000000       0.00000000 </v>
    <v>       0.00000000       0.00000000       4.08000000 </v>
   </varray>
   <i name="volume">     67.91731200 </i>
   <varray name="rec_basis" >
    <v>       0.24509804       0.00000000       0.00000000 </v>
    <v>       0.00000000       0.24509804       0.00000000 </v>
    <v>       0.00000000       0.00000000       0.24509804 </v>
   </varray>
  </crystal>
  <varray name="positions" >
   <v>       0.00000000       0.00000000       0.00000000 </v>
   <v>       0.00000000       0.50000000       0.50000000 </v>
   <v>       0.50000000       0.00000000       0.50000000 </v>
   <v>       0.50000000       0.50000000       0.00000000 </v>
  </varray>
 </structure>
 <calculation>
  <scstep>
   <time name="dav">    0.93    0.93</time>
   <time name="total">    0.94    0.95</time>
   <energy>
    <i name="alphaZ">    274.40333328 </i>
    <i name="ewald">  -3915.95376942 </i>
    <i name="hartreedc">   -494.00614683 </i>
    <i name="XCdc">     62.70648169 </i>
    <i name="pawpsdc">   3496.39001341 </i>
    <i name="pawaedc">  -3404.04053930 </i>
    <i name="eentropy">      0.00115784 </i>
    <i name="bandstr">    457.56947524 </i>
    <i name="atom">   3704.32207507 </i>
    <i name="e_fr_energy">    181.39208098 </i>
    <i name="e_wo_entrp">    181.39092314 </i>
    <i name="e_0_energy">    181.39169503 </i>
   </energy>
  </scstep>
  <scstep>
   <time name="dav">    1.14    1.14</time>
   <time name="total">    1.14    1.15</time>
   <energy>
    <i name="e_fr_energy">    -11.40909786 </i>
    <i name="e_wo_entrp">    -11.40913697 </i>
    <i name="e_0_energy">    -11.40911089 </i>
   </energy>
  </scstep>
  <scstep>
   <time name="dav">    1.07    1.07</time>
   <time name="total">    1.08    1.08</time>
   <energy>
    <i name="e_fr_energy">    -13.83496626 </i>
    <i name="e_wo_entrp">    -13.83493265 </i>
    <i name="e_0_energy">    -13.83495506 </i>
   </energy>
  </scstep>
  <scstep>
   <time name="dav">    1.24    1.24</time>
   <time name="total">    1.24    1.24</time>
   <energy>
    <i name="e_fr_energy">    -13.84496575 </i>
    <i name="e_wo_entrp">    -13.84493307 </i>
    <i name="e_0_energy">    -13.84495485 </i>
   </energy>
  </scstep>
  <scstep>
   <time name="dav">    1.03    1.03</time>
   <time name="total">    1.05    1.06</time>
   <energy>
    <i name="e_fr_energy">    -13.84505581 </i>
    <i name="e_wo_entrp">    -13.84502314 </i>
    <i name="e_0_energy">    -13.84504492 </i>
   </energy>
  </scstep>
  <scstep>
   <time name="dav">    1.09    1.09</time>
   <time name="total">    1.12    1.13</time>
   <energy>
    <i name="e_fr_energy">    -12.86967274 </i>
    <i name="e_wo_entrp">    -12.87066408 </i>
    <i name="e_0_energy">    -12.87000318 </i>
   </energy>
  </scstep>
  <scstep>
   <time name="dav">    1.09    1.14</time>
   <time name="total">    1.12    1.17</time>
   <energy>
    <i name="e_fr_energy">    -12.79322297 </i>
    <i name="e_wo_entrp">    -12.79405887 </i>
    <i name="e_0_energy">    -12.79350161 </i>
   </energy>
  </scstep>
  <scstep>
   <time name="dav">    1.17    1.18</time>
   <time name="total">    1.20    1.21</time>
   <energy>
    <i name="e_fr_energy">    -12.78444589 </i>
    <i name="e_wo_entrp">    -12.78537450 </i>
    <i name="e_0_energy">    -12.78475542 </i>
   </energy>
  </scstep>
  <scstep>
   <time name="dav">    1.02    1.02</time>
   <time name="total">    1.03    1.03</time>
   <energy>
    <i name="alphaZ">    274.40333328 </i>
    <i name="ewald">  -3915.95376942 </i>
    <i name="hartreedc">   -449.90770164 </i>
    <i name="XCdc">     60.74355620 </i>
    <i name="pawpsdc">   4230.81337103 </i>
    <i name="pawaedc">  -4149.39125509 </i>
    <i name="eentropy">      0.00093213 </i>
    <i name="bandstr">    232.18504386 </i>
    <i name="atom">   3704.32207507 </i>
    <i name="e_fr_energy">    -12.78441459 </i>
    <i name="e_wo_entrp">    -12.78534672 </i>
    <i name="e_0_energy">    -12.78472530 </i>
   </energy>
  </scstep>
  <structure>
   <crystal>
    <varray name="basis" >
     <v>       4.08000000       0.00000000       0.00000000 </v>
     <v>       0.00000000       4.08000000       0.00000000 </v>
     <v>       0.00000000       0.00000000       4.08000000 </v>
    </varray>
    <i name="volume">     67.91731200 </i>
    <varray name="rec_basis" >
     <v>       0.24509804       0.00000000       0.00000000 </v>
     <v>       0.00000000       0.24509804       0.00000000 </v>
     <v>       0.00000000       0.00000000       0.24509804 </v>
    </varray>
   </crystal>
   <varray name="positions" >
    <v>       0.00000000       0.00000000       0.00000000 </v>
    <v>       0.00000000       0.50000000       0.50000000 </v>
    <v>       0.50000000       0.00000000       0.50000000 </v>
    <v>       0.50000000       0.50000000       0.00000000 </v>
   </varray>
  </structure>
  <varray name="forces" >
   <v>      -0.00000000      -0.00000000       0.00000000 </v>
   <v>       0.00000000       0.00000000      -0.00000000 </v>
   <v>      -0.00000000      -0.00000000      -0.00000000 </v>
   <v>      -0.00000000      -0.00000000       0.00000000 </v>
  </varray>
  <varray name="stress" >
   <v>      90.72660854      -0.00000000       0.00000000 </v>
   <v>       0.00000000      90.72660854       0.00000000 </v>
   <v>      -0.00000000       0.00000000      90.72660854 </v>
  </varray>
  <energy>
   <i name="e_fr_energy">    -12.78441459 </i>
   <i name="e_wo_entrp">    -12.78472530 </i>
   <i name="e_0_energy">      0.00093213 </i>
  </energy>
  <time name="totalsc">   10.48   10.60</time>
  <eigenvalues>
   <array>
    <dimension dim="1">band</dimension>
    <dimension dim="2">kpoint</dimension>
    <dimension dim="3">spin</dimension>
    <field>eigene</field>
    <field>occ</field>
    <set>
     <set comment="spin 1">
      <set comment="kpoint 1">
       <r>   -0.3582    1.0000 </r>
       <r>    2.4391    1.0000 </r>
       <r>    2.4391    1.0000 </r>
       <r>    2.4391    1.0000 </r>
       <r>    2.7549    1.0000 </r>
       <r>    2.7549    1.0000 </r>
       <r>    2.7549    1.0000 </r>
       <r>    4.8261    1.0000 </r>
       <r>    4.8261    1.0000 </r>
       <r>    4.8261    1.0000 </r>
       <r>    6.3530    1.0000 </r>
       <r>    6.3530    1.0000 </r>
       <r>    7.5164    1.0000 </r>
       <r>    7.5164    1.0000 </r>
       <r>    7.5164    1.0000 </r>
       <r>    7.8839    1.0000 </r>
       <r>    7.8839    1.0000 </r>
       <r>    7.8839    1.0000 </r>
       <r>    7.8839    1.0000 </r>
       <r>    7.8839    1.0000 </r>
       <r>    7.8839    1.0000 </r>
       <r>   10.5482   -0.0000 </r>
       <r>   10.5482   -0.0000 </r>
       <r>   10.5482   -0.0000 </r>
       <r>   15.3420    0.0000 </r>
       <r>   15.3420    0.0000 </r>
       <r>   15.3420    0.0000 </r>
       <r>   19.5570    0.0000 </r>
       <r>   19.5570    0.0000 </r>
       <r>   19.5570    0.0000 </r>
       <r>   19.5570    0.0000 </r>
       <r>   19.5570    0.0000 </r>
       <r>   19.5570    0.0000 </r>
       <r>   24.0551    0.0000 </r>
       <r>   26.7894    0.0000 </r>
       <r>   26.7894    0.0000 </r>
       <r>   26.7894    0.0000 </r>
       <r>   28.0754    0.0000 </r>
       <r>   28.0754    0.0000 </r>
       <r>   28.0754    0.0000 </r>
       <r>   29.4035    0.0000 </r>
       <r>   29.4035    0.0000 </r>
       <r>   29.4035    0.0000 </r>
       <r>   32.9924    0.0000 </r>
       <r>   37.0246    0.0000 </r>
       <r>   37.0246    0.0000 </r>
       <r>   37.0247    0.0000 </r>
       <r>   37.6731    0.0000 </r>
      </set>
      <set comment="kpoint 2">
       <r>   -0.2613    1.0000 </r>
       <r>    2.4723    1.0000 </r>
       <r>    2.5040    1.0000 </r>
       <r>    2.5040    1.0000 </r>
       <r>    2.7903    1.0000 </r>
       <r>    2.8087    1.0000 </r>
       <r>    2.8087    1.0000 </r>
       <r>    4.7754    1.0000 </r>
       <r>    4.8698    1.0000 </r>
       <r>    4.8698    1.0000 </r>
       <r>    6.2986    1.0000 </r>
       <r>    6.3746    1.0000 </r>
       <r>    7.4383    1.0000 </r>
       <r>    7.4383    1.0000 </r>
       <r>    7.4905    1.0000 </r>
       <r>    7.5333    1.0000 </r>
       <r>    7.5333    1.0000 </r>
       <r>    7.7887    1.0000 </r>
       <r>    7.7887    1.0000 </r>
       <r>    7.8841    1.0000 </r>
       <r>    7.8841    1.0000 </r>
       <r>    9.8821   -0.0000 </r>
       <r>   10.9653   -0.0000 </r>
       <r>   10.9653   -0.0000 </r>
       <r>   15.2397    0.0000 </r>
       <r>   15.2397    0.0000 </r>
       <r>   16.1713    0.0000 </r>
       <r>   19.4128    0.0000 </r>
       <r>   19.4128    0.0000 </r>
       <r>   19.4865    0.0000 </r>
       <r>   19.4865    0.0000 </r>
       <r>   19.7605    0.0000 </r>
       <r>   19.7605    0.0000 </r>
       <r>   24.1750    0.0000 </r>
       <r>   26.7131    0.0000 </r>
       <r>   27.1984    0.0000 </r>
       <r>   27.1984    0.0000 </r>
       <r>   27.7236    0.0000 </r>
       <r>   28.0234    0.0000 </r>
       <r>   28.0234    0.0000 </r>
       <r>   29.3098    0.0000 </r>
       <r>   29.4809    0.0000 </r>
       <r>   29.4809    0.0000 </r>
       <r>   33.6411    0.0000 </r>
       <r>   36.5846    0.0000 </r>
       <r>   36.5846    0.0000 </r>
       <r>   36.8576    0.0000 </r>
       <r>   36.8578    0.0000 </r>
      </set>
      <set comment="kpoint 3">
       <r>    0.0255    1.0000 </r>
       <r>    2.5582    1.0000 </r>
       <r>    2.6907    1.0000 </r>
       <r>    2.6907    1.0000 </r>
       <r>    2.8946    1.0000 </r>
       <r>    2.9697    1.0000 </r>
       <r>    2.9697    1.0000 </r>
       <r>    4.6299    1.0000 </r>
       <r>    4.9996    1.0000 </r>
       <r>    4.9996    1.0000 </r>
       <r>    6.1444    1.0000 </r>
       <r>    6.4380    1.0000 </r>
       <r>    6.8172    1.0000 </r>
       <r>    6.8172    1.0000 </r>
       <r>    7.2133    1.0000 </r>
       <r>    7.2133    1.0000 </r>
       <r>    7.4156    1.0000 </r>
       <r>    7.5255    1.0000 </r>
       <r>    7.5255    1.0000 </r>
       <r>    7.8845    1.0000 </r>
       <r>    7.8845    1.0000 </r>
       <r>    8.5746    1.0000 </r>
       <r>   11.8777   -0.0000 </r>
       <r>   11.8777   -0.0000 </r>
       <r>   14.9824    0.0000 </r>
       <r>   14.9824    0.0000 </r>
       <r>   17.9782    0.0000 </r>
       <r>   18.9892    0.0000 </r>
       <r>   18.9892    0.0000 </r>
       <r>   19.3301    0.0000 </r>
       <r>   19.3301    0.0000 </r>
       <r>   20.3460    0.0000 </r>
       <r>   20.3460    0.0000 </r>
       <r>   24.5223    0.0000 </r>
       <r>   26.5112    0.0000 </r>
       <r>   27.0321    0.0000 </r>
       <r>   27.8010    0.0000 </r>
       <r>   27.8010    0.0000 </r>
       <r>   28.3157    0.0000 </r>
       <r>   28.3157    0.0000 </r>
       <r>   29.0320    0.0000 </r>
       <r>   29.7269    0.0000 </r>
       <r>   29.7269    0.0000 </r>
       <r>   35.0460    0.0000 </r>
       <r>   35.2723    0.0000 </r>
       <r>   35.2723    0.0000 </r>
       <r>   36.2391    0.0000 </r>
       <r>   36.2690    0.0000 </r>
      </set>
      <set comment="kpoint 4">
       <r>    0.4873    1.0000 </r>
       <r>    2.6475    1.0000 </r>
       <r>    2.9712    1.0000 </r>
       <r>    2.9712    1.0000 </r>
       <r>    3.0628    1.0000 </r>
       <r>    3.2370    1.0000 </r>
       <r>    3.2370    1.0000 </r>
       <r>    4.4084    1.0000 </r>
       <r>    5.2128    1.0000 </r>
       <r>    5.2128    1.0000 </r>
       <r>    5.9184    1.0000 </r>
       <r>    6.0442    1.0000 </r>
       <r>    6.0442    1.0000 </r>
       <r>    6.5392    1.0000 </r>
       <r>    6.8758    1.0000 </r>
       <r>    6.8758    1.0000 </r>
       <r>    7.1475    1.0000 </r>
       <r>    7.1475    1.0000 </r>
       <r>    7.2595    1.0000 </r>
       <r>    7.2995    1.0000 </r>
       <r>    7.8849    1.0000 </r>
       <r>    7.8849    1.0000 </r>
       <r>   12.9681    0.0000 </r>
       <r>   12.9681    0.0000 </r>
       <r>   14.6799    0.0000 </r>
       <r>   14.6799    0.0000 </r>
       <r>   18.3145    0.0000 </r>
       <r>   18.3145    0.0000 </r>
       <r>   19.1729    0.0000 </r>
       <r>   19.1729    0.0000 </r>
       <r>   20.1648    0.0000 </r>
       <r>   21.2500    0.0000 </r>
       <r>   21.2500    0.0000 </r>
       <r>   25.0627    0.0000 </r>
       <r>   26.2532    0.0000 </r>
       <r>   26.3983    0.0000 </r>
       <r>   27.2496    0.0000 </r>
       <r>   27.2496    0.0000 </r>
       <r>   28.5812    0.0000 </r>
       <r>   29.9223    0.0000 </r>
       <r>   29.9223    0.0000 </r>
       <r>   30.1701    0.0000 </r>
       <r>   30.1701    0.0000 </r>
       <r>   33.2750    0.0000 </r>
       <r>   34.4775    0.0000 </r>
       <r>   34.4775    0.0000 </r>
       <r>   35.2376    0.0000 </r>
       <r>   35.2376    0.0000 </r>
      </set>
      <set comment="kpoint 5">
       <r>    1.0909    1.0000 </r>
       <r>    2.6284    1.0000 </r>
       <r>    3.2841    1.0000 </r>
       <r>    3.2841    1.0000 </r>
       <r>    3.2862    1.0000 </r>
       <r>    3.6087    1.0000 </r>
       <r>    3.6087    1.0000 </r>
       <r>    4.1368    1.0000 </r>
       <r>    5.3114    1.0000 </r>
       <r>    5.3114    1.0000 </r>
       <r>    5.5035    1.0000 </r>
       <r>    5.5035    1.0000 </r>
       <r>    5.6752    1.0000 </r>
       <r>    6.2088    1.0000 </r>
       <r>    6.5037    1.0000 </r>
       <r>    6.5037    1.0000 </r>
       <r>    6.6716    1.0000 </r>
       <r>    6.7139    1.0000 </r>
       <r>    6.7139    1.0000 </r>
       <r>    7.1535    1.0000 </r>
       <r>    7.8855    1.0000 </r>
       <r>    7.8855    1.0000 </r>
       <r>   14.1232    0.0000 </r>
       <r>   14.1232    0.0000 </r>
       <r>   14.4326    0.0000 </r>
       <r>   14.4326    0.0000 </r>
       <r>   17.4350    0.0000 </r>
       <r>   17.4350    0.0000 </r>
       <r>   19.0576    0.0000 </r>
       <r>   19.0576    0.0000 </r>
       <r>   22.3938    0.0000 </r>
       <r>   22.3938    0.0000 </r>
       <r>   22.5393    0.0000 </r>
       <r>   25.7438    0.0000 </r>
       <r>   25.9546    0.0000 </r>
       <r>   26.0327    0.0000 </r>
       <r>   26.2878    0.0000 </r>
       <r>   26.2878    0.0000 </r>
       <r>   27.9808    0.0000 </r>
       <r>   30.5789    0.0000 </r>
       <r>   30.8311    0.0000 </r>
       <r>   30.8311    0.0000 </r>
       <r>   31.7974    0.0000 </r>
       <r>   31.7974    0.0000 </r>
       <r>   34.0003    0.0000 </r>
       <r>   34.0003    0.0000 </r>
       <r>   34.3747    0.0000 </r>
       <r>   34.3747    0.0000 </r>
      </set>
      <set comment="kpoint 6">
       <r>    1.7607    1.0000 </r>
       <r>    2.3374    1.0000 </r>
       <r>    3.5122    1.0000 </r>
       <r>    3.5122    1.0000 </r>
       <r>    3.5519    1.0000 </r>
       <r>    3.8428    1.0000 </r>
       <r>    4.0821    1.0000 </r>
       <r>    4.0821    1.0000 </r>
       <r>    4.6523    1.0000 </r>
       <r>    4.6523    1.0000 </r>
       <r>    5.5156    1.0000 </r>
       <r>    5.6233    1.0000 </r>
       <r>    5.8623    1.0000 </r>
       <r>    5.8623    1.0000 </r>
       <r>    6.2376    1.0000 </r>
       <r>    6.2376    1.0000 </r>
       <r>    6.2737    1.0000 </r>
       <r>    6.2737    1.0000 </r>
       <r>    6.8259    1.0000 </r>
       <r>    6.9910    1.0000 </r>
       <r>    7.8858    1.0000 </r>
       <r>    7.8858    1.0000 </r>
       <r>   14.2983    0.0000 </r>
       <r>   14.2983    0.0000 </r>
       <r>   15.2855    0.0000 </r>
       <r>   15.2855    0.0000 </r>
       <r>   16.4066    0.0000 </r>
       <r>   16.4066    0.0000 </r>
       <r>   18.9980    0.0000 </r>
       <r>   18.9980    0.0000 </r>
       <r>   23.6909    0.0000 </r>
       <r>   23.6909    0.0000 </r>
       <r>   24.8925    0.0000 </r>
       <r>   25.0376    0.0000 </r>
       <r>   25.0376    0.0000 </r>
       <r>   25.6911    0.0000 </r>
       <r>   26.0697    0.0000 </r>
       <r>   26.5022    0.0000 </r>
       <r>   27.2696    0.0000 </r>
       <r>   27.9224    0.0000 </r>
       <r>   31.7105    0.0000 </r>
       <r>   31.7105    0.0000 </r>
       <r>   32.7854    0.0000 </r>
       <r>   32.7854    0.0000 </r>
       <r>   33.5539    0.0000 </r>
       <r>   33.5539    0.0000 </r>
       <r>   34.8886    0.0000 </r>
       <r>   34.8886    0.0000 </r>
      </set>
      <set comment="kpoint 7">
       <r>   -0.1656    1.0000 </r>
       <r>    2.5380    1.0000 </r>
       <r>    2.5380    1.0000 </r>
       <r>    2.5592    1.0000 </r>
       <r>    2.8432    1.0000 </r>
       <r>    2.8432    1.0000 </r>
       <r>    2.8691    1.0000 </r>
       <r>    4.7536    1.0000 </r>
       <r>    4.8861    1.0000 </r>
       <r>    4.9089    1.0000 </r>
       <r>    6.2840    1.0000 </r>
       <r>    6.3623    1.0000 </r>
       <r>    7.3072    1.0000 </r>
       <r>    7.3136    1.0000 </r>
       <r>    7.3136    1.0000 </r>
       <r>    7.3659    1.0000 </r>
       <r>    7.5134    1.0000 </r>
       <r>    7.5134    1.0000 </r>
       <r>    7.7886    1.0000 </r>
       <r>    7.7886    1.0000 </r>
       <r>    7.8217    1.0000 </r>
       <r>   10.3050   -0.0000 </r>
       <r>   10.3050   -0.0000 </r>
       <r>   11.3208   -0.0000 </r>
       <r>   15.1194    0.0000 </r>
       <r>   16.0649    0.0000 </r>
       <r>   16.0649    0.0000 </r>
       <r>   18.8542    0.0000 </r>
       <r>   19.6135    0.0000 </r>
       <r>   19.6135    0.0000 </r>
       <r>   19.6973    0.0000 </r>
       <r>   19.6973    0.0000 </r>
       <r>   19.9395    0.0000 </r>
       <r>   24.2831    0.0000 </r>
       <r>   27.0402    0.0000 </r>
       <r>   27.1313    0.0000 </r>
       <r>   27.1313    0.0000 </r>
       <r>   27.3857    0.0000 </r>
       <r>   27.9705    0.0000 </r>
       <r>   28.4720    0.0000 </r>
       <r>   29.3934    0.0000 </r>
       <r>   29.3934    0.0000 </r>
       <r>   29.6833    0.0000 </r>
       <r>   33.9028    0.0000 </r>
       <r>   35.8490    0.0000 </r>
       <r>   36.1972    0.0000 </r>
       <r>   36.7408    0.0000 </r>
       <r>   36.9573    0.0000 </r>
      </set>
      <set comment="kpoint 8">
       <r>    0.1174    1.0000 </r>
       <r>    2.6261    1.0000 </r>
       <r>    2.7193    1.0000 </r>
       <r>    2.7270    1.0000 </r>
       <r>    2.9451    1.0000 </r>
       <r>    3.0017    1.0000 </r>
       <r>    3.0470    1.0000 </r>
       <r>    4.6268    1.0000 </r>
       <r>    5.0022    1.0000 </r>
       <r>    5.0235    1.0000 </r>
       <r>    6.1524    1.0000 </r>
       <r>    6.4219    1.0000 </r>
       <r>    6.6345    1.0000 </r>
       <r>    6.7035    1.0000 </r>
       <r>    6.9750    1.0000 </r>
       <r>    7.1559    1.0000 </r>
       <r>    7.2513    1.0000 </r>
       <r>    7.4226    1.0000 </r>
       <r>    7.5246    1.0000 </r>
       <r>    7.7881    1.0000 </r>
       <r>    7.7888    1.0000 </r>
       <r>    9.0864    1.0000 </r>
       <r>   11.1537   -0.0000 </r>
       <r>   12.1563   -0.0000 </r>
       <r>   14.8105    0.0000 </r>
       <r>   15.8126    0.0000 </r>
       <r>   17.7879    0.0000 </r>
       <r>   18.2755    0.0000 </r>
       <r>   19.1830    0.0000 </r>
       <r>   19.5683    0.0000 </r>
       <r>   20.1624    0.0000 </r>
       <r>   20.1897    0.0000 </r>
       <r>   20.3203    0.0000 </r>
       <r>   24.5891    0.0000 </r>
       <r>   26.1877    0.0000 </r>
       <r>   26.9635    0.0000 </r>
       <r>   27.7579    0.0000 </r>
       <r>   27.9383    0.0000 </r>
       <r>   28.2573    0.0000 </r>
       <r>   28.6509    0.0000 </r>
       <r>   29.1341    0.0000 </r>
       <r>   29.6561    0.0000 </r>
       <r>   30.3074    0.0000 </r>
       <r>   33.5520    0.0000 </r>
       <r>   35.2705    0.0000 </r>
       <r>   36.1593    0.0000 </r>
       <r>   36.2609    0.0000 </r>
       <r>   36.3000    0.0000 </r>
      </set>
      <set comment="kpoint 9">
       <r>    0.5732    1.0000 </r>
       <r>    2.7188    1.0000 </r>
       <r>    2.9696    1.0000 </r>
       <r>    3.0119    1.0000 </r>
       <r>    3.1093    1.0000 </r>
       <r>    3.2647    1.0000 </r>
       <r>    3.3273    1.0000 </r>
       <r>    4.4158    1.0000 </r>
       <r>    5.1994    1.0000 </r>
       <r>    5.2120    1.0000 </r>
       <r>    5.8803    1.0000 </r>
       <r>    5.9533    1.0000 </r>
       <r>    5.9882    1.0000 </r>
       <r>    6.4349    1.0000 </r>
       <r>    6.5383    1.0000 </r>
       <r>    6.8381    1.0000 </r>
       <r>    6.9209    1.0000 </r>
       <r>    7.1459    1.0000 </r>
       <r>    7.2421    1.0000 </r>
       <r>    7.7817    1.0000 </r>
       <r>    7.7872    1.0000 </r>
       <r>    8.0101    1.0000 </r>
       <r>   12.0682   -0.0000 </r>
       <r>   13.1999    0.0000 </r>
       <r>   14.4309    0.0000 </r>
       <r>   15.5769    0.0000 </r>
       <r>   17.7120    0.0000 </r>
       <r>   18.5008    0.0000 </r>
       <r>   19.4634    0.0000 </r>
       <r>   19.7148    0.0000 </r>
       <r>   20.0941    0.0000 </r>
       <r>   21.0755    0.0000 </r>
       <r>   21.3723    0.0000 </r>
       <r>   25.0230    0.0000 </r>
       <r>   25.4012    0.0000 </r>
       <r>   26.7864    0.0000 </r>
       <r>   27.2833    0.0000 </r>
       <r>   28.2948    0.0000 </r>
       <r>   28.7143    0.0000 </r>
       <r>   28.7686    0.0000 </r>
       <r>   29.8195    0.0000 </r>
       <r>   30.1219    0.0000 </r>
       <r>   31.3888    0.0000 </r>
       <r>   32.4765    0.0000 </r>
       <r>   34.6104    0.0000 </r>
       <r>   34.7709    0.0000 </r>
       <r>   35.2747    0.0000 </r>
       <r>   35.2871    0.0000 </r>
      </set>
      <set comment="kpoint 10">
       <r>    1.1689    1.0000 </r>
       <r>    2.7015    1.0000 </r>
       <r>    3.2787    1.0000 </r>
       <r>    3.3272    1.0000 </r>
       <r>    3.3318    1.0000 </r>
       <r>    3.6298    1.0000 </r>
       <r>    3.6760    1.0000 </r>
       <r>    4.1537    1.0000 </r>
       <r>    5.1768    1.0000 </r>
       <r>    5.2883    1.0000 </r>
       <r>    5.3563    1.0000 </r>
       <r>    5.5016    1.0000 </r>
       <r>    5.8014    1.0000 </r>
       <r>    5.8250    1.0000 </r>
       <r>    6.4870    1.0000 </r>
       <r>    6.5519    1.0000 </r>
       <r>    6.6940    1.0000 </r>
       <r>    6.7117    1.0000 </r>
       <r>    6.8863    1.0000 </r>
       <r>    7.3850    1.0000 </r>
       <r>    7.7810    1.0000 </r>
       <r>    7.7859    1.0000 </r>
       <r>   12.8706    0.0000 </r>
       <r>   14.0789    0.0000 </r>
       <r>   14.3281    0.0000 </r>
       <r>   15.5475    0.0000 </r>
       <r>   17.1082    0.0000 </r>
       <r>   17.6168    0.0000 </r>
       <r>   19.4277    0.0000 </r>
       <r>   19.8661    0.0000 </r>
       <r>   21.4171    0.0000 </r>
       <r>   22.1864    0.0000 </r>
       <r>   22.9761    0.0000 </r>
       <r>   24.6666    0.0000 </r>
       <r>   25.2928    0.0000 </r>
       <r>   26.7227    0.0000 </r>
       <r>   26.7462    0.0000 </r>
       <r>   27.4370    0.0000 </r>
       <r>   28.1595    0.0000 </r>
       <r>   29.7408    0.0000 </r>
       <r>   30.7055    0.0000 </r>
       <r>   30.8074    0.0000 </r>
       <r>   31.3826    0.0000 </r>
       <r>   32.8950    0.0000 </r>
       <r>   34.0455    0.0000 </r>
       <r>   34.0715    0.0000 </r>
       <r>   34.3557    0.0000 </r>
       <r>   34.5450    0.0000 </r>
      </set>
      <set comment="kpoint 11">
       <r>    1.8320    1.0000 </r>
       <r>    2.4080    1.0000 </r>
       <r>    3.5437    1.0000 </r>
       <r>    3.5647    1.0000 </r>
       <r>    3.5859    1.0000 </r>
       <r>    3.8686    1.0000 </r>
       <r>    4.0704    1.0000 </r>
       <r>    4.0936    1.0000 </r>
       <r>    4.5638    1.0000 </r>
       <r>    4.6500    1.0000 </r>
       <r>    5.3299    1.0000 </r>
       <r>    5.3915    1.0000 </r>
       <r>    5.8599    1.0000 </r>
       <r>    6.0183    1.0000 </r>
       <r>    6.2453    1.0000 </r>
       <r>    6.2712    1.0000 </r>
       <r>    6.2723    1.0000 </r>
       <r>    6.4154    1.0000 </r>
       <r>    6.8803    1.0000 </r>
       <r>    7.0953    1.0000 </r>
       <r>    7.7823    1.0000 </r>
       <r>    7.7842    1.0000 </r>
       <r>   13.4255    0.0000 </r>
       <r>   13.7731    0.0000 </r>
       <r>   15.4751    0.0000 </r>
       <r>   15.8640    0.0000 </r>
       <r>   16.4542    0.0000 </r>
       <r>   16.5891    0.0000 </r>
       <r>   19.4813    0.0000 </r>
       <r>   19.6337    0.0000 </r>
       <r>   22.7610    0.0000 </r>
       <r>   23.4218    0.0000 </r>
       <r>   23.8375    0.0000 </r>
       <r>   24.6203    0.0000 </r>
       <r>   24.9034    0.0000 </r>
       <r>   26.3708    0.0000 </r>
       <r>   26.9034    0.0000 </r>
       <r>   27.1376    0.0000 </r>
       <r>   27.5193    0.0000 </r>
       <r>   28.5634    0.0000 </r>
       <r>   30.7681    0.0000 </r>
       <r>   31.6609    0.0000 </r>
       <r>   31.7112    0.0000 </r>
       <r>   32.8095    0.0000 </r>
       <r>   34.5060    0.0000 </r>
       <r>   34.5490    0.0000 </r>
       <r>   34.7117    0.0000 </r>
       <r>   35.0495    0.0000 </r>
      </set>
      <set comment="kpoint 12">
       <r>    0.3891    1.0000 </r>
       <r>    2.8206    1.0000 </r>
       <r>    2.8223    1.0000 </r>
       <r>    2.8223    1.0000 </r>
       <r>    3.0962    1.0000 </r>
       <r>    3.0962    1.0000 </r>
       <r>    3.2541    1.0000 </r>
       <r>    4.5703    1.0000 </r>
       <r>    5.0616    1.0000 </r>
       <r>    5.0915    1.0000 </r>
       <r>    6.1080    1.0000 </r>
       <r>    6.2294    1.0000 </r>
       <r>    6.2294    1.0000 </r>
       <r>    6.3452    1.0000 </r>
       <r>    6.4509    1.0000 </r>
       <r>    6.9860    1.0000 </r>
       <r>    7.2340    1.0000 </r>
       <r>    7.2340    1.0000 </r>
       <r>    7.5221    1.0000 </r>
       <r>    7.5221    1.0000 </r>
       <r>    7.6396    1.0000 </r>
       <r>    9.9214   -0.0000 </r>
       <r>    9.9214   -0.0000 </r>
       <r>   12.8685    0.0000 </r>
       <r>   14.3617    0.0000 </r>
       <r>   17.3348    0.0000 </r>
       <r>   17.3348    0.0000 </r>
       <r>   17.6365    0.0000 </r>
       <r>   19.7367    0.0000 </r>
       <r>   19.7367    0.0000 </r>
       <r>   20.2989    0.0000 </r>
       <r>   20.2989    0.0000 </r>
       <r>   21.0099    0.0000 </r>
       <r>   24.7509    0.0000 </r>
       <r>   25.1416    0.0000 </r>
       <r>   27.5475    0.0000 </r>
       <r>   27.6151    0.0000 </r>
       <r>   28.1288    0.0000 </r>
       <r>   28.1288    0.0000 </r>
       <r>   29.4457    0.0000 </r>
       <r>   29.4457    0.0000 </r>
       <r>   29.6179    0.0000 </r>
       <r>   31.4133    0.0000 </r>
       <r>   31.8973    0.0000 </r>
       <r>   35.1863    0.0000 </r>
       <r>   36.1250    0.0000 </r>
       <r>   36.3099    0.0000 </r>
       <r>   36.3099    0.0000 </r>
      </set>
      <set comment="kpoint 13">
       <r>    0.8260    1.0000 </r>
       <r>    2.9256    1.0000 </r>
       <r>    3.0107    1.0000 </r>
       <r>    3.1210    1.0000 </r>
       <r>    3.2480    1.0000 </r>
       <r>    3.3460    1.0000 </r>
       <r>    3.5440    1.0000 </r>
       <r>    4.4159    1.0000 </r>
       <r>    5.1809    1.0000 </r>
       <r>    5.2351    1.0000 </r>
       <r>    5.5077    1.0000 </r>
       <r>    5.7216    1.0000 </r>
       <r>    5.8066    1.0000 </r>
       <r>    5.9764    1.0000 </r>
       <r>    6.6001    1.0000 </r>
       <r>    6.7209    1.0000 </r>
       <r>    6.9453    1.0000 </r>
       <r>    7.0861    1.0000 </r>
       <r>    7.1415    1.0000 </r>
       <r>    7.5184    1.0000 </r>
       <r>    7.5567    1.0000 </r>
       <r>    8.8183    1.0000 </r>
       <r>   10.7602   -0.0000 </r>
       <r>   13.7964    0.0000 </r>
       <r>   13.8212    0.0000 </r>
       <r>   16.8540    0.0000 </r>
       <r>   17.1720    0.0000 </r>
       <r>   18.8467    0.0000 </r>
       <r>   19.0306    0.0000 </r>
       <r>   20.3473    0.0000 </r>
       <r>   20.5800    0.0000 </r>
       <r>   21.4400    0.0000 </r>
       <r>   21.5441    0.0000 </r>
       <r>   24.1901    0.0000 </r>
       <r>   24.8573    0.0000 </r>
       <r>   27.4066    0.0000 </r>
       <r>   27.6688    0.0000 </r>
       <r>   28.0557    0.0000 </r>
       <r>   29.1048    0.0000 </r>
       <r>   29.4850    0.0000 </r>
       <r>   29.5908    0.0000 </r>
       <r>   29.9770    0.0000 </r>
       <r>   31.2315    0.0000 </r>
       <r>   32.7489    0.0000 </r>
       <r>   34.8834    0.0000 </r>
       <r>   35.0038    0.0000 </r>
       <r>   35.3072    0.0000 </r>
       <r>   35.4301    0.0000 </r>
      </set>
      <set comment="kpoint 14">
       <r>    1.3974    1.0000 </r>
       <r>    2.9135    1.0000 </r>
       <r>    3.2873    1.0000 </r>
       <r>    3.4485    1.0000 </r>
       <r>    3.4644    1.0000 </r>
       <r>    3.6912    1.0000 </r>
       <r>    3.8484    1.0000 </r>
       <r>    4.1937    1.0000 </r>
       <r>    4.8633    1.0000 </r>
       <r>    5.2019    1.0000 </r>
       <r>    5.2119    1.0000 </r>
       <r>    5.2506    1.0000 </r>
       <r>    5.5084    1.0000 </r>
       <r>    5.9223    1.0000 </r>
       <r>    6.4247    1.0000 </r>
       <r>    6.6047    1.0000 </r>
       <r>    6.7065    1.0000 </r>
       <r>    6.7995    1.0000 </r>
       <r>    6.8295    1.0000 </r>
       <r>    7.5141    1.0000 </r>
       <r>    7.5230    1.0000 </r>
       <r>    8.0123    1.0000 </r>
       <r>   11.5221   -0.0000 </r>
       <r>   13.2423    0.0000 </r>
       <r>   14.8913    0.0000 </r>
       <r>   16.5264    0.0000 </r>
       <r>   16.8126    0.0000 </r>
       <r>   18.1314    0.0000 </r>
       <r>   20.1784    0.0000 </r>
       <r>   20.4932    0.0000 </r>
       <r>   21.3868    0.0000 </r>
       <r>   21.6212    0.0000 </r>
       <r>   23.1880    0.0000 </r>
       <r>   23.3018    0.0000 </r>
       <r>   24.5986    0.0000 </r>
       <r>   27.3618    0.0000 </r>
       <r>   28.0574    0.0000 </r>
       <r>   28.2257    0.0000 </r>
       <r>   28.3704    0.0000 </r>
       <r>   28.6550    0.0000 </r>
       <r>   30.6252    0.0000 </r>
       <r>   30.7321    0.0000 </r>
       <r>   31.3855    0.0000 </r>
       <r>   33.3928    0.0000 </r>
       <r>   34.1786    0.0000 </r>
       <r>   34.2896    0.0000 </r>
       <r>   34.9344    0.0000 </r>
       <r>   35.0396    0.0000 </r>
      </set>
      <set comment="kpoint 15">
       <r>    2.0380    1.0000 </r>
       <r>    2.6103    1.0000 </r>
       <r>    3.6094    1.0000 </r>
       <r>    3.6852    1.0000 </r>
       <r>    3.7174    1.0000 </r>
       <r>    3.9408    1.0000 </r>
       <r>    4.0735    1.0000 </r>
       <r>    4.1257    1.0000 </r>
       <r>    4.3447    1.0000 </r>
       <r>    4.6390    1.0000 </r>
       <r>    5.0327    1.0000 </r>
       <r>    5.0903    1.0000 </r>
       <r>    5.8591    1.0000 </r>
       <r>    6.0971    1.0000 </r>
       <r>    6.2408    1.0000 </r>
       <r>    6.2670    1.0000 </r>
       <r>    6.3173    1.0000 </r>
       <r>    6.4296    1.0000 </r>
       <r>    7.1194    1.0000 </r>
       <r>    7.4869    1.0000 </r>
       <r>    7.5110    1.0000 </r>
       <r>    7.5120    1.0000 </r>
       <r>   12.1695   -0.0000 </r>
       <r>   12.7200    0.0000 </r>
       <r>   16.0042    0.0000 </r>
       <r>   16.4295    0.0000 </r>
       <r>   16.5476    0.0000 </r>
       <r>   17.1026    0.0000 </r>
       <r>   20.7459    0.0000 </r>
       <r>   21.0796    0.0000 </r>
       <r>   21.3522    0.0000 </r>
       <r>   22.3844    0.0000 </r>
       <r>   22.7517    0.0000 </r>
       <r>   23.8221    0.0000 </r>
       <r>   24.9330    0.0000 </r>
       <r>   26.5416    0.0000 </r>
       <r>   27.6564    0.0000 </r>
       <r>   28.1422    0.0000 </r>
       <r>   28.8790    0.0000 </r>
       <r>   29.3940    0.0000 </r>
       <r>   30.1489    0.0000 </r>
       <r>   30.3716    0.0000 </r>
       <r>   31.7047    0.0000 </r>
       <r>   32.8727    0.0000 </r>
       <r>   33.6513    0.0000 </r>
       <r>   34.5311    0.0000 </r>
       <r>   35.4713    0.0000 </r>
       <r>   36.0009    0.0000 </r>
      </set>
      <set comment="kpoint 16">
       <r>    1.2310    1.0000 </r>
       <r>    3.1306    1.0000 </r>
       <r>    3.2456    1.0000 </r>
       <r>    3.2456    1.0000 </r>
       <r>    3.4758    1.0000 </r>
       <r>    3.4758    1.0000 </r>
       <r>    3.8209    1.0000 </r>
       <r>    4.3595    1.0000 </r>
       <r>    5.0772    1.0000 </r>
       <r>    5.0772    1.0000 </r>
       <r>    5.1709    1.0000 </r>
       <r>    5.3405    1.0000 </r>
       <r>    5.4868    1.0000 </r>
       <r>    5.9001    1.0000 </r>
       <r>    6.5247    1.0000 </r>
       <r>    6.8124    1.0000 </r>
       <r>    6.8409    1.0000 </r>
       <r>    6.8409    1.0000 </r>
       <r>    7.1360    1.0000 </r>
       <r>    7.1360    1.0000 </r>
       <r>    7.3515    1.0000 </r>
       <r>    9.6037    0.0329 </r>
       <r>    9.6037    0.0329 </r>
       <r>   13.0282    0.0000 </r>
       <r>   14.6936    0.0000 </r>
       <r>   16.8643    0.0000 </r>
       <r>   17.9941    0.0000 </r>
       <r>   17.9941    0.0000 </r>
       <r>   19.8306    0.0000 </r>
       <r>   19.8306    0.0000 </r>
       <r>   21.7422    0.0000 </r>
       <r>   21.7422    0.0000 </r>
       <r>   22.6026    0.0000 </r>
       <r>   23.0832    0.0000 </r>
       <r>   24.4680    0.0000 </r>
       <r>   26.9821    0.0000 </r>
       <r>   27.6597    0.0000 </r>
       <r>   29.1520    0.0000 </r>
       <r>   29.4197    0.0000 </r>
       <r>   29.4197    0.0000 </r>
       <r>   29.7347    0.0000 </r>
       <r>   29.7347    0.0000 </r>
       <r>   31.3485    0.0000 </r>
       <r>   34.1418    0.0000 </r>
       <r>   34.2582    0.0000 </r>
       <r>   35.1739    0.0000 </r>
       <r>   35.1739    0.0000 </r>
       <r>   35.5698    0.0000 </r>
      </set>
      <set comment="kpoint 17">
       <r>    1.7584    1.0000 </r>
       <r>    3.2384    1.0000 </r>
       <r>    3.3383    1.0000 </r>
       <r>    3.6303    1.0000 </r>
       <r>    3.6450    1.0000 </r>
       <r>    3.7868    1.0000 </r>
       <r>    4.0782    1.0000 </r>
       <r>    4.2267    1.0000 </r>
       <r>    4.5134    1.0000 </r>
       <r>    4.7574    1.0000 </r>
       <r>    5.0645    1.0000 </r>
       <r>    5.1079    1.0000 </r>
       <r>    5.5604    1.0000 </r>
       <r>    5.8509    1.0000 </r>
       <r>    6.2947    1.0000 </r>
       <r>    6.5426    1.0000 </r>
       <r>    6.5925    1.0000 </r>
       <r>    6.7031    1.0000 </r>
       <r>    7.1330    1.0000 </r>
       <r>    7.1395    1.0000 </r>
       <r>    7.2251    1.0000 </r>
       <r>    8.7014    1.0000 </r>
       <r>   10.3379   -0.0000 </r>
       <r>   12.3009    0.0000 </r>
       <r>   15.7065    0.0000 </r>
       <r>   16.7102    0.0000 </r>
       <r>   17.3258    0.0000 </r>
       <r>   18.9037    0.0000 </r>
       <r>   19.0416    0.0000 </r>
       <r>   20.8093    0.0000 </r>
       <r>   22.0206    0.0000 </r>
       <r>   22.0590    0.0000 </r>
       <r>   23.0709    0.0000 </r>
       <r>   23.3927    0.0000 </r>
       <r>   23.8035    0.0000 </r>
       <r>   27.1554    0.0000 </r>
       <r>   27.8399    0.0000 </r>
       <r>   28.0436    0.0000 </r>
       <r>   29.3974    0.0000 </r>
       <r>   29.5222    0.0000 </r>
       <r>   29.9632    0.0000 </r>
       <r>   30.5888    0.0000 </r>
       <r>   32.2817    0.0000 </r>
       <r>   32.9430    0.0000 </r>
       <r>   34.3657    0.0000 </r>
       <r>   34.7797    0.0000 </r>
       <r>   35.3354    0.0000 </r>
       <r>   35.5932    0.0000 </r>
      </set>
      <set comment="kpoint 18">
       <r>    2.3533    1.0000 </r>
       <r>    2.9102    1.0000 </r>
       <r>    3.6352    1.0000 </r>
       <r>    3.8402    1.0000 </r>
       <r>    3.9539    1.0000 </r>
       <r>    4.0426    1.0000 </r>
       <r>    4.0698    1.0000 </r>
       <r>    4.1703    1.0000 </r>
       <r>    4.1765    1.0000 </r>
       <r>    4.6073    1.0000 </r>
       <r>    4.7381    1.0000 </r>
       <r>    4.9260    1.0000 </r>
       <r>    5.8800    1.0000 </r>
       <r>    5.9836    1.0000 </r>
       <r>    6.1664    1.0000 </r>
       <r>    6.2673    1.0000 </r>
       <r>    6.2713    1.0000 </r>
       <r>    6.2719    1.0000 </r>
       <r>    7.1384    1.0000 </r>
       <r>    7.1630    1.0000 </r>
       <r>    7.5444    1.0000 </r>
       <r>    8.0424    1.0000 </r>
       <r>   11.0103   -0.0000 </r>
       <r>   11.6451   -0.0000 </r>
       <r>   16.7075    0.0000 </r>
       <r>   16.7843    0.0000 </r>
       <r>   16.8988    0.0000 </r>
       <r>   17.8684    0.0000 </r>
       <r>   20.0613    0.0000 </r>
       <r>   21.0644    0.0000 </r>
       <r>   21.8689    0.0000 </r>
       <r>   22.4015    0.0000 </r>
       <r>   22.8340    0.0000 </r>
       <r>   22.9043    0.0000 </r>
       <r>   25.0237    0.0000 </r>
       <r>   26.4854    0.0000 </r>
       <r>   28.1404    0.0000 </r>
       <r>   28.5062    0.0000 </r>
       <r>   28.9768    0.0000 </r>
       <r>   29.2937    0.0000 </r>
       <r>   30.1110    0.0000 </r>
       <r>   31.2732    0.0000 </r>
       <r>   31.6560    0.0000 </r>
       <r>   32.9247    0.0000 </r>
       <r>   33.3518    0.0000 </r>
       <r>   34.1485    0.0000 </r>
       <r>   35.8440    0.0000 </r>
       <r>   36.3471    0.0000 </r>
      </set>
      <set comment="kpoint 19">
       <r>    2.2196    1.0000 </r>
       <r>    3.4453    1.0000 </r>
       <r>    3.6084    1.0000 </r>
       <r>    3.6084    1.0000 </r>
       <r>    3.9061    1.0000 </r>
       <r>    3.9061    1.0000 </r>
       <r>    4.2152    1.0000 </r>
       <r>    4.2953    1.0000 </r>
       <r>    4.3681    1.0000 </r>
       <r>    4.3681    1.0000 </r>
       <r>    4.8342    1.0000 </r>
       <r>    5.0272    1.0000 </r>
       <r>    5.7024    1.0000 </r>
       <r>    5.7445    1.0000 </r>
       <r>    6.1124    1.0000 </r>
       <r>    6.3321    1.0000 </r>
       <r>    6.3321    1.0000 </r>
       <r>    6.7102    1.0000 </r>
       <r>    6.7102    1.0000 </r>
       <r>    6.9804    1.0000 </r>
       <r>    7.5627    1.0000 </r>
       <r>    9.3821    1.0279 </r>
       <r>    9.3821    1.0279 </r>
       <r>   11.4484   -0.0000 </r>
       <r>   16.6761    0.0000 </r>
       <r>   16.7623    0.0000 </r>
       <r>   18.1142    0.0000 </r>
       <r>   18.1142    0.0000 </r>
       <r>   19.8460    0.0000 </r>
       <r>   19.8460    0.0000 </r>
       <r>   20.9348    0.0000 </r>
       <r>   22.9041    0.0000 </r>
       <r>   23.6944    0.0000 </r>
       <r>   23.6944    0.0000 </r>
       <r>   24.5573    0.0000 </r>
       <r>   26.3659    0.0000 </r>
       <r>   27.2341    0.0000 </r>
       <r>   28.7414    0.0000 </r>
       <r>   29.6018    0.0000 </r>
       <r>   29.6018    0.0000 </r>
       <r>   30.3437    0.0000 </r>
       <r>   30.3437    0.0000 </r>
       <r>   31.4123    0.0000 </r>
       <r>   34.0775    0.0000 </r>
       <r>   34.1108    0.0000 </r>
       <r>   35.1918    0.0000 </r>
       <r>   35.4813    0.0000 </r>
       <r>   35.4816    0.0000 </r>
      </set>
      <set comment="kpoint 20">
       <r>    2.7323    1.0000 </r>
       <r>    3.2326    1.0000 </r>
       <r>    3.6100    1.0000 </r>
       <r>    3.7741    1.0000 </r>
       <r>    4.0331    1.0000 </r>
       <r>    4.1450    1.0000 </r>
       <r>    4.2135    1.0000 </r>
       <r>    4.2492    1.0000 </r>
       <r>    4.3694    1.0000 </r>
       <r>    4.5369    1.0000 </r>
       <r>    4.5697    1.0000 </r>
       <r>    4.8440    1.0000 </r>
       <r>    5.7991    1.0000 </r>
       <r>    5.9550    1.0000 </r>
       <r>    5.9982    1.0000 </r>
       <r>    6.0387    1.0000 </r>
       <r>    6.0919    1.0000 </r>
       <r>    6.3026    1.0000 </r>
       <r>    6.7430    1.0000 </r>
       <r>    6.8239    1.0000 </r>
       <r>    8.0591    1.0000 </r>
       <r>    8.6450    1.0000 </r>
       <r>   10.0438   -0.0000 </r>
       <r>   10.7131   -0.0000 </r>
       <r>   16.9893    0.0000 </r>
       <r>   17.4307    0.0000 </r>
       <r>   17.7264    0.0000 </r>
       <r>   18.8001    0.0000 </r>
       <r>   18.9700    0.0000 </r>
       <r>   19.9093    0.0000 </r>
       <r>   20.8743    0.0000 </r>
       <r>   21.9142    0.0000 </r>
       <r>   24.1368    0.0000 </r>
       <r>   24.6745    0.0000 </r>
       <r>   25.2297    0.0000 </r>
       <r>   26.4031    0.0000 </r>
       <r>   27.1030    0.0000 </r>
       <r>   28.5340    0.0000 </r>
       <r>   29.4025    0.0000 </r>
       <r>   29.7125    0.0000 </r>
       <r>   29.9528    0.0000 </r>
       <r>   30.3895    0.0000 </r>
       <r>   31.4747    0.0000 </r>
       <r>   32.7690    0.0000 </r>
       <r>   34.9811    0.0000 </r>
       <r>   35.3837    0.0000 </r>
       <r>   35.4917    0.0000 </r>
       <r>   35.6680    0.0000 </r>
      </set>
      <set comment="kpoint 21">
       <r>    3.1159    1.0000 </r>
       <r>    3.4629    1.0000 </r>
       <r>    3.4629    1.0000 </r>
       <r>    3.5641    1.0000 </r>
       <r>    4.2151    1.0000 </r>
       <r>    4.2353    1.0000 </r>
       <r>    4.2353    1.0000 </r>
       <r>    4.4120    1.0000 </r>
       <r>    4.5270    1.0000 </r>
       <r>    4.5472    1.0000 </r>
       <r>    4.5472    1.0000 </r>
       <r>    4.7598    1.0000 </r>
       <r>    5.7081    1.0000 </r>
       <r>    5.8292    1.0000 </r>
       <r>    5.8445    1.0000 </r>
       <r>    5.8445    1.0000 </r>
       <r>    6.1194    1.0000 </r>
       <r>    6.3882    1.0000 </r>
       <r>    6.3882    1.0000 </r>
       <r>    6.5577    1.0000 </r>
       <r>    8.6277    1.0000 </r>
       <r>    9.2694    1.0007 </r>
       <r>    9.2694    1.0007 </r>
       <r>    9.9393   -0.0000 </r>
       <r>   17.4415    0.0000 </r>
       <r>   18.0968    0.0000 </r>
       <r>   18.0968    0.0000 </r>
       <r>   18.7580    0.0000 </r>
       <r>   18.9210    0.0000 </r>
       <r>   19.8228    0.0000 </r>
       <r>   19.8228    0.0000 </r>
       <r>   20.8762    0.0000 </r>
       <r>   25.5984    0.0000 </r>
       <r>   25.5984    0.0000 </r>
       <r>   26.0443    0.0000 </r>
       <r>   26.2598    0.0000 </r>
       <r>   26.7523    0.0000 </r>
       <r>   28.3270    0.0000 </r>
       <r>   28.3270    0.0000 </r>
       <r>   29.0903    0.0000 </r>
       <r>   30.2854    0.0000 </r>
       <r>   31.0247    0.0000 </r>
       <r>   31.0247    0.0000 </r>
       <r>   32.0751    0.0000 </r>
       <r>   35.1343    0.0000 </r>
       <r>   35.3620    0.0000 </r>
       <r>   35.4209    0.0000 </r>
       <r>   35.4209    0.0000 </r>
      </set>
      <set comment="kpoint 22">
       <r>   -0.0713    1.0000 </r>
       <r>    2.5929    1.0000 </r>
       <r>    2.5929    1.0000 </r>
       <r>    2.5929    1.0000 </r>
       <r>    2.9035    1.0000 </r>
       <r>    2.9035    1.0000 </r>
       <r>    2.9035    1.0000 </r>
       <r>    4.7362    1.0000 </r>
       <r>    4.9216    1.0000 </r>
       <r>    4.9216    1.0000 </r>
       <r>    6.3127    1.0000 </r>
       <r>    6.3127    1.0000 </r>
       <r>    7.1724    1.0000 </r>
       <r>    7.1724    1.0000 </r>
       <r>    7.1724    1.0000 </r>
       <r>    7.2953    1.0000 </r>
       <r>    7.2953    1.0000 </r>
       <r>    7.2953    1.0000 </r>
       <r>    7.7831    1.0000 </r>
       <r>    7.7831    1.0000 </r>
       <r>    7.7831    1.0000 </r>
       <r>   10.6457   -0.0000 </r>
       <r>   10.6457   -0.0000 </r>
       <r>   10.6457   -0.0000 </r>
       <r>   15.9269    0.0000 </r>
       <r>   15.9269    0.0000 </r>
       <r>   15.9269    0.0000 </r>
       <r>   19.1014    0.0000 </r>
       <r>   19.1014    0.0000 </r>
       <r>   19.1014    0.0000 </r>
       <r>   20.1292    0.0000 </r>
       <r>   20.1292    0.0000 </r>
       <r>   20.1292    0.0000 </r>
       <r>   24.3741    0.0000 </r>
       <r>   26.4548    0.0000 </r>
       <r>   27.3144    0.0000 </r>
       <r>   27.3144    0.0000 </r>
       <r>   27.3144    0.0000 </r>
       <r>   28.4167    0.0000 </r>
       <r>   28.4167    0.0000 </r>
       <r>   29.6097    0.0000 </r>
       <r>   29.6097    0.0000 </r>
       <r>   29.6097    0.0000 </r>
       <r>   33.7877    0.0000 </r>
       <r>   35.8533    0.0000 </r>
       <r>   36.2009    0.0000 </r>
       <r>   36.2010    0.0000 </r>
       <r>   36.8184    0.0000 </r>
      </set>
      <set comment="kpoint 23">
       <r>    0.2072    1.0000 </r>
       <r>    2.6805    1.0000 </r>
       <r>    2.7524    1.0000 </r>
       <r>    2.7524    1.0000 </r>
       <r>    3.0052    1.0000 </r>
       <r>    3.0812    1.0000 </r>
       <r>    3.0812    1.0000 </r>
       <r>    4.6268    1.0000 </r>
       <r>    5.0186    1.0000 </r>
       <r>    5.0279    1.0000 </r>
       <r>    6.1759    1.0000 </r>
       <r>    6.3965    1.0000 </r>
       <r>    6.5452    1.0000 </r>
       <r>    6.5452    1.0000 </r>
       <r>    6.7862    1.0000 </r>
       <r>    7.0938    1.0000 </r>
       <r>    7.1183    1.0000 </r>
       <r>    7.1183    1.0000 </r>
       <r>    7.6766    1.0000 </r>
       <r>    7.7515    1.0000 </r>
       <r>    7.7515    1.0000 </r>
       <r>    9.4253    1.0305 </r>
       <r>   11.4019   -0.0000 </r>
       <r>   11.4019   -0.0000 </r>
       <r>   15.5852    0.0000 </r>
       <r>   15.5852    0.0000 </r>
       <r>   17.5127    0.0000 </r>
       <r>   18.6067    0.0000 </r>
       <r>   18.6067    0.0000 </r>
       <r>   19.8557    0.0000 </r>
       <r>   20.3385    0.0000 </r>
       <r>   20.3385    0.0000 </r>
       <r>   20.6790    0.0000 </r>
       <r>   24.5956    0.0000 </r>
       <r>   25.6287    0.0000 </r>
       <r>   27.1329    0.0000 </r>
       <r>   27.8569    0.0000 </r>
       <r>   27.8569    0.0000 </r>
       <r>   28.1759    0.0000 </r>
       <r>   28.8133    0.0000 </r>
       <r>   29.3951    0.0000 </r>
       <r>   30.2632    0.0000 </r>
       <r>   30.2632    0.0000 </r>
       <r>   33.0926    0.0000 </r>
       <r>   34.8642    0.0000 </r>
       <r>   35.9954    0.0000 </r>
       <r>   36.2867    0.0000 </r>
       <r>   36.2867    0.0000 </r>
      </set>
      <set comment="kpoint 24">
       <r>    0.6554    1.0000 </r>
       <r>    2.7727    1.0000 </r>
       <r>    3.0023    1.0000 </r>
       <r>    3.0023    1.0000 </r>
       <r>    3.1684    1.0000 </r>
       <r>    3.3602    1.0000 </r>
       <r>    3.3602    1.0000 </r>
       <r>    4.4289    1.0000 </r>
       <r>    5.1878    1.0000 </r>
       <r>    5.2030    1.0000 </r>
       <r>    5.8391    1.0000 </r>
       <r>    5.8391    1.0000 </r>
       <r>    6.0017    1.0000 </r>
       <r>    6.2112    1.0000 </r>
       <r>    6.5297    1.0000 </r>
       <r>    6.7943    1.0000 </r>
       <r>    6.8408    1.0000 </r>
       <r>    6.8408    1.0000 </r>
       <r>    7.5197    1.0000 </r>
       <r>    7.7236    1.0000 </r>
       <r>    7.7236    1.0000 </r>
       <r>    8.2928    1.0000 </r>
       <r>   12.2575   -0.0000 </r>
       <r>   12.2575   -0.0000 </r>
       <r>   15.2113    0.0000 </r>
       <r>   15.2113    0.0000 </r>
       <r>   18.1655    0.0000 </r>
       <r>   18.1655    0.0000 </r>
       <r>   19.1267    0.0000 </r>
       <r>   20.2647    0.0000 </r>
       <r>   20.2647    0.0000 </r>
       <r>   21.1737    0.0000 </r>
       <r>   21.5387    0.0000 </r>
       <r>   24.4527    0.0000 </r>
       <r>   25.3401    0.0000 </r>
       <r>   26.9237    0.0000 </r>
       <r>   27.5752    0.0000 </r>
       <r>   28.6689    0.0000 </r>
       <r>   28.6689    0.0000 </r>
       <r>   28.6822    0.0000 </r>
       <r>   29.0651    0.0000 </r>
       <r>   31.3453    0.0000 </r>
       <r>   31.3453    0.0000 </r>
       <r>   32.1326    0.0000 </r>
       <r>   34.1017    0.0000 </r>
       <r>   35.0484    0.0000 </r>
       <r>   35.3201    0.0000 </r>
       <r>   35.3201    0.0000 </r>
      </set>
      <set comment="kpoint 25">
       <r>    1.2410    1.0000 </r>
       <r>    2.7559    1.0000 </r>
       <r>    3.3148    1.0000 </r>
       <r>    3.3148    1.0000 </r>
       <r>    3.3821    1.0000 </r>
       <r>    3.7001    1.0000 </r>
       <r>    3.7001    1.0000 </r>
       <r>    4.1785    1.0000 </r>
       <r>    5.1715    1.0000 </r>
       <r>    5.1715    1.0000 </r>
       <r>    5.3003    1.0000 </r>
       <r>    5.4428    1.0000 </r>
       <r>    5.6128    1.0000 </r>
       <r>    5.9529    1.0000 </r>
       <r>    6.4422    1.0000 </r>
       <r>    6.5088    1.0000 </r>
       <r>    6.5088    1.0000 </r>
       <r>    6.7028    1.0000 </r>
       <r>    7.3281    1.0000 </r>
       <r>    7.4013    1.0000 </r>
       <r>    7.7083    1.0000 </r>
       <r>    7.7083    1.0000 </r>
       <r>   12.9982    0.0000 </r>
       <r>   12.9982    0.0000 </r>
       <r>   14.9799    0.0000 </r>
       <r>   14.9799    0.0000 </r>
       <r>   17.7371    0.0000 </r>
       <r>   17.7371    0.0000 </r>
       <r>   20.0658    0.0000 </r>
       <r>   20.0658    0.0000 </r>
       <r>   20.5241    0.0000 </r>
       <r>   22.6425    0.0000 </r>
       <r>   22.9882    0.0000 </r>
       <r>   23.7117    0.0000 </r>
       <r>   25.7178    0.0000 </r>
       <r>   26.5510    0.0000 </r>
       <r>   26.7855    0.0000 </r>
       <r>   28.0187    0.0000 </r>
       <r>   28.6927    0.0000 </r>
       <r>   29.5943    0.0000 </r>
       <r>   29.5943    0.0000 </r>
       <r>   30.7718    0.0000 </r>
       <r>   32.5757    0.0000 </r>
       <r>   32.5757    0.0000 </r>
       <r>   34.0383    0.0000 </r>
       <r>   34.4221    0.0000 </r>
       <r>   34.4365    0.0000 </r>
       <r>   34.4365    0.0000 </r>
      </set>
      <set comment="kpoint 26">
       <r>    1.8934    1.0000 </r>
       <r>    2.4633    1.0000 </r>
       <r>    3.5925    1.0000 </r>
       <r>    3.5925    1.0000 </r>
       <r>    3.6326    1.0000 </r>
       <r>    3.9048    1.0000 </r>
       <r>    4.0438    1.0000 </r>
       <r>    4.0438    1.0000 </r>
       <r>    4.6131    1.0000 </r>
       <r>    4.6131    1.0000 </r>
       <r>    5.2392    1.0000 </r>
       <r>    5.2637    1.0000 </r>
       <r>    5.7397    1.0000 </r>
       <r>    6.0800    1.0000 </r>
       <r>    6.2288    1.0000 </r>
       <r>    6.2586    1.0000 </r>
       <r>    6.2586    1.0000 </r>
       <r>    6.7276    1.0000 </r>
       <r>    6.9036    1.0000 </r>
       <r>    7.1173    1.0000 </r>
       <r>    7.7020    1.0000 </r>
       <r>    7.7020    1.0000 </r>
       <r>   13.4060    0.0000 </r>
       <r>   13.4060    0.0000 </r>
       <r>   14.9625    0.0000 </r>
       <r>   14.9625    0.0000 </r>
       <r>   17.4026    0.0000 </r>
       <r>   17.4026    0.0000 </r>
       <r>   19.9206    0.0000 </r>
       <r>   19.9206    0.0000 </r>
       <r>   21.7494    0.0000 </r>
       <r>   22.8149    0.0000 </r>
       <r>   23.9154    0.0000 </r>
       <r>   24.8975    0.0000 </r>
       <r>   25.2641    0.0000 </r>
       <r>   25.9328    0.0000 </r>
       <r>   26.7918    0.0000 </r>
       <r>   27.1820    0.0000 </r>
       <r>   28.5175    0.0000 </r>
       <r>   29.1876    0.0000 </r>
       <r>   30.4209    0.0000 </r>
       <r>   30.4209    0.0000 </r>
       <r>   32.5429    0.0000 </r>
       <r>   32.5429    0.0000 </r>
       <r>   34.5383    0.0000 </r>
       <r>   34.8063    0.0000 </r>
       <r>   35.1947    0.0000 </r>
       <r>   35.2009    0.0000 </r>
      </set>
      <set comment="kpoint 27">
       <r>    0.4721    1.0000 </r>
       <r>    2.8377    1.0000 </r>
       <r>    2.8377    1.0000 </r>
       <r>    2.8474    1.0000 </r>
       <r>    3.1828    1.0000 </r>
       <r>    3.1828    1.0000 </r>
       <r>    3.2913    1.0000 </r>
       <r>    4.5835    1.0000 </r>
       <r>    5.0673    1.0000 </r>
       <r>    5.0856    1.0000 </r>
       <r>    6.1569    1.0000 </r>
       <r>    6.1569    1.0000 </r>
       <r>    6.1633    1.0000 </r>
       <r>    6.2176    1.0000 </r>
       <r>    6.4127    1.0000 </r>
       <r>    6.8742    1.0000 </r>
       <r>    6.9459    1.0000 </r>
       <r>    6.9459    1.0000 </r>
       <r>    7.6571    1.0000 </r>
       <r>    7.6571    1.0000 </r>
       <r>    7.6705    1.0000 </r>
       <r>   10.1376   -0.0000 </r>
       <r>   10.1376   -0.0000 </r>
       <r>   12.0091   -0.0000 </r>
       <r>   15.0255    0.0000 </r>
       <r>   16.8769    0.0000 </r>
       <r>   16.8769    0.0000 </r>
       <r>   18.1701    0.0000 </r>
       <r>   19.5938    0.0000 </r>
       <r>   19.5938    0.0000 </r>
       <r>   20.8589    0.0000 </r>
       <r>   20.8589    0.0000 </r>
       <r>   21.1635    0.0000 </r>
       <r>   24.2560    0.0000 </r>
       <r>   25.1418    0.0000 </r>
       <r>   27.4443    0.0000 </r>
       <r>   27.6507    0.0000 </r>
       <r>   27.6507    0.0000 </r>
       <r>   28.1806    0.0000 </r>
       <r>   29.5546    0.0000 </r>
       <r>   30.1413    0.0000 </r>
       <r>   30.1413    0.0000 </r>
       <r>   31.4003    0.0000 </r>
       <r>   31.8905    0.0000 </r>
       <r>   34.6187    0.0000 </r>
       <r>   35.0644    0.0000 </r>
       <r>   36.1336    0.0000 </r>
       <r>   36.2898    0.0000 </r>
      </set>
      <set comment="kpoint 28">
       <r>    0.8972    1.0000 </r>
       <r>    2.9263    1.0000 </r>
       <r>    3.0300    1.0000 </r>
       <r>    3.0837    1.0000 </r>
       <r>    3.3452    1.0000 </r>
       <r>    3.4609    1.0000 </r>
       <r>    3.5808    1.0000 </r>
       <r>    4.4474    1.0000 </r>
       <r>    5.1690    1.0000 </r>
       <r>    5.2052    1.0000 </r>
       <r>    5.4890    1.0000 </r>
       <r>    5.6548    1.0000 </r>
       <r>    5.6954    1.0000 </r>
       <r>    6.0607    1.0000 </r>
       <r>    6.5729    1.0000 </r>
       <r>    6.6355    1.0000 </r>
       <r>    6.6476    1.0000 </r>
       <r>    6.7558    1.0000 </r>
       <r>    7.5028    1.0000 </r>
       <r>    7.5834    1.0000 </r>
       <r>    7.5841    1.0000 </r>
       <r>    8.9664    1.0000 </r>
       <r>   10.9234   -0.0000 </r>
       <r>   12.7245    0.0000 </r>
       <r>   14.4130    0.0000 </r>
       <r>   16.1834    0.0000 </r>
       <r>   17.9538    0.0000 </r>
       <r>   18.1117    0.0000 </r>
       <r>   19.3294    0.0000 </r>
       <r>   20.8045    0.0000 </r>
       <r>   21.0601    0.0000 </r>
       <r>   21.5659    0.0000 </r>
       <r>   21.7393    0.0000 </r>
       <r>   23.3888    0.0000 </r>
       <r>   25.2208    0.0000 </r>
       <r>   27.4133    0.0000 </r>
       <r>   27.5528    0.0000 </r>
       <r>   27.7605    0.0000 </r>
       <r>   28.4203    0.0000 </r>
       <r>   29.6592    0.0000 </r>
       <r>   29.9777    0.0000 </r>
       <r>   31.1924    0.0000 </r>
       <r>   31.2423    0.0000 </r>
       <r>   32.7393    0.0000 </r>
       <r>   33.9556    0.0000 </r>
       <r>   34.7697    0.0000 </r>
       <r>   35.3449    0.0000 </r>
       <r>   35.4472    0.0000 </r>
      </set>
      <set comment="kpoint 29">
       <r>    1.4509    1.0000 </r>
       <r>    2.9070    1.0000 </r>
       <r>    3.2995    1.0000 </r>
       <r>    3.3991    1.0000 </r>
       <r>    3.5493    1.0000 </r>
       <r>    3.7815    1.0000 </r>
       <r>    3.8696    1.0000 </r>
       <r>    4.2438    1.0000 </r>
       <r>    4.9006    1.0000 </r>
       <r>    5.1460    1.0000 </r>
       <r>    5.1820    1.0000 </r>
       <r>    5.1954    1.0000 </r>
       <r>    5.4060    1.0000 </r>
       <r>    6.0847    1.0000 </r>
       <r>    6.2997    1.0000 </r>
       <r>    6.3783    1.0000 </r>
       <r>    6.4911    1.0000 </r>
       <r>    6.8077    1.0000 </r>
       <r>    7.2475    1.0000 </r>
       <r>    7.5224    1.0000 </r>
       <r>    7.5247    1.0000 </r>
       <r>    8.0441    1.0000 </r>
       <r>   11.6633   -0.0000 </r>
       <r>   13.1318    0.0000 </r>
       <r>   14.1593    0.0000 </r>
       <r>   15.5827    0.0000 </r>
       <r>   17.9130    0.0000 </r>
       <r>   18.9366    0.0000 </r>
       <r>   19.2842    0.0000 </r>
       <r>   20.7621    0.0000 </r>
       <r>   21.4862    0.0000 </r>
       <r>   22.4365    0.0000 </r>
       <r>   22.4549    0.0000 </r>
       <r>   23.1952    0.0000 </r>
       <r>   25.2106    0.0000 </r>
       <r>   27.0533    0.0000 </r>
       <r>   27.2556    0.0000 </r>
       <r>   28.2179    0.0000 </r>
       <r>   28.6023    0.0000 </r>
       <r>   29.2146    0.0000 </r>
       <r>   29.8579    0.0000 </r>
       <r>   31.2703    0.0000 </r>
       <r>   32.1500    0.0000 </r>
       <r>   33.3660    0.0000 </r>
       <r>   33.7723    0.0000 </r>
       <r>   34.7900    0.0000 </r>
       <r>   34.7966    0.0000 </r>
       <r>   35.0145    0.0000 </r>
      </set>
      <set comment="kpoint 30">
       <r>    2.0685    1.0000 </r>
       <r>    2.6166    1.0000 </r>
       <r>    3.6287    1.0000 </r>
       <r>    3.7244    1.0000 </r>
       <r>    3.7740    1.0000 </r>
       <r>    3.9537    1.0000 </r>
       <r>    3.9951    1.0000 </r>
       <r>    4.0103    1.0000 </r>
       <r>    4.5558    1.0000 </r>
       <r>    4.7065    1.0000 </r>
       <r>    4.9933    1.0000 </r>
       <r>    5.0617    1.0000 </r>
       <r>    5.6572    1.0000 </r>
       <r>    5.9593    1.0000 </r>
       <r>    6.1978    1.0000 </r>
       <r>    6.2488    1.0000 </r>
       <r>    6.3786    1.0000 </r>
       <r>    6.8354    1.0000 </r>
       <r>    7.0912    1.0000 </r>
       <r>    7.4524    1.0000 </r>
       <r>    7.4943    1.0000 </r>
       <r>    7.4956    1.0000 </r>
       <r>   12.3037    0.0000 </r>
       <r>   12.8320    0.0000 </r>
       <r>   14.5685    0.0000 </r>
       <r>   15.0726    0.0000 </r>
       <r>   18.0784    0.0000 </r>
       <r>   18.4593    0.0000 </r>
       <r>   20.4134    0.0000 </r>
       <r>   20.8940    0.0000 </r>
       <r>   21.1794    0.0000 </r>
       <r>   21.4737    0.0000 </r>
       <r>   23.6264    0.0000 </r>
       <r>   24.6713    0.0000 </r>
       <r>   24.8943    0.0000 </r>
       <r>   26.1977    0.0000 </r>
       <r>   27.2862    0.0000 </r>
       <r>   27.6859    0.0000 </r>
       <r>   29.0974    0.0000 </r>
       <r>   29.5990    0.0000 </r>
       <r>   29.9676    0.0000 </r>
       <r>   30.5523    0.0000 </r>
       <r>   32.3151    0.0000 </r>
       <r>   32.9261    0.0000 </r>
       <r>   33.7694    0.0000 </r>
       <r>   34.6137    0.0000 </r>
       <r>   35.1845    0.0000 </r>
       <r>   35.9543    0.0000 </r>
      </set>
      <set comment="kpoint 31">
       <r>    1.2823    1.0000 </r>
       <r>    3.1338    1.0000 </r>
       <r>    3.1597    1.0000 </r>
       <r>    3.1597    1.0000 </r>
       <r>    3.6272    1.0000 </r>
       <r>    3.6272    1.0000 </r>
       <r>    3.8522    1.0000 </r>
       <r>    4.4199    1.0000 </r>
       <r>    5.0792    1.0000 </r>
       <r>    5.0792    1.0000 </r>
       <r>    5.1601    1.0000 </r>
       <r>    5.2658    1.0000 </r>
       <r>    5.4235    1.0000 </r>
       <r>    6.0296    1.0000 </r>
       <r>    6.3960    1.0000 </r>
       <r>    6.5181    1.0000 </r>
       <r>    6.5181    1.0000 </r>
       <r>    6.7793    1.0000 </r>
       <r>    7.3914    1.0000 </r>
       <r>    7.3914    1.0000 </r>
       <r>    7.4326    1.0000 </r>
       <r>    9.7099   -0.0151 </r>
       <r>    9.7099   -0.0151 </r>
       <r>   13.0224    0.0000 </r>
       <r>   13.8707    0.0000 </r>
       <r>   17.1292    0.0000 </r>
       <r>   17.1292    0.0000 </r>
       <r>   17.9631    0.0000 </r>
       <r>   20.6491    0.0000 </r>
       <r>   20.6491    0.0000 </r>
       <r>   21.8529    0.0000 </r>
       <r>   21.8529    0.0000 </r>
       <r>   22.2981    0.0000 </r>
       <r>   22.7050    0.0000 </r>
       <r>   24.9614    0.0000 </r>
       <r>   26.8491    0.0000 </r>
       <r>   27.7156    0.0000 </r>
       <r>   28.1506    0.0000 </r>
       <r>   28.1506    0.0000 </r>
[...]
       <r>   33.9272    0.0000 </r>
       <r>   34.2113    0.0000 </r>
       <r>   34.3347    0.0000 </r>
       <r>   34.3347    0.0000 </r>
       <r>   34.6590    0.0000 </r>
       <r>   34.7937    0.0000 </r>
       <r>   35.0738    0.0000 </r>
      </set>
      <set comment="kpoint 55">
       <r>    2.2425    1.0000 </r>
       <r>    2.3513    1.0000 </r>
       <r>    2.3513    1.0000 </r>
       <r>    2.4023    1.0000 </r>
       <r>    4.6600    1.0000 </r>
       <r>    4.7034    1.0000 </r>
       <r>    4.7034    1.0000 </r>
       <r>    4.8086    1.0000 </r>
       <r>    4.8660    1.0000 </r>
       <r>    4.9287    1.0000 </r>
       <r>    4.9287    1.0000 </r>
       <r>    4.9486    1.0000 </r>
       <r>    6.6226    1.0000 </r>
       <r>    6.6285    1.0000 </r>
       <r>    6.6285    1.0000 </r>
       <r>    6.8568    1.0000 </r>
       <r>    7.3277    1.0000 </r>
       <r>    7.4885    1.0000 </r>
       <r>    7.4885    1.0000 </r>
       <r>    7.4888    1.0000 </r>
       <r>    8.1128    1.0000 </r>
       <r>    9.0717    1.0000 </r>
       <r>    9.0717    1.0000 </r>
       <r>    9.6824   -0.0273 </r>
       <r>   12.6965    0.0000 </r>
       <r>   13.2750    0.0000 </r>
       <r>   13.2750    0.0000 </r>
       <r>   14.1296    0.0000 </r>
       <r>   23.6742    0.0000 </r>
       <r>   23.7337    0.0000 </r>
       <r>   23.7337    0.0000 </r>
       <r>   23.7589    0.0000 </r>
       <r>   25.5262    0.0000 </r>
       <r>   25.7851    0.0000 </r>
       <r>   25.7851    0.0000 </r>
       <r>   26.4271    0.0000 </r>
       <r>   26.4415    0.0000 </r>
       <r>   26.6926    0.0000 </r>
       <r>   26.6926    0.0000 </r>
       <r>   27.3139    0.0000 </r>
       <r>   33.9271    0.0000 </r>
       <r>   34.2322    0.0000 </r>
       <r>   34.2322    0.0000 </r>
       <r>   34.3279    0.0000 </r>
       <r>   34.5048    0.0000 </r>
       <r>   34.6478    0.0000 </r>
       <r>   34.7304    0.0000 </r>
       <r>   34.7304    0.0000 </r>
      </set>
      <set comment="kpoint 56">
       <r>    2.1904    1.0000 </r>
       <r>    2.2444    1.0000 </r>
       <r>    2.2444    1.0000 </r>
       <r>    2.2444    1.0000 </r>
       <r>    4.7540    1.0000 </r>
       <r>    4.7540    1.0000 </r>
       <r>    4.7540    1.0000 </r>
       <r>    4.8055    1.0000 </r>
       <r>    4.8055    1.0000 </r>
       <r>    4.8338    1.0000 </r>
       <r>    4.8338    1.0000 </r>
       <r>    4.8338    1.0000 </r>
       <r>    7.1660    1.0000 </r>
       <r>    7.1660    1.0000 </r>
       <r>    7.1660    1.0000 </r>
       <r>    7.5073    1.0000 </r>
       <r>    7.5073    1.0000 </r>
       <r>    7.5634    1.0000 </r>
       <r>    7.5634    1.0000 </r>
       <r>    7.5634    1.0000 </r>
       <r>    8.0774    1.0000 </r>
       <r>    8.9285    1.0000 </r>
       <r>    8.9285    1.0000 </r>
       <r>    8.9285    1.0000 </r>
       <r>   12.6979    0.0000 </r>
       <r>   12.6979    0.0000 </r>
       <r>   12.6979    0.0000 </r>
       <r>   13.2417    0.0000 </r>
       <r>   23.5783    0.0000 </r>
       <r>   23.5792    0.0000 </r>
       <r>   23.5792    0.0000 </r>
       <r>   23.5792    0.0000 </r>
       <r>   26.4528    0.0000 </r>
       <r>   26.4528    0.0000 </r>
       <r>   26.4528    0.0000 </r>
       <r>   26.5425    0.0000 </r>
       <r>   26.5425    0.0000 </r>
       <r>   26.5425    0.0000 </r>
       <r>   26.8418    0.0000 </r>
       <r>   26.8418    0.0000 </r>
       <r>   34.3860    0.0000 </r>
       <r>   34.3860    0.0000 </r>
       <r>   34.5025    0.0000 </r>
       <r>   34.5025    0.0000 </r>
       <r>   34.5025    0.0000 </r>
       <r>   34.6129    0.0000 </r>
       <r>   34.6129    0.0000 </r>
       <r>   34.6129    0.0000 </r>
      </set>
     </set>
    </set>
   </array>
  </eigenvalues>
  <separator name="orbital magnetization" >
   <v name="MAGDIPOLOUT">      0.00000000      0.00000000      0.00000000</v>
  </separator>
  <dos>
   <i name="efermi">      9.53160111 </i>
   <total>
    <array>
     <dimension dim="1">gridpoints</dimension>
     <dimension dim="2">spin</dimension>
     <field>energy</field>
     <field>total</field>
     <field>integrated</field>
     <set>
      <set comment="spin 1">
       <r>    -2.2598     0.0000     0.0000 </r>
       <r>    -2.1204     0.0000     0.0000 </r>
       <r>    -1.9809     0.0000     0.0000 </r>
       <r>    -1.8415     0.0000     0.0000 </r>
       <r>    -1.7020     0.0000     0.0000 </r>
       <r>    -1.5626     0.0000     0.0000 </r>
       <r>    -1.4231     0.0000     0.0000 </r>
       <r>    -1.2837    -0.0000    -0.0000 </r>
       <r>    -1.1442    -0.0000    -0.0000 </r>
       <r>    -1.0048    -0.0000    -0.0000 </r>
       <r>    -0.8653    -0.0000    -0.0000 </r>
       <r>    -0.7259    -0.0000    -0.0000 </r>
       <r>    -0.5864    -0.0000    -0.0000 </r>
       <r>    -0.4470    -0.0009    -0.0001 </r>
       <r>    -0.3075     0.0159     0.0021 </r>
       <r>    -0.1681     0.1210     0.0190 </r>
       <r>    -0.0286     0.1433     0.0389 </r>
       <r>     0.1108     0.1871     0.0650 </r>
       <r>     0.2503     0.3662     0.1161 </r>
       <r>     0.3897     0.1053     0.1308 </r>
       <r>     0.5292     0.3884     0.1849 </r>
       <r>     0.6686     0.4287     0.2447 </r>
       <r>     0.8081     0.2682     0.2821 </r>
       <r>     0.9475     0.6155     0.3679 </r>
       <r>     1.0870     0.1814     0.3932 </r>
       <r>     1.2264     0.6289     0.4809 </r>
       <r>     1.3658     0.5778     0.5615 </r>
       <r>     1.5053     0.8793     0.6841 </r>
       <r>     1.6447     0.2726     0.7221 </r>
       <r>     1.7842     0.7213     0.8227 </r>
       <r>     1.9236     1.2902     1.0027 </r>
       <r>     2.0631     0.7188     1.1029 </r>
       <r>     2.2025     1.5354     1.3170 </r>
       <r>     2.3420     2.7832     1.7051 </r>
       <r>     2.4814     2.5085     2.0549 </r>
       <r>     2.6209     3.6958     2.5703 </r>
       <r>     2.7603     4.9265     3.2573 </r>
       <r>     2.8998     6.1565     4.1158 </r>
       <r>     3.0392     7.2161     5.1220 </r>
       <r>     3.1787     7.6012     6.1820 </r>
       <r>     3.3181     6.8517     7.1375 </r>
       <r>     3.4576     6.8486     8.0925 </r>
       <r>     3.5970     5.7276     8.8912 </r>
       <r>     3.7365     6.2446     9.7620 </r>
       <r>     3.8759     4.1780    10.3446 </r>
       <r>     4.0154     5.7714    11.1494 </r>
       <r>     4.1548     7.5493    12.2022 </r>
       <r>     4.2943     7.5915    13.2608 </r>
       <r>     4.4337     7.5793    14.3177 </r>
       <r>     4.5732     7.6445    15.3837 </r>
       <r>     4.7126     8.5036    16.5695 </r>
       <r>     4.8520     8.8420    17.8025 </r>
       <r>     4.9915     9.2587    19.0937 </r>
       <r>     5.1309    13.3760    20.9589 </r>
       <r>     5.2704    12.6742    22.7263 </r>
       <r>     5.4098     7.1920    23.7292 </r>
       <r>     5.5493     7.0788    24.7163 </r>
       <r>     5.6887     6.3313    25.5992 </r>
       <r>     5.8282     6.2418    26.4696 </r>
       <r>     5.9676     7.5985    27.5292 </r>
       <r>     6.1071     7.6708    28.5989 </r>
       <r>     6.2465     8.4729    29.7804 </r>
       <r>     6.3860     9.0806    31.0467 </r>
       <r>     6.5254     6.1199    31.9001 </r>
       <r>     6.6649     6.7738    32.8447 </r>
       <r>     6.8043     7.6552    33.9122 </r>
       <r>     6.9438     5.9148    34.7370 </r>
       <r>     7.0832     5.5196    35.5067 </r>
       <r>     7.2227     8.1401    36.6418 </r>
       <r>     7.3621     7.5004    37.6877 </r>
       <r>     7.5016    11.9361    39.3522 </r>
       <r>     7.6410    11.1121    40.9018 </r>
       <r>     7.7805     5.0648    41.6080 </r>
       <r>     7.9199     2.7691    41.9942 </r>
       <r>     8.0594     2.8726    42.3948 </r>
       <r>     8.1988     1.1572    42.5561 </r>
       <r>     8.3383     0.4708    42.6218 </r>
       <r>     8.4777     0.3109    42.6652 </r>
       <r>     8.6171     1.6949    42.9015 </r>
       <r>     8.7566     1.6852    43.1365 </r>
       <r>     8.8960     0.8574    43.2561 </r>
       <r>     9.0355     0.9335    43.3862 </r>
       <r>     9.1749     0.9960    43.5251 </r>
       <r>     9.3144     1.6238    43.7515 </r>
       <r>     9.4538     1.2509    43.9260 </r>
       <r>     9.5933     0.7574    44.0316 </r>
       <r>     9.7327     1.1582    44.1931 </r>
       <r>     9.8722     0.3526    44.2423 </r>
       <r>    10.0116     1.4091    44.4388 </r>
       <r>    10.1511     1.7869    44.6880 </r>
       <r>    10.2905     1.4220    44.8863 </r>
       <r>    10.4300     0.9908    45.0244 </r>
       <r>    10.5694     0.4763    45.0909 </r>
       <r>    10.7089     0.9533    45.2238 </r>
       <r>    10.8483     1.1289    45.3812 </r>
       <r>    10.9878     1.3648    45.5715 </r>
       <r>    11.1272     1.4886    45.7791 </r>
       <r>    11.2667     0.4032    45.8353 </r>
       <r>    11.4061     1.4314    46.0349 </r>
       <r>    11.5456     0.9174    46.1629 </r>
       <r>    11.6850     1.2262    46.3339 </r>
       <r>    11.8245     0.8736    46.4557 </r>
       <r>    11.9639     0.5448    46.5317 </r>
       <r>    12.1034     1.2556    46.7067 </r>
       <r>    12.2428     1.1439    46.8663 </r>
       <r>    12.3822     1.0530    47.0131 </r>
       <r>    12.5217     0.4413    47.0746 </r>
       <r>    12.6611     1.2535    47.2494 </r>
       <r>    12.8006     2.8810    47.6512 </r>
       <r>    12.9400     1.3088    47.8337 </r>
       <r>    13.0795     1.2013    48.0012 </r>
       <r>    13.2189     0.9555    48.1345 </r>
       <r>    13.3584     1.7391    48.3770 </r>
       <r>    13.4978     1.5106    48.5876 </r>
       <r>    13.6373     1.0305    48.7313 </r>
       <r>    13.7767     0.2603    48.7676 </r>
       <r>    13.9162     1.0387    48.9125 </r>
       <r>    14.0556     1.0299    49.0561 </r>
       <r>    14.1951     1.3726    49.2475 </r>
       <r>    14.3345     1.6906    49.4832 </r>
       <r>    14.4740     1.7873    49.7325 </r>
       <r>    14.6134     0.6723    49.8262 </r>
       <r>    14.7529     0.8659    49.9470 </r>
       <r>    14.8923     1.3412    50.1340 </r>
       <r>    15.0318     2.4259    50.4723 </r>
       <r>    15.1712     1.2317    50.6440 </r>
       <r>    15.3107     1.1939    50.8105 </r>
       <r>    15.4501     0.4668    50.8756 </r>
       <r>    15.5896     2.2140    51.1844 </r>
       <r>    15.7290     2.0198    51.4660 </r>
       <r>    15.8685     0.9400    51.5971 </r>
       <r>    16.0079     0.8345    51.7135 </r>
       <r>    16.1473     0.4767    51.7800 </r>
       <r>    16.2868     1.3608    51.9697 </r>
       <r>    16.4262     1.3161    52.1532 </r>
       <r>    16.5657     1.1463    52.3131 </r>
       <r>    16.7051     1.3988    52.5082 </r>
       <r>    16.8446     1.6641    52.7402 </r>
       <r>    16.9840     1.2492    52.9144 </r>
       <r>    17.1235     1.5483    53.1303 </r>
       <r>    17.2629     1.0313    53.2741 </r>
       <r>    17.4024     0.8248    53.3891 </r>
       <r>    17.5418     1.2225    53.5596 </r>
       <r>    17.6813     1.0121    53.7008 </r>
       <r>    17.8207     1.7571    53.9458 </r>
       <r>    17.9602     1.4496    54.1479 </r>
       <r>    18.0996     2.7083    54.5256 </r>
       <r>    18.2391     2.6232    54.8914 </r>
       <r>    18.3785     0.3098    54.9346 </r>
       <r>    18.5180     0.6176    55.0207 </r>
       <r>    18.6574     1.3529    55.2094 </r>
       <r>    18.7969     0.8233    55.3242 </r>
       <r>    18.9363     1.6643    55.5563 </r>
       <r>    19.0758     2.0107    55.8367 </r>
       <r>    19.2152     1.8694    56.0973 </r>
       <r>    19.3547     1.8295    56.3525 </r>
       <r>    19.4941     1.0034    56.4924 </r>
       <r>    19.6336     2.0633    56.7801 </r>
       <r>    19.7730     1.9914    57.0578 </r>
       <r>    19.9124     2.2816    57.3759 </r>
       <r>    20.0519     2.6241    57.7419 </r>
       <r>    20.1913     2.7393    58.1239 </r>
       <r>    20.3308     1.8474    58.3815 </r>
       <r>    20.4702     1.5396    58.5962 </r>
       <r>    20.6097     1.2965    58.7770 </r>
       <r>    20.7491     1.0661    58.9256 </r>
       <r>    20.8886     2.4749    59.2708 </r>
       <r>    21.0280     2.2632    59.5864 </r>
       <r>    21.1675     2.3766    59.9178 </r>
       <r>    21.3069     1.4637    60.1219 </r>
       <r>    21.4464     2.2990    60.4425 </r>
       <r>    21.5858     2.4683    60.7867 </r>
       <r>    21.7253     1.8455    61.0440 </r>
       <r>    21.8647     3.1170    61.4787 </r>
       <r>    22.0042     1.8607    61.7381 </r>
       <r>    22.1436     0.9699    61.8734 </r>
       <r>    22.2831     0.7806    61.9822 </r>
       <r>    22.4225     2.4524    62.3242 </r>
       <r>    22.5620     2.9537    62.7361 </r>
       <r>    22.7014     1.0869    62.8877 </r>
       <r>    22.8409     2.4434    63.2284 </r>
       <r>    22.9803     1.6949    63.4647 </r>
       <r>    23.1198     1.5955    63.6872 </r>
       <r>    23.2592     2.6562    64.0576 </r>
       <r>    23.3986     2.9475    64.4687 </r>
       <r>    23.5381     1.6912    64.7045 </r>
       <r>    23.6775     3.8558    65.2422 </r>
       <r>    23.8170     3.1862    65.6865 </r>
       <r>    23.9564     1.7908    65.9362 </r>
       <r>    24.0959     2.2154    66.2451 </r>
       <r>    24.2353     2.1459    66.5444 </r>
       <r>    24.3748     0.8770    66.6667 </r>
       <r>    24.5142     2.0302    66.9498 </r>
       <r>    24.6537     3.2325    67.4005 </r>
       <r>    24.7931     2.5114    67.7507 </r>
       <r>    24.9326     3.1400    68.1886 </r>
       <r>    25.0720     3.2981    68.6485 </r>
       <r>    25.2115     2.4664    68.9925 </r>
       <r>    25.3509     2.4896    69.3396 </r>
       <r>    25.4904     2.1387    69.6379 </r>
       <r>    25.6298     0.8322    69.7539 </r>
       <r>    25.7693     1.2341    69.9260 </r>
       <r>    25.9087     1.4503    70.1283 </r>
       <r>    26.0482     1.3409    70.3153 </r>
       <r>    26.1876     2.2739    70.6323 </r>
       <r>    26.3271     3.3116    71.0942 </r>
       <r>    26.4665     1.9498    71.3661 </r>
       <r>    26.6060     3.4941    71.8533 </r>
       <r>    26.7454     2.6431    72.2219 </r>
       <r>    26.8849     3.2901    72.6807 </r>
       <r>    27.0243     2.8326    73.0757 </r>
       <r>    27.1637     2.7279    73.4561 </r>
       <r>    27.3032     4.6316    74.1019 </r>
       <r>    27.4426     3.5186    74.5926 </r>
       <r>    27.5821     2.2244    74.9028 </r>
       <r>    27.7215     2.7075    75.2804 </r>
       <r>    27.8610     3.1359    75.7176 </r>
       <r>    28.0004     2.4300    76.0565 </r>
       <r>    28.1399     3.4810    76.5419 </r>
       <r>    28.2793     3.3565    77.0100 </r>
       <r>    28.4188     2.0423    77.2948 </r>
       <r>    28.5582     2.7959    77.6847 </r>
       <r>    28.6977     2.7222    78.0643 </r>
       <r>    28.8371     2.3647    78.3940 </r>
       <r>    28.9766     1.4636    78.5981 </r>
       <r>    29.1160     1.5753    78.8178 </r>
       <r>    29.2555     1.6976    79.0545 </r>
       <r>    29.3949     1.9528    79.3268 </r>
       <r>    29.5344     2.3570    79.6555 </r>
       <r>    29.6738     3.0457    80.0802 </r>
       <r>    29.8133     1.8490    80.3381 </r>
       <r>    29.9527     1.3377    80.5246 </r>
       <r>    30.0922     1.5494    80.7407 </r>
       <r>    30.2316     1.4847    80.9477 </r>
       <r>    30.3711     1.4622    81.1516 </r>
       <r>    30.5105     0.9236    81.2804 </r>
       <r>    30.6500     1.3611    81.4702 </r>
       <r>    30.7894     2.0764    81.7597 </r>
       <r>    30.9288     0.7056    81.8581 </r>
       <r>    31.0683     0.8531    81.9771 </r>
       <r>    31.2077     2.4724    82.3219 </r>
       <r>    31.3472     2.5671    82.6798 </r>
       <r>    31.4866     3.5449    83.1742 </r>
       <r>    31.6261     2.0243    83.4565 </r>
       <r>    31.7655     1.4111    83.6532 </r>
       <r>    31.9050     1.2132    83.8224 </r>
       <r>    32.0444     0.6511    83.9132 </r>
       <r>    32.1839     1.4651    84.1175 </r>
       <r>    32.3233     1.6793    84.3517 </r>
       <r>    32.4628     2.1273    84.6484 </r>
       <r>    32.6022     1.7170    84.8878 </r>
       <r>    32.7417     2.0038    85.1672 </r>
       <r>    32.8811     3.0309    85.5899 </r>
       <r>    33.0206     3.3864    86.0621 </r>
       <r>    33.1600     2.3556    86.3906 </r>
       <r>    33.2995     1.2071    86.5589 </r>
       <r>    33.4389     2.7586    86.9436 </r>
       <r>    33.5784     2.9565    87.3559 </r>
       <r>    33.7178     1.9918    87.6336 </r>
       <r>    33.8573     2.2741    87.9508 </r>
       <r>    33.9967     2.2154    88.2597 </r>
       <r>    34.1362     3.3523    88.7272 </r>
       <r>    34.2756     3.3969    89.2008 </r>
       <r>    34.4151     4.8040    89.8708 </r>
       <r>    34.5545     3.4723    90.3550 </r>
       <r>    34.6939     3.4210    90.8320 </r>
       <r>    34.8334     4.3106    91.4331 </r>
       <r>    34.9728     3.9889    91.9893 </r>
       <r>    35.1123     4.2224    92.5782 </r>
       <r>    35.2517     4.8037    93.2480 </r>
       <r>    35.3912     5.3504    93.9941 </r>
       <r>    35.5306     3.9222    94.5411 </r>
       <r>    35.6701     1.5562    94.7581 </r>
       <r>    35.8095     2.1071    95.0519 </r>
       <r>    35.9490     1.4879    95.2594 </r>
       <r>    36.0884     1.2447    95.4329 </r>
       <r>    36.2279     1.4177    95.6306 </r>
       <r>    36.3673     1.9009    95.8957 </r>
       <r>    36.5068     0.1167    95.9120 </r>
       <r>    36.6462     0.0999    95.9259 </r>
       <r>    36.7857     0.1463    95.9463 </r>
       <r>    36.9251     0.2411    95.9799 </r>
       <r>    37.0646     0.1319    95.9983 </r>
       <r>    37.2040     0.0018    95.9986 </r>
       <r>    37.3435    -0.0006    95.9985 </r>
       <r>    37.4829    -0.0001    95.9985 </r>
       <r>    37.6224     0.0015    95.9987 </r>
       <r>    37.7618     0.0095    96.0000 </r>
       <r>    37.9013    -0.0001    96.0000 </r>
       <r>    38.0407    -0.0000    96.0000 </r>
       <r>    38.1801    -0.0000    96.0000 </r>
       <r>    38.3196    -0.0000    96.0000 </r>
       <r>    38.4590     0.0000    96.0000 </r>
       <r>    38.5985     0.0000    96.0000 </r>
       <r>    38.7379     0.0000    96.0000 </r>
       <r>    38.8774     0.0000    96.0000 </r>
       <r>    39.0168     0.0000    96.0000 </r>
       <r>    39.1563     0.0000    96.0000 </r>
       <r>    39.2957     0.0000    96.0000 </r>
       <r>    39.4352     0.0000    96.0000 </r>
       <r>    39.5746     0.0000    96.0000 </r>
      </set>
     </set>
    </array>
   </total>
  </dos>
 </calculation>
 <structure name="finalpos" >
  <crystal>
   <varray name="basis" >
    <v>       4.08000000       0.00000000       0.00000000 </v>
    <v>       0.00000000       4.08000000       0.00000000 </v>
    <v>       0.00000000       0.00000000       4.08000000 </v>
   </varray>
   <i name="volume">     67.91731200 </i>
   <varray name="rec_basis" >
    <v>       0.24509804       0.00000000       0.00000000 </v>
    <v>       0.00000000       0.24509804       0.00000000 </v>
    <v>       0.00000000       0.00000000       0.24509804 </v>
   </varray>
  </crystal>
  <varray name="positions" >
   <v>       0.00000000       0.00000000       0.00000000 </v>
   <v>       0.00000000       0.50000000       0.50000000 </v>
   <v>       0.50000000       0.00000000       0.50000000 </v>
   <v>       0.50000000       0.50000000       0.00000000 </v>
  </varray>
 </structure>
</modeling>
