----- GAMESS execution script 'rungms' -----
This job is running on host crcfe01.crc.nd.edu
under operating system Linux at Thu Oct 17 12:46:20 EDT 2019
Available scratch disk space (Kbyte units) at beginning of the job is
Filesystem      1K-blocks  Used  Available Use% Mounted on
AFS            2147483647     0 2147483647   0% /afs
GAMESS temporary binary files will be written to /afs/crc.nd.edu/user/c/cdrisko
GAMESS supplementary output files will be written to /afs/crc.nd.edu/user/c/cdrisko/scr
Copying input file acetaldehyde.inp to your run's scratch directory...

 Distributed Data Interface kickoff program.
 Initiating 1 compute processes on 1 nodes to run the following command:
 /afs/crc.nd.edu/x86_64_linux/g/gamess/nov-2017/gamess/gamess.00.x acetaldehyde 

          ******************************************************
          *         GAMESS VERSION = 11 NOV 2017 (R3)         *
          *             FROM IOWA STATE UNIVERSITY             *
          * M.W.SCHMIDT, K.K.BALDRIDGE, J.A.BOATZ, S.T.ELBERT, *
          *   M.S.GORDON, J.H.JENSEN, S.KOSEKI, N.MATSUNAGA,   *
          *          K.A.NGUYEN, S.J.SU, T.L.WINDUS,           *
          *       TOGETHER WITH M.DUPUIS, J.A.MONTGOMERY       *
          *         J.COMPUT.CHEM.  14, 1347-1363(1993)        *
          **************** 64 BIT INTEL VERSION ****************

  SINCE 1993, STUDENTS AND POSTDOCS WORKING AT IOWA STATE UNIVERSITY
  AND ALSO IN THEIR VARIOUS JOBS AFTER LEAVING ISU HAVE MADE IMPORTANT
  CONTRIBUTIONS TO THE CODE:
     IVANA ADAMOVIC, CHRISTINE AIKENS, YURI ALEXEEV, POOJA ARORA,
     ANDREY ASADCHEV, ROB BELL, PRADIPTA BANDYOPADHYAY, JONATHAN BENTZ,
     BRETT BODE, KURT BRORSEN, CALEB CARLIN, GALINA CHABAN, WEI CHEN,
     CHEOL HO CHOI, PAUL DAY, ALBERT DEFUSCO, NUWAN DESILVA, TIM DUDLEY,
     DMITRI FEDOROV, ALEX FINDLATER, GRAHAM FLETCHER, MARK FREITAG,
     KURT GLAESEMANN, ANASTASIA GUININA,
     DAN KEMP, GRANT MERRILL, NORIYUKI MINEZAWA, JONATHAN MULLIN,
     TAKESHI NAGATA, SEAN NEDD, HEATHER NETZLOFF, BOSILJKA NJEGIC, RYAN OLSON,
     MIKE PAK, BUU PHAM,
     SPENCER PRUITT, LUKE ROSKOP, JIM SHOEMAKER, LYUDMILA SLIPCHENKO,
     TONY SMITH, SAROM SOK LEANG, JIE SONG, TETSUYA TAKETSUGU, SIMON WEBB,
     PENG XU, SOOHAENG YOO, FEDERICO ZAHARIEV

  ADDITIONAL CODE HAS BEEN PROVIDED BY COLLABORATORS IN OTHER GROUPS:
     IOWA STATE UNIVERSITY:
          JOE IVANIC, AARON WEST, LAIMUTIS BYTAUTAS, KLAUS RUEDENBERG
     UNIVERSITY OF TOKYO: KIMIHIKO HIRAO, TAKAHITO NAKAJIMA,
          TAKAO TSUNEDA, MUNEAKI KAMIYA, SUSUMU YANAGISAWA,
          KIYOSHI YAGI, MAHITO CHIBA, SEIKEN TOKURA, NAOAKI KAWAKAMI
     UNIVERSITY OF AARHUS: FRANK JENSEN
     UNIVERSITY OF IOWA: VISVALDAS KAIRYS, HUI LI
     NATIONAL INST. OF STANDARDS AND TECHNOLOGY: WALT STEVENS, DAVID GARMER
     UNIVERSITY OF PISA: BENEDETTA MENNUCCI, JACOPO TOMASI
     UNIVERSITY OF MEMPHIS: HENRY KURTZ, PRAKASHAN KORAMBATH
     UNIVERSITY OF ALBERTA: TOBY ZENG, MARIUSZ KLOBUKOWSKI
     UNIVERSITY OF NEW ENGLAND: MARK SPACKMAN
     MIE UNIVERSITY: HIROAKI UMEDA
     NAT. INST. OF ADVANCED INDUSTRIAL SCIENCE AND TECHNOLOGY: KAZUO KITAURA
     MICHIGAN STATE UNIVERSITY:
          KAROL KOWALSKI, MARTA WLOCH, JEFFREY GOUR, JESSE LUTZ,
          WEI LI, PIOTR PIECUCH
     UNIVERSITY OF SILESIA: MONIKA MUSIAL, STANISLAW KUCHARSKI
     FACULTES UNIVERSITAIRES NOTRE-DAME DE LA PAIX:
          OLIVIER QUINET, BENOIT CHAMPAGNE
     UNIVERSITY OF CALIFORNIA - SANTA BARBARA: BERNARD KIRTMAN
     INSTITUTE FOR MOLECULAR SCIENCE:
          KAZUYA ISHIMURA, MICHIO KATOUDA, AND SHIGERU NAGASE
     UNIVERSITY OF NOTRE DAME: ANNA POMOGAEVA, DAN CHIPMAN
     KYUSHU UNIVERSITY:
          HARUYUKI NAKANO,
          FENG LONG GU, JACEK KORCHOWIEC, MARCIN MAKOWSKI, AND YURIKO AOKI,
          HIROTOSHI MORI AND EISAKU MIYOSHI
     PENNSYLVANIA STATE UNIVERSITY:
          TZVETELIN IORDANOV, CHET SWALINA, JONATHAN SKONE,
          SHARON HAMMES-SCHIFFER
     WASEDA UNIVERSITY:
          MASATO KOBAYASHI, TOMOKO AKAMA, TSUGUKI TOUMA,
          TAKESHI YOSHIKAWA, YASUHIRO IKABATA, JUNJI SEINO,
          YUYA NAKAJIMA, HIROMI NAKAI
     NANJING UNIVERSITY: SHUHUA LI
     UNIVERSITY OF NEBRASKA:
          PEIFENG SU, DEJUN SI, NANDUN THELLAMUREGE, YALI WANG, HUI LI
     UNIVERSITY OF ZURICH: ROBERTO PEVERATI, KIM BALDRIDGE
     N. COPERNICUS UNIVERSITY AND JACKSON STATE UNIVERSITY:
          MARIA BARYSZ
     UNIVERSITY OF COPENHAGEN: Jimmy Kromann, CASPER STEINMANN
     TOKYO INSTITUTE OF TECHNOLOGY: HIROYA NAKATA
     NAGOYA UNIVERSITY: YOSHIO NISHIMOTO, STEPHAN IRLE
     MOSCOW STATE UNIVERSITY: VLADIMIR MIRONOV

 EXECUTION OF GAMESS BEGUN Thu Oct 17 12:46:20 2019

            ECHO OF THE FIRST FEW INPUT CARDS -
 INPUT CARD> $CONTRL SCFTYP=RHF DFTTYP=B3LYP RUNTYP=ENERGY                                  
 INPUT CARD>       ISPHER=1 MULT=1 COORD=ZMT NZVAR=15 $END                                  
 INPUT CARD> $BASIS GBASIS=N31 NGAUSS=6 NDFUNC=1 $END                                       
 INPUT CARD> $STATPT IFREEZ(1)=9 $END                                                       
 INPUT CARD> $DATA                                                                          
 INPUT CARD>Title Single Point Energy Calculation of Acetaldehyde                           
 INPUT CARD>C1                                                                              
 INPUT CARD>C                                                                               
 INPUT CARD>C      1   1.5086892                                                            
 INPUT CARD>O      2   1.2107245  1  124.7161                                               
 INPUT CARD>H      2   1.1145804  1  114.7739  3  180.0000  0                               
 INPUT CARD>H      1   1.0926781  2  110.5176  3  90.      0                                
 INPUT CARD>H      1   1.0983769  2  109.8265  3  121.4889  0                               
 INPUT CARD>H      1   1.0983769  2  109.8265  3 -121.4889  0                               
 INPUT CARD> $END                                                                           
    1000000 WORDS OF MEMORY AVAILABLE

     BASIS OPTIONS
     -------------
     GBASIS=N31          IGAUSS=       6      POLAR=POPN31  
     NDFUNC=       1     NFFUNC=       0     DIFFSP=       F
     NPFUNC=       0      DIFFS=       F     BASNAM=        


     RUN TITLE
     ---------
 Title Single Point Energy Calculation of Acetaldehyde                           

 THE POINT GROUP OF THE MOLECULE IS C1      
 THE ORDER OF THE PRINCIPAL AXIS IS     0

 YOUR FULLY SUBSTITUTED Z-MATRIX IS
 C   
 C      1   1.5086892
 O      2   1.2107245  1  124.7161
 H      2   1.1145804  1  114.7739  3  180.0000  0
 H      1   1.0926781  2  110.5176  3   90.0000  0
 H      1   1.0983769  2  109.8265  3  121.4889  0
 H      1   1.0983769  2  109.8265  3 -121.4889  0

 THE MOMENTS OF INERTIA ARE (AMU-ANGSTROM**2)
 IXX=     8.325   IYY=    52.334   IZZ=    55.671

 ATOM      ATOMIC                      COORDINATES (BOHR)
           CHARGE         X                   Y                   Z
 C           6.0    -2.3595470572        0.3897915125        0.1729908626
 C           6.0     0.2414734668       -0.7557799310       -0.0519795693
 O           8.0     2.1975242142        0.4290070306        0.0173282163
 H           1.0     0.2664258381       -2.8476224774       -0.2966583813
 H           1.0    -3.0873114546        0.9043319200       -1.6896049237
 H           1.0    -3.4760514353       -0.0611612490       -1.5176614298
 H           1.0    -3.3598177864       -0.4464378040        1.7880526546

          INTERNUCLEAR DISTANCES (ANGS.)
          ------------------------------

                1 C          2 C          3 O          4 H          5 H     

   1 C       0.0000000    1.5086892 *  2.4129941 *  2.2198436 *  1.0926781 *
   2 C       1.5086892 *  0.0000000    1.2107245 *  1.1145804 *  2.1507392 *
   3 O       2.4129941 *  1.2107245 *  0.0000000    2.0194911 *  2.9496134 *
   4 H       2.2198436 *  1.1145804 *  2.0194911 *  0.0000000    2.7631473 *
   5 H       1.0926781 *  2.1507392 *  2.9496134 *  2.7631473 *  0.0000000  
   6 H       1.0983769 *  2.1463151 *  3.1210656    2.5522231 *  0.5582407 *
   7 H       1.0983769 *  2.1463151 *  3.1210656    2.5522231 *  1.9795007 *

                6 H          7 H     

   1 C       1.0983769 *  1.0983769 *
   2 C       2.1463151 *  2.1463151 *
   3 O       3.1210656    3.1210656  
   4 H       2.5522231 *  2.5522231 *
   5 H       0.5582407 *  1.9795007 *
   6 H       0.0000000    1.7622233 *
   7 H       1.7622233 *  0.0000000  

  * ... LESS THAN  3.000


     ATOMIC BASIS SET
     ----------------
 THE CONTRACTED PRIMITIVE FUNCTIONS HAVE BEEN UNNORMALIZED
 THE CONTRACTED BASIS FUNCTIONS ARE NOW NORMALIZED TO UNITY

  SHELL TYPE  PRIMITIVE        EXPONENT          CONTRACTION COEFFICIENT(S)

 C         

      1   S       1          3047.5248800    0.001834737132
      1   S       2           457.3695180    0.014037322813
      1   S       3           103.9486850    0.068842622264
      1   S       4            29.2101553    0.232184443216
      1   S       5             9.2866630    0.467941348435
      1   S       6             3.1639270    0.362311985337

      2   L       7             7.8682723   -0.119332419775    0.068999066591
      2   L       8             1.8812885   -0.160854151696    0.316423960957
      2   L       9             0.5442493    1.143456437840    0.744308290898

      3   L      10             0.1687145    1.000000000000    1.000000000000

      4   D      11             0.8000000    1.000000000000

 C         

      5   S      12          3047.5248800    0.001834737132
      5   S      13           457.3695180    0.014037322813
      5   S      14           103.9486850    0.068842622264
      5   S      15            29.2101553    0.232184443216
      5   S      16             9.2866630    0.467941348435
      5   S      17             3.1639270    0.362311985337

      6   L      18             7.8682723   -0.119332419775    0.068999066591
      6   L      19             1.8812885   -0.160854151696    0.316423960957
      6   L      20             0.5442493    1.143456437840    0.744308290898

      7   L      21             0.1687145    1.000000000000    1.000000000000

      8   D      22             0.8000000    1.000000000000

 O         

      9   S      23          5484.6716600    0.001831074430
      9   S      24           825.2349460    0.013950172200
      9   S      25           188.0469580    0.068445078098
      9   S      26            52.9645000    0.232714335992
      9   S      27            16.8975704    0.470192897984
      9   S      28             5.7996353    0.358520852987

     10   L      29            15.5396162   -0.110777549525    0.070874268231
     10   L      30             3.5999336   -0.148026262701    0.339752839147
     10   L      31             1.0137618    1.130767015354    0.727158577316

     11   L      32             0.2700058    1.000000000000    1.000000000000

     12   D      33             0.8000000    1.000000000000

 H         

     13   S      34            18.7311370    0.033494604338
     13   S      35             2.8253944    0.234726953484
     13   S      36             0.6401217    0.813757326146

     14   S      37             0.1612778    1.000000000000

 H         

     15   S      38            18.7311370    0.033494604338
     15   S      39             2.8253944    0.234726953484
     15   S      40             0.6401217    0.813757326146

     16   S      41             0.1612778    1.000000000000

 H         

     17   S      42            18.7311370    0.033494604338
     17   S      43             2.8253944    0.234726953484
     17   S      44             0.6401217    0.813757326146

     18   S      45             0.1612778    1.000000000000

 H         

     19   S      46            18.7311370    0.033494604338
     19   S      47             2.8253944    0.234726953484
     19   S      48             0.6401217    0.813757326146

     20   S      49             0.1612778    1.000000000000

 TOTAL NUMBER OF BASIS SET SHELLS             =   20
 NUMBER OF CARTESIAN GAUSSIAN BASIS FUNCTIONS =   53
 NOTE: THIS RUN WILL RESTRICT THE MO VARIATION SPACE TO SPHERICAL HARMONICS.
 THE NUMBER OF ORBITALS KEPT IN THE VARIATIONAL SPACE WILL BE PRINTED LATER.
 NUMBER OF ELECTRONS                          =   24
 CHARGE OF MOLECULE                           =    0
 SPIN MULTIPLICITY                            =    1
 NUMBER OF OCCUPIED ORBITALS (ALPHA)          =   12
 NUMBER OF OCCUPIED ORBITALS (BETA )          =   12
 TOTAL NUMBER OF ATOMS                        =    7
 THE NUCLEAR REPULSION ENERGY IS       69.9003211110

     LEBEDEV GRID-BASED DFT OPTIONS
     ------------------------------
     DFTTYP=B3LYP   
     NRAD  =      96     NLEB  =     302
     NRAD0 =      24     NLEB0 =     110
     SWOFF =    5.00E-03 (PURE SCF -> DFT)
     SWITCH=    3.00E-04 (COARSE -> TIGHT GRID)
     THRESH=    0.00E+00 GTHRE=    1.00E+00

 GRIMME'S EMPIRICAL DISPERSION CORRECTION= F

     $CONTRL OPTIONS
     ---------------
 SCFTYP=RHF          RUNTYP=ENERGY       EXETYP=RUN     
 MPLEVL=       0     CITYP =NONE         CCTYP =NONE         VBTYP =NONE    
 DFTTYP=B3LYP        TDDFT =NONE    
 MULT  =       1     ICHARG=       0     NZVAR =      15     COORD =ZMT     
 PP    =NONE         RELWFN=NONE         LOCAL =NONE         NUMGRD=       F
 ISPHER=       1     NOSYM =       0     MAXIT =      30     UNITS =ANGS    
 PLTORB=       F     MOLPLT=       F     AIMPAC=       F     FRIEND=        
 NPRINT=       7     IREST =       0     GEOM  =INPUT   
 NORMF =       0     NORMP =       0     ITOL  =      20     ICUT  =       9
 INTTYP=BEST         GRDTYP=BEST         QMTTOL= 1.0E-06

     $SYSTEM OPTIONS
     ---------------
  REPLICATED MEMORY=     1000000 WORDS (ON EVERY NODE).
 DISTRIBUTED MEMDDI=           0 MILLION WORDS IN AGGREGATE,
 MEMDDI DISTRIBUTED OVER   1 PROCESSORS IS           0 WORDS/PROCESSOR.
 TOTAL MEMORY REQUESTED ON EACH PROCESSOR=     1000000 WORDS.
 TIMLIM=      525600.00 MINUTES, OR     365.0 DAYS.
 PARALL= F  BALTYP=  DLB     KDIAG=    0  COREFL= F
 MXSEQ2=     300 MXSEQ3=     150  mem10=         0

          ----------------
          PROPERTIES INPUT
          ----------------

     MOMENTS            FIELD           POTENTIAL          DENSITY
 IEMOM =       1   IEFLD =       0   IEPOT =       0   IEDEN =       0
 WHERE =COMASS     WHERE =NUCLEI     WHERE =NUCLEI     WHERE =NUCLEI  
 OUTPUT=BOTH       OUTPUT=BOTH       OUTPUT=BOTH       OUTPUT=BOTH    
 IEMINT=       0   IEFINT=       0                     IEDINT=       0
                                                       MORB  =       0
          EXTRAPOLATION IN EFFECT
          DIIS IN EFFECT
 ORBITAL PRINTING OPTION: NPREO=     1    53     2     1

     -------------------------------
     INTEGRAL TRANSFORMATION OPTIONS
     -------------------------------
     NWORD  =            0
     CUTOFF = 1.0E-09     MPTRAN =       0
     DIRTRF =       F     AOINTS =DUP     

          ----------------------
          INTEGRAL INPUT OPTIONS
          ----------------------
 NOPK  =       1 NORDER=       0 SCHWRZ=       T

   --- ENCODED Z MATRIX ---
 COORD  TYPE   I   J   K   L   M   N
    1      1    2   1
    2      1    3   2
    3      2    3   2   1
    4      1    4   2
    5      2    4   2   1
    6      3    4   2   1   3
    7      1    5   1
    8      2    5   1   2
    9      3    5   1   2   3
   10      1    6   1
   11      2    6   1   2
   12      3    6   1   2   3
   13      1    7   1
   14      2    7   1   2
   15      3    7   1   2   3

 THE DETERMINANT OF THE G MATRIX IS 10**(    -8)


                     --------------------
                     INTERNAL COORDINATES
                     --------------------

                 - - ATOMS - -         COORDINATE      COORDINATE
 NO.   TYPE    I  J  K  L  M  N        (BOHR,RAD)       (ANG,DEG)
 ----------------------------------------------------------------
   1 STRETCH   2  1                     2.8510092       1.5086892
   2 STRETCH   3  2                     2.2879376       1.2107245
   3 BEND      3  2  1                  2.1767066     124.7161000
   4 STRETCH   4  2                     2.1062515       1.1145804
   5 BEND      4  2  1                  2.0031825     114.7739000
   6 TORSION   4  2  1  3               3.1415927     180.0000000
   7 STRETCH   5  1                     2.0648622       1.0926781
   8 BEND      5  1  2                  1.9288960     110.5176000
   9 TORSION   5  1  2  3               1.5707963      90.0000000
  10 STRETCH   6  1                     2.0756314       1.0983769
  11 BEND      6  1  2                  1.9168340     109.8265000
  12 TORSION   6  1  2  3               2.1203813     121.4889000
  13 STRETCH   7  1                     2.0756314       1.0983769
  14 BEND      7  1  2                  1.9168340     109.8265000
  15 TORSION   7  1  2  3              -2.1203813    -121.4889000

     ------------------------------------------
     THE POINT GROUP IS C1 , NAXIS= 0, ORDER= 1
     ------------------------------------------

 -- VARIATIONAL SPACE WILL BE RESTRICTED TO PURE SPHERICAL HARMONICS ONLY --
 AFTER EXCLUDING CONTAMINANT COMBINATIONS FROM THE CARTESIAN GAUSSIAN BASIS
 SET, THE NUMBER OF SPHERICAL HARMONICS KEPT IN THE VARIATION SPACE IS   50

     DIMENSIONS OF THE SYMMETRY SUBSPACES ARE
 A   =   50

 ..... DONE SETTING UP THE RUN .....
 STEP CPU TIME =     0.01 TOTAL CPU TIME =          0.0 (      0.0 MIN)
 TOTAL WALL CLOCK TIME=          0.0 SECONDS, CPU UTILIZATION IS    50.00%

          ********************
          1 ELECTRON INTEGRALS
          ********************
 ...... END OF ONE-ELECTRON INTEGRALS ......
 STEP CPU TIME =     0.00 TOTAL CPU TIME =          0.0 (      0.0 MIN)
 TOTAL WALL CLOCK TIME=          0.0 SECONDS, CPU UTILIZATION IS    50.00%

          -------------
          GUESS OPTIONS
          -------------
          GUESS =HUCKEL            NORB  =       0          NORDER=       0
          MIX   =       F          PRTMO =       F          PUNMO =       F
          TOLZ  = 1.0E-08          TOLE  = 1.0E-05
          SYMDEN=       F          PURIFY=       F

 INITIAL GUESS ORBITALS GENERATED BY HUCKEL   ROUTINE.
 HUCKEL GUESS REQUIRES     27154 WORDS.

 STATISTICS FOR GENERATION OF SYMMETRY ORBITAL -Q- MATRIX
 NUMBER OF CARTESIAN ATOMIC ORBITALS=         53
 NUMBER OF SPHERICAL CONTAMINANTS DROPPED=     3
 NUMBER OF LINEARLY DEPENDENT MOS DROPPED=     0
 TOTAL NUMBER OF MOS IN VARIATION SPACE=      50

 SYMMETRIES FOR INITIAL GUESS ORBITALS FOLLOW.   BOTH SET(S).
    12 ORBITALS ARE OCCUPIED (    3 CORE ORBITALS).
     4=A        5=A        6=A        7=A        8=A        9=A       10=A   
    11=A       12=A       13=A       14=A       15=A       16=A       17=A   
    18=A       19=A       20=A       21=A       22=A   
 ...... END OF INITIAL ORBITAL SELECTION ......
 STEP CPU TIME =     0.00 TOTAL CPU TIME =          0.0 (      0.0 MIN)
 TOTAL WALL CLOCK TIME=          0.0 SECONDS, CPU UTILIZATION IS    50.00%

                    ----------------------
                    AO INTEGRAL TECHNOLOGY
                    ----------------------
     S,P,L SHELL ROTATED AXIS INTEGRALS, REPROGRAMMED BY
        KAZUYA ISHIMURA (IMS) AND JOSE SIERRA (SYNSTAR).
     S,P,D,L SHELL ROTATED AXIS INTEGRALS PROGRAMMED BY
        KAZUYA ISHIMURA (INSTITUTE FOR MOLECULAR SCIENCE).
     S,P,D,F,G SHELL TO TOTAL QUARTET ANGULAR MOMENTUM SUM 5,
        ERIC PROGRAM BY GRAHAM FLETCHER (ELORET AND NASA ADVANCED
        SUPERCOMPUTING DIVISION, AMES RESEARCH CENTER).
     S,P,D,F,G,L SHELL GENERAL RYS QUADRATURE PROGRAMMED BY
        MICHEL DUPUIS (PACIFIC NORTHWEST NATIONAL LABORATORY).

          --------------------
          2 ELECTRON INTEGRALS
          --------------------

 THE -PK- OPTION IS OFF, THE INTEGRALS ARE NOT IN SUPERMATRIX FORM.
 STORING   15000 INTEGRALS/RECORD ON DISK, USING 12 BYTES/INTEGRAL.
 TWO ELECTRON INTEGRAL EVALUATION REQUIRES   90606 WORDS OF MEMORY.
 SCHWARZ INEQUALITY OVERHEAD:      1430 INTEGRALS, T=        0.00
 II,JST,KST,LST =  1  1  1  1 NREC =         1 INTLOC =    1
 II,JST,KST,LST =  2  1  1  1 NREC =         1 INTLOC =    2
 II,JST,KST,LST =  3  1  1  1 NREC =         1 INTLOC =   34
 II,JST,KST,LST =  4  1  1  1 NREC =         1 INTLOC =  214
 II,JST,KST,LST =  5  1  1  1 NREC =         1 INTLOC = 1189
 II,JST,KST,LST =  6  1  1  1 NREC =         1 INTLOC = 3237
 II,JST,KST,LST =  7  1  1  1 NREC =         2 INTLOC =  987
 II,JST,KST,LST =  8  1  1  1 NREC =         3 INTLOC = 8245
 II,JST,KST,LST =  9  1  1  1 NREC =         7 INTLOC = 6181
 II,JST,KST,LST = 10  1  1  1 NREC =         8 INTLOC = 3515
 II,JST,KST,LST = 11  1  1  1 NREC =        13 INTLOC = 1016
 II,JST,KST,LST = 12  1  1  1 NREC =        19 INTLOC =14727
 II,JST,KST,LST = 13  1  1  1 NREC =        34 INTLOC =10230
 II,JST,KST,LST = 14  1  1  1 NREC =        37 INTLOC =13211
 II,JST,KST,LST = 15  1  1  1 NREC =        41 INTLOC = 4755
 II,JST,KST,LST = 16  1  1  1 NREC =        44 INTLOC =12543
 II,JST,KST,LST = 17  1  1  1 NREC =        48 INTLOC =10865
 II,JST,KST,LST = 18  1  1  1 NREC =        52 INTLOC = 9963
 II,JST,KST,LST = 19  1  1  1 NREC =        57 INTLOC =  680
 II,JST,KST,LST = 20  1  1  1 NREC =        61 INTLOC = 7324
 SCHWARZ INEQUALITY TEST SKIPPED         877 INTEGRAL BLOCKS.
 TOTAL NUMBER OF NONZERO TWO-ELECTRON INTEGRALS =              981070
         66 INTEGRAL RECORDS WERE STORED ON DISK FILE  8.
  ...... END OF TWO-ELECTRON INTEGRALS .....
 STEP CPU TIME =     0.11 TOTAL CPU TIME =          0.1 (      0.0 MIN)
 TOTAL WALL CLOCK TIME=          0.1 SECONDS, CPU UTILIZATION IS    92.31%

          --------------------------
             R-B3LYP SCF CALCULATION
          --------------------------

     NUCLEAR ENERGY =        69.9003211110
     MAXIT =   30     NPUNCH=    2
     EXTRAP=T  DAMP=F  SHIFT=F  RSTRCT=F  DIIS=T  DEM=F  SOSCF=F
         DENSITY MATRIX CONVERGENCE THRESHOLD=  1.00E-05
     COARSE -> FINE DFT GRID SWITCH THRESHOLD=  3.00E-04 (SWITCH IN $DFT)
                   HF -> DFT SWITCH THRESHOLD=  5.00E-03 (SWOFF IN $DFT)
     MEMORY REQUIRED FOR RHF ITERS=    307426 WORDS.

 DFT CODE IS SWITCHING FROM THE FINE GRID NRAD= 96,  NLEB=  302
                      TO THE COARSE GRID NRAD0= 24, NLEB0=  110

     EXCHANGE FUNCTIONAL   =B88&HFX   
     CORRELATION FUNCTIONAL=LYP88&VWN5
     DFT THRESHOLD         =.197E-07
     GRID CHANGE THRESHOLD =.300E-03
 FOR AN EULER-MACLAURIN QUADRATURE USING  96 RADIAL POINTS:
 SMALLEST GAUSSIAN PRIMITIVE EXPONENT=        0.1612777588 OF TYPE -S-
 ON ATOM NUMBER   4 HAS RADIAL NORMALIZATION=  1.000000
  LARGEST GAUSSIAN PRIMITIVE EXPONENT=     5484.6716600000 OF TYPE -S-
 ON ATOM NUMBER   3 HAS RADIAL NORMALIZATION=  1.000000
 DFT IS SWITCHED OFF, PERFORMING PURE SCF UNTIL SWOFF THRESHOLD IS REACHED.

 ITER EX DEM     TOTAL ENERGY        E CHANGE  DENSITY CHANGE    DIIS ERROR
   1  0  0     -152.0745759985  -152.0745759985   0.291646129   0.523272064
          * * *   INITIATING DIIS PROCEDURE   * * *
   2  1  0     -152.5883334962    -0.5137574977   0.132885018   0.111795658
   3  2  0     -152.6207941569    -0.0324606608   0.068848885   0.073508877
   4  3  0     -152.6411612321    -0.0203670751   0.035727925   0.008418399
   5  4  0     -152.6422031032    -0.0010418711   0.010856023   0.002736517
   6  5  0     -152.6423239645    -0.0001208614   0.007540737   0.001059434
   7  6  0     -152.6423521117    -0.0000281472   0.003292324   0.000471340
 CONVERGED TO SWOFF, SO DFT CALCULATION IS NOW SWITCHED ON.
          * * *   INITIATING DIIS PROCEDURE   * * *
   8  7  0     -153.4622081612    -0.8198560495   0.108153828   0.052446372
   9  8  0     -153.4731643954    -0.0109562342   0.057654919   0.034384032
  10  9  0     -153.4705208264     0.0026435690   0.043259164   0.048127459
  11 10  0     -153.4762147939    -0.0056939675   0.009524809   0.009238529
  12 11  0     -153.4763912905    -0.0001764967   0.003694569   0.000795224
  13 12  0     -153.4763950120    -0.0000037214   0.000673678   0.000143793
  14 13  0     -153.4763951591    -0.0000001471   0.000138787   0.000059221
 DFT CODE IS SWITCHING BACK TO THE FINE GRID
          * * *   INITIATING DIIS PROCEDURE   * * *
  15 14  0     -153.4755703397     0.0008248194   0.002282041   0.001628333
  16 15  0     -153.4755783205    -0.0000079808   0.000829525   0.000282005
  17 16  0     -153.4755778132     0.0000005073   0.000493740   0.000511846
  18 17  0     -153.4755786354    -0.0000008222   0.000051424   0.000054873
  19 18  0     -153.4755786410    -0.0000000056   0.000039179   0.000014535
  20 19  0     -153.4755786416    -0.0000000006   0.000016662   0.000004790
  21 20  0     -153.4755786418    -0.0000000001   0.000002768   0.000000781

          -----------------
          DENSITY CONVERGED
          -----------------
     TIME TO FORM FOCK OPERATORS=       5.1 SECONDS (       0.2 SEC/ITER)
     TIME TO SOLVE SCF EQUATIONS=       0.0 SECONDS (       0.0 SEC/ITER)

 FINAL R-B3LYP ENERGY IS     -153.4755786418 AFTER  21 ITERATIONS
 DFT EXCHANGE + CORRELATION ENERGY =       -16.8508210420
 TOTAL ELECTRON NUMBER             =        23.9999580450

          ------------
          EIGENVECTORS
          ------------

                      1          2          3          4          5
                  -19.1461   -10.2732   -10.1930    -1.0419    -0.8698
                     A          A          A          A          A   
    1  C  1  S   -0.000009   0.000966   0.995155  -0.019711  -0.145176
    2  C  1  S   -0.000511  -0.001031   0.035888   0.038634   0.285548
    3  C  1  X   -0.000262  -0.000938  -0.000751   0.021674  -0.066637
    4  C  1  Y    0.000051   0.000357  -0.001787  -0.007409  -0.035106
    5  C  1  Z    0.000026  -0.000004  -0.001639  -0.008669  -0.150973
    6  C  1  S    0.000715   0.005601  -0.027743   0.015562   0.173882
    7  C  1  X   -0.001113   0.002658  -0.000135   0.003423  -0.019244
    8  C  1  Y   -0.001392  -0.002043   0.004876   0.004600  -0.014461
    9  C  1  Z   -0.000111  -0.000052   0.001390  -0.000962  -0.012283
   10  C  1 XX   -0.000381  -0.000962   0.000039   0.004448  -0.004243
   11  C  1 YY    0.000374   0.000244  -0.000231  -0.003641  -0.016133
   12  C  1 ZZ    0.000007   0.000718   0.000192  -0.000808   0.020376
   13  C  1 XY   -0.000164   0.000715  -0.000031  -0.002268   0.000511
   14  C  1 XZ   -0.000011   0.000158   0.000191  -0.000197   0.014837
   15  C  1 YZ    0.000065  -0.000109  -0.000152  -0.000087  -0.000238
   16  C  2  S    0.000231   0.995153  -0.000922  -0.117188  -0.029088
   17  C  2  S    0.000032   0.035695  -0.001227   0.223529   0.051792
   18  C  2  X   -0.000048   0.001699   0.000463   0.155812  -0.097476
   19  C  2  Y   -0.000228   0.001318  -0.000424   0.097910  -0.000843
   20  C  2  Z   -0.000023   0.000142  -0.000068   0.005507  -0.008584
   21  C  2  S    0.008876  -0.016095   0.005912   0.086410   0.057854
   22  C  2  X    0.005261   0.005857  -0.004576  -0.014847  -0.024184
   23  C  2  Y    0.005009   0.002449   0.000560  -0.018117   0.005243
   24  C  2  Z    0.000387   0.000016   0.000140  -0.002781  -0.009324
   25  C  2 XX   -0.000553   0.001353  -0.000875   0.017127   0.004576
   26  C  2 YY    0.000272  -0.000180   0.000418  -0.002163  -0.001497
   27  C  2 ZZ    0.000281  -0.001173   0.000457  -0.014964  -0.003079
   28  C  2 XY   -0.000778   0.001260   0.000734   0.022365  -0.009383
   29  C  2 XZ   -0.000057   0.000057   0.000125   0.001405   0.001564
   30  C  2 YZ    0.000025   0.000090  -0.000027   0.000929  -0.000806
   31  O  3  S    0.995115  -0.000049  -0.000028  -0.194542   0.031856
   32  O  3  S    0.029430   0.000441  -0.000639   0.430384  -0.071172
   33  O  3  X   -0.001954   0.000969   0.000138  -0.139475   0.005950
   34  O  3  Y   -0.001186   0.000520  -0.000030  -0.084936   0.014200
   35  O  3  Z   -0.000075   0.000019  -0.000004  -0.005548  -0.001675
   36  O  3  S   -0.019390  -0.005819   0.001977   0.375036  -0.070434
   37  O  3  X    0.005100   0.003676  -0.000438  -0.040511   0.003582
   38  O  3  Y    0.002726   0.002686  -0.000617  -0.024552   0.001158
   39  O  3  Z    0.000143   0.000199  -0.000049  -0.001708   0.002044
   40  O  3 XX   -0.000187  -0.001131  -0.000013   0.005821   0.000528
   41  O  3 YY    0.000104   0.000020   0.000220  -0.003256  -0.000372
   42  O  3 ZZ    0.000083   0.001111  -0.000206  -0.002565  -0.000156
   43  O  3 XY   -0.000114  -0.001493   0.000115   0.010189  -0.000936
   44  O  3 XZ   -0.000002  -0.000077   0.000008   0.000778  -0.000042
   45  O  3 YZ    0.000005  -0.000091   0.000044  -0.000280   0.000014
   46  H  4  S   -0.000238  -0.000971  -0.000529   0.027762   0.015253
   47  H  4  S    0.001163   0.004960   0.000511  -0.012547  -0.000329
   48  H  5  S    0.000117  -0.000362  -0.000842   0.015109   0.279512
   49  H  5  S   -0.000122   0.001071   0.000977   0.001989   0.050214
   50  H  6  S   -0.000104  -0.000300  -0.000640   0.015104   0.284817
   51  H  6  S   -0.000452  -0.000045   0.005919  -0.000119   0.056703
   52  H  7  S   -0.000058  -0.000509  -0.000634   0.005878   0.059365
   53  H  7  S   -0.000543   0.000563   0.005755  -0.000054  -0.000422

                      6          7          8          9         10
                   -0.6362    -0.5206    -0.4664    -0.4255    -0.3764
                     A          A          A          A          A   
    1  C  1  S   -0.056909  -0.093580   0.010245   0.005165   0.017601
    2  C  1  S    0.102483   0.180279  -0.014145  -0.017932  -0.031068
    3  C  1  X    0.170928  -0.005387   0.247969   0.182034   0.074837
    4  C  1  Y   -0.111413  -0.058394   0.074224  -0.043144   0.025026
    5  C  1  Z    0.141228   0.218293  -0.153730  -0.113166  -0.068088
    6  C  1  S    0.141061   0.255449  -0.041150   0.015565  -0.068591
    7  C  1  X    0.040080  -0.020486   0.105841   0.097742   0.043090
    8  C  1  Y   -0.032202  -0.026664   0.040917  -0.031114   0.017203
    9  C  1  Z    0.011797   0.051626  -0.053080  -0.053407  -0.013488
   10  C  1 XX    0.006165   0.004338   0.005364  -0.003808   0.000194
   11  C  1 YY    0.005595  -0.001901  -0.005875   0.004964   0.000248
   12  C  1 ZZ   -0.011760  -0.002437   0.000511  -0.001157  -0.000442
   13  C  1 XY   -0.009654   0.007326  -0.011339  -0.011930  -0.006958
   14  C  1 XZ   -0.015749  -0.010402  -0.000853  -0.003178   0.012535
   15  C  1 YZ   -0.002868  -0.013382   0.007379   0.009833   0.001624
   16  C  2  S   -0.139204   0.067106  -0.037732   0.012782  -0.007376
   17  C  2  S    0.289859  -0.141277   0.088368  -0.041013   0.016782
   18  C  2  X   -0.180249  -0.121000  -0.086667  -0.336107  -0.051772
   19  C  2  Y   -0.091549   0.233432   0.332412  -0.105785  -0.044200
   20  C  2  Z    0.020342   0.096915  -0.029452  -0.089291   0.337745
   21  C  2  S    0.240504  -0.145356   0.053837   0.009382   0.021682
   22  C  2  X   -0.059565  -0.010748  -0.057852  -0.062527  -0.016163
   23  C  2  Y   -0.056285   0.090697   0.082088  -0.017573  -0.029158
   24  C  2  Z    0.007010   0.048938  -0.030374  -0.053395   0.198851
   25  C  2 XX   -0.004689   0.007877  -0.001250  -0.009570  -0.003022
   26  C  2 YY    0.008572  -0.011040  -0.000061   0.007432   0.001194
   27  C  2 ZZ   -0.003883   0.003163   0.001311   0.002138   0.001828
   28  C  2 XY   -0.010582   0.000404   0.001021  -0.011530  -0.004513
   29  C  2 XZ   -0.004345  -0.004192   0.002008  -0.001818   0.024824
   30  C  2 YZ    0.003714   0.001088  -0.003326  -0.002355   0.013621
   31  O  3  S    0.073268  -0.042793   0.043432  -0.069191  -0.005355
   32  O  3  S   -0.173819   0.099580  -0.100316   0.149751   0.009807
   33  O  3  X   -0.065523   0.032055  -0.287848   0.360552   0.046278
   34  O  3  Y   -0.034221   0.173685   0.095242   0.302270   0.009112
   35  O  3  Z    0.008773   0.058874  -0.034292  -0.066113   0.496650
   36  O  3  S   -0.183438   0.137082  -0.151428   0.302015   0.034281
   37  O  3  X   -0.045147   0.017512  -0.157403   0.184130   0.022117
   38  O  3  Y   -0.019939   0.088972   0.053999   0.161019   0.002076
   39  O  3  Z    0.003062   0.026612  -0.015744  -0.037126   0.309409
   40  O  3 XX    0.004941   0.004895   0.019495  -0.008062  -0.000662
   41  O  3 YY   -0.000214  -0.008758  -0.013941  -0.002948   0.001683
   42  O  3 ZZ   -0.004727   0.003863  -0.005554   0.011010  -0.001021
   43  O  3 XY    0.004914  -0.010276  -0.000584  -0.016720  -0.000075
   44  O  3 XZ   -0.000704  -0.004127   0.002632   0.003958  -0.026871
   45  O  3 YZ   -0.000034  -0.002946   0.000779   0.001787  -0.016851
   46  H  4  S    0.140984  -0.179882  -0.132860   0.051953   0.014390
   47  H  4  S    0.046637  -0.103968  -0.123283   0.051095   0.009393
   48  H  5  S   -0.169547  -0.108585   0.031278  -0.010818   0.056564
   49  H  5  S   -0.069488  -0.054746   0.056568  -0.001262   0.034827
   50  H  6  S   -0.155296  -0.089804  -0.024429  -0.022418   0.038480
   51  H  6  S   -0.072102  -0.072582  -0.046537  -0.016612   0.038151
   52  H  7  S    0.076771   0.194818  -0.170062  -0.112860  -0.095523
   53  H  7  S    0.040162   0.120926  -0.120321  -0.087890  -0.089052

                     11         12         13         14         15
                   -0.2540    -0.2252    -0.0335     0.0529     0.1285
                     A          A          A          A          A   
    1  C  1  S    0.058214  -0.045075   0.033379  -0.124666  -0.039718
    2  C  1  S   -0.118755   0.099675  -0.045654   0.167685   0.070955
    3  C  1  X   -0.209367  -0.000392   0.074568  -0.226091   0.044110
    4  C  1  Y   -0.084955   0.501863  -0.023590  -0.029097   0.067481
    5  C  1  Z    0.027436   0.092093   0.079467  -0.248292   0.268503
    6  C  1  S   -0.334785   0.108323  -0.331303   1.831463   0.293206
    7  C  1  X   -0.126638  -0.079769   0.101441  -0.520447  -0.062174
    8  C  1  Y   -0.007213   0.365272  -0.054333  -0.114574   0.136552
    9  C  1  Z    0.016279   0.104146   0.214897  -0.578182   0.746991
   10  C  1 XX    0.000482   0.002926   0.002096   0.003461   0.018282
   11  C  1 YY    0.005703  -0.011650   0.004727  -0.011035   0.004233
   12  C  1 ZZ   -0.006185   0.008724  -0.006824   0.007574  -0.022515
   13  C  1 XY    0.011694  -0.009265  -0.007100   0.003977   0.008551
   14  C  1 XZ    0.004749  -0.001366   0.024033   0.029018   0.004732
   15  C  1 YZ    0.003970  -0.025252  -0.010326   0.005969   0.017029
   16  C  2  S   -0.002376   0.003677  -0.006966   0.010493   0.037959
   17  C  2  S   -0.003107  -0.023421   0.018703   0.022595  -0.048905
   18  C  2  X    0.058755   0.057482  -0.010977   0.029933  -0.013113
   19  C  2  Y   -0.089220  -0.107019  -0.043134  -0.063882   0.158483
   20  C  2  Z   -0.010827  -0.000661   0.477750   0.111401  -0.022593
   21  C  2  S    0.009733   0.131542   0.035772  -0.233838  -0.499088
   22  C  2  X   -0.088004   0.039024   0.009993   0.059488  -0.048869
   23  C  2  Y    0.019370   0.060186  -0.062731  -0.082648   0.415799
   24  C  2  Z    0.010049   0.018598   0.502096   0.232217  -0.155910
   25  C  2 XX   -0.033185  -0.023315  -0.002237   0.006928   0.002494
   26  C  2 YY    0.033772   0.025629   0.001864   0.005219   0.001856
   27  C  2 ZZ   -0.000587  -0.002314   0.000374  -0.012148  -0.004350
   28  C  2 XY    0.025580  -0.012171   0.001695   0.002394  -0.005752
   29  C  2 XZ    0.002635  -0.004153  -0.027640   0.000215  -0.006524
   30  C  2 YZ    0.003969   0.002605  -0.015607  -0.004360   0.016508
   31  O  3  S   -0.002681   0.008656   0.001196  -0.009319  -0.000591
   32  O  3  S    0.003532  -0.017097  -0.004291   0.022533   0.000601
   33  O  3  X   -0.317683   0.016410   0.001370  -0.058630   0.015584
   34  O  3  Y    0.485577   0.130431   0.039290   0.032887  -0.055785
   35  O  3  Z    0.050680  -0.019497  -0.428298  -0.086372   0.003581
   36  O  3  S    0.042770  -0.099489  -0.003369   0.087605  -0.003049
   37  O  3  X   -0.229766   0.031301  -0.003032  -0.085933   0.037902
   38  O  3  Y    0.334431   0.108622   0.041945   0.027359  -0.107039
   39  O  3  Z    0.033286  -0.018249  -0.437051  -0.112012   0.048822
   40  O  3 XX    0.014968  -0.001766   0.000060   0.002510   0.001327
   41  O  3 YY   -0.015300   0.001459  -0.000741   0.000710   0.001047
   42  O  3 ZZ    0.000333   0.000308   0.000681  -0.003219  -0.002374
   43  O  3 XY   -0.006891  -0.004566   0.000064   0.001929  -0.001867
   44  O  3 XZ   -0.000687   0.000696   0.000187   0.000510  -0.004406
   45  O  3 YZ   -0.001594   0.000890   0.000718  -0.000469   0.003949
   46  H  4  S    0.144939   0.127975  -0.010051   0.034691   0.037186
   47  H  4  S    0.235003   0.212600  -0.036091   0.001349   0.794542
   48  H  5  S   -0.004214   0.090381   0.094006  -0.079683  -0.162368
   49  H  5  S   -0.110972   0.403184   0.321167  -1.053288  -1.276761
   50  H  6  S    0.074214  -0.138092   0.102150  -0.015977   0.097606
   51  H  6  S    0.222952  -0.435904   0.163057  -0.779873   2.019319
   52  H  7  S    0.049107  -0.012818  -0.062859  -0.101664  -0.126332
   53  H  7  S    0.087915  -0.001944  -0.126245  -0.699321  -1.103876

                     16         17         18         19         20
                    0.1342     0.1914     0.2597     0.2904     0.4623
                     A          A          A          A          A   
    1  C  1  S    0.010915  -0.055256  -0.063648  -0.033128   0.075585
    2  C  1  S    0.004861   0.043604   0.038655   0.058995  -0.075391
    3  C  1  X   -0.166814  -0.034887   0.150248   0.182279  -0.164868
    4  C  1  Y   -0.007791  -0.268402  -0.011899   0.117021   0.146631
    5  C  1  Z    0.203314   0.234604   0.012502   0.025268   0.097481
    6  C  1  S   -0.196369   1.121509   1.597769  -0.084006  -0.419554
    7  C  1  X   -0.530753   0.139964   1.607149   0.769240   0.089339
    8  C  1  Y    0.099352  -1.067483  -0.387680   0.481333  -0.010290
    9  C  1  Z    0.703240   0.846782  -0.072922  -0.017410   0.587105
   10  C  1 XX    0.013732  -0.015685  -0.027667  -0.038942   0.015537
   11  C  1 YY    0.002632   0.009475  -0.012376   0.024434  -0.067797
   12  C  1 ZZ   -0.016363   0.006211   0.040042   0.014509   0.052261
   13  C  1 XY   -0.008811   0.000694   0.017556  -0.008748  -0.025243
   14  C  1 XZ    0.000213  -0.012016   0.003366  -0.004031   0.057148
   15  C  1 YZ    0.000124  -0.021994   0.004211   0.001570  -0.003641
   16  C  2  S   -0.107599   0.061735   0.035149   0.067432  -0.037352
   17  C  2  S    0.161778  -0.068969  -0.071581  -0.054623   0.205783
   18  C  2  X   -0.070132   0.067671   0.353862   0.060917  -0.210146
   19  C  2  Y   -0.262198   0.019690  -0.260036  -0.305208   0.227784
   20  C  2  Z   -0.069256  -0.022930  -0.068735  -0.053157  -0.431656
   21  C  2  S    1.699832  -1.154278  -0.633192  -1.819639  -0.130241
   22  C  2  X   -0.237026   0.382479   1.777488  -1.419609  -0.432482
   23  C  2  Y   -0.535357   0.091804  -0.718237  -1.473391   0.034294
   24  C  2  Z   -0.237423  -0.252641  -0.187644  -0.114805   0.174940
   25  C  2 XX   -0.003075   0.009163  -0.009483   0.000766  -0.046002
   26  C  2 YY   -0.003162  -0.005105   0.006601   0.013143   0.016241
   27  C  2 ZZ    0.006237  -0.004059   0.002882  -0.013909   0.029761
   28  C  2 XY    0.003729   0.010022  -0.015614  -0.002100   0.010517
   29  C  2 XZ   -0.002585  -0.006747  -0.005374  -0.002522  -0.030546
   30  C  2 YZ    0.006704   0.003386   0.006911   0.006561   0.021584
   31  O  3  S    0.007522  -0.013488   0.037661  -0.098033  -0.006188
   32  O  3  S   -0.016674   0.040061  -0.063168   0.136208   0.004262
   33  O  3  X    0.029671  -0.084046  -0.026613  -0.152920   0.077381
   34  O  3  Y    0.085852  -0.010356   0.145368  -0.072838  -0.047171
   35  O  3  Z    0.035752   0.047833   0.018793  -0.007801   0.017561
   36  O  3  S   -0.067966   0.075722  -0.710029   2.027839   0.261582
   37  O  3  X    0.026946  -0.121796   0.049243  -0.827221  -0.019093
   38  O  3  Y    0.147562  -0.011954   0.448099  -0.362768  -0.144569
   39  O  3  Z    0.075343   0.075022   0.069188  -0.009306   0.015852
   40  O  3 XX   -0.004329   0.001868  -0.011581   0.022715   0.026410
   41  O  3 YY   -0.001492  -0.000267   0.008707   0.005344  -0.023138
   42  O  3 ZZ    0.005821  -0.001602   0.002874  -0.028059  -0.003272
   43  O  3 XY    0.003509   0.000764  -0.012824   0.038523   0.004089
   44  O  3 XZ   -0.001228  -0.001983  -0.001582   0.002614   0.021177
   45  O  3 YZ    0.000668   0.000563   0.003411   0.004256   0.023806
   46  H  4  S   -0.066507   0.042618   0.010487   0.077354   0.092367
   47  H  4  S   -1.577299   0.523170  -0.811366  -0.681629   0.105184
   48  H  5  S   -0.029601   0.109525   0.074339   0.044695   0.566823
   49  H  5  S    0.377163   2.624746  -0.850950  -0.536689  -0.225987
   50  H  6  S    0.018901  -0.042030   0.169970  -0.017709   0.565679
   51  H  6  S    0.161449  -2.090000   0.815694   0.759684  -0.329148
   52  H  7  S   -0.041554   0.079294   0.072445  -0.010853   0.034933
   53  H  7  S   -0.946575  -1.431501   0.177231   0.334558  -0.139475

                     21         22         23         24         25
                    0.5339     0.5750     0.6002     0.6723     0.7017
                     A          A          A          A          A   
    1  C  1  S   -0.013431  -0.036282   0.014459  -0.006525  -0.021578
    2  C  1  S    0.105870  -0.106146  -0.235739  -0.000478   0.276271
    3  C  1  X    0.553962  -0.509238  -0.504658  -0.198588   0.200008
    4  C  1  Y   -0.520976   0.303678  -0.593056   0.226528   0.204892
    5  C  1  Z   -0.169447   0.080617  -0.472535  -0.240850  -0.461380
    6  C  1  S    0.026477   0.165273  -0.581026   0.766730  -0.585283
    7  C  1  X   -0.693825   0.566508   0.497982   0.765510  -0.508975
    8  C  1  Y    0.448572  -0.359753   0.820815  -0.414881  -0.399582
    9  C  1  Z    0.100954  -0.567824   0.974743   0.673957   1.438263
   10  C  1 XX    0.001047  -0.024836  -0.050288  -0.002543  -0.035109
   11  C  1 YY    0.022575   0.044150   0.032048   0.026043   0.006193
   12  C  1 ZZ   -0.023622  -0.019314   0.018241  -0.023500   0.028915
   13  C  1 XY   -0.010646   0.025460   0.025850  -0.094151  -0.030333
   14  C  1 XZ   -0.001292  -0.033570   0.037874   0.015360   0.045669
   15  C  1 YZ    0.028641  -0.004753   0.060902   0.019701   0.013413
   16  C  2  S    0.041507  -0.017997  -0.000254   0.039178  -0.037469
   17  C  2  S    0.009957  -0.277054  -0.387554  -0.457387  -0.047696
   18  C  2  X   -0.054716   0.176773   0.170637  -0.792264   0.587315
   19  C  2  Y   -0.025989   0.041615  -0.149326   0.003477   0.444559
   20  C  2  Z   -0.649051  -0.655852   0.113045   0.065274   0.079493
   21  C  2  S    0.259542   0.059689   0.445023  -0.195425   1.015451
   22  C  2  X    0.330641  -0.119152  -0.749213   1.289996  -0.597229
   23  C  2  Y   -0.055363  -0.125665   0.148619  -0.987567  -0.637782
   24  C  2  Z    0.759924   1.028937  -0.365762  -0.403559  -0.493921
   25  C  2 XX    0.083631  -0.042415   0.000722   0.065705  -0.009539
   26  C  2 YY   -0.009134  -0.017441  -0.034553  -0.063122  -0.070660
   27  C  2 ZZ   -0.074497   0.059856   0.033830  -0.002583   0.080200
   28  C  2 XY   -0.028561   0.033860   0.039521   0.117536  -0.057784
   29  C  2 XZ   -0.010076   0.024417   0.007716   0.003310  -0.023945
   30  C  2 YZ   -0.003561  -0.049198   0.007317   0.003633   0.013798
   31  O  3  S   -0.006283   0.013072   0.003978  -0.032924   0.027282
   32  O  3  S    0.058295  -0.083854  -0.071847   0.135856  -0.091886
   33  O  3  X   -0.118292   0.056753   0.082512  -0.364568   0.056085
   34  O  3  Y    0.048265  -0.021880  -0.165725   0.033277   0.291498
   35  O  3  Z   -0.033458  -0.084853  -0.021721   0.027358   0.059703
   36  O  3  S   -0.216454   0.044810   0.251442  -0.129271   0.059001
   37  O  3  X   -0.007509   0.042435  -0.011811  -0.251968   0.279997
   38  O  3  Y    0.091554   0.027261  -0.043108  -0.007190   0.111194
   39  O  3  Z   -0.069685  -0.121117   0.072024   0.051618   0.077726
   40  O  3 XX   -0.021696   0.001384  -0.008464  -0.057978   0.034952
   41  O  3 YY    0.013889  -0.006147  -0.000120  -0.006471  -0.008875
   42  O  3 ZZ    0.007807   0.004763   0.008584   0.064448  -0.026077
   43  O  3 XY   -0.017967   0.003064  -0.014023  -0.094517   0.090730
   44  O  3 XZ    0.038225   0.044839  -0.017646  -0.014212  -0.005745
   45  O  3 YZ    0.024030   0.011423   0.004800   0.002593   0.017782
   46  H  4  S    0.060173  -0.217054  -0.046568  -0.359005  -0.377280
   47  H  4  S    0.010972   0.022466   0.099085  -0.440157  -0.267488
   48  H  5  S   -0.096328  -0.262395  -0.136723   0.004434   0.051307
   49  H  5  S    0.182293   0.242391   0.055456   0.432280   1.151682
   50  H  6  S   -0.013531  -0.299410   0.106984  -0.074161  -0.060403
   51  H  6  S   -0.066735   0.130487   0.526846   0.171223  -0.455683
   52  H  7  S   -0.185092  -0.055263  -0.216365  -0.200219  -0.278179
   53  H  7  S   -0.025608   0.035097   0.065871  -0.013840  -0.596776

                     26         27         28         29         30
                    0.7464     0.7723     0.8613     0.8902     0.9191
                     A          A          A          A          A   
    1  C  1  S    0.000073  -0.001953  -0.014793  -0.039022   0.013213
    2  C  1  S   -0.361567   0.545528   0.121920   0.986933   0.073172
    3  C  1  X    0.381874   0.095487   0.046488  -0.335534  -0.147381
    4  C  1  Y    0.150971   0.431222   0.092573  -0.041200  -0.142856
    5  C  1  Z    0.377150  -0.750553   0.133175   0.288118   0.043142
    6  C  1  S   -0.065154  -1.439457  -0.552273  -1.490753  -0.041724
    7  C  1  X   -1.597001  -0.814628  -0.456527   0.711262   0.634236
    8  C  1  Y   -0.433362  -1.164507  -0.062785  -0.207828   0.473208
    9  C  1  Z   -0.306056   1.785916  -0.124618  -0.308742  -0.248653
   10  C  1 XX   -0.075409   0.016070  -0.021260   0.096459  -0.043936
   11  C  1 YY    0.045616  -0.043932   0.009235   0.010364   0.031375
   12  C  1 ZZ    0.029793   0.027862   0.012025  -0.106824   0.012562
   13  C  1 XY   -0.000376   0.024060   0.032042  -0.035097  -0.084241
   14  C  1 XZ    0.080620  -0.019636   0.045407   0.122605  -0.049810
   15  C  1 YZ    0.007205  -0.029766   0.018040   0.076809  -0.015342
   16  C  2  S   -0.001970   0.018295   0.051595   0.009238   0.019545
   17  C  2  S   -0.528709   0.173332  -0.913090   0.695974   1.025832
   18  C  2  X    0.241226  -0.017780   0.158444  -0.055304   0.062908
   19  C  2  Y   -0.629743  -0.483503   0.484017  -0.150006  -0.013802
   20  C  2  Z   -0.027752  -0.085367   0.052852  -0.006173   0.004895
   21  C  2  S    1.518428   0.201985   2.799271  -1.430576  -0.892745
   22  C  2  X   -0.682001  -0.129721  -0.071149   0.380570   0.296540
   23  C  2  Y    1.887373   2.135386  -0.393434   0.480423  -0.015331
   24  C  2  Z    0.123967  -0.060410  -0.039630   0.051910   0.016218
   25  C  2 XX    0.068120   0.028920   0.009228   0.027036   0.135242
   26  C  2 YY   -0.098968   0.034777   0.094107   0.012434  -0.062649
   27  C  2 ZZ    0.030848  -0.063697  -0.103334  -0.039470  -0.072593
   28  C  2 XY    0.074080   0.017858   0.104852  -0.039700   0.130652
   29  C  2 XZ   -0.035541   0.003577  -0.008262  -0.054764   0.023581
   30  C  2 YZ    0.006208   0.025047   0.031816   0.036805  -0.015953
   31  O  3  S    0.014832   0.004028   0.027770  -0.000686   0.050708
   32  O  3  S   -0.047142   0.059124  -0.088167   0.042523  -0.261041
   33  O  3  X   -0.150148  -0.081626  -0.331092   0.055071  -0.549557
   34  O  3  Y   -0.147638  -0.194147  -0.314271  -0.003753  -0.242509
   35  O  3  Z    0.079106  -0.048572   0.034124   0.234665  -0.122141
   36  O  3  S   -0.568819  -0.653535  -0.600309  -0.068962  -0.089373
   37  O  3  X    0.385156   0.326756   0.743191  -0.034173   1.029954
   38  O  3  Y   -0.006408  -0.056837   0.503105  -0.012095   0.583450
   39  O  3  Z   -0.053342   0.067997  -0.023351  -0.240834   0.147868
   40  O  3 XX   -0.101566  -0.056549  -0.003152   0.006534   0.000867
   41  O  3 YY    0.038699   0.011900  -0.049126   0.017163   0.025031
   42  O  3 ZZ    0.062867   0.044649   0.052278  -0.023697  -0.025898
   43  O  3 XY   -0.014441  -0.014200  -0.068749   0.021347   0.003712
   44  O  3 XZ    0.007716  -0.011953  -0.002846   0.008192   0.000001
   45  O  3 YZ    0.000791   0.017383  -0.010292   0.009343  -0.000017
   46  H  4  S   -0.446489   0.298759   0.727745   0.102215  -0.314156
   47  H  4  S    1.190300   1.007561  -1.556434   0.538666   0.552309
   48  H  5  S    0.212277  -0.063296  -0.046086  -0.209685   0.139935
   49  H  5  S    0.111098   1.610750   0.228805   0.876001  -0.796608
   50  H  6  S    0.214695  -0.177402   0.064862   0.104012  -0.121355
   51  H  6  S   -1.389277  -0.210709  -0.434881  -0.319149   0.917736
   52  H  7  S   -0.350921   0.211503  -0.253764  -0.829114   0.165174
   53  H  7  S   -0.188446  -1.185178   0.203712   1.560304   0.307511

                     31         32         33         34         35
                    0.9945     1.0557     1.0971     1.2075     1.4862
                     A          A          A          A          A   
    1  C  1  S   -0.002011  -0.048949  -0.028406  -0.034385  -0.017032
    2  C  1  S   -0.528992  -1.484063  -0.768736  -0.575915  -0.215250
    3  C  1  X    0.036200   0.042835   0.111500  -0.106828  -0.006557
    4  C  1  Y    0.047033   0.273359   0.243273  -0.166685   0.025107
    5  C  1  Z   -0.149534  -0.109046  -0.085000   0.016078   0.083356
    6  C  1  S    1.331198   3.887816   3.201336   1.757641   0.751129
    7  C  1  X    0.202950   0.382667   0.728531   0.334460  -0.014456
    8  C  1  Y   -0.154829  -1.498161  -1.022972  -0.345978  -0.525321
    9  C  1  Z    0.010164   0.295103   0.234776   0.019932   0.317248
   10  C  1 XX   -0.009295   0.042667   0.061045  -0.046651  -0.086567
   11  C  1 YY    0.029771   0.081036   0.063508   0.106646  -0.099710
   12  C  1 ZZ   -0.020476  -0.123703  -0.124553  -0.059995   0.186277
   13  C  1 XY    0.017536   0.087028  -0.015557  -0.106528  -0.103492
   14  C  1 XZ   -0.036338   0.061630   0.038303   0.085625  -0.230576
   15  C  1 YZ   -0.032217   0.116715   0.047040  -0.286113   0.294045
   16  C  2  S    0.003985   0.022618   0.018442   0.009463   0.005414
   17  C  2  S    0.201276   0.704701   0.433898   0.197281   0.113431
   18  C  2  X   -0.025562  -0.024090  -0.160484   0.002103  -0.000341
   19  C  2  Y    0.040898  -0.108265   0.250742  -0.018791   0.001557
   20  C  2  Z   -0.108565   0.013526   0.048158  -0.000321  -0.117555
   21  C  2  S   -0.689894  -2.755648  -1.759221  -1.179121  -0.654309
   22  C  2  X    0.326340   0.996627   1.754300   0.619393   0.285344
   23  C  2  Y   -0.340762   0.395934  -1.627342   0.120878   0.201130
   24  C  2  Z    0.554454  -0.218303  -0.400934  -0.119578   0.012188
   25  C  2 XX   -0.006744  -0.109919   0.089315  -0.034435   0.044689
   26  C  2 YY    0.020872   0.162887  -0.057930   0.053296  -0.038473
   27  C  2 ZZ   -0.014128  -0.052968  -0.031384  -0.018860  -0.006216
   28  C  2 XY    0.011904   0.042689  -0.052191   0.009595  -0.070908
   29  C  2 XZ    0.065884  -0.025921  -0.046737  -0.155502   0.549405
   30  C  2 YZ   -0.016578   0.047757   0.021512   0.111997   0.176809
   31  O  3  S    0.005298   0.008566   0.003067   0.011113   0.007361
   32  O  3  S   -0.062292  -0.116276  -0.030607  -0.164598  -0.140004
   33  O  3  X   -0.016540  -0.183025   0.389385   0.100741   0.065657
   34  O  3  Y   -0.117714   0.322252  -0.621839   0.051796   0.027005
   35  O  3  Z    0.877873  -0.112738  -0.152180   0.022061  -0.109771
   36  O  3  S    0.127907   0.150499   0.054458   0.116415   0.125390
   37  O  3  X   -0.017938   0.207547  -0.792600  -0.160762  -0.133666
   38  O  3  Y    0.207268  -0.502566   1.243445  -0.107020  -0.030298
   39  O  3  Z   -1.210341   0.192361   0.300982   0.035722  -0.091011
   40  O  3 XX    0.017046   0.091318  -0.046526   0.032051  -0.036636
   41  O  3 YY    0.007051  -0.027836   0.093165  -0.011938   0.054644
   42  O  3 ZZ   -0.024097  -0.063482  -0.046639  -0.020112  -0.018009
   43  O  3 XY    0.000481  -0.024734   0.053588  -0.034277   0.018448
   44  O  3 XZ   -0.031168  -0.001022   0.010831  -0.005391  -0.330574
   45  O  3 YZ   -0.023457   0.025838   0.036252   0.068695  -0.240875
   46  H  4  S   -0.023252   0.265597  -0.063581   0.244440   0.140640
   47  H  4  S   -0.041744   0.365659  -0.682608  -0.017006   0.116905
   48  H  5  S   -0.086331  -0.442738  -0.177971   0.931702   0.354667
   49  H  5  S   -0.125069   1.481669   0.894008  -1.459693   0.222435
   50  H  6  S   -0.023837   0.254599   0.070956  -1.087481  -0.255907
   51  H  6  S    0.097947  -1.907900  -1.002012   1.281612  -0.235694
   52  H  7  S    0.212011  -0.290843  -0.158960  -0.384225  -0.326516
   53  H  7  S   -0.542947  -0.760240  -0.440831  -0.156813  -0.188378

                     36         37         38         39         40
                    1.5538     1.6195     1.6835     1.7909     1.8125
                     A          A          A          A          A   
    1  C  1  S    0.012863   0.024251   0.015338  -0.005345  -0.006878
    2  C  1  S    0.168622   0.333314  -0.215188  -0.505591   0.186097
    3  C  1  X    0.005264  -0.003975  -0.200920  -0.209331   0.117370
    4  C  1  Y   -0.032878   0.011905   0.037896   0.067913  -0.017269
    5  C  1  Z    0.017696  -0.014661   0.011773   0.064459   0.057025
    6  C  1  S   -0.577901  -1.212930  -0.342016   0.741494  -0.065373
    7  C  1  X   -0.004682   0.062797  -0.216686   0.173290  -0.229810
    8  C  1  Y    0.443095   0.613816   0.080620  -0.152523  -0.075020
    9  C  1  Z   -0.613380  -0.028360   0.113587  -0.415597  -0.192640
   10  C  1 XX    0.099529   0.044340   0.430536   0.067627  -0.259639
   11  C  1 YY    0.070174   0.048849  -0.406158  -0.255762  -0.019399
   12  C  1 ZZ   -0.169703  -0.093189  -0.024378   0.188135   0.279037
   13  C  1 XY    0.121606  -0.057448   0.050270  -0.298296  -0.079759
   14  C  1 XZ    0.225654   0.019955  -0.016896  -0.163738  -0.272291
   15  C  1 YZ   -0.153278   0.013107  -0.068080   0.118626   0.295632
   16  C  2  S   -0.003686  -0.020960  -0.007237   0.021903  -0.012994
   17  C  2  S   -0.094988  -0.197215  -0.484615  -0.016333   0.035515
   18  C  2  X   -0.003050  -0.090964   0.126840   0.046401   0.036490
   19  C  2  Y    0.022331   0.001811  -0.052109   0.070433  -0.062077
   20  C  2  Z   -0.147834  -0.002605  -0.012383   0.045603   0.063314
   21  C  2  S    0.665391  -1.435289   1.416818  -0.490757   0.392867
   22  C  2  X   -0.123932  -1.865159  -0.446536  -0.025749   0.344290
   23  C  2  Y   -0.148528  -1.155326   0.117710   0.587558   0.018522
   24  C  2  Z    0.264153  -0.027795  -0.008764   0.242255   0.133655
   25  C  2 XX   -0.018880  -0.046707   0.155305   0.271628  -0.102459
   26  C  2 YY   -0.123815   0.080160   0.197246  -0.379479   0.207187
   27  C  2 ZZ    0.142695  -0.033453  -0.352551   0.107851  -0.104728
   28  C  2 XY    0.055211  -0.277001  -0.288242  -0.140745   0.151851
   29  C  2 XZ   -0.087431  -0.081927  -0.008014  -0.151820  -0.086168
   30  C  2 YZ    0.674610   0.095063   0.043776  -0.035364  -0.018834
   31  O  3  S   -0.008520   0.031288  -0.015615  -0.001494   0.005189
   32  O  3  S    0.220132  -1.619584   0.370805   0.068549   0.070472
   33  O  3  X   -0.065201   0.057022  -0.175084  -0.112409   0.136518
   34  O  3  Y   -0.017703   0.078683   0.007341   0.164557  -0.082926
   35  O  3  Z   -0.043613   0.009514   0.000821   0.068666   0.040380
   36  O  3  S   -0.342137   3.939822  -0.588639  -0.156795  -0.439179
   37  O  3  X    0.169996  -1.100754   0.358310   0.194212  -0.020582
   38  O  3  Y    0.095383  -0.705589   0.036468  -0.251649   0.217668
   39  O  3  Z   -0.102345  -0.052461   0.001738  -0.111647  -0.055180
   40  O  3 XX    0.002355  -0.139269   0.040580  -0.383394   0.309255
   41  O  3 YY   -0.043174   0.133845   0.478387   0.064465  -0.133965
   42  O  3 ZZ    0.040818   0.005424  -0.518967   0.318929  -0.175290
   43  O  3 XY    0.069296  -0.184407  -0.146985   0.332685  -0.246920
   44  O  3 XZ   -0.406294  -0.043745  -0.024500  -0.040034  -0.212845
   45  O  3 YZ    0.173929   0.079538   0.079928   0.381864   0.650121
   46  H  4  S   -0.129630  -0.079103  -0.241365   0.524855  -0.217148
   47  H  4  S   -0.096517  -0.259762  -0.156038   0.175871   0.027542
   48  H  5  S   -0.240564  -0.129629   0.108957  -0.120146   0.037576
   49  H  5  S   -0.219801   0.126829  -0.069761  -0.250696   0.044092
   50  H  6  S    0.125611   0.219978  -0.066725  -0.009698  -0.060150
   51  H  6  S    0.038017   0.061078  -0.006032  -0.063651  -0.143758
   52  H  7  S    0.289313   0.212324  -0.033403   0.001279  -0.076056
   53  H  7  S    0.335478   0.223032  -0.139449   0.018090   0.074435

                     41         42         43         44         45
                    1.8900     2.0065     2.0686     2.1483     2.2828
                     A          A          A          A          A   
    1  C  1  S   -0.012567  -0.044793   0.006159  -0.040671   0.015851
    2  C  1  S   -0.037301  -0.274619   0.205524  -0.266759   0.072458
    3  C  1  X    0.008988   0.046634   0.036855   0.043183  -0.014467
    4  C  1  Y   -0.117207  -0.061384  -0.005822   0.008767  -0.013691
    5  C  1  Z    0.027519  -0.023894   0.004503  -0.018324  -0.037475
    6  C  1  S    0.455343   1.522351  -0.585018   1.380091  -0.464272
    7  C  1  X    0.310573   0.258665  -0.410979   0.340658  -0.111081
    8  C  1  Y    0.088211  -0.032002   0.003094  -0.310689   0.271924
    9  C  1  Z    0.315417  -0.748600   0.233780   0.176960  -0.375777
   10  C  1 XX    0.402300  -0.083268  -0.314312  -0.034035   0.033937
   11  C  1 YY   -0.291635  -0.655745   0.202460  -0.304734   0.005999
   12  C  1 ZZ   -0.110665   0.739014   0.111852   0.338770  -0.039936
   13  C  1 XY    0.648572   0.016320   0.431360  -0.261318  -0.023950
   14  C  1 XZ   -0.170702   0.268421   0.037976   0.209515   0.938304
   15  C  1 YZ    0.051349   0.175079  -0.120014  -0.719814   0.453131
   16  C  2  S    0.011450   0.023539   0.004138   0.024036  -0.013679
   17  C  2  S    0.110262   0.344607   0.244424   0.240599  -0.101829
   18  C  2  X   -0.177047  -0.166361  -0.285306  -0.014635  -0.013863
   19  C  2  Y   -0.024259   0.000233   0.166906  -0.031371   0.026122
   20  C  2  Z    0.043676   0.004144   0.022996  -0.089445  -0.050225
   21  C  2  S   -0.855253  -1.442551  -0.119081  -1.210848   0.468604
   22  C  2  X   -0.228798   0.342568  -0.303334   0.432023  -0.179342
   23  C  2  Y   -1.082563  -0.786346   0.487122  -0.532517   0.134431
   24  C  2  Z   -0.209470   0.210822  -0.032502  -0.319400   0.058554
   25  C  2 XX   -0.300314  -0.312086  -0.142131  -0.155945   0.099824
   26  C  2 YY    0.234816  -0.020732  -0.381559   0.143044   0.078721
   27  C  2 ZZ    0.065498   0.332817   0.523690   0.012901  -0.178545
   28  C  2 XY   -0.176926  -0.044466   0.014581  -0.104954   0.013161
   29  C  2 XZ    0.082798  -0.232740   0.106477   0.206257   0.221221
   30  C  2 YZ   -0.134360   0.299956  -0.234069  -0.395356  -0.325297
   31  O  3  S   -0.015145  -0.010662  -0.007144  -0.005548   0.003575
   32  O  3  S   -0.158914  -0.091649   0.018270  -0.043962  -0.023573
   33  O  3  X   -0.158386  -0.082549  -0.135547  -0.026201   0.031639
   34  O  3  Y   -0.155723  -0.146841   0.017342  -0.090218   0.046946
   35  O  3  Z   -0.008163   0.031257  -0.009470  -0.071138   0.000896
   36  O  3  S    1.114184   0.729272   0.174076   0.392876  -0.088416
   37  O  3  X   -0.308121  -0.307024   0.094891  -0.222818   0.058220
   38  O  3  Y    0.039073   0.106839  -0.229499   0.113311  -0.063416
   39  O  3  Z    0.025851  -0.105278   0.016538   0.208657   0.001499
   40  O  3 XX   -0.148346   0.019383  -0.216849   0.060654  -0.045103
   41  O  3 YY   -0.243590   0.021924   0.623294  -0.168254   0.002673
   42  O  3 ZZ    0.391936  -0.041307  -0.406445   0.107600   0.042431
   43  O  3 XY    0.191539  -0.085498  -0.058099  -0.023244   0.081081
   44  O  3 XZ   -0.067137   0.250261  -0.099598  -0.398776  -0.158608
   45  O  3 YZ    0.182558  -0.204893   0.188843   0.069097   0.172739
   46  H  4  S   -0.309485  -0.060726   0.431295  -0.066214  -0.007093
   47  H  4  S   -0.309191  -0.138744   0.160363  -0.085206   0.001992
   48  H  5  S    0.421308  -0.364993   0.039379  -0.680022   0.178578
   49  H  5  S   -0.045127  -0.186017   0.155214   0.469052  -0.468298
   50  H  6  S   -0.286622  -0.445562  -0.025688   0.340635  -0.607996
   51  H  6  S    0.162123  -0.067090  -0.044420  -0.425503   0.484158
   52  H  7  S   -0.297799  -0.029144  -0.180338  -0.354088   0.636299
   53  H  7  S   -0.018182   0.107163  -0.016209  -0.090066  -0.016702

                     46         47         48         49         50
                    2.3435     2.5203     2.5866     2.8584     2.9487
                     A          A          A          A          A   
    1  C  1  S    0.026922   0.051476  -0.002278   0.031832  -0.011969
    2  C  1  S    0.235141   0.091154  -0.011506  -0.093331   0.070807
    3  C  1  X   -0.105080  -0.272882  -0.001256  -0.220392   0.093996
    4  C  1  Y    0.037886   0.063935   0.005043   0.165292  -0.049518
    5  C  1  Z    0.019298   0.018192   0.023600   0.026594  -0.016022
    6  C  1  S   -1.226484  -1.513918   0.052305  -0.286154   0.097011
    7  C  1  X   -0.700508  -0.859997  -0.004766  -0.211239   0.170962
    8  C  1  Y    0.263427   0.212038  -0.030567   0.141711   0.026422
    9  C  1  Z    0.030402   0.054877   0.025651   0.050685   0.040633
   10  C  1 XX   -0.381268  -0.768852  -0.026028  -0.220391   0.069913
   11  C  1 YY   -0.069601   0.506284   0.017875  -0.057783   0.013724
   12  C  1 ZZ    0.450868   0.262568   0.008154   0.278174  -0.083637
   13  C  1 XY    0.368511   0.091322  -0.032309   0.517588  -0.186774
   14  C  1 XZ    0.013549   0.050869   0.128792   0.073445  -0.033827
   15  C  1 YZ   -0.185993   0.028303  -0.213498  -0.072564   0.017775
   16  C  2  S   -0.077633  -0.029025   0.000020  -0.044034  -0.029244
   17  C  2  S   -0.186159  -0.049203   0.020337  -0.321885  -1.329399
   18  C  2  X   -0.207313  -0.227171   0.000268  -0.371410  -1.081522
   19  C  2  Y    0.172088   0.050429  -0.022855  -0.162074  -0.669542
   20  C  2  Z    0.017999   0.007934   0.240086  -0.004751  -0.039327
   21  C  2  S    1.395098   1.693990  -0.042195   0.164505  -1.737538
   22  C  2  X   -0.396218  -0.736672   0.027229  -0.339907  -0.688389
   23  C  2  Y    0.603392   0.844784  -0.032978  -0.510230  -0.537522
   24  C  2  Z    0.083983   0.121132   0.236488  -0.052800  -0.049241
   25  C  2 XX    0.397729  -0.117530   0.047027   0.903680  -0.679234
   26  C  2 YY    0.330024   0.390947  -0.067517  -0.795437   0.225938
   27  C  2 ZZ   -0.727753  -0.273418   0.020490  -0.108243   0.453296
   28  C  2 XY    0.464859  -0.874929  -0.094781  -0.537397  -0.428837
   29  C  2 XZ   -0.027369  -0.125774   0.889742  -0.098072  -0.000500
   30  C  2 YZ    0.136297   0.113730   0.431087  -0.072492  -0.016545
   31  O  3  S    0.027815  -0.020521  -0.000049  -0.009489  -0.061669
   32  O  3  S   -0.355812   0.585775   0.001531  -0.331552  -0.683905
   33  O  3  X    0.329718  -0.346870  -0.000349  -0.005079  -0.248654
   34  O  3  Y    0.240428  -0.156271  -0.001419   0.047388  -0.170302
   35  O  3  Z    0.013742  -0.006190  -0.013008   0.004644  -0.012450
   36  O  3  S   -0.207794  -0.746107   0.002061   0.974083   3.098625
   37  O  3  X    0.060204   0.509395  -0.017709  -0.648271  -1.513238
   38  O  3  Y   -0.305604  -0.004775   0.054096   0.075558  -0.975940
   39  O  3  Z   -0.022055  -0.009247  -0.446747   0.032287  -0.056994
   40  O  3 XX   -0.316965  -0.165812   0.040680   0.832817   0.727498
   41  O  3 YY    0.284393   0.012994  -0.105521  -0.660406  -0.012329
   42  O  3 ZZ    0.032572   0.152819   0.064841  -0.172411  -0.715169
   43  O  3 XY    0.369997   0.117531  -0.073025  -0.104064   1.164027
   44  O  3 XZ    0.031532   0.009173   0.828834  -0.049740   0.077185
   45  O  3 YZ   -0.004143  -0.034092   0.535066  -0.060861   0.053799
   46  H  4  S   -0.161262  -0.252262  -0.009139   0.257690  -0.022620
   47  H  4  S    0.162172   0.339661   0.008901  -0.414167   0.009870
   48  H  5  S   -0.172408  -0.029410  -0.122949  -0.025315  -0.007478
   49  H  5  S    0.077699   0.043921   0.120766   0.075243   0.093328
   50  H  6  S    0.045816   0.061010   0.080746  -0.077139   0.042054
   51  H  6  S   -0.029100  -0.074122  -0.076587  -0.027337  -0.041070
   52  H  7  S   -0.165390   0.042689  -0.043372  -0.111949   0.021597
   53  H  7  S    0.096111  -0.039367  -0.026754   0.018504   0.006514
 ...... END OF RHF CALCULATION ......
 STEP CPU TIME =     5.28 TOTAL CPU TIME =          5.4 (      0.1 MIN)
 TOTAL WALL CLOCK TIME=          5.6 SECONDS, CPU UTILIZATION IS    96.26%

     ---------------------------------------------------------------------
     PROPERTIES FOR THE B3LYP    DFT FUNCTIONAL (RHF  TYPE) DENSITY MATRIX
     ---------------------------------------------------------------------

          -----------------
          ENERGY COMPONENTS
          -----------------

         WAVEFUNCTION NORMALIZATION =       1.0000000000

                ONE ELECTRON ENERGY =    -345.8056538352
                TWO ELECTRON ENERGY =     122.4297540824
           NUCLEAR REPULSION ENERGY =      69.9003211110
                                      ------------------
                       TOTAL ENERGY =    -153.4755786418

 ELECTRON-ELECTRON POTENTIAL ENERGY =     122.4297540824
  NUCLEUS-ELECTRON POTENTIAL ENERGY =    -498.8354237725
   NUCLEUS-NUCLEUS POTENTIAL ENERGY =      69.9003211110
                                      ------------------
             TOTAL POTENTIAL ENERGY =    -306.5053485791
               TOTAL KINETIC ENERGY =     153.0297699373
                 VIRIAL RATIO (V/T) =       2.0029132155

          ---------------------------------------
          MULLIKEN AND LOWDIN POPULATION ANALYSES
          ---------------------------------------

     ATOMIC MULLIKEN POPULATION IN EACH MOLECULAR ORBITAL

                      1          2          3          4          5

                  2.000000   2.000000   2.000000   2.000000   2.000000

    1            -0.000029   0.001249   1.996045   0.020453   0.806856
    2             0.002245   2.000564   0.001578   0.525560   0.122011
    3             1.997756  -0.002757   0.000011   1.451762   0.029666
    4             0.000029   0.000896   0.000013  -0.001369   0.001654
    5            -0.000000   0.000032   0.000133   0.001927   0.494641
    6            -0.000000  -0.000001   0.001127   0.001410   0.521317
    7            -0.000001   0.000017   0.001093   0.000256   0.023854

                      6          7          8          9         10

                  2.000000   2.000000   2.000000   2.000000   2.000000

    1             0.478589   0.557711   0.498901   0.264602   0.064097
    2             0.850340   0.545121   0.551700   0.421302   0.649318
    3             0.202976   0.250429   0.540741   1.188134   1.207323
    4             0.162089   0.255795   0.162186   0.026195   0.001354
    5             0.135678   0.046797   0.007860   0.000340   0.009095
    6             0.112227   0.032052   0.008459   0.002277   0.002616
    7             0.058100   0.312095   0.230154   0.097150   0.066197

                     11         12

                  2.000000   2.000000

    1             0.298985   1.451339
    2             0.064095   0.093267
    3             1.387964   0.060878
    4             0.175791   0.121627
    5             0.004326   0.156802
    6             0.047192   0.115721
    7             0.021646   0.000367

               ----- POPULATIONS IN EACH AO -----
                             MULLIKEN      LOWDIN
              1  C  1  S      1.99630     1.97957
              2  C  1  S      0.67134     0.36939
              3  C  1  X      0.64892     0.58017
              4  C  1  Y      0.90652     0.86153
              5  C  1  Z      0.55942     0.48986
              6  C  1  S      0.61878     0.34703
              7  C  1  X      0.24888     0.37569
              8  C  1  Y      0.58756     0.75601
              9  C  1  Z      0.16284     0.35816
             10  C  1 XX      0.00868     0.15619
             11  C  1 YY      0.00212     0.12175
             12  C  1 ZZ      0.00765     0.18263
             13  C  1 XY      0.01291     0.01271
             14  C  1 XZ      0.00687     0.02853
             15  C  1 YZ      0.00000     0.00954
             16  C  2  S      1.99652     1.97455
             17  C  2  S      0.70443     0.36433
             18  C  2  X      0.73842     0.64347
             19  C  2  Y      0.74422     0.64561
             20  C  2  Z      0.46261     0.41699
             21  C  2  S      0.47332     0.31490
             22  C  2  X      0.11409     0.28657
             23  C  2  Y      0.21180     0.38069
             24  C  2  Z      0.29414     0.33287
             25  C  2 XX      0.00463     0.21976
             26  C  2 YY      0.04198     0.19400
             27  C  2 ZZ      0.02662     0.10518
             28  C  2 XY      0.01070     0.05413
             29  C  2 XZ      0.00363     0.01978
             30  C  2 YZ      0.00000     0.00622
             31  O  3  S      1.99731     1.97777
             32  O  3  S      0.93201     0.72409
             33  O  3  X      1.00274     0.93967
             34  O  3  Y      1.09800     1.04965
             35  O  3  Z      0.74920     0.69781
             36  O  3  S      0.92753     0.46958
             37  O  3  X      0.49034     0.56897
             38  O  3  Y      0.59420     0.65725
             39  O  3  Z      0.49575     0.53467
             40  O  3 XX      0.00224     0.18391
             41  O  3 YY      0.00721     0.17372
             42  O  3 ZZ      0.00716     0.17419
             43  O  3 XY      0.00812     0.01579
             44  O  3 XZ      0.00308     0.01081
             45  O  3 YZ      0.00000     0.00406
             46  H  4  S      0.53563     0.50663
             47  H  4  S      0.37063     0.39542
             48  H  5  S      0.61295     0.50422
             49  H  5  S      0.24469     0.24225
             50  H  6  S      0.63759     0.54160
             51  H  6  S      0.20680     0.24140
             52  H  7  S      0.50322     0.45106
             53  H  7  S      0.30771     0.34769

          ----- MULLIKEN ATOMIC OVERLAP POPULATIONS -----
          (OFF-DIAGONAL ELEMENTS NEED TO BE MULTIPLIED BY 2)

             1           2           3           4           5

    1    5.6152705
    2    0.3625069   4.5726803
    3   -0.0705812   0.5738436   7.8814651
    4   -0.1510971   0.3562287  -0.0714782   0.7627655
    5    0.3088469   0.0037554  -0.0102195   0.0140196   0.8328045
    6    0.0161568  -0.0171834   0.0101434  -0.0108237  -0.2582445
    7    0.3576952  -0.0247300   0.0017104   0.0066458  -0.0333304

             6           7

    6    1.0951170
    7    0.0092294   0.4937093

          TOTAL MULLIKEN AND LOWDIN ATOMIC POPULATIONS
       ATOM         MULL.POP.    CHARGE          LOW.POP.     CHARGE
    1 C             6.438798   -0.438798         6.628754   -0.628754
    2 C             5.827102    0.172898         5.959044    0.040956
    3 O             8.314883   -0.314883         8.181942   -0.181942
    4 H             0.906261    0.093739         0.902049    0.097951
    5 H             0.857632    0.142368         0.746468    0.253532
    6 H             0.844395    0.155605         0.782996    0.217004
    7 H             0.810930    0.189070         0.798746    0.201254

          MULLIKEN SPHERICAL HARMONIC POPULATIONS
       ATOM           S       P       D      F      G      H      I    TOTAL
    1 C             3.29    3.11    0.04   0.00   0.00   0.00   0.00    6.44
    2 C             3.17    2.57    0.09   0.00   0.00   0.00   0.00    5.83
    3 O             3.86    4.43    0.03   0.00   0.00   0.00   0.00    8.31
    4 H             0.91    0.00    0.00   0.00   0.00   0.00   0.00    0.91
    5 H             0.86    0.00    0.00   0.00   0.00   0.00   0.00    0.86
    6 H             0.84    0.00    0.00   0.00   0.00   0.00   0.00    0.84
    7 H             0.81    0.00    0.00   0.00   0.00   0.00   0.00    0.81

          -------------------------------
          BOND ORDER AND VALENCE ANALYSIS     BOND ORDER THRESHOLD=0.050
          -------------------------------

                   BOND                       BOND                       BOND
  ATOM PAIR DIST  ORDER      ATOM PAIR DIST  ORDER      ATOM PAIR DIST  ORDER
    1   2  1.509  1.068        1   5  1.093  0.695        1   6  1.098  0.535
    1   7  1.098  0.924        2   3  1.211  2.035        2   4  1.115  0.885
    5   6  0.558  0.287

                       TOTAL       BONDED        FREE
      ATOM            VALENCE     VALENCE     VALENCE
    1 C                 3.228       3.228      -0.000
    2 C                 3.997       3.997       0.000
    3 O                 2.104       2.104      -0.000
    4 H                 0.920       0.920       0.000
    5 H                 1.002       1.002      -0.000
    6 H                 0.836       0.836      -0.000
    7 H                 0.939       0.939       0.000

          ---------------------
          ELECTROSTATIC MOMENTS
          ---------------------

 POINT   1           X           Y           Z (BOHR)    CHARGE
                -0.000000   -0.000000    0.000000        0.00 (A.U.)
         DX          DY          DZ         /D/  (DEBYE)
    -3.030886   -1.813822   -1.310811    3.767552
 ...... END OF PROPERTY EVALUATION ......
 STEP CPU TIME =     0.00 TOTAL CPU TIME =          5.4 (      0.1 MIN)
 TOTAL WALL CLOCK TIME=          5.6 SECONDS, CPU UTILIZATION IS    96.09%
                580000  WORDS OF DYNAMIC MEMORY USED
 EXECUTION OF GAMESS TERMINATED NORMALLY Thu Oct 17 12:46:25 2019
 DDI: 263640 bytes (0.3 MB / 0 MWords) used by master data server.

 ----------------------------------------
 CPU timing information for all processes
 ========================================
 0: 5.220 + 0.196 = 5.417
 ----------------------------------------
 ddikick.x: exited gracefully.
----- accounting info -----
Files used on the master node crcfe01.crc.nd.edu were:
-rw-r--r-- 1 cdrisko campus      489 Oct 17 12:46 /afs/crc.nd.edu/user/c/cdrisko/acetaldehyde.F05
-rw-r--r-- 1 cdrisko campus    45118 Oct 17 12:46 /afs/crc.nd.edu/user/c/cdrisko/acetaldehyde.F07
-rw-r--r-- 1 cdrisko campus 11881056 Oct 17 12:46 /afs/crc.nd.edu/user/c/cdrisko/acetaldehyde.F08
-rw-r--r-- 1 cdrisko campus  1799600 Oct 17 12:46 /afs/crc.nd.edu/user/c/cdrisko/acetaldehyde.F10
Thu Oct 17 12:46:29 EDT 2019
0.399u 0.497s 0:09.37 9.3%	0+0k 0+24io 0pf+0w
