----- GAMESS execution script 'rungms' -----
This job is running on host crcfe02.crc.nd.edu
under operating system Linux at Sun Sep 29 10:54:13 EDT 2019
Available scratch disk space (Kbyte units) at beginning of the job is
Filesystem      1K-blocks  Used  Available Use% Mounted on
AFS            2147483647     0 2147483647   0% /afs
GAMESS temporary binary files will be written to /afs/crc.nd.edu/user/c/cdrisko
GAMESS supplementary output files will be written to /afs/crc.nd.edu/user/c/cdrisko/scr
Copying input file SO2.inp to your run's scratch directory...

 Distributed Data Interface kickoff program.
 Initiating 1 compute processes on 1 nodes to run the following command:
 /afs/crc.nd.edu/x86_64_linux/g/gamess/nov-2017/gamess/gamess.00.x SO2 

          ******************************************************
          *         GAMESS VERSION = 11 NOV 2017 (R3)         *
          *             FROM IOWA STATE UNIVERSITY             *
          * M.W.SCHMIDT, K.K.BALDRIDGE, J.A.BOATZ, S.T.ELBERT, *
          *   M.S.GORDON, J.H.JENSEN, S.KOSEKI, N.MATSUNAGA,   *
          *          K.A.NGUYEN, S.J.SU, T.L.WINDUS,           *
          *       TOGETHER WITH M.DUPUIS, J.A.MONTGOMERY       *
          *         J.COMPUT.CHEM.  14, 1347-1363(1993)        *
          **************** 64 BIT INTEL VERSION ****************

  SINCE 1993, STUDENTS AND POSTDOCS WORKING AT IOWA STATE UNIVERSITY
  AND ALSO IN THEIR VARIOUS JOBS AFTER LEAVING ISU HAVE MADE IMPORTANT
  CONTRIBUTIONS TO THE CODE:
     IVANA ADAMOVIC, CHRISTINE AIKENS, YURI ALEXEEV, POOJA ARORA,
     ANDREY ASADCHEV, ROB BELL, PRADIPTA BANDYOPADHYAY, JONATHAN BENTZ,
     BRETT BODE, KURT BRORSEN, CALEB CARLIN, GALINA CHABAN, WEI CHEN,
     CHEOL HO CHOI, PAUL DAY, ALBERT DEFUSCO, NUWAN DESILVA, TIM DUDLEY,
     DMITRI FEDOROV, ALEX FINDLATER, GRAHAM FLETCHER, MARK FREITAG,
     KURT GLAESEMANN, ANASTASIA GUININA,
     DAN KEMP, GRANT MERRILL, NORIYUKI MINEZAWA, JONATHAN MULLIN,
     TAKESHI NAGATA, SEAN NEDD, HEATHER NETZLOFF, BOSILJKA NJEGIC, RYAN OLSON,
     MIKE PAK, BUU PHAM,
     SPENCER PRUITT, LUKE ROSKOP, JIM SHOEMAKER, LYUDMILA SLIPCHENKO,
     TONY SMITH, SAROM SOK LEANG, JIE SONG, TETSUYA TAKETSUGU, SIMON WEBB,
     PENG XU, SOOHAENG YOO, FEDERICO ZAHARIEV

  ADDITIONAL CODE HAS BEEN PROVIDED BY COLLABORATORS IN OTHER GROUPS:
     IOWA STATE UNIVERSITY:
          JOE IVANIC, AARON WEST, LAIMUTIS BYTAUTAS, KLAUS RUEDENBERG
     UNIVERSITY OF TOKYO: KIMIHIKO HIRAO, TAKAHITO NAKAJIMA,
          TAKAO TSUNEDA, MUNEAKI KAMIYA, SUSUMU YANAGISAWA,
          KIYOSHI YAGI, MAHITO CHIBA, SEIKEN TOKURA, NAOAKI KAWAKAMI
     UNIVERSITY OF AARHUS: FRANK JENSEN
     UNIVERSITY OF IOWA: VISVALDAS KAIRYS, HUI LI
     NATIONAL INST. OF STANDARDS AND TECHNOLOGY: WALT STEVENS, DAVID GARMER
     UNIVERSITY OF PISA: BENEDETTA MENNUCCI, JACOPO TOMASI
     UNIVERSITY OF MEMPHIS: HENRY KURTZ, PRAKASHAN KORAMBATH
     UNIVERSITY OF ALBERTA: TOBY ZENG, MARIUSZ KLOBUKOWSKI
     UNIVERSITY OF NEW ENGLAND: MARK SPACKMAN
     MIE UNIVERSITY: HIROAKI UMEDA
     NAT. INST. OF ADVANCED INDUSTRIAL SCIENCE AND TECHNOLOGY: KAZUO KITAURA
     MICHIGAN STATE UNIVERSITY:
          KAROL KOWALSKI, MARTA WLOCH, JEFFREY GOUR, JESSE LUTZ,
          WEI LI, PIOTR PIECUCH
     UNIVERSITY OF SILESIA: MONIKA MUSIAL, STANISLAW KUCHARSKI
     FACULTES UNIVERSITAIRES NOTRE-DAME DE LA PAIX:
          OLIVIER QUINET, BENOIT CHAMPAGNE
     UNIVERSITY OF CALIFORNIA - SANTA BARBARA: BERNARD KIRTMAN
     INSTITUTE FOR MOLECULAR SCIENCE:
          KAZUYA ISHIMURA, MICHIO KATOUDA, AND SHIGERU NAGASE
     UNIVERSITY OF NOTRE DAME: ANNA POMOGAEVA, DAN CHIPMAN
     KYUSHU UNIVERSITY:
          HARUYUKI NAKANO,
          FENG LONG GU, JACEK KORCHOWIEC, MARCIN MAKOWSKI, AND YURIKO AOKI,
          HIROTOSHI MORI AND EISAKU MIYOSHI
     PENNSYLVANIA STATE UNIVERSITY:
          TZVETELIN IORDANOV, CHET SWALINA, JONATHAN SKONE,
          SHARON HAMMES-SCHIFFER
     WASEDA UNIVERSITY:
          MASATO KOBAYASHI, TOMOKO AKAMA, TSUGUKI TOUMA,
          TAKESHI YOSHIKAWA, YASUHIRO IKABATA, JUNJI SEINO,
          YUYA NAKAJIMA, HIROMI NAKAI
     NANJING UNIVERSITY: SHUHUA LI
     UNIVERSITY OF NEBRASKA:
          PEIFENG SU, DEJUN SI, NANDUN THELLAMUREGE, YALI WANG, HUI LI
     UNIVERSITY OF ZURICH: ROBERTO PEVERATI, KIM BALDRIDGE
     N. COPERNICUS UNIVERSITY AND JACKSON STATE UNIVERSITY:
          MARIA BARYSZ
     UNIVERSITY OF COPENHAGEN: Jimmy Kromann, CASPER STEINMANN
     TOKYO INSTITUTE OF TECHNOLOGY: HIROYA NAKATA
     NAGOYA UNIVERSITY: YOSHIO NISHIMOTO, STEPHAN IRLE
     MOSCOW STATE UNIVERSITY: VLADIMIR MIRONOV

 EXECUTION OF GAMESS BEGUN Sun Sep 29 10:54:13 2019

            ECHO OF THE FIRST FEW INPUT CARDS -
 INPUT CARD> $BASIS GBASIS=PCSEG-1 $END                                                     
 INPUT CARD> $CONTRL COORD=ZMT ISPHER=1 RUNTYP=ENERGY DFTTYP=PBE MULT=1 $END                
 INPUT CARD>                                                                                
 INPUT CARD> $DATA                                                                          
 INPUT CARD>Title SO2 single-point calculation template with Z-Matrix                       
 INPUT CARD>C1                                                                              
 INPUT CARD>S                                                                               
 INPUT CARD>O 1 1.70                                                                        
 INPUT CARD>O 1 1.70 2 120                                                                  
 INPUT CARD> $END                                                                           
    1000000 WORDS OF MEMORY AVAILABLE

     BASIS OPTIONS
     -------------
     GBASIS=PCSEG-1      IGAUSS=       0      POLAR=NONE    
     NDFUNC=       0     NFFUNC=       0     DIFFSP=       F
     NPFUNC=       0      DIFFS=       F     BASNAM=        


     RUN TITLE
     ---------
 Title SO2 single-point calculation template with Z-Matrix                       

 THE POINT GROUP OF THE MOLECULE IS C1      
 THE ORDER OF THE PRINCIPAL AXIS IS     0

 YOUR FULLY SUBSTITUTED Z-MATRIX IS
 S   
 O      1   1.7000000
 O      1   1.7000000  2  120.0000

 THE MOMENTS OF INERTIA ARE (AMU-ANGSTROM**2)
 IXX=    11.553   IYY=    69.338   IZZ=    80.891

 ATOM      ATOMIC                      COORDINATES (BOHR)
           CHARGE         X                   Y                   Z
 S          16.0     0.0000000000       -0.8033564216        0.0000000000
 O           8.0     2.7821362097        0.8029106680        0.0000000000
 O           8.0    -2.7821362097        0.8029106680        0.0000000000

          INTERNUCLEAR DISTANCES (ANGS.)
          ------------------------------

                1 S          2 O          3 O     

   1 S       0.0000000    1.7000000 *  1.7000000 *
   2 O       1.7000000 *  0.0000000    2.9444864 *
   3 O       1.7000000 *  2.9444864 *  0.0000000  

  * ... LESS THAN  3.000


     ATOMIC BASIS SET
     ----------------
 THE CONTRACTED PRIMITIVE FUNCTIONS HAVE BEEN UNNORMALIZED
 THE CONTRACTED BASIS FUNCTIONS ARE NOW NORMALIZED TO UNITY

  SHELL TYPE  PRIMITIVE        EXPONENT          CONTRACTION COEFFICIENT(S)

 S         

      1   S       1         49299.4000000    0.000677492991
      1   S       2          7395.8400000    0.005232317766
      1   S       3          1683.3000000    0.026769459077
      1   S       4           476.1440000    0.102869580705
      1   S       5           154.3290000    0.286438127414
      1   S       6            55.0288000    0.454278639081
      1   S       7            20.5029000    0.271743121997

      2   S       8            45.9596000   -0.088421914560
      2   S       9             4.9274000    0.564350486135
      2   S      10             1.9179900    0.505415953466

      3   S      11             0.3684980    1.000000000000

      4   S      12             0.1291650    1.000000000000

      5   P      13           451.6620000    0.003707705453
      5   P      14           106.0980000    0.029219352245
      5   P      15            33.6996000    0.124444551509
      5   P      16            12.3054000    0.321808587656
      5   P      17             4.7141200    0.462822172957
      5   P      18             1.7810500    0.266513371364

      6   P      19             0.8722350    0.349265132972
      6   P      20             0.3102780    0.717115018770

      7   P      21             0.1001940    1.000000000000

      8   D      22             0.5500000    1.000000000000

 O         

      9   S      23          2288.6400000    0.005451138222
      9   S      24           344.4160000    0.040718922842
      9   S      25            78.2538000    0.181369420873
      9   S      26            21.7195000    0.465536820246
      9   S      27             6.5590700    0.451211321214

     10   S      28            10.4656000   -0.150211201174
     10   S      29             0.9643510    1.052867983385

     11   S      30             0.2851270    1.000000000000

     12   P      31            17.0590000    0.068749256972
     12   P      32             3.6899900    0.351671941499
     12   P      33             0.9929960    0.724532099722

     13   P      34             0.2449240    1.000000000000

     14   D      35             1.0000000    1.000000000000

 O         

     15   S      36          2288.6400000    0.005451138222
     15   S      37           344.4160000    0.040718922842
     15   S      38            78.2538000    0.181369420873
     15   S      39            21.7195000    0.465536820246
     15   S      40             6.5590700    0.451211321214

     16   S      41            10.4656000   -0.150211201174
     16   S      42             0.9643510    1.052867983385

     17   S      43             0.2851270    1.000000000000

     18   P      44            17.0590000    0.068749256972
     18   P      45             3.6899900    0.351671941499
     18   P      46             0.9929960    0.724532099722

     19   P      47             0.2449240    1.000000000000

     20   D      48             1.0000000    1.000000000000

 TOTAL NUMBER OF BASIS SET SHELLS             =   20
 NUMBER OF CARTESIAN GAUSSIAN BASIS FUNCTIONS =   49
 NOTE: THIS RUN WILL RESTRICT THE MO VARIATION SPACE TO SPHERICAL HARMONICS.
 THE NUMBER OF ORBITALS KEPT IN THE VARIATIONAL SPACE WILL BE PRINTED LATER.
 NUMBER OF ELECTRONS                          =   32
 CHARGE OF MOLECULE                           =    0
 SPIN MULTIPLICITY                            =    1
 NUMBER OF OCCUPIED ORBITALS (ALPHA)          =   16
 NUMBER OF OCCUPIED ORBITALS (BETA )          =   16
 TOTAL NUMBER OF ATOMS                        =    3
 THE NUCLEAR REPULSION ENERGY IS       91.1898211485

     LEBEDEV GRID-BASED DFT OPTIONS
     ------------------------------
     DFTTYP=PBE     
     NRAD  =      96     NLEB  =     302
     NRAD0 =      24     NLEB0 =     110
     SWOFF =    5.00E-03 (PURE SCF -> DFT)
     SWITCH=    3.00E-04 (COARSE -> TIGHT GRID)
     THRESH=    0.00E+00 GTHRE=    1.00E+00

 GRIMME'S EMPIRICAL DISPERSION CORRECTION= F

     $CONTRL OPTIONS
     ---------------
 SCFTYP=RHF          RUNTYP=ENERGY       EXETYP=RUN     
 MPLEVL=       0     CITYP =NONE         CCTYP =NONE         VBTYP =NONE    
 DFTTYP=PBE          TDDFT =NONE    
 MULT  =       1     ICHARG=       0     NZVAR =       0     COORD =ZMT     
 PP    =NONE         RELWFN=NONE         LOCAL =NONE         NUMGRD=       F
 ISPHER=       1     NOSYM =       0     MAXIT =      30     UNITS =ANGS    
 PLTORB=       F     MOLPLT=       F     AIMPAC=       F     FRIEND=        
 NPRINT=       7     IREST =       0     GEOM  =INPUT   
 NORMF =       0     NORMP =       0     ITOL  =      20     ICUT  =       9
 INTTYP=BEST         GRDTYP=BEST         QMTTOL= 1.0E-06

     $SYSTEM OPTIONS
     ---------------
  REPLICATED MEMORY=     1000000 WORDS (ON EVERY NODE).
 DISTRIBUTED MEMDDI=           0 MILLION WORDS IN AGGREGATE,
 MEMDDI DISTRIBUTED OVER   1 PROCESSORS IS           0 WORDS/PROCESSOR.
 TOTAL MEMORY REQUESTED ON EACH PROCESSOR=     1000000 WORDS.
 TIMLIM=      525600.00 MINUTES, OR     365.0 DAYS.
 PARALL= F  BALTYP=  DLB     KDIAG=    0  COREFL= F
 MXSEQ2=     300 MXSEQ3=     150  mem10=         0

          ----------------
          PROPERTIES INPUT
          ----------------

     MOMENTS            FIELD           POTENTIAL          DENSITY
 IEMOM =       1   IEFLD =       0   IEPOT =       0   IEDEN =       0
 WHERE =COMASS     WHERE =NUCLEI     WHERE =NUCLEI     WHERE =NUCLEI  
 OUTPUT=BOTH       OUTPUT=BOTH       OUTPUT=BOTH       OUTPUT=BOTH    
 IEMINT=       0   IEFINT=       0                     IEDINT=       0
                                                       MORB  =       0
          EXTRAPOLATION IN EFFECT
          DIIS IN EFFECT
 ORBITAL PRINTING OPTION: NPREO=     1    49     2     1

     -------------------------------
     INTEGRAL TRANSFORMATION OPTIONS
     -------------------------------
     NWORD  =            0
     CUTOFF = 1.0E-09     MPTRAN =       0
     DIRTRF =       F     AOINTS =DUP     

          ----------------------
          INTEGRAL INPUT OPTIONS
          ----------------------
 NOPK  =       1 NORDER=       0 SCHWRZ=       F

   --- ENCODED Z MATRIX ---
 COORD  TYPE   I   J   K   L   M   N
    1      1    2   1
    2      1    3   1
    3      2    3   1   2

 THE DETERMINANT OF THE G MATRIX IS 10**(    -4)

 THE DETERMINANT OF THE G MATRIX IS 10**(    -4)
 * * * WARNING * * *
 YOUR B MATRIX HAS A SMALL DETERMINANT.
 THIS SUGGESTS YOU MAY HAVE BADLY CHOSEN COORDINATES.

     ------------------------------------------
     THE POINT GROUP IS C1 , NAXIS= 0, ORDER= 1
     ------------------------------------------

 -- VARIATIONAL SPACE WILL BE RESTRICTED TO PURE SPHERICAL HARMONICS ONLY --
 AFTER EXCLUDING CONTAMINANT COMBINATIONS FROM THE CARTESIAN GAUSSIAN BASIS
 SET, THE NUMBER OF SPHERICAL HARMONICS KEPT IN THE VARIATION SPACE IS   46

     DIMENSIONS OF THE SYMMETRY SUBSPACES ARE
 A   =   46

 ..... DONE SETTING UP THE RUN .....
 STEP CPU TIME =     0.03 TOTAL CPU TIME =          0.0 (      0.0 MIN)
 TOTAL WALL CLOCK TIME=          0.0 SECONDS, CPU UTILIZATION IS   100.00%

          ********************
          1 ELECTRON INTEGRALS
          ********************
 ...... END OF ONE-ELECTRON INTEGRALS ......
 STEP CPU TIME =     0.00 TOTAL CPU TIME =          0.0 (      0.0 MIN)
 TOTAL WALL CLOCK TIME=          0.0 SECONDS, CPU UTILIZATION IS   100.00%

          -------------
          GUESS OPTIONS
          -------------
          GUESS =HUCKEL            NORB  =       0          NORDER=       0
          MIX   =       F          PRTMO =       F          PUNMO =       F
          TOLZ  = 1.0E-08          TOLE  = 1.0E-05
          SYMDEN=       F          PURIFY=       F

 INITIAL GUESS ORBITALS GENERATED BY HUCKEL   ROUTINE.
 HUCKEL GUESS REQUIRES     21634 WORDS.

 STATISTICS FOR GENERATION OF SYMMETRY ORBITAL -Q- MATRIX
 NUMBER OF CARTESIAN ATOMIC ORBITALS=         49
 NUMBER OF SPHERICAL CONTAMINANTS DROPPED=     3
 NUMBER OF LINEARLY DEPENDENT MOS DROPPED=     0
 TOTAL NUMBER OF MOS IN VARIATION SPACE=      46

 SYMMETRIES FOR INITIAL GUESS ORBITALS FOLLOW.   BOTH SET(S).
    16 ORBITALS ARE OCCUPIED (    7 CORE ORBITALS).
     8=A        9=A       10=A       11=A       12=A       13=A       14=A   
    15=A       16=A       17=A       18=A       19=A       20=A       21=A   
    22=A       23=A       24=A       25=A       26=A   
 ...... END OF INITIAL ORBITAL SELECTION ......
 STEP CPU TIME =     0.00 TOTAL CPU TIME =          0.0 (      0.0 MIN)
 TOTAL WALL CLOCK TIME=          0.0 SECONDS, CPU UTILIZATION IS    75.00%

                    ----------------------
                    AO INTEGRAL TECHNOLOGY
                    ----------------------
     S,P,L SHELL ROTATED AXIS INTEGRALS, REPROGRAMMED BY
        KAZUYA ISHIMURA (IMS) AND JOSE SIERRA (SYNSTAR).
     S,P,D,L SHELL ROTATED AXIS INTEGRALS PROGRAMMED BY
        KAZUYA ISHIMURA (INSTITUTE FOR MOLECULAR SCIENCE).
     S,P,D,F,G SHELL TO TOTAL QUARTET ANGULAR MOMENTUM SUM 5,
        ERIC PROGRAM BY GRAHAM FLETCHER (ELORET AND NASA ADVANCED
        SUPERCOMPUTING DIVISION, AMES RESEARCH CENTER).
     S,P,D,F,G,L SHELL GENERAL RYS QUADRATURE PROGRAMMED BY
        MICHEL DUPUIS (PACIFIC NORTHWEST NATIONAL LABORATORY).

          --------------------
          2 ELECTRON INTEGRALS
          --------------------

 THE -PK- OPTION IS OFF, THE INTEGRALS ARE NOT IN SUPERMATRIX FORM.
 STORING   15000 INTEGRALS/RECORD ON DISK, USING 12 BYTES/INTEGRAL.
 TWO ELECTRON INTEGRAL EVALUATION REQUIRES   90606 WORDS OF MEMORY.
 II,JST,KST,LST =  1  1  1  1 NREC =         1 INTLOC =    1
 II,JST,KST,LST =  2  1  1  1 NREC =         1 INTLOC =    2
 II,JST,KST,LST =  3  1  1  1 NREC =         1 INTLOC =    7
 II,JST,KST,LST =  4  1  1  1 NREC =         1 INTLOC =   22
 II,JST,KST,LST =  5  1  1  1 NREC =         1 INTLOC =   56
 II,JST,KST,LST =  6  1  1  1 NREC =         1 INTLOC =  125
 II,JST,KST,LST =  7  1  1  1 NREC =         1 INTLOC =  329
 II,JST,KST,LST =  8  1  1  1 NREC =         1 INTLOC =  776
 II,JST,KST,LST =  9  1  1  1 NREC =         1 INTLOC = 2864
 II,JST,KST,LST = 10  1  1  1 NREC =         1 INTLOC = 4841
 II,JST,KST,LST = 11  1  1  1 NREC =         1 INTLOC = 7491
 II,JST,KST,LST = 12  1  1  1 NREC =         1 INTLOC =10598
 II,JST,KST,LST = 13  1  1  1 NREC =         2 INTLOC = 6435
 II,JST,KST,LST = 14  1  1  1 NREC =         3 INTLOC = 6653
 II,JST,KST,LST = 15  1  1  1 NREC =         6 INTLOC = 8448
 II,JST,KST,LST = 16  1  1  1 NREC =         7 INTLOC =  222
 II,JST,KST,LST = 17  1  1  1 NREC =         7 INTLOC =11013
 II,JST,KST,LST = 18  1  1  1 NREC =         8 INTLOC = 9287
 II,JST,KST,LST = 19  1  1  1 NREC =        11 INTLOC =  814
 II,JST,KST,LST = 20  1  1  1 NREC =        14 INTLOC = 7090
 TOTAL NUMBER OF NONZERO TWO-ELECTRON INTEGRALS =              324826
         22 INTEGRAL RECORDS WERE STORED ON DISK FILE  8.
  ...... END OF TWO-ELECTRON INTEGRALS .....
 STEP CPU TIME =     0.09 TOTAL CPU TIME =          0.1 (      0.0 MIN)
 TOTAL WALL CLOCK TIME=          0.1 SECONDS, CPU UTILIZATION IS    92.31%

          --------------------------
               R-PBE SCF CALCULATION
          --------------------------

     NUCLEAR ENERGY =        91.1898211485
     MAXIT =   30     NPUNCH=    2
     EXTRAP=T  DAMP=F  SHIFT=F  RSTRCT=F  DIIS=T  DEM=F  SOSCF=F
         DENSITY MATRIX CONVERGENCE THRESHOLD=  1.00E-05
     COARSE -> FINE DFT GRID SWITCH THRESHOLD=  3.00E-04 (SWITCH IN $DFT)
                   HF -> DFT SWITCH THRESHOLD=  5.00E-03 (SWOFF IN $DFT)
     MEMORY REQUIRED FOR RHF ITERS=    183108 WORDS.

 DFT CODE IS SWITCHING FROM THE FINE GRID NRAD= 96,  NLEB=  302
                      TO THE COARSE GRID NRAD0= 24, NLEB0=  110

     EXCHANGE FUNCTIONAL   =PBE       
     CORRELATION FUNCTIONAL=PBE       
     DFT THRESHOLD         =.460E-07
     GRID CHANGE THRESHOLD =.300E-03
 FOR AN EULER-MACLAURIN QUADRATURE USING  96 RADIAL POINTS:
 SMALLEST GAUSSIAN PRIMITIVE EXPONENT=        0.1001940000 OF TYPE -P-
 ON ATOM NUMBER   1 HAS RADIAL NORMALIZATION=  1.000000
  LARGEST GAUSSIAN PRIMITIVE EXPONENT=    49299.4000000000 OF TYPE -S-
 ON ATOM NUMBER   1 HAS RADIAL NORMALIZATION=  1.000000
 DFT IS SWITCHED OFF, PERFORMING PURE SCF UNTIL SWOFF THRESHOLD IS REACHED.

 ITER EX DEM     TOTAL ENERGY        E CHANGE  DENSITY CHANGE    DIIS ERROR
   1  0  0     -545.9636706442  -545.9636706442   0.722424112   0.821779815
          * * *   INITIATING DIIS PROCEDURE   * * *
   2  1  0     -546.4036081493    -0.4399375052   0.823106692   0.373178238
   3  2  0     -546.3417536599     0.0618544894   0.351296692   0.403034100
   4  3  0     -546.9703468124    -0.6285931525   0.039539876   0.011219780
   5  4  0     -546.9715775260    -0.0012307136   0.010528874   0.008423984
   6  5  0     -546.9718332511    -0.0002557251   0.005083951   0.002573665
   7  6  0     -546.9719011585    -0.0000679074   0.004275779   0.000801339
 CONVERGED TO SWOFF, SO DFT CALCULATION IS NOW SWITCHED ON.
          * * *   INITIATING DIIS PROCEDURE   * * *
   8  7  0     -548.1382764939    -1.1663753355   0.517490633   0.103518969
   9  8  0     -548.1118504959     0.0264259980   0.458476578   0.157357872
  10  9  0     -548.1258275040    -0.0139770081   0.141595016   0.152770806
  11 10  0     -548.1865272158    -0.0606997118   0.032913044   0.014639994
  12 11  0     -548.1873219130    -0.0007946972   0.002341977   0.001477810
  13 12  0     -548.1873301406    -0.0000082275   0.000820574   0.000479640
  14 13  0     -548.1873305748    -0.0000004342   0.000381727   0.000414031
  15 14  0     -548.1873307405    -0.0000001657   0.000158042   0.000248315
 DFT CODE IS SWITCHING BACK TO THE FINE GRID
          * * *   INITIATING DIIS PROCEDURE   * * *
  16 15  0     -548.1941166996    -0.0067859591   0.023964537   0.013365015
  17 16  0     -548.1942380664    -0.0001213668   0.029702230   0.007971495
  18 17  0     -548.1938548477     0.0003832188   0.019571721   0.015146077
  19 18  0     -548.1944365290    -0.0005816813   0.000494942   0.000439121
  20 19  0     -548.1944365293    -0.0000000003   0.000781245   0.000580417
  21 20  0     -548.1944361456     0.0000003837   0.000475380   0.000781382
  22 21  0     -548.1944370695    -0.0000009239   0.000050242   0.000014088
  23 22  0     -548.1944370706    -0.0000000011   0.000010536   0.000006335
  24 23  0     -548.1944370707    -0.0000000001   0.000000657   0.000000403
  25 24  0     -548.1944370707     0.0000000000   0.000000030   0.000000018

          -----------------
          DENSITY CONVERGED
          -----------------
     TIME TO FORM FOCK OPERATORS=       2.7 SECONDS (       0.1 SEC/ITER)
     TIME TO SOLVE SCF EQUATIONS=       0.0 SECONDS (       0.0 SEC/ITER)

 FINAL R-PBE ENERGY IS     -548.1944370707 AFTER  25 ITERATIONS
 DFT EXCHANGE + CORRELATION ENERGY =       -42.2491596957
 TOTAL ELECTRON NUMBER             =        32.0000026083

          ------------
          EIGENVECTORS
          ------------

                      1          2          3          4          5
                  -88.2324   -18.8261   -18.8261    -7.8460    -5.8724
                     A          A          A          A          A   
    1  S  1  S    0.997764   0.000002   0.000000  -0.308401  -0.000000
    2  S  1  S    0.008203  -0.000077  -0.000000   1.031837   0.000000
    3  S  1  S   -0.002836  -0.000924  -0.000002   0.027538   0.000000
    4  S  1  S    0.001042   0.007140   0.000013  -0.005820  -0.000000
    5  S  1  X   -0.000000   0.000000  -0.000145  -0.000000   0.994706
    6  S  1  Y    0.000106  -0.000161  -0.000000   0.009262  -0.000001
    7  S  1  Z    0.000000   0.000000   0.000000   0.000000   0.000000
    8  S  1  X    0.000000  -0.000003   0.001524  -0.000000   0.017037
    9  S  1  Y   -0.000211   0.001255   0.000002   0.000867  -0.000000
   10  S  1  Z    0.000000   0.000000   0.000000   0.000000   0.000000
   11  S  1  X    0.000000  -0.000007   0.003725  -0.000000  -0.002540
   12  S  1  Y    0.000032   0.002854   0.000005  -0.000148   0.000000
   13  S  1  Z    0.000000   0.000000   0.000000   0.000000   0.000000
   14  S  1 XX   -0.000129   0.000885   0.000002   0.000586  -0.000000
   15  S  1 YY    0.000029  -0.000000  -0.000000  -0.000215  -0.000000
   16  S  1 ZZ    0.000100  -0.000884  -0.000002  -0.000371   0.000000
   17  S  1 XY    0.000000  -0.000001   0.000766  -0.000000   0.001187
   18  S  1 XZ    0.000000   0.000000   0.000000   0.000000   0.000000
   19  S  1 YZ    0.000000   0.000000   0.000000   0.000000   0.000000
   20  O  2  S   -0.000006   0.701036   0.703632   0.000025  -0.000065
   21  O  2  S   -0.000104   0.023664   0.023360   0.000042  -0.000055
   22  O  2  S    0.000139  -0.011248  -0.010291  -0.000253  -0.000729
   23  O  2  X    0.000010  -0.000868  -0.000679   0.000175   0.000075
   24  O  2  Y    0.000011  -0.000322  -0.000512   0.000087   0.000071
   25  O  2  Z    0.000000   0.000000   0.000000   0.000000   0.000000
   26  O  2  X   -0.000241   0.002844   0.001518   0.000709   0.000980
   27  O  2  Y   -0.000153   0.000819   0.001504   0.000466   0.000623
   28  O  2  Z    0.000000   0.000000   0.000000   0.000000   0.000000
   29  O  2 XX    0.000115  -0.000292  -0.000116  -0.000254   0.000126
   30  O  2 YY   -0.000021   0.000097  -0.000034   0.000040  -0.000063
   31  O  2 ZZ   -0.000094   0.000195   0.000150   0.000215  -0.000063
   32  O  2 XY    0.000142  -0.000219  -0.000224  -0.000327   0.000053
   33  O  2 XZ    0.000000   0.000000   0.000000   0.000000   0.000000
   34  O  2 YZ    0.000000   0.000000   0.000000   0.000000   0.000000
   35  O  3  S   -0.000006   0.703639  -0.701028   0.000025   0.000065
   36  O  3  S   -0.000104   0.023751  -0.023272   0.000042   0.000055
   37  O  3  S    0.000139  -0.011287   0.010249  -0.000253   0.000729
   38  O  3  X   -0.000010   0.000871  -0.000675  -0.000175   0.000075
   39  O  3  Y    0.000011  -0.000323   0.000510   0.000087  -0.000071
   40  O  3  Z    0.000000   0.000000   0.000000   0.000000   0.000000
   41  O  3  X    0.000241  -0.002850   0.001507  -0.000709   0.000980
   42  O  3  Y   -0.000153   0.000825  -0.001501   0.000466  -0.000623
   43  O  3  Z    0.000000   0.000000   0.000000   0.000000   0.000000
   44  O  3 XX    0.000115  -0.000292   0.000115  -0.000254  -0.000126
   45  O  3 YY   -0.000021   0.000096   0.000035   0.000040   0.000063
   46  O  3 ZZ   -0.000094   0.000196  -0.000149   0.000215   0.000063
   47  O  3 XY   -0.000142   0.000220  -0.000223   0.000327   0.000053
   48  O  3 XZ    0.000000   0.000000   0.000000   0.000000   0.000000
   49  O  3 YZ    0.000000   0.000000   0.000000   0.000000   0.000000

                      6          7          8          9         10
                   -5.8703    -5.8674    -0.9554    -0.9025    -0.6370
                     A          A          A          A          A   
    1  S  1  S    0.000000   0.002874   0.044958  -0.000000   0.072965
    2  S  1  S    0.000000  -0.009860  -0.278327   0.000000  -0.465583
    3  S  1  S    0.000000  -0.000292   0.396128  -0.000002   0.709144
    4  S  1  S    0.000000   0.001041   0.083671   0.000004   0.263923
    5  S  1  X    0.000000   0.000001  -0.000000   0.090232   0.000000
    6  S  1  Y    0.000000   0.994924  -0.044325  -0.000000   0.024912
    7  S  1  Z    0.995004   0.000000   0.000000   0.000000   0.000000
    8  S  1  X    0.000000   0.000000   0.000000  -0.205288   0.000000
    9  S  1  Y    0.000000   0.015981   0.099445   0.000000  -0.056715
   10  S  1  Z    0.015793   0.000000   0.000000   0.000000   0.000000
   11  S  1  X    0.000000  -0.000000   0.000003   0.002266  -0.000002
   12  S  1  Y    0.000000  -0.002777  -0.010345   0.000002  -0.030830
   13  S  1  Z   -0.003118   0.000000   0.000000   0.000000   0.000000
   14  S  1 XX    0.000000  -0.000030   0.033590   0.000000  -0.010648
   15  S  1 YY    0.000000   0.000545  -0.007175  -0.000000  -0.001647
   16  S  1 ZZ    0.000000  -0.000516  -0.026416  -0.000000   0.012296
   17  S  1 XY    0.000000   0.000000   0.000000  -0.051913  -0.000000
   18  S  1 XZ   -0.000000   0.000000   0.000000   0.000000   0.000000
   19  S  1 YZ    0.000486   0.000000   0.000000   0.000000   0.000000
   20  O  2  S    0.000000  -0.000043  -0.142316   0.167157   0.108046
   21  O  2  S    0.000000  -0.000020   0.291448  -0.347912  -0.231112
   22  O  2  S    0.000000  -0.000416   0.286541  -0.341655  -0.282346
   23  O  2  X    0.000000   0.000028  -0.077859   0.066026  -0.097113
   24  O  2  Y    0.000000  -0.000021  -0.042426   0.041128  -0.060898
   25  O  2  Z   -0.000061   0.000000   0.000000   0.000000   0.000000
   26  O  2  X    0.000000   0.000613  -0.037150   0.025097  -0.046279
   27  O  2  Y    0.000000   0.000177  -0.018935   0.017315  -0.024584
   28  O  2  Z   -0.000054   0.000000   0.000000   0.000000   0.000000
   29  O  2 XX    0.000000  -0.000050   0.007539  -0.004704   0.003422
   30  O  2 YY    0.000000   0.000123  -0.003388   0.002481   0.000748
   31  O  2 ZZ    0.000000  -0.000073  -0.004152   0.002223  -0.004170
   32  O  2 XY    0.000000   0.000217   0.008486  -0.007084   0.004458
   33  O  2 XZ    0.000176   0.000000   0.000000   0.000000   0.000000
   34  O  2 YZ    0.000096   0.000000   0.000000   0.000000   0.000000
   35  O  3  S    0.000000  -0.000043  -0.142316  -0.167156   0.108046
   36  O  3  S    0.000000  -0.000020   0.291448   0.347912  -0.231113
   37  O  3  S    0.000000  -0.000416   0.286546   0.341649  -0.282348
   38  O  3  X    0.000000  -0.000028   0.077859   0.066026   0.097114
   39  O  3  Y    0.000000  -0.000021  -0.042426  -0.041128  -0.060898
   40  O  3  Z   -0.000061   0.000000   0.000000   0.000000   0.000000
   41  O  3  X    0.000000  -0.000613   0.037151   0.025094   0.046279
   42  O  3  Y    0.000000   0.000177  -0.018937  -0.017315  -0.024583
   43  O  3  Z   -0.000054   0.000000   0.000000   0.000000   0.000000
   44  O  3 XX    0.000000  -0.000050   0.007539   0.004704   0.003422
   45  O  3 YY    0.000000   0.000123  -0.003388  -0.002481   0.000748
   46  O  3 ZZ    0.000000  -0.000073  -0.004152  -0.002223  -0.004170
   47  O  3 XY    0.000000  -0.000217  -0.008487  -0.007084  -0.004458
   48  O  3 XZ   -0.000176   0.000000   0.000000   0.000000   0.000000
   49  O  3 YZ    0.000096   0.000000   0.000000   0.000000   0.000000

                     11         12         13         14         15
                   -0.4345    -0.4041    -0.3993    -0.3124    -0.2952
                     A          A          A          A          A   
    1  S  1  S    0.000000  -0.011609   0.000000   0.000000   0.000000
    2  S  1  S   -0.000000   0.073924   0.000000   0.000000  -0.000001
    3  S  1  S    0.000000  -0.088958   0.000000   0.000000   0.000001
    4  S  1  S   -0.000001  -0.181330   0.000000   0.000000   0.000006
    5  S  1  X   -0.189560  -0.000000   0.000000   0.000000  -0.019634
    6  S  1  Y    0.000000  -0.219434   0.000000   0.000000   0.000001
    7  S  1  Z    0.000000   0.000000  -0.221521  -0.000000   0.000000
    8  S  1  X    0.511005   0.000000   0.000000   0.000000   0.053012
    9  S  1  Y   -0.000000   0.592940   0.000000   0.000000  -0.000003
   10  S  1  Z    0.000000   0.000000   0.603357   0.000001   0.000000
   11  S  1  X    0.029856   0.000001   0.000000   0.000000   0.110965
   12  S  1  Y   -0.000000   0.133889   0.000000   0.000000   0.000001
   13  S  1  Z    0.000000   0.000000   0.183818   0.000000   0.000000
   14  S  1 XX   -0.000000  -0.010522   0.000000   0.000000  -0.000002
   15  S  1 YY    0.000000   0.033053   0.000000   0.000000   0.000001
   16  S  1 ZZ    0.000000  -0.022531   0.000000   0.000000   0.000001
   17  S  1 XY    0.044509   0.000000   0.000000   0.000000  -0.080754
   18  S  1 XZ    0.000000   0.000000  -0.000000   0.088523   0.000000
   19  S  1 YZ    0.000000   0.000000   0.034132   0.000000   0.000000
   20  O  2  S    0.062889   0.027113   0.000000   0.000000   0.002115
   21  O  2  S   -0.134401  -0.059249   0.000000   0.000000  -0.002203
   22  O  2  S   -0.200012  -0.085230   0.000000   0.000000  -0.041469
   23  O  2  X   -0.280742  -0.287377   0.000000   0.000000   0.327988
   24  O  2  Y   -0.221113   0.078448   0.000000   0.000000  -0.341843
   25  O  2  Z    0.000000   0.000000   0.287850   0.471743   0.000000
   26  O  2  X   -0.150491  -0.180745   0.000000   0.000000   0.225533
   27  O  2  Y   -0.127880   0.053705   0.000000   0.000000  -0.235195
   28  O  2  Z    0.000000   0.000000   0.179310   0.335380   0.000000
   29  O  2 XX    0.004825   0.015384   0.000000   0.000000  -0.011676
   30  O  2 YY    0.002409  -0.010245   0.000000   0.000000   0.011689
   31  O  2 ZZ   -0.007234  -0.005139   0.000000   0.000000  -0.000013
   32  O  2 XY    0.011830   0.000109   0.000000   0.000000   0.005682
   33  O  2 XZ    0.000000   0.000000  -0.014060  -0.013275   0.000000
   34  O  2 YZ    0.000000   0.000000  -0.007859  -0.008498   0.000000
   35  O  3  S   -0.062889   0.027113   0.000000   0.000000  -0.002115
   36  O  3  S    0.134399  -0.059250   0.000000   0.000000   0.002203
   37  O  3  S    0.200013  -0.085229   0.000000   0.000000   0.041467
   38  O  3  X   -0.280741   0.287377   0.000000   0.000000   0.327986
   39  O  3  Y    0.221114   0.078448   0.000000   0.000000   0.341856
   40  O  3  Z    0.000000   0.000000   0.287850  -0.471743   0.000000
   41  O  3  X   -0.150489   0.180746   0.000000   0.000000   0.225531
   42  O  3  Y    0.127880   0.053705   0.000000   0.000000   0.235204
   43  O  3  Z    0.000000   0.000000   0.179311  -0.335380   0.000000
   44  O  3 XX   -0.004825   0.015384   0.000000   0.000000   0.011676
   45  O  3 YY   -0.002409  -0.010245   0.000000   0.000000  -0.011689
   46  O  3 ZZ    0.007234  -0.005139   0.000000   0.000000   0.000013
   47  O  3 XY    0.011830  -0.000109   0.000000   0.000000   0.005683
   48  O  3 XZ    0.000000   0.000000   0.014060  -0.013275   0.000000
   49  O  3 YZ    0.000000   0.000000  -0.007859   0.008498   0.000000

                     16         17         18         19         20
                   -0.2891    -0.2191    -0.1048    -0.0498     0.2161
                     A          A          A          A          A   
    1  S  1  S    0.017429   0.000000   0.028543   0.000000   0.000000
    2  S  1  S   -0.113100   0.000000  -0.191663  -0.000001   0.000000
    3  S  1  S    0.143998   0.000000   0.319835   0.000001   0.000000
    4  S  1  S    0.295480   0.000000   0.381185   0.000000   0.000000
    5  S  1  X    0.000000   0.000000   0.000001  -0.225071   0.000000
    6  S  1  Y    0.068264   0.000000  -0.202155  -0.000001   0.000000
    7  S  1  Z    0.000000  -0.215700   0.000000   0.000000   0.251077
    8  S  1  X   -0.000001   0.000000  -0.000002   0.690869   0.000000
    9  S  1  Y   -0.188572   0.000000   0.617172   0.000003   0.000000
   10  S  1  Z    0.000000   0.628786   0.000000   0.000000  -0.994714
   11  S  1  X   -0.000001   0.000000  -0.000009   0.696180   0.000000
   12  S  1  Y    0.008422   0.000000   0.429037   0.000002   0.000000
   13  S  1  Z    0.000000   0.243710   0.000000   0.000000   1.304878
   14  S  1 XX   -0.114230   0.000000  -0.101753  -0.000002   0.000000
   15  S  1 YY    0.070560   0.000000  -0.015329  -0.000000   0.000000
   16  S  1 ZZ    0.043670   0.000000   0.117082   0.000002   0.000000
   17  S  1 XY    0.000001   0.000000   0.000001  -0.172127   0.000000
   18  S  1 XZ    0.000000  -0.000000   0.000000   0.000000   0.000000
   19  S  1 YZ    0.000000  -0.042956   0.000000   0.000000  -0.086625
   20  O  2  S   -0.001428   0.000000   0.039093   0.047979   0.000000
   21  O  2  S    0.006677   0.000000  -0.083792  -0.095799   0.000000
   22  O  2  S   -0.035484   0.000000  -0.253529  -0.380461   0.000000
   23  O  2  X    0.039842   0.000000   0.397998   0.163442   0.000000
   24  O  2  Y    0.456542   0.000000  -0.011378   0.291258   0.000000
   25  O  2  Z    0.000000  -0.397666   0.000000   0.000000  -0.062668
   26  O  2  X    0.030427   0.000000   0.348506   0.170234   0.000000
   27  O  2  Y    0.328311   0.000000  -0.007169   0.256800   0.000000
   28  O  2  Z    0.000000  -0.302038   0.000000   0.000000  -0.128742
   29  O  2 XX    0.004098   0.000000   0.002733  -0.003266   0.000000
   30  O  2 YY   -0.007713   0.000000  -0.004419   0.005549   0.000000
   31  O  2 ZZ    0.003615   0.000000   0.001686  -0.002283   0.000000
   32  O  2 XY   -0.010810   0.000000  -0.003121   0.004050   0.000000
   33  O  2 XZ    0.000000   0.002175   0.000000   0.000000   0.011700
   34  O  2 YZ    0.000000   0.000778   0.000000   0.000000   0.005237
   35  O  3  S   -0.001427   0.000000   0.039094  -0.047978   0.000000
   36  O  3  S    0.006676   0.000000  -0.083796   0.095792   0.000000
   37  O  3  S   -0.035485   0.000000  -0.253535   0.380464   0.000000
   38  O  3  X   -0.039851   0.000000  -0.398001   0.163434   0.000000
   39  O  3  Y    0.456533   0.000000  -0.011374  -0.291258   0.000000
   40  O  3  Z    0.000000  -0.397666   0.000000   0.000000  -0.062668
   41  O  3  X   -0.030433   0.000000  -0.348507   0.170233   0.000000
   42  O  3  Y    0.328304   0.000000  -0.007165  -0.256801   0.000000
   43  O  3  Z    0.000000  -0.302038   0.000000   0.000000  -0.128741
   44  O  3 XX    0.004098   0.000000   0.002733   0.003266   0.000000
   45  O  3 YY   -0.007712   0.000000  -0.004419  -0.005549   0.000000
   46  O  3 ZZ    0.003615   0.000000   0.001686   0.002283   0.000000
   47  O  3 XY    0.010810   0.000000   0.003121   0.004050   0.000000
   48  O  3 XZ    0.000000  -0.002175   0.000000   0.000000  -0.011700
   49  O  3 YZ    0.000000   0.000778   0.000000   0.000000   0.005237

                     21         22         23         24         25
                    0.2201     0.2349     0.2426     0.4792     0.4914
                     A          A          A          A          A   
    1  S  1  S    0.023263   0.000004  -0.061582   0.000000  -0.000033
    2  S  1  S   -0.170327  -0.000032   0.455615   0.000000   0.000410
    3  S  1  S    0.592173   0.000126  -1.812230   0.000000   0.002874
    4  S  1  S   -0.534657  -0.000154   2.146086   0.000000  -0.035476
    5  S  1  X   -0.000002   0.262660   0.000017   0.000000  -0.000000
    6  S  1  Y    0.244902  -0.000002   0.055699   0.000000   0.032565
    7  S  1  Z    0.000000   0.000000   0.000000  -0.000000   0.000000
    8  S  1  X    0.000009  -1.023521  -0.000064   0.000000   0.000001
    9  S  1  Y   -0.964218   0.000005  -0.220473   0.000000  -0.134155
   10  S  1  Z    0.000000   0.000000   0.000000   0.000000   0.000000
   11  S  1  X   -0.000012   1.497537   0.000101   0.000000  -0.000001
   12  S  1  Y    1.243805  -0.000035   0.651097   0.000000   0.076321
   13  S  1  Z    0.000000   0.000000   0.000000   0.000000   0.000000
   14  S  1 XX    0.105071   0.000002  -0.070761   0.000000  -0.322265
   15  S  1 YY   -0.102490   0.000002  -0.042856   0.000000   0.884421
   16  S  1 ZZ   -0.002581  -0.000005   0.113617   0.000000  -0.562156
   17  S  1 XY    0.000001   0.035483   0.000005   0.000000   0.000000
   18  S  1 XZ    0.000000   0.000000   0.000000   0.870932   0.000000
   19  S  1 YZ    0.000000   0.000000   0.000000  -0.000002   0.000000
   20  O  2  S    0.002056   0.012235   0.027283   0.000000  -0.001781
   21  O  2  S    0.021049   0.027949  -0.037384   0.000000   0.001240
   22  O  2  S   -0.139224  -0.448235  -0.454563   0.000000   0.009781
   23  O  2  X   -0.052045  -0.216318  -0.088380   0.000000   0.138633
   24  O  2  Y   -0.052325  -0.065374  -0.122743   0.000000  -0.253083
   25  O  2  Z    0.000000   0.000000   0.000000  -0.324777   0.000000
   26  O  2  X    0.027629  -0.040847   0.188410   0.000000  -0.101668
   27  O  2  Y   -0.111864   0.058705   0.035304   0.000000   0.115858
   28  O  2  Z    0.000000   0.000000   0.000000   0.161488   0.000000
   29  O  2 XX   -0.014328  -0.016205  -0.024233   0.000000   0.033586
   30  O  2 YY    0.010866  -0.000235   0.002684   0.000000  -0.022825
   31  O  2 ZZ    0.003462   0.016440   0.021548   0.000000  -0.010761
   32  O  2 XY    0.003439  -0.026740  -0.028499   0.000000  -0.030568
   33  O  2 XZ    0.000000   0.000000   0.000000  -0.044150   0.000000
   34  O  2 YZ    0.000000   0.000000   0.000000  -0.036069   0.000000
   35  O  3  S    0.002057  -0.012238   0.027283   0.000000  -0.001781
   36  O  3  S    0.021047  -0.027955  -0.037397   0.000000   0.001240
   37  O  3  S   -0.139228   0.448309  -0.454493   0.000000   0.009781
   38  O  3  X    0.052047  -0.216335   0.088347   0.000000  -0.138632
   39  O  3  Y   -0.052327   0.065389  -0.122735   0.000000  -0.253083
   40  O  3  Z    0.000000   0.000000   0.000000   0.324778   0.000000
   41  O  3  X   -0.027626  -0.040813  -0.188408   0.000000   0.101668
   42  O  3  Y   -0.111864  -0.058714   0.035293   0.000000   0.115858
   43  O  3  Z    0.000000   0.000000   0.000000  -0.161488   0.000000
   44  O  3 XX   -0.014328   0.016209  -0.024230   0.000000   0.033586
   45  O  3 YY    0.010866   0.000234   0.002684   0.000000  -0.022825
   46  O  3 ZZ    0.003462  -0.016443   0.021546   0.000000  -0.010761
   47  O  3 XY   -0.003439  -0.026744   0.028495   0.000000   0.030568
   48  O  3 XZ    0.000000   0.000000   0.000000  -0.044150   0.000000
   49  O  3 YZ    0.000000   0.000000   0.000000   0.036069   0.000000

                     26         27         28         29         30
                    0.4925     0.6322     0.6477     0.7974     0.8078
                     A          A          A          A          A   
    1  S  1  S    0.000000  -0.000244  -0.000000   0.000000   0.016375
    2  S  1  S    0.000000   0.004075   0.000000   0.000000  -0.136534
    3  S  1  S    0.000000  -0.187251  -0.000000   0.000000   0.610352
    4  S  1  S    0.000000   0.855076  -0.000002   0.000000  -0.061205
    5  S  1  X    0.000000   0.000000  -0.089804   0.000000  -0.000000
    6  S  1  Y    0.000000  -0.057310  -0.000000   0.000000  -0.027409
    7  S  1  Z    0.024321   0.000000   0.000000   0.000000   0.000000
    8  S  1  X    0.000000  -0.000000   0.417569   0.000000   0.000000
    9  S  1  Y    0.000000   0.252636  -0.000000   0.000000   0.225900
   10  S  1  Z   -0.098597   0.000000   0.000000  -0.000000   0.000000
   11  S  1  X    0.000000   0.000002   0.343447   0.000000   0.000000
   12  S  1  Y    0.000000   0.237528  -0.000001   0.000000  -0.061050
   13  S  1  Z    0.061087   0.000000   0.000000   0.000000   0.000000
   14  S  1 XX    0.000000   0.801550   0.000003   0.000000  -0.354016
   15  S  1 YY    0.000000  -0.008263  -0.000000   0.000000   0.098778
   16  S  1 ZZ    0.000000  -0.793286  -0.000002   0.000000   0.255238
   17  S  1 XY    0.000000  -0.000002   0.895008   0.000000   0.000002
   18  S  1 XZ    0.000002   0.000000   0.000000  -0.506325   0.000000
   19  S  1 YZ    0.938791   0.000000   0.000000  -0.000000   0.000000
   20  O  2  S    0.000000   0.070430   0.071071   0.000000   0.013250
   21  O  2  S    0.000000  -0.303624  -0.299303   0.000000  -0.105371
   22  O  2  S    0.000000  -0.149857  -0.134170   0.000000   0.098695
   23  O  2  X    0.000000  -0.133450   0.010281   0.000000  -0.545092
   24  O  2  Y    0.000000   0.114337  -0.188754   0.000000  -0.271729
   25  O  2  Z   -0.220607   0.000000   0.000000  -0.564063   0.000000
   26  O  2  X    0.000000   0.546607   0.439272   0.000000   0.691863
   27  O  2  Y    0.000000   0.133942   0.426329   0.000000   0.302592
   28  O  2  Z    0.118185   0.000000   0.000000   0.750969   0.000000
   29  O  2 XX    0.000000  -0.005746   0.045919   0.000000   0.038352
   30  O  2 YY    0.000000   0.026283  -0.033170   0.000000  -0.030399
   31  O  2 ZZ    0.000000  -0.020536  -0.012749   0.000000  -0.007953
   32  O  2 XY    0.000000   0.022250   0.015758   0.000000   0.010536
   33  O  2 XZ   -0.037732   0.000000   0.000000   0.043524   0.000000
   34  O  2 YZ   -0.001814   0.000000   0.000000   0.031339   0.000000
   35  O  3  S    0.000000   0.070431  -0.071070   0.000000   0.013249
   36  O  3  S    0.000000  -0.303631   0.299296   0.000000  -0.105364
   37  O  3  S    0.000000  -0.149849   0.134176   0.000000   0.098690
   38  O  3  X    0.000000   0.133443   0.010278   0.000000   0.545087
   39  O  3  Y    0.000000   0.114334   0.188757   0.000000  -0.271731
   40  O  3  Z   -0.220606   0.000000   0.000000   0.564063   0.000000
   41  O  3  X    0.000000  -0.546601   0.439276   0.000000  -0.691856
   42  O  3  Y    0.000000   0.133945  -0.426331   0.000000   0.302593
   43  O  3  Z    0.118185   0.000000   0.000000  -0.750969   0.000000
   44  O  3 XX    0.000000  -0.005746  -0.045919   0.000000   0.038351
   45  O  3 YY    0.000000   0.026282   0.033170   0.000000  -0.030399
   46  O  3 ZZ    0.000000  -0.020536   0.012749   0.000000  -0.007953
   47  O  3 XY    0.000000  -0.022250   0.015757   0.000000  -0.010536
   48  O  3 XZ    0.037731   0.000000   0.000000   0.043524   0.000000
   49  O  3 YZ   -0.001814   0.000000   0.000000  -0.031339   0.000000

                     31         32         33         34         35
                    0.8264     0.8328     0.8427     0.8505     1.3891
                     A          A          A          A          A   
    1  S  1  S    0.000000   0.004407   0.000000   0.000000   0.000000
    2  S  1  S   -0.000001  -0.036218   0.000000  -0.000001  -0.000001
    3  S  1  S    0.000003   0.142944   0.000000   0.000002   0.000008
    4  S  1  S    0.000003   0.054473   0.000000   0.000001  -0.000014
    5  S  1  X    0.008187   0.000000   0.000000  -0.054849  -0.069518
    6  S  1  Y   -0.000000  -0.020453   0.000000  -0.000000  -0.000000
    7  S  1  Z    0.000000   0.000000  -0.003070   0.000000   0.000000
    8  S  1  X   -0.020399  -0.000003   0.000000   0.429711   0.413156
    9  S  1  Y    0.000003   0.119201   0.000000   0.000002   0.000000
   10  S  1  Z    0.000000   0.000000   0.021536   0.000000   0.000000
   11  S  1  X    0.198005  -0.000003   0.000000  -0.353034   0.922884
   12  S  1  Y   -0.000011  -0.445725   0.000000  -0.000004  -0.000007
   13  S  1  Z    0.000000   0.000000  -0.518932   0.000000   0.000000
   14  S  1 XX    0.000012   0.435533   0.000000   0.000004  -0.000003
   15  S  1 YY   -0.000012  -0.461664   0.000000  -0.000004   0.000000
   16  S  1 ZZ    0.000000   0.026130   0.000000   0.000000   0.000003
   17  S  1 XY   -0.397299   0.000014   0.000000  -0.341733   0.359730
   18  S  1 XZ    0.000000   0.000000   0.000000   0.000000   0.000000
   19  S  1 YZ    0.000000   0.000000  -0.346313   0.000000   0.000000
   20  O  2  S    0.000707   0.001471   0.000000   0.003313  -0.078401
   21  O  2  S   -0.051989   0.032782   0.000000  -0.061906   1.194624
   22  O  2  S    0.047059  -0.021993   0.000000   0.155576  -1.750987
   23  O  2  X    0.187761   0.201812   0.000000  -0.607572  -0.036508
   24  O  2  Y   -0.573801  -0.515874   0.000000  -0.158135  -0.114739
   25  O  2  Z    0.000000   0.000000  -0.603873   0.000000   0.000000
   26  O  2  X   -0.359204  -0.204800   0.000000   0.743691   0.359624
   27  O  2  Y    0.682301   0.806108   0.000000   0.199739   0.427294
   28  O  2  Z    0.000000   0.000000   0.866235   0.000000   0.000000
   29  O  2 XX   -0.038036  -0.026523   0.000000   0.004354   0.084224
   30  O  2 YY    0.028596   0.039837   0.000000   0.017181  -0.010672
   31  O  2 ZZ    0.009439  -0.013314   0.000000  -0.021535  -0.073552
   32  O  2 XY    0.001103   0.052936   0.000000   0.026257   0.118541
   33  O  2 XZ    0.000000   0.000000   0.038304   0.000000   0.000000
   34  O  2 YZ    0.000000   0.000000   0.013108   0.000000   0.000000
   35  O  3  S   -0.000706   0.001471   0.000000  -0.003315   0.078401
   36  O  3  S    0.051981   0.032780   0.000000   0.061921  -1.194630
   37  O  3  S   -0.047053  -0.021990   0.000000  -0.155590   1.751003
   38  O  3  X    0.187754  -0.201810   0.000000  -0.607578  -0.036508
   39  O  3  Y    0.573773  -0.515907   0.000000   0.158127   0.114738
   40  O  3  Z    0.000000   0.000000  -0.603874   0.000000   0.000000
   41  O  3  X   -0.359198   0.204805   0.000000   0.743698   0.359629
   42  O  3  Y   -0.682256   0.806148   0.000000  -0.199725  -0.427294
   43  O  3  Z    0.000000   0.000000   0.866235   0.000000   0.000000
   44  O  3 XX    0.038034  -0.026525   0.000000  -0.004355  -0.084224
   45  O  3 YY   -0.028594   0.039839   0.000000  -0.017180   0.010672
   46  O  3 ZZ   -0.009440  -0.013314   0.000000   0.021535   0.073552
   47  O  3 XY    0.001100  -0.052936   0.000000   0.026256   0.118540
   48  O  3 XZ    0.000000   0.000000  -0.038304   0.000000   0.000000
   49  O  3 YZ    0.000000   0.000000   0.013108   0.000000   0.000000

                     36         37         38         39         40
                    1.4937     2.0806     2.0815     2.0837     2.0882
                     A          A          A          A          A   
    1  S  1  S   -0.000160  -0.000000   0.000000   0.000000  -0.000730
    2  S  1  S    0.003912   0.000000   0.000000   0.000000   0.005681
    3  S  1  S    0.357320  -0.000000   0.000000   0.000000  -0.020234
    4  S  1  S   -1.711556   0.000000   0.000000   0.000000   0.011003
    5  S  1  X   -0.000000  -0.008238   0.000000   0.000000   0.000000
    6  S  1  Y    0.049054   0.000000   0.000000   0.000000   0.003046
    7  S  1  Z    0.000000   0.000000  -0.000000  -0.012035   0.000000
    8  S  1  X    0.000002   0.026146   0.000000   0.000000  -0.000000
    9  S  1  Y   -0.282883  -0.000000   0.000000   0.000000  -0.012771
   10  S  1  Z    0.000000   0.000000   0.000001   0.037381   0.000000
   11  S  1  X   -0.000013   0.035859   0.000000   0.000000  -0.000001
   12  S  1  Y   -0.681965   0.000000   0.000000   0.000000   0.004116
   13  S  1  Z    0.000000   0.000000   0.000000   0.020168   0.000000
   14  S  1 XX   -0.324796   0.000000   0.000000   0.000000   0.021444
   15  S  1 YY   -0.002864   0.000000   0.000000   0.000000   0.029270
   16  S  1 ZZ    0.327660  -0.000000   0.000000   0.000000  -0.050714
   17  S  1 XY   -0.000003  -0.048494   0.000000   0.000000   0.000001
   18  S  1 XZ    0.000000   0.000000   0.029454  -0.000001   0.000000
   19  S  1 YZ    0.000000   0.000000  -0.000000   0.003704   0.000000
   20  O  2  S    0.072144  -0.001889   0.000000   0.000000   0.001524
   21  O  2  S   -1.202462   0.021603   0.000000   0.000000  -0.006873
   22  O  2  S    1.858872  -0.032919   0.000000   0.000000  -0.000910
   23  O  2  X    0.133486   0.007813   0.000000   0.000000   0.010017
   24  O  2  Y   -0.015137  -0.019124   0.000000   0.000000   0.001930
   25  O  2  Z    0.000000   0.000000   0.006893   0.013454   0.000000
   26  O  2  X   -0.684813  -0.013100   0.000000   0.000000  -0.008860
   27  O  2  Y   -0.143857   0.028698   0.000000   0.000000  -0.000689
   28  O  2  Z    0.000000   0.000000  -0.010545  -0.022083   0.000000
   29  O  2 XX   -0.141434   0.379640   0.000000   0.000000  -0.117792
   30  O  2 YY    0.044642   0.169295   0.000000   0.000000  -0.483169
   31  O  2 ZZ    0.096792  -0.548935   0.000000   0.000000   0.600961
   32  O  2 XY   -0.111788  -0.429720   0.000000   0.000000   0.306984
   33  O  2 XZ    0.000000   0.000000   0.472069  -0.142705   0.000000
   34  O  2 YZ    0.000000   0.000000  -0.526605   0.693056   0.000000
   35  O  3  S    0.072143   0.001889   0.000000   0.000000   0.001524
   36  O  3  S   -1.202455  -0.021602   0.000000   0.000000  -0.006872
   37  O  3  S    1.858855   0.032919   0.000000   0.000000  -0.000911
   38  O  3  X   -0.133490   0.007813   0.000000   0.000000  -0.010017
   39  O  3  Y   -0.015139   0.019124   0.000000   0.000000   0.001929
   40  O  3  Z    0.000000   0.000000  -0.006892   0.013454   0.000000
   41  O  3  X    0.684816  -0.013100   0.000000   0.000000   0.008860
   42  O  3  Y   -0.143849  -0.028699   0.000000   0.000000  -0.000688
   43  O  3  Z    0.000000   0.000000   0.010544  -0.022083   0.000000
   44  O  3 XX   -0.141434  -0.379642   0.000000   0.000000  -0.117783
   45  O  3 YY    0.044642  -0.169303   0.000000   0.000000  -0.483170
   46  O  3 ZZ    0.096792   0.548945   0.000000   0.000000   0.600953
   47  O  3 XY    0.111788  -0.429725   0.000000   0.000000  -0.306977
   48  O  3 XZ    0.000000   0.000000   0.472078   0.142680   0.000000
   49  O  3 YZ    0.000000   0.000000   0.526641   0.693028   0.000000

                     41         42         43         44         45
                    2.0975     2.1255     2.1608     2.2138     2.4756
                     A          A          A          A          A   
    1  S  1  S   -0.000000   0.000000   0.000000  -0.002915  -0.025401
    2  S  1  S    0.000000   0.000000   0.000000   0.022085   0.190215
    3  S  1  S   -0.000000   0.000000   0.000000  -0.008886  -0.347331
    4  S  1  S    0.000000   0.000000   0.000000  -0.227796  -0.721365
    5  S  1  X    0.032790   0.000000   0.000000  -0.000000  -0.000000
    6  S  1  Y    0.000000   0.000000   0.000000   0.047261   0.097487
    7  S  1  Z    0.000000   0.036048  -0.000000   0.000000   0.000000
    8  S  1  X   -0.131810   0.000000   0.000000   0.000000   0.000000
    9  S  1  Y   -0.000000   0.000000   0.000000  -0.172486  -0.458875
   10  S  1  Z    0.000000  -0.110534   0.000000   0.000000   0.000000
   11  S  1  X   -0.053489   0.000000   0.000000  -0.000001  -0.000003
   12  S  1  Y    0.000000   0.000000   0.000000  -0.169362  -0.133557
   13  S  1  Z    0.000000  -0.083693   0.000000   0.000000   0.000000
   14  S  1 XX    0.000000   0.000000   0.000000   0.192186  -0.485101
   15  S  1 YY   -0.000000   0.000000   0.000000  -0.262764   0.115662
   16  S  1 ZZ    0.000000   0.000000   0.000000   0.070578   0.369439
   17  S  1 XY    0.113261   0.000000   0.000000  -0.000000  -0.000001
   18  S  1 XZ    0.000000   0.000000   0.297118   0.000000   0.000000
   19  S  1 YZ    0.000000  -0.186336   0.000000   0.000000   0.000000
   20  O  2  S    0.004775   0.000000   0.000000   0.008354   0.013227
   21  O  2  S   -0.075219   0.000000   0.000000  -0.155343  -0.475907
   22  O  2  S    0.111819   0.000000   0.000000   0.260113   0.859520
   23  O  2  X    0.010074   0.000000   0.000000   0.060211   0.076719
   24  O  2  Y    0.042379   0.000000   0.000000  -0.029333   0.043923
   25  O  2  Z    0.000000  -0.047610   0.036803   0.000000   0.000000
   26  O  2  X   -0.026589   0.000000   0.000000  -0.171203  -0.473955
   27  O  2  Y   -0.073402   0.000000   0.000000   0.064551  -0.264068
   28  O  2  Z    0.000000   0.096188  -0.077223   0.000000   0.000000
   29  O  2 XX   -0.365118   0.000000   0.000000   0.588906   0.395182
   30  O  2 YY    0.671414   0.000000   0.000000  -0.522417  -0.010971
   31  O  2 ZZ   -0.306296   0.000000   0.000000  -0.066489  -0.384212
   32  O  2 XY    0.225655   0.000000   0.000000  -0.310329   0.592363
   33  O  2 XZ    0.000000  -0.698354   0.533049   0.000000   0.000000
   34  O  2 YZ    0.000000  -0.147469   0.475113   0.000000   0.000000
   35  O  3  S   -0.004775   0.000000   0.000000   0.008354   0.013227
   36  O  3  S    0.075219   0.000000   0.000000  -0.155343  -0.475906
   37  O  3  S   -0.111819   0.000000   0.000000   0.260112   0.859516
   38  O  3  X    0.010074   0.000000   0.000000  -0.060211  -0.076720
   39  O  3  Y   -0.042379   0.000000   0.000000  -0.029333   0.043922
   40  O  3  Z    0.000000  -0.047610  -0.036803   0.000000   0.000000
   41  O  3  X   -0.026589   0.000000   0.000000   0.171203   0.473955
   42  O  3  Y    0.073402   0.000000   0.000000   0.064552  -0.264066
   43  O  3  Z    0.000000   0.096188   0.077223   0.000000   0.000000
   44  O  3 XX    0.365119   0.000000   0.000000   0.588905   0.395182
   45  O  3 YY   -0.671412   0.000000   0.000000  -0.522416  -0.010971
   46  O  3 ZZ    0.306293   0.000000   0.000000  -0.066489  -0.384212
   47  O  3 XY    0.225657   0.000000   0.000000   0.310329  -0.592362
   48  O  3 XZ    0.000000   0.698355   0.533047   0.000000   0.000000
   49  O  3 YZ    0.000000  -0.147471  -0.475112   0.000000   0.000000

                     46
                    2.5620
                     A   
    1  S  1  S    0.000000
    2  S  1  S   -0.000000
    3  S  1  S    0.000002
    4  S  1  S   -0.000004
    5  S  1  X   -0.173353
    6  S  1  Y    0.000000
    7  S  1  Z    0.000000
    8  S  1  X    0.798073
    9  S  1  Y   -0.000000
   10  S  1  Z    0.000000
   11  S  1  X    0.161949
   12  S  1  Y   -0.000002
   13  S  1  Z    0.000000
   14  S  1 XX   -0.000001
   15  S  1 YY   -0.000000
   16  S  1 ZZ    0.000001
   17  S  1 XY    0.547194
   18  S  1 XZ    0.000000
   19  S  1 YZ    0.000000
   20  O  2  S   -0.007498
   21  O  2  S    0.400148
   22  O  2  S   -0.743976
   23  O  2  X   -0.049755
   24  O  2  Y   -0.028169
   25  O  2  Z    0.000000
   26  O  2  X    0.437085
   27  O  2  Y    0.257434
   28  O  2  Z    0.000000
   29  O  2 XX   -0.514994
   30  O  2 YY    0.162548
   31  O  2 ZZ    0.352446
   32  O  2 XY   -0.554936
   33  O  2 XZ    0.000000
   34  O  2 YZ    0.000000
   35  O  3  S    0.007498
   36  O  3  S   -0.400149
   37  O  3  S    0.743980
   38  O  3  X   -0.049755
   39  O  3  Y    0.028169
   40  O  3  Z    0.000000
   41  O  3  X    0.437087
   42  O  3  Y   -0.257434
   43  O  3  Z    0.000000
   44  O  3 XX    0.514995
   45  O  3 YY   -0.162548
   46  O  3 ZZ   -0.352447
   47  O  3 XY   -0.554936
   48  O  3 XZ    0.000000
   49  O  3 YZ    0.000000
 ...... END OF RHF CALCULATION ......
 STEP CPU TIME =     2.69 TOTAL CPU TIME =          2.8 (      0.0 MIN)
 TOTAL WALL CLOCK TIME=          2.9 SECONDS, CPU UTILIZATION IS    98.25%

     ---------------------------------------------------------------------
     PROPERTIES FOR THE PBE      DFT FUNCTIONAL (RHF  TYPE) DENSITY MATRIX
     ---------------------------------------------------------------------

          -----------------
          ENERGY COMPONENTS
          -----------------

         WAVEFUNCTION NORMALIZATION =       1.0000000000

                ONE ELECTRON ENERGY =    -936.8153943666
                TWO ELECTRON ENERGY =     297.4311361474
           NUCLEAR REPULSION ENERGY =      91.1898211485
                                      ------------------
                       TOTAL ENERGY =    -548.1944370707

 ELECTRON-ELECTRON POTENTIAL ENERGY =     297.4311361474
  NUCLEUS-ELECTRON POTENTIAL ENERGY =   -1483.5337066292
   NUCLEUS-NUCLEUS POTENTIAL ENERGY =      91.1898211485
                                      ------------------
             TOTAL POTENTIAL ENERGY =   -1094.9127493333
               TOTAL KINETIC ENERGY =     546.7183122626
                 VIRIAL RATIO (V/T) =       2.0026999732

          ---------------------------------------
          MULLIKEN AND LOWDIN POPULATION ANALYSES
          ---------------------------------------

     ATOMIC MULLIKEN POPULATION IN EACH MOLECULAR ORBITAL

                      1          2          3          4          5

                  2.000000   2.000000   2.000000   2.000000   2.000000

    1             1.999981   0.000896   0.000697   2.000476   2.000321
    2             0.000010   0.995847   1.003356  -0.000238  -0.000161
    3             0.000010   1.003257   0.995947  -0.000238  -0.000161

                      6          7          8          9         10

                  2.000000   2.000000   2.000000   2.000000   2.000000

    1             2.000006   2.000105   0.580144   0.224671   1.200621
    2            -0.000003  -0.000052   0.709923   0.887670   0.399689
    3            -0.000003  -0.000052   0.709933   0.887659   0.399691

                     11         12         13         14         15

                  2.000000   2.000000   2.000000   2.000000   2.000000

    1             0.601454   1.084680   1.158747   0.045923   0.096188
    2             0.699274   0.457659   0.420626   0.977039   0.951889
    3             0.699272   0.457661   0.420627   0.977038   0.951923

                     16

                  2.000000

    1             0.269767
    2             0.865135
    3             0.865098

               ----- POPULATIONS IN EACH AO -----
                             MULLIKEN      LOWDIN
              1  S  1  S      1.99984     1.99928
              2  S  1  S      1.99266     1.88900
              3  S  1  S      1.36691     0.70214
              4  S  1  S      0.53271     0.46500
              5  S  1  X      1.99342     1.95671
              6  S  1  Y      1.99455     1.96458
              7  S  1  Z      1.99398     1.96163
              8  S  1  X      0.80030     0.68794
              9  S  1  Y      0.98616     0.90447
             10  S  1  Z      0.89812     0.81434
             11  S  1  X      0.05581     0.21047
             12  S  1  Y      0.16184     0.30428
             13  S  1  Z      0.26051     0.36621
             14  S  1 XX      0.02382     0.29642
             15  S  1 YY      0.07819     0.29593
             16  S  1 ZZ      0.07379     0.29623
             17  S  1 XY      0.04592     0.08774
             18  S  1 XZ      0.00614     0.05353
             19  S  1 YZ      0.00000     0.00595
             20  O  2  S      1.99571     1.97303
             21  O  2  S      0.96841     0.71240
             22  O  2  S      0.98540     0.55786
             23  O  2  X      0.82243     0.78166
             24  O  2  Y      1.05428     1.02296
             25  O  2  Z      0.83281     0.80112
             26  O  2  X      0.48247     0.58243
             27  O  2  Y      0.65279     0.70626
             28  O  2  Z      0.56171     0.59392
             29  O  2 XX      0.00145     0.21122
             30  O  2 YY      0.00334     0.20503
             31  O  2 ZZ      0.00373     0.21034
             32  O  2 XY      0.00234     0.00671
             33  O  2 XZ      0.00080     0.00309
             34  O  2 YZ      0.00000     0.00103
             35  O  3  S      1.99571     1.97303
             36  O  3  S      0.96841     0.71240
             37  O  3  S      0.98540     0.55786
             38  O  3  X      0.82243     0.78166
             39  O  3  Y      1.05428     1.02296
             40  O  3  Z      0.83281     0.80112
             41  O  3  X      0.48246     0.58243
             42  O  3  Y      0.65279     0.70626
             43  O  3  Z      0.56171     0.59392
             44  O  3 XX      0.00145     0.21122
             45  O  3 YY      0.00334     0.20503
             46  O  3 ZZ      0.00373     0.21034
             47  O  3 XY      0.00234     0.00671
             48  O  3 XZ      0.00080     0.00309
             49  O  3 YZ      0.00000     0.00103

          ----- MULLIKEN ATOMIC OVERLAP POPULATIONS -----
          (OFF-DIAGONAL ELEMENTS NEED TO BE MULTIPLIED BY 2)

             1           2           3

    1   14.7388871
    2    0.2628939   8.1210707
    3    0.2628951  -0.0163022   8.1210685

          TOTAL MULLIKEN AND LOWDIN ATOMIC POPULATIONS
       ATOM         MULL.POP.    CHARGE          LOW.POP.     CHARGE
    1 S            15.264676    0.735324        15.261876    0.738124
    2 O             8.367662   -0.367662         8.369062   -0.369062
    3 O             8.367661   -0.367661         8.369062   -0.369062

          MULLIKEN SPHERICAL HARMONIC POPULATIONS
       ATOM           S       P       D      F      G      H      I    TOTAL
    1 S             5.89    9.14    0.23   0.00   0.00   0.00   0.00   15.26
    2 O             3.95    4.41    0.01   0.00   0.00   0.00   0.00    8.37
    3 O             3.95    4.41    0.01   0.00   0.00   0.00   0.00    8.37

          -------------------------------
          BOND ORDER AND VALENCE ANALYSIS     BOND ORDER THRESHOLD=0.050
          -------------------------------

                   BOND                       BOND                       BOND
  ATOM PAIR DIST  ORDER      ATOM PAIR DIST  ORDER      ATOM PAIR DIST  ORDER
    1   2  1.700  1.670        1   3  1.700  1.670        2   3  2.944  0.449

                       TOTAL       BONDED        FREE
      ATOM            VALENCE     VALENCE     VALENCE
    1 S                 3.339       3.339      -0.000
    2 O                 2.119       2.119       0.000
    3 O                 2.119       2.119      -0.000

          ---------------------
          ELECTROSTATIC MOMENTS
          ---------------------

 POINT   1           X           Y           Z (BOHR)    CHARGE
                 0.000000   -0.000000    0.000000       -0.00 (A.U.)
         DX          DY          DZ         /D/  (DEBYE)
    -0.000001   -2.067011    0.000000    2.067011
 ...... END OF PROPERTY EVALUATION ......
 STEP CPU TIME =     0.01 TOTAL CPU TIME =          2.8 (      0.0 MIN)
 TOTAL WALL CLOCK TIME=          2.9 SECONDS, CPU UTILIZATION IS    98.60%
                580000  WORDS OF DYNAMIC MEMORY USED
 EXECUTION OF GAMESS TERMINATED NORMALLY Sun Sep 29 10:54:16 2019
 DDI: 263640 bytes (0.3 MB / 0 MWords) used by master data server.

 ----------------------------------------
 CPU timing information for all processes
 ========================================
 0: 2.751 + 0.79 = 2.830
 ----------------------------------------
 ddikick.x: exited gracefully.
----- accounting info -----
Files used on the master node crcfe02.crc.nd.edu were:
-rw-r--r-- 1 cdrisko campus     208 Sep 29 10:54 /afs/crc.nd.edu/user/c/cdrisko/SO2.F05
-rw-r--r-- 1 cdrisko campus   37566 Sep 29 10:54 /afs/crc.nd.edu/user/c/cdrisko/SO2.F07
-rw-r--r-- 1 cdrisko campus 3960352 Sep 29 10:54 /afs/crc.nd.edu/user/c/cdrisko/SO2.F08
-rw-r--r-- 1 cdrisko campus 1766880 Sep 29 10:54 /afs/crc.nd.edu/user/c/cdrisko/SO2.F10
Sun Sep 29 10:54:19 EDT 2019
0.440u 0.245s 0:06.52 10.4%	0+0k 0+24io 0pf+0w
