----- GAMESS execution script 'rungms' -----
This job is running on host crcfe02.crc.nd.edu
under operating system Linux at Sun Sep 29 10:52:31 EDT 2019
Available scratch disk space (Kbyte units) at beginning of the job is
Filesystem      1K-blocks  Used  Available Use% Mounted on
AFS            2147483647     0 2147483647   0% /afs
GAMESS temporary binary files will be written to /afs/crc.nd.edu/user/c/cdrisko
GAMESS supplementary output files will be written to /afs/crc.nd.edu/user/c/cdrisko/scr
Copying input file SO2.inp to your run's scratch directory...

 Distributed Data Interface kickoff program.
 Initiating 1 compute processes on 1 nodes to run the following command:
 /afs/crc.nd.edu/x86_64_linux/g/gamess/nov-2017/gamess/gamess.00.x SO2 

          ******************************************************
          *         GAMESS VERSION = 11 NOV 2017 (R3)         *
          *             FROM IOWA STATE UNIVERSITY             *
          * M.W.SCHMIDT, K.K.BALDRIDGE, J.A.BOATZ, S.T.ELBERT, *
          *   M.S.GORDON, J.H.JENSEN, S.KOSEKI, N.MATSUNAGA,   *
          *          K.A.NGUYEN, S.J.SU, T.L.WINDUS,           *
          *       TOGETHER WITH M.DUPUIS, J.A.MONTGOMERY       *
          *         J.COMPUT.CHEM.  14, 1347-1363(1993)        *
          **************** 64 BIT INTEL VERSION ****************

  SINCE 1993, STUDENTS AND POSTDOCS WORKING AT IOWA STATE UNIVERSITY
  AND ALSO IN THEIR VARIOUS JOBS AFTER LEAVING ISU HAVE MADE IMPORTANT
  CONTRIBUTIONS TO THE CODE:
     IVANA ADAMOVIC, CHRISTINE AIKENS, YURI ALEXEEV, POOJA ARORA,
     ANDREY ASADCHEV, ROB BELL, PRADIPTA BANDYOPADHYAY, JONATHAN BENTZ,
     BRETT BODE, KURT BRORSEN, CALEB CARLIN, GALINA CHABAN, WEI CHEN,
     CHEOL HO CHOI, PAUL DAY, ALBERT DEFUSCO, NUWAN DESILVA, TIM DUDLEY,
     DMITRI FEDOROV, ALEX FINDLATER, GRAHAM FLETCHER, MARK FREITAG,
     KURT GLAESEMANN, ANASTASIA GUININA,
     DAN KEMP, GRANT MERRILL, NORIYUKI MINEZAWA, JONATHAN MULLIN,
     TAKESHI NAGATA, SEAN NEDD, HEATHER NETZLOFF, BOSILJKA NJEGIC, RYAN OLSON,
     MIKE PAK, BUU PHAM,
     SPENCER PRUITT, LUKE ROSKOP, JIM SHOEMAKER, LYUDMILA SLIPCHENKO,
     TONY SMITH, SAROM SOK LEANG, JIE SONG, TETSUYA TAKETSUGU, SIMON WEBB,
     PENG XU, SOOHAENG YOO, FEDERICO ZAHARIEV

  ADDITIONAL CODE HAS BEEN PROVIDED BY COLLABORATORS IN OTHER GROUPS:
     IOWA STATE UNIVERSITY:
          JOE IVANIC, AARON WEST, LAIMUTIS BYTAUTAS, KLAUS RUEDENBERG
     UNIVERSITY OF TOKYO: KIMIHIKO HIRAO, TAKAHITO NAKAJIMA,
          TAKAO TSUNEDA, MUNEAKI KAMIYA, SUSUMU YANAGISAWA,
          KIYOSHI YAGI, MAHITO CHIBA, SEIKEN TOKURA, NAOAKI KAWAKAMI
     UNIVERSITY OF AARHUS: FRANK JENSEN
     UNIVERSITY OF IOWA: VISVALDAS KAIRYS, HUI LI
     NATIONAL INST. OF STANDARDS AND TECHNOLOGY: WALT STEVENS, DAVID GARMER
     UNIVERSITY OF PISA: BENEDETTA MENNUCCI, JACOPO TOMASI
     UNIVERSITY OF MEMPHIS: HENRY KURTZ, PRAKASHAN KORAMBATH
     UNIVERSITY OF ALBERTA: TOBY ZENG, MARIUSZ KLOBUKOWSKI
     UNIVERSITY OF NEW ENGLAND: MARK SPACKMAN
     MIE UNIVERSITY: HIROAKI UMEDA
     NAT. INST. OF ADVANCED INDUSTRIAL SCIENCE AND TECHNOLOGY: KAZUO KITAURA
     MICHIGAN STATE UNIVERSITY:
          KAROL KOWALSKI, MARTA WLOCH, JEFFREY GOUR, JESSE LUTZ,
          WEI LI, PIOTR PIECUCH
     UNIVERSITY OF SILESIA: MONIKA MUSIAL, STANISLAW KUCHARSKI
     FACULTES UNIVERSITAIRES NOTRE-DAME DE LA PAIX:
          OLIVIER QUINET, BENOIT CHAMPAGNE
     UNIVERSITY OF CALIFORNIA - SANTA BARBARA: BERNARD KIRTMAN
     INSTITUTE FOR MOLECULAR SCIENCE:
          KAZUYA ISHIMURA, MICHIO KATOUDA, AND SHIGERU NAGASE
     UNIVERSITY OF NOTRE DAME: ANNA POMOGAEVA, DAN CHIPMAN
     KYUSHU UNIVERSITY:
          HARUYUKI NAKANO,
          FENG LONG GU, JACEK KORCHOWIEC, MARCIN MAKOWSKI, AND YURIKO AOKI,
          HIROTOSHI MORI AND EISAKU MIYOSHI
     PENNSYLVANIA STATE UNIVERSITY:
          TZVETELIN IORDANOV, CHET SWALINA, JONATHAN SKONE,
          SHARON HAMMES-SCHIFFER
     WASEDA UNIVERSITY:
          MASATO KOBAYASHI, TOMOKO AKAMA, TSUGUKI TOUMA,
          TAKESHI YOSHIKAWA, YASUHIRO IKABATA, JUNJI SEINO,
          YUYA NAKAJIMA, HIROMI NAKAI
     NANJING UNIVERSITY: SHUHUA LI
     UNIVERSITY OF NEBRASKA:
          PEIFENG SU, DEJUN SI, NANDUN THELLAMUREGE, YALI WANG, HUI LI
     UNIVERSITY OF ZURICH: ROBERTO PEVERATI, KIM BALDRIDGE
     N. COPERNICUS UNIVERSITY AND JACKSON STATE UNIVERSITY:
          MARIA BARYSZ
     UNIVERSITY OF COPENHAGEN: Jimmy Kromann, CASPER STEINMANN
     TOKYO INSTITUTE OF TECHNOLOGY: HIROYA NAKATA
     NAGOYA UNIVERSITY: YOSHIO NISHIMOTO, STEPHAN IRLE
     MOSCOW STATE UNIVERSITY: VLADIMIR MIRONOV

 EXECUTION OF GAMESS BEGUN Sun Sep 29 10:52:31 2019

            ECHO OF THE FIRST FEW INPUT CARDS -
 INPUT CARD> $BASIS GBASIS=PCSEG-1 $END                                                     
 INPUT CARD> $CONTRL COORD=ZMT ISPHER=1 RUNTYP=ENERGY DFTTYP=PBE MULT=1 $END                
 INPUT CARD>                                                                                
 INPUT CARD> $DATA                                                                          
 INPUT CARD>Title SO2 single-point calculation template with Z-Matrix                       
 INPUT CARD>C1                                                                              
 INPUT CARD>S                                                                               
 INPUT CARD>O 1 1.65                                                                        
 INPUT CARD>O 1 1.65 2 105                                                                  
 INPUT CARD> $END                                                                           
    1000000 WORDS OF MEMORY AVAILABLE

     BASIS OPTIONS
     -------------
     GBASIS=PCSEG-1      IGAUSS=       0      POLAR=NONE    
     NDFUNC=       0     NFFUNC=       0     DIFFSP=       F
     NPFUNC=       0      DIFFS=       F     BASNAM=        


     RUN TITLE
     ---------
 Title SO2 single-point calculation template with Z-Matrix                       

 THE POINT GROUP OF THE MOLECULE IS C1      
 THE ORDER OF THE PRINCIPAL AXIS IS     0

 YOUR FULLY SUBSTITUTED Z-MATRIX IS
 S   
 O      1   1.6500000
 O      1   1.6500000  2  105.0000

 THE MOMENTS OF INERTIA ARE (AMU-ANGSTROM**2)
 IXX=    16.133   IYY=    54.817   IZZ=    70.950

 ATOM      ATOMIC                      COORDINATES (BOHR)
           CHARGE         X                   Y                   Z
 S          16.0     0.0000000000       -0.9493370180        0.0000000000
 O           8.0     2.4737137006        0.9488102650        0.0000000000
 O           8.0    -2.4737137006        0.9488102650        0.0000000000

          INTERNUCLEAR DISTANCES (ANGS.)
          ------------------------------

                1 S          2 O          3 O     

   1 S       0.0000000    1.6500000 *  1.6500000 *
   2 O       1.6500000 *  0.0000000    2.6180660 *
   3 O       1.6500000 *  2.6180660 *  0.0000000  

  * ... LESS THAN  3.000


     ATOMIC BASIS SET
     ----------------
 THE CONTRACTED PRIMITIVE FUNCTIONS HAVE BEEN UNNORMALIZED
 THE CONTRACTED BASIS FUNCTIONS ARE NOW NORMALIZED TO UNITY

  SHELL TYPE  PRIMITIVE        EXPONENT          CONTRACTION COEFFICIENT(S)

 S         

      1   S       1         49299.4000000    0.000677492991
      1   S       2          7395.8400000    0.005232317766
      1   S       3          1683.3000000    0.026769459077
      1   S       4           476.1440000    0.102869580705
      1   S       5           154.3290000    0.286438127414
      1   S       6            55.0288000    0.454278639081
      1   S       7            20.5029000    0.271743121997

      2   S       8            45.9596000   -0.088421914560
      2   S       9             4.9274000    0.564350486135
      2   S      10             1.9179900    0.505415953466

      3   S      11             0.3684980    1.000000000000

      4   S      12             0.1291650    1.000000000000

      5   P      13           451.6620000    0.003707705453
      5   P      14           106.0980000    0.029219352245
      5   P      15            33.6996000    0.124444551509
      5   P      16            12.3054000    0.321808587656
      5   P      17             4.7141200    0.462822172957
      5   P      18             1.7810500    0.266513371364

      6   P      19             0.8722350    0.349265132972
      6   P      20             0.3102780    0.717115018770

      7   P      21             0.1001940    1.000000000000

      8   D      22             0.5500000    1.000000000000

 O         

      9   S      23          2288.6400000    0.005451138222
      9   S      24           344.4160000    0.040718922842
      9   S      25            78.2538000    0.181369420873
      9   S      26            21.7195000    0.465536820246
      9   S      27             6.5590700    0.451211321214

     10   S      28            10.4656000   -0.150211201174
     10   S      29             0.9643510    1.052867983385

     11   S      30             0.2851270    1.000000000000

     12   P      31            17.0590000    0.068749256972
     12   P      32             3.6899900    0.351671941499
     12   P      33             0.9929960    0.724532099722

     13   P      34             0.2449240    1.000000000000

     14   D      35             1.0000000    1.000000000000

 O         

     15   S      36          2288.6400000    0.005451138222
     15   S      37           344.4160000    0.040718922842
     15   S      38            78.2538000    0.181369420873
     15   S      39            21.7195000    0.465536820246
     15   S      40             6.5590700    0.451211321214

     16   S      41            10.4656000   -0.150211201174
     16   S      42             0.9643510    1.052867983385

     17   S      43             0.2851270    1.000000000000

     18   P      44            17.0590000    0.068749256972
     18   P      45             3.6899900    0.351671941499
     18   P      46             0.9929960    0.724532099722

     19   P      47             0.2449240    1.000000000000

     20   D      48             1.0000000    1.000000000000

 TOTAL NUMBER OF BASIS SET SHELLS             =   20
 NUMBER OF CARTESIAN GAUSSIAN BASIS FUNCTIONS =   49
 NOTE: THIS RUN WILL RESTRICT THE MO VARIATION SPACE TO SPHERICAL HARMONICS.
 THE NUMBER OF ORBITALS KEPT IN THE VARIATIONAL SPACE WILL BE PRINTED LATER.
 NUMBER OF ELECTRONS                          =   32
 CHARGE OF MOLECULE                           =    0
 SPIN MULTIPLICITY                            =    1
 NUMBER OF OCCUPIED ORBITALS (ALPHA)          =   16
 NUMBER OF OCCUPIED ORBITALS (BETA )          =   16
 TOTAL NUMBER OF ATOMS                        =    3
 THE NUCLEAR REPULSION ENERGY IS       95.0386679992

     LEBEDEV GRID-BASED DFT OPTIONS
     ------------------------------
     DFTTYP=PBE     
     NRAD  =      96     NLEB  =     302
     NRAD0 =      24     NLEB0 =     110
     SWOFF =    5.00E-03 (PURE SCF -> DFT)
     SWITCH=    3.00E-04 (COARSE -> TIGHT GRID)
     THRESH=    0.00E+00 GTHRE=    1.00E+00

 GRIMME'S EMPIRICAL DISPERSION CORRECTION= F

     $CONTRL OPTIONS
     ---------------
 SCFTYP=RHF          RUNTYP=ENERGY       EXETYP=RUN     
 MPLEVL=       0     CITYP =NONE         CCTYP =NONE         VBTYP =NONE    
 DFTTYP=PBE          TDDFT =NONE    
 MULT  =       1     ICHARG=       0     NZVAR =       0     COORD =ZMT     
 PP    =NONE         RELWFN=NONE         LOCAL =NONE         NUMGRD=       F
 ISPHER=       1     NOSYM =       0     MAXIT =      30     UNITS =ANGS    
 PLTORB=       F     MOLPLT=       F     AIMPAC=       F     FRIEND=        
 NPRINT=       7     IREST =       0     GEOM  =INPUT   
 NORMF =       0     NORMP =       0     ITOL  =      20     ICUT  =       9
 INTTYP=BEST         GRDTYP=BEST         QMTTOL= 1.0E-06

     $SYSTEM OPTIONS
     ---------------
  REPLICATED MEMORY=     1000000 WORDS (ON EVERY NODE).
 DISTRIBUTED MEMDDI=           0 MILLION WORDS IN AGGREGATE,
 MEMDDI DISTRIBUTED OVER   1 PROCESSORS IS           0 WORDS/PROCESSOR.
 TOTAL MEMORY REQUESTED ON EACH PROCESSOR=     1000000 WORDS.
 TIMLIM=      525600.00 MINUTES, OR     365.0 DAYS.
 PARALL= F  BALTYP=  DLB     KDIAG=    0  COREFL= F
 MXSEQ2=     300 MXSEQ3=     150  mem10=         0

          ----------------
          PROPERTIES INPUT
          ----------------

     MOMENTS            FIELD           POTENTIAL          DENSITY
 IEMOM =       1   IEFLD =       0   IEPOT =       0   IEDEN =       0
 WHERE =COMASS     WHERE =NUCLEI     WHERE =NUCLEI     WHERE =NUCLEI  
 OUTPUT=BOTH       OUTPUT=BOTH       OUTPUT=BOTH       OUTPUT=BOTH    
 IEMINT=       0   IEFINT=       0                     IEDINT=       0
                                                       MORB  =       0
          EXTRAPOLATION IN EFFECT
          DIIS IN EFFECT
 ORBITAL PRINTING OPTION: NPREO=     1    49     2     1

     -------------------------------
     INTEGRAL TRANSFORMATION OPTIONS
     -------------------------------
     NWORD  =            0
     CUTOFF = 1.0E-09     MPTRAN =       0
     DIRTRF =       F     AOINTS =DUP     

          ----------------------
          INTEGRAL INPUT OPTIONS
          ----------------------
 NOPK  =       1 NORDER=       0 SCHWRZ=       F

   --- ENCODED Z MATRIX ---
 COORD  TYPE   I   J   K   L   M   N
    1      1    2   1
    2      1    3   1
    3      2    3   1   2

 THE DETERMINANT OF THE G MATRIX IS 10**(    -4)

 THE DETERMINANT OF THE G MATRIX IS 10**(    -4)
 * * * WARNING * * *
 YOUR B MATRIX HAS A SMALL DETERMINANT.
 THIS SUGGESTS YOU MAY HAVE BADLY CHOSEN COORDINATES.

     ------------------------------------------
     THE POINT GROUP IS C1 , NAXIS= 0, ORDER= 1
     ------------------------------------------

 -- VARIATIONAL SPACE WILL BE RESTRICTED TO PURE SPHERICAL HARMONICS ONLY --
 AFTER EXCLUDING CONTAMINANT COMBINATIONS FROM THE CARTESIAN GAUSSIAN BASIS
 SET, THE NUMBER OF SPHERICAL HARMONICS KEPT IN THE VARIATION SPACE IS   46

     DIMENSIONS OF THE SYMMETRY SUBSPACES ARE
 A   =   46

 ..... DONE SETTING UP THE RUN .....
 STEP CPU TIME =     0.04 TOTAL CPU TIME =          0.0 (      0.0 MIN)
 TOTAL WALL CLOCK TIME=          0.0 SECONDS, CPU UTILIZATION IS   100.00%

          ********************
          1 ELECTRON INTEGRALS
          ********************
 ...... END OF ONE-ELECTRON INTEGRALS ......
 STEP CPU TIME =     0.00 TOTAL CPU TIME =          0.0 (      0.0 MIN)
 TOTAL WALL CLOCK TIME=          0.0 SECONDS, CPU UTILIZATION IS   100.00%

          -------------
          GUESS OPTIONS
          -------------
          GUESS =HUCKEL            NORB  =       0          NORDER=       0
          MIX   =       F          PRTMO =       F          PUNMO =       F
          TOLZ  = 1.0E-08          TOLE  = 1.0E-05
          SYMDEN=       F          PURIFY=       F

 INITIAL GUESS ORBITALS GENERATED BY HUCKEL   ROUTINE.
 HUCKEL GUESS REQUIRES     21634 WORDS.

 STATISTICS FOR GENERATION OF SYMMETRY ORBITAL -Q- MATRIX
 NUMBER OF CARTESIAN ATOMIC ORBITALS=         49
 NUMBER OF SPHERICAL CONTAMINANTS DROPPED=     3
 NUMBER OF LINEARLY DEPENDENT MOS DROPPED=     0
 TOTAL NUMBER OF MOS IN VARIATION SPACE=      46

 SYMMETRIES FOR INITIAL GUESS ORBITALS FOLLOW.   BOTH SET(S).
    16 ORBITALS ARE OCCUPIED (    7 CORE ORBITALS).
     8=A        9=A       10=A       11=A       12=A       13=A       14=A   
    15=A       16=A       17=A       18=A       19=A       20=A       21=A   
    22=A       23=A       24=A       25=A       26=A   
 ...... END OF INITIAL ORBITAL SELECTION ......
 STEP CPU TIME =     0.00 TOTAL CPU TIME =          0.0 (      0.0 MIN)
 TOTAL WALL CLOCK TIME=          0.0 SECONDS, CPU UTILIZATION IS    80.00%

                    ----------------------
                    AO INTEGRAL TECHNOLOGY
                    ----------------------
     S,P,L SHELL ROTATED AXIS INTEGRALS, REPROGRAMMED BY
        KAZUYA ISHIMURA (IMS) AND JOSE SIERRA (SYNSTAR).
     S,P,D,L SHELL ROTATED AXIS INTEGRALS PROGRAMMED BY
        KAZUYA ISHIMURA (INSTITUTE FOR MOLECULAR SCIENCE).
     S,P,D,F,G SHELL TO TOTAL QUARTET ANGULAR MOMENTUM SUM 5,
        ERIC PROGRAM BY GRAHAM FLETCHER (ELORET AND NASA ADVANCED
        SUPERCOMPUTING DIVISION, AMES RESEARCH CENTER).
     S,P,D,F,G,L SHELL GENERAL RYS QUADRATURE PROGRAMMED BY
        MICHEL DUPUIS (PACIFIC NORTHWEST NATIONAL LABORATORY).

          --------------------
          2 ELECTRON INTEGRALS
          --------------------

 THE -PK- OPTION IS OFF, THE INTEGRALS ARE NOT IN SUPERMATRIX FORM.
 STORING   15000 INTEGRALS/RECORD ON DISK, USING 12 BYTES/INTEGRAL.
 TWO ELECTRON INTEGRAL EVALUATION REQUIRES   90606 WORDS OF MEMORY.
 II,JST,KST,LST =  1  1  1  1 NREC =         1 INTLOC =    1
 II,JST,KST,LST =  2  1  1  1 NREC =         1 INTLOC =    2
 II,JST,KST,LST =  3  1  1  1 NREC =         1 INTLOC =    7
 II,JST,KST,LST =  4  1  1  1 NREC =         1 INTLOC =   22
 II,JST,KST,LST =  5  1  1  1 NREC =         1 INTLOC =   56
 II,JST,KST,LST =  6  1  1  1 NREC =         1 INTLOC =  125
 II,JST,KST,LST =  7  1  1  1 NREC =         1 INTLOC =  329
 II,JST,KST,LST =  8  1  1  1 NREC =         1 INTLOC =  776
 II,JST,KST,LST =  9  1  1  1 NREC =         1 INTLOC = 2864
 II,JST,KST,LST = 10  1  1  1 NREC =         1 INTLOC = 4881
 II,JST,KST,LST = 11  1  1  1 NREC =         1 INTLOC = 7533
 II,JST,KST,LST = 12  1  1  1 NREC =         1 INTLOC =10643
 II,JST,KST,LST = 13  1  1  1 NREC =         2 INTLOC = 6518
 II,JST,KST,LST = 14  1  1  1 NREC =         3 INTLOC = 6765
 II,JST,KST,LST = 15  1  1  1 NREC =         6 INTLOC = 8671
 II,JST,KST,LST = 16  1  1  1 NREC =         7 INTLOC =  772
 II,JST,KST,LST = 17  1  1  1 NREC =         7 INTLOC =12352
 II,JST,KST,LST = 18  1  1  1 NREC =         8 INTLOC =10730
 II,JST,KST,LST = 19  1  1  1 NREC =        11 INTLOC = 5659
 II,JST,KST,LST = 20  1  1  1 NREC =        14 INTLOC =12702
 TOTAL NUMBER OF NONZERO TWO-ELECTRON INTEGRALS =              339375
         23 INTEGRAL RECORDS WERE STORED ON DISK FILE  8.
  ...... END OF TWO-ELECTRON INTEGRALS .....
 STEP CPU TIME =     0.12 TOTAL CPU TIME =          0.2 (      0.0 MIN)
 TOTAL WALL CLOCK TIME=          0.2 SECONDS, CPU UTILIZATION IS    94.12%

          --------------------------
               R-PBE SCF CALCULATION
          --------------------------

     NUCLEAR ENERGY =        95.0386679992
     MAXIT =   30     NPUNCH=    2
     EXTRAP=T  DAMP=F  SHIFT=F  RSTRCT=F  DIIS=T  DEM=F  SOSCF=F
         DENSITY MATRIX CONVERGENCE THRESHOLD=  1.00E-05
     COARSE -> FINE DFT GRID SWITCH THRESHOLD=  3.00E-04 (SWITCH IN $DFT)
                   HF -> DFT SWITCH THRESHOLD=  5.00E-03 (SWOFF IN $DFT)
     MEMORY REQUIRED FOR RHF ITERS=    183108 WORDS.

 DFT CODE IS SWITCHING FROM THE FINE GRID NRAD= 96,  NLEB=  302
                      TO THE COARSE GRID NRAD0= 24, NLEB0=  110

     EXCHANGE FUNCTIONAL   =PBE       
     CORRELATION FUNCTIONAL=PBE       
     DFT THRESHOLD         =.460E-07
     GRID CHANGE THRESHOLD =.300E-03
 FOR AN EULER-MACLAURIN QUADRATURE USING  96 RADIAL POINTS:
 SMALLEST GAUSSIAN PRIMITIVE EXPONENT=        0.1001940000 OF TYPE -P-
 ON ATOM NUMBER   1 HAS RADIAL NORMALIZATION=  1.000000
  LARGEST GAUSSIAN PRIMITIVE EXPONENT=    49299.4000000000 OF TYPE -S-
 ON ATOM NUMBER   1 HAS RADIAL NORMALIZATION=  1.000000
 DFT IS SWITCHED OFF, PERFORMING PURE SCF UNTIL SWOFF THRESHOLD IS REACHED.

 ITER EX DEM     TOTAL ENERGY        E CHANGE  DENSITY CHANGE    DIIS ERROR
   1  0  0     -546.0110665104  -546.0110665104   0.679120839   0.934765647
          * * *   INITIATING DIIS PROCEDURE   * * *
   2  1  0     -546.5350394432    -0.5239729329   0.741967271   0.344467165
   3  2  0     -546.5398651816    -0.0048257384   0.292686354   0.349030352
   4  3  0     -547.0022155540    -0.4623503724   0.029801063   0.009470369
   5  4  0     -547.0030881496    -0.0008725957   0.006702123   0.006845784
   6  5  0     -547.0032522861    -0.0001641365   0.002449834   0.002174461
 CONVERGED TO SWOFF, SO DFT CALCULATION IS NOW SWITCHED ON.
          * * *   INITIATING DIIS PROCEDURE   * * *
   7  6  0     -548.1613291068    -1.1580768207   0.468968860   0.100947848
   8  7  0     -548.1377684496     0.0235606572   0.416163588   0.148250247
   9  8  0     -548.1557402243    -0.0179717748   0.126663332   0.131823176
  10  9  0     -548.2033443094    -0.0476040850   0.029352266   0.013544724
  11 10  0     -548.2040065114    -0.0006622020   0.001987204   0.001010166
  12 11  0     -548.2040108584    -0.0000043470   0.000669033   0.000514722
  13 12  0     -548.2040111986    -0.0000003402   0.000375171   0.000456580
  14 13  0     -548.2040115252    -0.0000003266   0.000100420   0.000123995
 DFT CODE IS SWITCHING BACK TO THE FINE GRID
          * * *   INITIATING DIIS PROCEDURE   * * *
  15 14  0     -548.2085547624    -0.0045432372   0.017637737   0.011423306
  16 15  0     -548.2085588793    -0.0000041169   0.023873239   0.008284142
  17 16  0     -548.2084917605     0.0000671189   0.013755671   0.010317969
  18 17  0     -548.2087692400    -0.0002774795   0.000554736   0.000395341
  19 18  0     -548.2087695755    -0.0000003355   0.000440096   0.000136967
  20 19  0     -548.2087691366     0.0000004389   0.000355301   0.000549397
  21 20  0     -548.2087696430    -0.0000005064   0.000023364   0.000009868
  22 21  0     -548.2087696434    -0.0000000004   0.000003297   0.000001861
  23 22  0     -548.2087696434    -0.0000000000   0.000000229   0.000000113

          -----------------
          DENSITY CONVERGED
          -----------------
     TIME TO FORM FOCK OPERATORS=       2.5 SECONDS (       0.1 SEC/ITER)
     TIME TO SOLVE SCF EQUATIONS=       0.0 SECONDS (       0.0 SEC/ITER)

 FINAL R-PBE ENERGY IS     -548.2087696434 AFTER  23 ITERATIONS
 DFT EXCHANGE + CORRELATION ENERGY =       -42.3022221634
 TOTAL ELECTRON NUMBER             =        31.9999757885

          ------------
          EIGENVECTORS
          ------------

                      1          2          3          4          5
                  -88.2307   -18.8127   -18.8127    -7.8459    -5.8719
                     A          A          A          A          A   
    1  S  1  S    0.997762  -0.000006  -0.000000  -0.308395  -0.000000
    2  S  1  S    0.008221  -0.000031  -0.000000   1.031776   0.000000
    3  S  1  S   -0.002894  -0.000981  -0.000003   0.027758   0.000000
    4  S  1  S    0.001002   0.008056   0.000024  -0.005951  -0.000000
    5  S  1  X   -0.000000   0.000000  -0.000111  -0.000000   0.994696
    6  S  1  Y    0.000122  -0.000193  -0.000001   0.008530  -0.000001
    7  S  1  Z    0.000000   0.000000   0.000000   0.000000   0.000000
    8  S  1  X    0.000000  -0.000004   0.001524  -0.000000   0.017045
    9  S  1  Y   -0.000301   0.001678   0.000005   0.000942  -0.000000
   10  S  1  Z    0.000000   0.000000   0.000000   0.000000   0.000000
   11  S  1  X    0.000000  -0.000009   0.003027  -0.000000  -0.002692
   12  S  1  Y    0.000036   0.003646   0.000011  -0.000179   0.000000
   13  S  1  Z    0.000000   0.000000   0.000000   0.000000   0.000000
   14  S  1 XX   -0.000114   0.000610   0.000002   0.000450  -0.000000
   15  S  1 YY   -0.000008   0.000306   0.000001  -0.000083  -0.000000
   16  S  1 ZZ    0.000122  -0.000916  -0.000003  -0.000368   0.000000
   17  S  1 XY    0.000000  -0.000002   0.000647  -0.000000   0.001170
   18  S  1 XZ    0.000000   0.000000   0.000000   0.000000   0.000000
   19  S  1 YZ    0.000000   0.000000   0.000000   0.000000   0.000000
   20  O  2  S   -0.000009   0.700305   0.704351   0.000012  -0.000102
   21  O  2  S   -0.000109   0.023831   0.023397  -0.000054  -0.000077
   22  O  2  S    0.000187  -0.012098  -0.010057  -0.000170  -0.000664
   23  O  2  X   -0.000006  -0.000714  -0.000726   0.000185  -0.000009
   24  O  2  Y    0.000004  -0.000511  -0.000617   0.000121   0.000040
   25  O  2  Z    0.000000   0.000000   0.000000   0.000000   0.000000
   26  O  2  X   -0.000248   0.002657   0.001532   0.000620   0.000826
   27  O  2  Y   -0.000212   0.001383   0.001593   0.000556   0.000720
   28  O  2  Z    0.000000   0.000000   0.000000   0.000000   0.000000
   29  O  2 XX    0.000093  -0.000215  -0.000113  -0.000134   0.000193
   30  O  2 YY    0.000013   0.000049  -0.000071  -0.000030  -0.000062
   31  O  2 ZZ   -0.000106   0.000166   0.000184   0.000164  -0.000131
   32  O  2 XY    0.000177  -0.000287  -0.000223  -0.000276   0.000189
   33  O  2 XZ    0.000000   0.000000   0.000000   0.000000   0.000000
   34  O  2 YZ    0.000000   0.000000   0.000000   0.000000   0.000000
   35  O  3  S   -0.000009   0.704372  -0.700284   0.000012   0.000102
   36  O  3  S   -0.000109   0.023966  -0.023259  -0.000054   0.000077
   37  O  3  S    0.000187  -0.012156   0.009986  -0.000170   0.000664
   38  O  3  X    0.000006   0.000718  -0.000722  -0.000185  -0.000009
   39  O  3  Y    0.000004  -0.000515   0.000614   0.000121  -0.000040
   40  O  3  Z    0.000000   0.000000   0.000000   0.000000   0.000000
   41  O  3  X    0.000248  -0.002666   0.001517  -0.000620   0.000826
   42  O  3  Y   -0.000212   0.001392  -0.001585   0.000556  -0.000720
   43  O  3  Z    0.000000   0.000000   0.000000   0.000000   0.000000
   44  O  3 XX    0.000093  -0.000215   0.000112  -0.000134  -0.000193
   45  O  3 YY    0.000013   0.000049   0.000071  -0.000030   0.000062
   46  O  3 ZZ   -0.000106   0.000167  -0.000183   0.000164   0.000131
   47  O  3 XY   -0.000177   0.000288  -0.000222   0.000276   0.000189
   48  O  3 XZ    0.000000   0.000000   0.000000   0.000000   0.000000
   49  O  3 YZ    0.000000   0.000000   0.000000   0.000000   0.000000

                      6          7          8          9         10
                   -5.8702    -5.8672    -0.9729    -0.8998    -0.6282
                     A          A          A          A          A   
    1  S  1  S    0.000000   0.002644   0.046445  -0.000000   0.072107
    2  S  1  S    0.000000  -0.009062  -0.287179   0.000000  -0.460595
    3  S  1  S    0.000000  -0.000494   0.407857  -0.000002   0.703851
    4  S  1  S    0.000000   0.001622   0.079253   0.000005   0.265202
    5  S  1  X    0.000000   0.000001   0.000000   0.094288   0.000000
    6  S  1  Y    0.000000   0.994840  -0.056488  -0.000000   0.043945
    7  S  1  Z    0.994970   0.000000   0.000000   0.000000   0.000000
    8  S  1  X    0.000000   0.000000   0.000000  -0.214949  -0.000000
    9  S  1  Y    0.000000   0.016326   0.124924   0.000001  -0.104820
   10  S  1  Z    0.015902   0.000000   0.000000   0.000000   0.000000
   11  S  1  X    0.000000  -0.000000   0.000002   0.002212  -0.000001
   12  S  1  Y    0.000000  -0.002560  -0.014002   0.000003  -0.041640
   13  S  1  Z   -0.003130   0.000000   0.000000   0.000000   0.000000
   14  S  1 XX    0.000000  -0.000021   0.026186   0.000000  -0.007776
   15  S  1 YY    0.000000   0.000609   0.002826   0.000000  -0.006789
   16  S  1 ZZ    0.000000  -0.000588  -0.029012  -0.000001   0.014565
   17  S  1 XY    0.000000   0.000000   0.000000  -0.064682  -0.000000
   18  S  1 XZ   -0.000000   0.000000   0.000000   0.000000   0.000000
   19  S  1 YZ    0.000441   0.000000   0.000000   0.000000   0.000000
   20  O  2  S    0.000000  -0.000084  -0.138730   0.166847   0.107507
   21  O  2  S    0.000000   0.000025   0.283290  -0.347428  -0.228958
   22  O  2  S    0.000000  -0.000745   0.271817  -0.335809  -0.281910
   23  O  2  X    0.000000  -0.000008  -0.079542   0.061506  -0.081486
   24  O  2  Y    0.000000  -0.000053  -0.057203   0.057168  -0.076829
   25  O  2  Z   -0.000064   0.000000   0.000000   0.000000   0.000000
   26  O  2  X    0.000000   0.000761  -0.032598   0.021160  -0.037634
   27  O  2  Y    0.000000   0.000343  -0.023903   0.021340  -0.032989
   28  O  2  Z   -0.000086   0.000000   0.000000   0.000000   0.000000
   29  O  2 XX    0.000000  -0.000019   0.005090  -0.001768   0.001847
   30  O  2 YY    0.000000   0.000171  -0.000509  -0.000141   0.002081
   31  O  2 ZZ    0.000000  -0.000152  -0.004580   0.001910  -0.003928
   32  O  2 XY    0.000000   0.000309   0.010884  -0.008273   0.004619
   33  O  2 XZ    0.000154   0.000000   0.000000   0.000000   0.000000
   34  O  2 YZ    0.000111   0.000000   0.000000   0.000000   0.000000
   35  O  3  S    0.000000  -0.000084  -0.138730  -0.166846   0.107507
   36  O  3  S    0.000000   0.000025   0.283290   0.347429  -0.228959
   37  O  3  S    0.000000  -0.000745   0.271822   0.335801  -0.281912
   38  O  3  X    0.000000   0.000008   0.079542   0.061507   0.081486
   39  O  3  Y    0.000000  -0.000053  -0.057203  -0.057168  -0.076830
   40  O  3  Z   -0.000064   0.000000   0.000000   0.000000   0.000000
   41  O  3  X    0.000000  -0.000761   0.032599   0.021157   0.037634
   42  O  3  Y    0.000000   0.000343  -0.023904  -0.021339  -0.032988
   43  O  3  Z   -0.000086   0.000000   0.000000   0.000000   0.000000
   44  O  3 XX    0.000000  -0.000019   0.005090   0.001768   0.001847
   45  O  3 YY    0.000000   0.000171  -0.000509   0.000141   0.002081
   46  O  3 ZZ    0.000000  -0.000152  -0.004580  -0.001910  -0.003928
   47  O  3 XY    0.000000  -0.000309  -0.010884  -0.008273  -0.004619
   48  O  3 XZ   -0.000154   0.000000   0.000000   0.000000   0.000000
   49  O  3 YZ    0.000111   0.000000   0.000000   0.000000   0.000000

                     11         12         13         14         15
                   -0.4291    -0.4131    -0.4070    -0.3049    -0.2936
                     A          A          A          A          A   
    1  S  1  S    0.000000  -0.010322   0.000000   0.000000   0.014661
    2  S  1  S   -0.000000   0.065100   0.000000   0.000000  -0.095087
    3  S  1  S    0.000000  -0.066744   0.000000   0.000000   0.120786
    4  S  1  S    0.000000  -0.208412   0.000000   0.000000   0.259238
    5  S  1  X   -0.191310  -0.000000   0.000000   0.000000  -0.000000
    6  S  1  Y    0.000000  -0.214992   0.000000   0.000000   0.071582
    7  S  1  Z    0.000000   0.000000  -0.222662   0.000000   0.000000
    8  S  1  X    0.517812   0.000001   0.000000   0.000000   0.000000
    9  S  1  Y   -0.000001   0.579755   0.000000   0.000000  -0.196793
   10  S  1  Z    0.000000   0.000000   0.605522  -0.000001   0.000000
   11  S  1  X    0.043281   0.000001   0.000000   0.000000   0.000002
   12  S  1  Y   -0.000000   0.101219   0.000000   0.000000  -0.003712
   13  S  1  Z    0.000000   0.000000   0.175726  -0.000000   0.000000
   14  S  1 XX   -0.000000  -0.017575   0.000000   0.000000  -0.113429
   15  S  1 YY   -0.000000   0.040331   0.000000   0.000000   0.075936
   16  S  1 ZZ    0.000000  -0.022755   0.000000   0.000000   0.037493
   17  S  1 XY    0.048829   0.000000   0.000000   0.000000  -0.000001
   18  S  1 XZ    0.000000   0.000000  -0.000000  -0.092094   0.000000
   19  S  1 YZ    0.000000   0.000000   0.041000   0.000000   0.000000
   20  O  2  S    0.064592   0.038170   0.000000   0.000000  -0.002043
   21  O  2  S   -0.135944  -0.082304   0.000000   0.000000   0.006390
   22  O  2  S   -0.215368  -0.118103   0.000000   0.000000  -0.023612
   23  O  2  X   -0.224696  -0.308164   0.000000   0.000000  -0.069819
   24  O  2  Y   -0.273239   0.002785   0.000000   0.000000   0.446053
   25  O  2  Z    0.000000   0.000000   0.285076  -0.472810   0.000000
   26  O  2  X   -0.117663  -0.187131   0.000000   0.000000  -0.054698
   27  O  2  Y   -0.151213   0.008593   0.000000   0.000000   0.324251
   28  O  2  Z    0.000000   0.000000   0.175557  -0.336551   0.000000
   29  O  2 XX    0.000810   0.015202   0.000000   0.000000   0.008536
   30  O  2 YY    0.006533  -0.009206   0.000000   0.000000  -0.012183
   31  O  2 ZZ   -0.007343  -0.005996   0.000000   0.000000   0.003647
   32  O  2 XY    0.011514   0.005418   0.000000   0.000000  -0.009685
   33  O  2 XZ    0.000000   0.000000  -0.014007   0.012498   0.000000
   34  O  2 YZ    0.000000   0.000000  -0.010510   0.011599   0.000000
   35  O  3  S   -0.064592   0.038170   0.000000   0.000000  -0.002043
   36  O  3  S    0.135943  -0.082305   0.000000   0.000000   0.006390
   37  O  3  S    0.215369  -0.118102   0.000000   0.000000  -0.023611
   38  O  3  X   -0.224697   0.308165   0.000000   0.000000   0.069826
   39  O  3  Y    0.273239   0.002786   0.000000   0.000000   0.446057
   40  O  3  Z    0.000000   0.000000   0.285076   0.472810   0.000000
   41  O  3  X   -0.117663   0.187132   0.000000   0.000000   0.054703
   42  O  3  Y    0.151213   0.008593   0.000000   0.000000   0.324253
   43  O  3  Z    0.000000   0.000000   0.175558   0.336551   0.000000
   44  O  3 XX   -0.000810   0.015203   0.000000   0.000000   0.008536
   45  O  3 YY   -0.006533  -0.009206   0.000000   0.000000  -0.012183
   46  O  3 ZZ    0.007343  -0.005996   0.000000   0.000000   0.003647
   47  O  3 XY    0.011514  -0.005418   0.000000   0.000000   0.009685
   48  O  3 XZ    0.000000   0.000000   0.014007   0.012498   0.000000
   49  O  3 YZ    0.000000   0.000000  -0.010510  -0.011599   0.000000

                     16         17         18         19         20
                   -0.2774    -0.2105    -0.0688    -0.0448     0.2114
                     A          A          A          A          A   
    1  S  1  S   -0.000000   0.000000  -0.000000   0.032461   0.000000
    2  S  1  S    0.000001   0.000000   0.000003  -0.219395   0.000000
    3  S  1  S   -0.000002   0.000000  -0.000006   0.368726   0.000000
    4  S  1  S    0.000001   0.000000  -0.000010   0.494616   0.000000
    5  S  1  X   -0.017041   0.000000  -0.214139  -0.000004   0.000000
    6  S  1  Y   -0.000000   0.000000   0.000003  -0.189426   0.000000
    7  S  1  Z    0.000000  -0.215204   0.000000   0.000000   0.249944
    8  S  1  X    0.045712   0.000000   0.653255   0.000013   0.000000
    9  S  1  Y    0.000001   0.000000  -0.000010   0.589611   0.000000
   10  S  1  Z    0.000000   0.629788   0.000000   0.000000  -0.988984
   11  S  1  X    0.132329   0.000000   0.663370   0.000006   0.000000
   12  S  1  Y    0.000002   0.000000  -0.000010   0.618437   0.000000
   13  S  1  Z    0.000000   0.260804   0.000000   0.000000   1.306814
   14  S  1 XX    0.000001   0.000000   0.000001  -0.093053   0.000000
   15  S  1 YY   -0.000001   0.000000   0.000001  -0.072607   0.000000
   16  S  1 ZZ   -0.000000   0.000000  -0.000002   0.165660   0.000000
   17  S  1 XY   -0.083428   0.000000  -0.190381  -0.000002   0.000000
   18  S  1 XZ    0.000000  -0.000000   0.000000   0.000000   0.000000
   19  S  1 YZ    0.000000  -0.064103   0.000000   0.000000  -0.101605
   20  O  2  S    0.003714   0.000000   0.041315   0.050432   0.000000
   21  O  2  S   -0.007884   0.000000  -0.082296  -0.100255   0.000000
   22  O  2  S   -0.045228   0.000000  -0.338917  -0.383405   0.000000
   23  O  2  X    0.401616   0.000000   0.091174   0.355117   0.000000
   24  O  2  Y   -0.264060   0.000000   0.318887   0.089956   0.000000
   25  O  2  Z    0.000000  -0.392506   0.000000   0.000000  -0.044492
   26  O  2  X    0.272006   0.000000   0.086529   0.361976   0.000000
   27  O  2  Y   -0.180659   0.000000   0.282725   0.073712   0.000000
   28  O  2  Z    0.000000  -0.309757   0.000000   0.000000  -0.133102
   29  O  2 XX   -0.013426   0.000000  -0.001817   0.002835   0.000000
   30  O  2 YY    0.013211   0.000000   0.004635  -0.005563   0.000000
   31  O  2 ZZ    0.000215   0.000000  -0.002819   0.002728   0.000000
   32  O  2 XY   -0.000355   0.000000   0.002516   0.000458   0.000000
   33  O  2 XZ    0.000000   0.003285   0.000000   0.000000   0.013701
   34  O  2 YZ    0.000000   0.001444   0.000000   0.000000   0.008135
   35  O  3  S   -0.003714   0.000000  -0.041316   0.050431   0.000000
   36  O  3  S    0.007884   0.000000   0.082294  -0.100256   0.000000
   37  O  3  S    0.045225   0.000000   0.338934  -0.383394   0.000000
   38  O  3  X    0.401614   0.000000   0.091183  -0.355115   0.000000
   39  O  3  Y    0.264053   0.000000  -0.318890   0.089946   0.000000
   40  O  3  Z    0.000000  -0.392506   0.000000   0.000000  -0.044492
   41  O  3  X    0.272003   0.000000   0.086542  -0.361971   0.000000
   42  O  3  Y    0.180654   0.000000  -0.282729   0.073703   0.000000
   43  O  3  Z    0.000000  -0.309757   0.000000   0.000000  -0.133102
   44  O  3 XX    0.013426   0.000000   0.001817   0.002835   0.000000
   45  O  3 YY   -0.013211   0.000000  -0.004635  -0.005563   0.000000
   46  O  3 ZZ   -0.000215   0.000000   0.002818   0.002728   0.000000
   47  O  3 XY   -0.000356   0.000000   0.002516  -0.000458   0.000000
   48  O  3 XZ    0.000000  -0.003285   0.000000   0.000000  -0.013701
   49  O  3 YZ    0.000000   0.001444   0.000000   0.000000   0.008135

                     21         22         23         24         25
                    0.2190     0.2400     0.2465     0.4888     0.4943
                     A          A          A          A          A   
    1  S  1  S    0.021594   0.000005  -0.061540   0.000000   0.000000
    2  S  1  S   -0.159324  -0.000034   0.454699   0.000000   0.000000
    3  S  1  S    0.573992   0.000137  -1.818483   0.000000   0.000000
    4  S  1  S   -0.563738  -0.000172   2.224143   0.000000   0.000000
    5  S  1  X   -0.000001   0.267271   0.000019   0.000000   0.000000
    6  S  1  Y    0.257104  -0.000002   0.052294   0.000000   0.000000
    7  S  1  Z    0.000000   0.000000   0.000000  -0.000000   0.027350
    8  S  1  X    0.000006  -1.040130  -0.000073   0.000000   0.000000
    9  S  1  Y   -1.001674   0.000008  -0.195225   0.000000   0.000000
   10  S  1  Z    0.000000   0.000000   0.000000   0.000001  -0.115848
   11  S  1  X   -0.000007   1.445546   0.000107   0.000000   0.000000
   12  S  1  Y    1.219922  -0.000050   0.745593   0.000000   0.000000
   13  S  1  Z    0.000000   0.000000   0.000000  -0.000000   0.091700
   14  S  1 XX    0.132090   0.000001  -0.025681   0.000000   0.000000
   15  S  1 YY   -0.081009   0.000005  -0.086897   0.000000   0.000000
   16  S  1 ZZ   -0.051081  -0.000006   0.112578   0.000000   0.000000
   17  S  1 XY    0.000001   0.077874   0.000009   0.000000   0.000000
   18  S  1 XZ    0.000000   0.000000   0.000000   0.896540   0.000005
   19  S  1 YZ    0.000000   0.000000   0.000000  -0.000005   0.913123
   20  O  2  S   -0.002653   0.008777   0.029004   0.000000   0.000000
   21  O  2  S    0.047230   0.033154  -0.026837   0.000000   0.000000
   22  O  2  S   -0.168762  -0.393275  -0.548308   0.000000   0.000000
   23  O  2  X   -0.104298  -0.198281  -0.118149   0.000000   0.000000
   24  O  2  Y   -0.059935  -0.089265  -0.120143   0.000000   0.000000
   25  O  2  Z    0.000000   0.000000   0.000000  -0.302150  -0.269957
   26  O  2  X    0.006260  -0.082021   0.191723   0.000000   0.000000
   27  O  2  Y   -0.119276   0.047575   0.050699   0.000000   0.000000
   28  O  2  Z    0.000000   0.000000   0.000000   0.126927   0.124055
   29  O  2 XX   -0.018638  -0.005511  -0.022968   0.000000   0.000000
   30  O  2 YY    0.013770  -0.009912  -0.001308   0.000000   0.000000
   31  O  2 ZZ    0.004868   0.015423   0.024276   0.000000   0.000000
   32  O  2 XY   -0.002380  -0.027077  -0.030385   0.000000   0.000000
   33  O  2 XZ    0.000000   0.000000   0.000000  -0.033941  -0.042839
   34  O  2 YZ    0.000000   0.000000   0.000000  -0.043234  -0.010205
   35  O  3  S   -0.002653  -0.008780   0.029003   0.000000   0.000000
   36  O  3  S    0.047227  -0.033159  -0.026851   0.000000   0.000000
   37  O  3  S   -0.168762   0.393367  -0.548239   0.000000   0.000000
   38  O  3  X    0.104299  -0.198302   0.118116   0.000000   0.000000
   39  O  3  Y   -0.059936   0.089282  -0.120131   0.000000   0.000000
   40  O  3  Z    0.000000   0.000000   0.000000   0.302153  -0.269954
   41  O  3  X   -0.006257  -0.081987  -0.191727   0.000000   0.000000
   42  O  3  Y   -0.119277  -0.047586   0.050688   0.000000   0.000000
   43  O  3  Z    0.000000   0.000000   0.000000  -0.126928   0.124054
   44  O  3 XX   -0.018638   0.005515  -0.022967   0.000000   0.000000
   45  O  3 YY    0.013770   0.009912  -0.001307   0.000000   0.000000
   46  O  3 ZZ    0.004868  -0.015427   0.024273   0.000000   0.000000
   47  O  3 XY    0.002381  -0.027082   0.030381   0.000000   0.000000
   48  O  3 XZ    0.000000   0.000000   0.000000  -0.033942   0.042838
   49  O  3 YZ    0.000000   0.000000   0.000000   0.043234  -0.010204

                     26         27         28         29         30
                    0.4991     0.6199     0.6803     0.7862     0.8080
                     A          A          A          A          A   
    1  S  1  S   -0.001168  -0.002614   0.000000   0.008640   0.000000
    2  S  1  S    0.009079   0.017698  -0.000000  -0.074286   0.000000
    3  S  1  S   -0.036664   0.110481   0.000001   0.352311   0.000000
    4  S  1  S    0.016470  -0.891433  -0.000007   0.047838   0.000000
    5  S  1  X   -0.000000   0.000000  -0.111011   0.000000   0.000000
    6  S  1  Y    0.036539   0.077228   0.000000  -0.014550   0.000000
    7  S  1  Z    0.000000   0.000000   0.000000   0.000000  -0.000000
    8  S  1  X    0.000001  -0.000002   0.559457   0.000000   0.000000
    9  S  1  Y   -0.157528  -0.351297  -0.000002   0.157772   0.000000
   10  S  1  Z    0.000000   0.000000   0.000000   0.000000   0.000000
   11  S  1  X   -0.000001  -0.000003   0.229172   0.000001   0.000000
   12  S  1  Y    0.132832  -0.253913  -0.000003   0.242331   0.000000
   13  S  1  Z    0.000000   0.000000   0.000000   0.000000  -0.000001
   14  S  1 XX   -0.522304  -0.681654  -0.000001  -0.534802   0.000000
   15  S  1 YY    0.823830  -0.227994  -0.000001   0.360943   0.000000
   16  S  1 ZZ   -0.301526   0.909648   0.000002   0.173859   0.000000
   17  S  1 XY    0.000001  -0.000003   0.844463   0.000001   0.000000
   18  S  1 XZ    0.000000   0.000000   0.000000   0.000000   0.458505
   19  S  1 YZ    0.000000   0.000000   0.000000   0.000000  -0.000000
   20  O  2  S    0.001996  -0.068164   0.074468   0.005580   0.000000
   21  O  2  S   -0.019927   0.268788  -0.298959  -0.025246   0.000000
   22  O  2  S    0.004723   0.238007  -0.161824  -0.047364   0.000000
   23  O  2  X    0.210983   0.099166  -0.100105  -0.552787   0.000000
   24  O  2  Y   -0.303826  -0.032343  -0.170281   0.077280   0.000000
   25  O  2  Z    0.000000   0.000000   0.000000   0.000000   0.577703
   26  O  2  X   -0.115021  -0.499865   0.585627   0.724363   0.000000
   27  O  2  Y    0.114385  -0.277914   0.542649  -0.174554   0.000000
   28  O  2  Z    0.000000   0.000000   0.000000   0.000000  -0.771263
   29  O  2 XX    0.048091   0.002355   0.027331   0.044532   0.000000
   30  O  2 YY   -0.042320  -0.023215  -0.012368  -0.048899   0.000000
   31  O  2 ZZ   -0.005771   0.020860  -0.014963   0.004367   0.000000
   32  O  2 XY   -0.024794  -0.006774   0.032290   0.007810   0.000000
   33  O  2 XZ    0.000000   0.000000   0.000000   0.000000  -0.038362
   34  O  2 YZ    0.000000   0.000000   0.000000   0.000000  -0.033553
   35  O  3  S    0.001996  -0.068164  -0.074469   0.005579   0.000000
   36  O  3  S   -0.019928   0.268792   0.298958  -0.025243   0.000000
   37  O  3  S    0.004724   0.237998   0.161831  -0.047365   0.000000
   38  O  3  X   -0.210983  -0.099161  -0.100109   0.552782   0.000000
   39  O  3  Y   -0.303826  -0.032343   0.170284   0.077279   0.000000
   40  O  3  Z    0.000000   0.000000   0.000000   0.000000  -0.577704
   41  O  3  X    0.115021   0.499856   0.585635  -0.724356   0.000000
   42  O  3  Y    0.114385  -0.277910  -0.542654  -0.174554   0.000000
   43  O  3  Z    0.000000   0.000000   0.000000   0.000000   0.771265
   44  O  3 XX    0.048091   0.002355  -0.027331   0.044532   0.000000
   45  O  3 YY   -0.042320  -0.023215   0.012368  -0.048899   0.000000
   46  O  3 ZZ   -0.005771   0.020860   0.014963   0.004367   0.000000
   47  O  3 XY    0.024794   0.006774   0.032290  -0.007810   0.000000
   48  O  3 XZ    0.000000   0.000000   0.000000   0.000000  -0.038362
   49  O  3 YZ    0.000000   0.000000   0.000000   0.000000   0.033553

                     31         32         33         34         35
                    0.8290     0.8435     0.8603     0.9241     1.3767
                     A          A          A          A          A   
    1  S  1  S    0.013380   0.000000   0.000000   0.000000  -0.000000
    2  S  1  S   -0.114040   0.000000  -0.000000  -0.000000   0.000001
    3  S  1  S    0.561895   0.000000   0.000002   0.000000  -0.000002
    4  S  1  S   -0.062220   0.000000  -0.000001   0.000005  -0.000016
    5  S  1  X   -0.000000   0.000000  -0.000311  -0.013362   0.065982
    6  S  1  Y   -0.031532   0.000000  -0.000000  -0.000000   0.000001
    7  S  1  Z    0.000000  -0.001391   0.000000   0.000000   0.000000
    8  S  1  X   -0.000000   0.000000  -0.101191   0.207007  -0.435541
    9  S  1  Y    0.262946   0.000000   0.000001   0.000002  -0.000006
   10  S  1  Z    0.000000   0.006573   0.000000   0.000000   0.000000
   11  S  1  X    0.000000   0.000000  -0.114365  -0.549558  -0.726525
   12  S  1  Y   -0.395579   0.000000  -0.000001   0.000001  -0.000005
   13  S  1  Z    0.000000  -0.530074   0.000000   0.000000   0.000000
   14  S  1 XX    0.115754   0.000000   0.000000   0.000002  -0.000002
   15  S  1 YY   -0.374998   0.000000  -0.000001  -0.000001  -0.000001
   16  S  1 ZZ    0.259244   0.000000   0.000001  -0.000001   0.000003
   17  S  1 XY    0.000000   0.000000   0.511392  -0.424376  -0.343199
   18  S  1 XZ    0.000000  -0.000000   0.000000   0.000000   0.000000
   19  S  1 YZ    0.000000  -0.413547   0.000000   0.000000   0.000000
   20  O  2  S    0.004908   0.000000   0.006956  -0.006939   0.079577
   21  O  2  S   -0.017771   0.000000   0.008244  -0.041695  -1.185422
   22  O  2  S    0.059826   0.000000  -0.057076   0.262330   1.679873
   23  O  2  X   -0.155214   0.000000   0.013176  -0.635674   0.071843
   24  O  2  Y   -0.566109   0.000000   0.609209   0.048104   0.079918
   25  O  2  Z    0.000000  -0.587884   0.000000   0.000000   0.000000
   26  O  2  X    0.201625   0.000000   0.147524   0.754122  -0.387642
   27  O  2  Y    0.818521   0.000000  -0.695136  -0.187538  -0.419483
   28  O  2  Z    0.000000   0.867302   0.000000   0.000000   0.000000
   29  O  2 XX   -0.013423   0.000000   0.031152   0.026413  -0.073490
   30  O  2 YY    0.029319   0.000000  -0.027711  -0.001973  -0.018924
   31  O  2 ZZ   -0.015896   0.000000  -0.003441  -0.024440   0.092414
   32  O  2 XY    0.048781   0.000000  -0.000098  -0.006604  -0.121971
   33  O  2 XZ    0.000000   0.040994   0.000000   0.000000   0.000000
   34  O  2 YZ    0.000000   0.025279   0.000000   0.000000   0.000000
   35  O  3  S    0.004907   0.000000  -0.006956   0.006938  -0.079575
   36  O  3  S   -0.017766   0.000000  -0.008240   0.041712   1.185388
   37  O  3  S    0.059821   0.000000   0.057073  -0.262350  -1.679824
   38  O  3  X    0.155215   0.000000   0.013175  -0.635678   0.071841
   39  O  3  Y   -0.566107   0.000000  -0.609210  -0.048106  -0.079917
   40  O  3  Z    0.000000  -0.587883   0.000000   0.000000   0.000000
   41  O  3  X   -0.201625   0.000000   0.147525   0.754123  -0.387629
   42  O  3  Y    0.818518   0.000000   0.695138   0.187542   0.419475
   43  O  3  Z    0.000000   0.867300   0.000000   0.000000   0.000000
   44  O  3 XX   -0.013423   0.000000  -0.031152  -0.026413   0.073488
   45  O  3 YY    0.029319   0.000000   0.027711   0.001973   0.018924
   46  O  3 ZZ   -0.015896   0.000000   0.003441   0.024440  -0.092413
   47  O  3 XY   -0.048781   0.000000  -0.000098  -0.006604  -0.121967
   48  O  3 XZ    0.000000  -0.040994   0.000000   0.000000   0.000000
   49  O  3 YZ    0.000000   0.025279   0.000000   0.000000   0.000000

                     36         37         38         39         40
                    1.5071     2.0872     2.0877     2.0880     2.0946
                     A          A          A          A          A   
    1  S  1  S    0.000477   0.000000  -0.000000   0.000000  -0.000000
    2  S  1  S   -0.000052   0.000000   0.000000   0.000000   0.000000
    3  S  1  S    0.384929   0.000000  -0.000001   0.000000  -0.000000
    4  S  1  S   -1.908849   0.000000   0.000001   0.000000  -0.000004
    5  S  1  X   -0.000001   0.000000  -0.028452   0.000000  -0.002544
    6  S  1  Y    0.065541   0.000000  -0.000000   0.000000   0.000000
    7  S  1  Z    0.000000  -0.000001   0.000000  -0.010996   0.000000
    8  S  1  X    0.000007   0.000000   0.097130   0.000000  -0.009721
    9  S  1  Y   -0.388257   0.000000   0.000000   0.000000  -0.000001
   10  S  1  Z    0.000000   0.000004   0.000000   0.035568   0.000000
   11  S  1  X    0.000001   0.000000   0.071098   0.000000   0.028340
   12  S  1  Y   -0.842675   0.000000   0.000001   0.000000  -0.000003
   13  S  1  Z    0.000000   0.000002   0.000000   0.019355   0.000000
   14  S  1 XX   -0.252809   0.000000  -0.000000   0.000000   0.000002
   15  S  1 YY   -0.113843   0.000000   0.000000   0.000000   0.000003
   16  S  1 ZZ    0.366652   0.000000   0.000000   0.000000  -0.000006
   17  S  1 XY    0.000001   0.000000  -0.083208   0.000000  -0.007847
   18  S  1 XZ    0.000000   0.030863   0.000000  -0.000004   0.000000
   19  S  1 YZ    0.000000   0.000000   0.000000   0.003243   0.000000
   20  O  2  S    0.070975   0.000000  -0.001904   0.000000   0.002117
   21  O  2  S   -1.247325   0.000000   0.035946   0.000000  -0.033319
   22  O  2  S    2.057752   0.000000  -0.067227   0.000000   0.034590
   23  O  2  X    0.056513   0.000000   0.029682   0.000000   0.040281
   24  O  2  Y    0.011325   0.000000  -0.043837   0.000000  -0.013956
   25  O  2  Z    0.000000   0.013518   0.000000   0.016092   0.000000
   26  O  2  X   -0.593261   0.000000  -0.041471   0.000000  -0.070284
   27  O  2  Y   -0.272923   0.000000   0.070979   0.000000   0.018708
   28  O  2  Z    0.000000  -0.020755   0.000000  -0.026861   0.000000
   29  O  2 XX   -0.087867   0.000000   0.494185   0.000000   0.402500
   30  O  2 YY    0.019038   0.000000  -0.684203   0.000000   0.185014
   31  O  2 ZZ    0.068829   0.000000   0.190018   0.000000  -0.587514
   32  O  2 XY   -0.141660   0.000000  -0.074172   0.000000  -0.372528
   33  O  2 XZ    0.000000   0.554410   0.000000  -0.280144   0.000000
   34  O  2 YZ    0.000000  -0.439096   0.000000   0.649708   0.000000
   35  O  3  S    0.070977   0.000000   0.001904   0.000000  -0.002117
   36  O  3  S   -1.247355   0.000000  -0.035944   0.000000   0.033312
   37  O  3  S    2.057789   0.000000   0.067225   0.000000  -0.034580
   38  O  3  X   -0.056520   0.000000   0.029682   0.000000   0.040277
   39  O  3  Y    0.011325   0.000000   0.043837   0.000000   0.013956
   40  O  3  Z    0.000000  -0.013514   0.000000   0.016095   0.000000
   41  O  3  X    0.593279   0.000000  -0.041472   0.000000  -0.070277
   42  O  3  Y   -0.272929   0.000000  -0.070979   0.000000  -0.018708
   43  O  3  Z    0.000000   0.020750   0.000000  -0.026866   0.000000
   44  O  3 XX   -0.087871   0.000000  -0.494184   0.000000  -0.402547
   45  O  3 YY    0.019038   0.000000   0.684206   0.000000  -0.185089
   46  O  3 ZZ    0.068834   0.000000  -0.190021   0.000000   0.587636
   47  O  3 XY    0.141664   0.000000  -0.074171   0.000000  -0.372595
   48  O  3 XZ    0.000000   0.554472   0.000000   0.280023   0.000000
   49  O  3 YZ    0.000000   0.439237   0.000000   0.649612   0.000000

                     41         42         43         44         45
                    2.0957     2.1650     2.1713     2.2738     2.5094
                     A          A          A          A          A   
    1  S  1  S    0.000049   0.000000   0.000000  -0.001088  -0.028202
    2  S  1  S    0.000109   0.000000   0.000000   0.008643   0.216434
    3  S  1  S    0.005523   0.000000   0.000000  -0.063447  -0.457038
    4  S  1  S   -0.055716   0.000000   0.000000   0.145802  -0.756310
    5  S  1  X    0.000000   0.000000   0.000000  -0.000000   0.000000
    6  S  1  Y    0.001024   0.000000   0.000000  -0.036474   0.131738
    7  S  1  Z    0.000000  -0.000001  -0.043521   0.000000   0.000000
    8  S  1  X    0.000001   0.000000   0.000000  -0.000000  -0.000001
    9  S  1  Y   -0.010692   0.000000   0.000000   0.119237  -0.640952
   10  S  1  Z    0.000000   0.000002   0.139788   0.000000   0.000000
   11  S  1  X   -0.000003   0.000000   0.000000   0.000000  -0.000002
   12  S  1  Y   -0.033211   0.000000   0.000000   0.151046  -0.176546
   13  S  1  Z    0.000000   0.000001   0.087816   0.000000   0.000000
   14  S  1 XX    0.024574   0.000000   0.000000  -0.314875  -0.324533
   15  S  1 YY    0.032512   0.000000   0.000000   0.338910  -0.057315
   16  S  1 ZZ   -0.057086   0.000000   0.000000  -0.024035   0.381849
   17  S  1 XY    0.000001   0.000000   0.000000   0.000000  -0.000001
   18  S  1 XZ    0.000000  -0.303690   0.000004   0.000000   0.000000
   19  S  1 YZ    0.000000   0.000003   0.250110   0.000000   0.000000
   20  O  2  S    0.003653   0.000000   0.000000  -0.002485   0.012324
   21  O  2  S   -0.043477   0.000000   0.000000   0.063182  -0.493512
   22  O  2  S    0.060151   0.000000   0.000000  -0.138134   0.945714
   23  O  2  X    0.021137   0.000000   0.000000  -0.020239   0.057528
   24  O  2  Y    0.000886   0.000000   0.000000   0.032006   0.049670
   25  O  2  Z    0.000000  -0.039810   0.050098   0.000000   0.000000
   26  O  2  X   -0.037298   0.000000   0.000000   0.092992  -0.462927
   27  O  2  Y   -0.000702   0.000000   0.000000  -0.090666  -0.333824
   28  O  2  Z    0.000000   0.083820  -0.115820   0.000000   0.000000
   29  O  2 XX   -0.237786   0.000000   0.000000  -0.594748   0.347355
   30  O  2 YY   -0.378644   0.000000   0.000000   0.612139   0.027230
   31  O  2 ZZ    0.616430   0.000000   0.000000  -0.017391  -0.374585
   32  O  2 XY    0.336549   0.000000   0.000000   0.201935   0.626321
   33  O  2 XZ    0.000000  -0.446697   0.658093   0.000000   0.000000
   34  O  2 YZ    0.000000  -0.559624   0.288024   0.000000   0.000000
   35  O  3  S    0.003653   0.000000   0.000000  -0.002485   0.012324
   36  O  3  S   -0.043484   0.000000   0.000000   0.063183  -0.493511
   37  O  3  S    0.060158   0.000000   0.000000  -0.138134   0.945711
   38  O  3  X   -0.021145   0.000000   0.000000   0.020239  -0.057529
   39  O  3  Y    0.000883   0.000000   0.000000   0.032006   0.049670
   40  O  3  Z    0.000000   0.039811   0.050096   0.000000   0.000000
   41  O  3  X    0.037312   0.000000   0.000000  -0.092992   0.462928
   42  O  3  Y   -0.000698   0.000000   0.000000  -0.090666  -0.333821
   43  O  3  Z    0.000000  -0.083823  -0.115817   0.000000   0.000000
   44  O  3 XX   -0.237709   0.000000   0.000000  -0.594747   0.347355
   45  O  3 YY   -0.378604   0.000000   0.000000   0.612139   0.027229
   46  O  3 ZZ    0.616313   0.000000   0.000000  -0.017391  -0.374584
   47  O  3 XY   -0.336476   0.000000   0.000000  -0.201935  -0.626318
   48  O  3 XZ    0.000000  -0.446715  -0.658081   0.000000   0.000000
   49  O  3 YZ    0.000000   0.559630   0.288010   0.000000   0.000000

                     46
                    2.6562
                     A   
    1  S  1  S   -0.000000
    2  S  1  S    0.000000
    3  S  1  S    0.000001
    4  S  1  S   -0.000006
    5  S  1  X   -0.179783
    6  S  1  Y    0.000000
    7  S  1  Z    0.000000
    8  S  1  X    0.870152
    9  S  1  Y   -0.000001
   10  S  1  Z    0.000000
   11  S  1  X    0.159084
   12  S  1  Y   -0.000003
   13  S  1  Z    0.000000
   14  S  1 XX   -0.000001
   15  S  1 YY   -0.000000
   16  S  1 ZZ    0.000001
   17  S  1 XY    0.648549
   18  S  1 XZ    0.000000
   19  S  1 YZ    0.000000
   20  O  2  S   -0.005211
   21  O  2  S    0.442952
   22  O  2  S   -0.863234
   23  O  2  X   -0.037134
   24  O  2  Y   -0.018303
   25  O  2  Z    0.000000
   26  O  2  X    0.465822
   27  O  2  Y    0.361114
   28  O  2  Z    0.000000
   29  O  2 XX   -0.345420
   30  O  2 YY   -0.034655
   31  O  2 ZZ    0.380075
   32  O  2 XY   -0.665738
   33  O  2 XZ    0.000000
   34  O  2 YZ    0.000000
   35  O  3  S    0.005212
   36  O  3  S   -0.442956
   37  O  3  S    0.863243
   38  O  3  X   -0.037134
   39  O  3  Y    0.018303
   40  O  3  Z    0.000000
   41  O  3  X    0.465826
   42  O  3  Y   -0.361115
   43  O  3  Z    0.000000
   44  O  3 XX    0.345422
   45  O  3 YY    0.034654
   46  O  3 ZZ   -0.380076
   47  O  3 XY   -0.665739
   48  O  3 XZ    0.000000
   49  O  3 YZ    0.000000
 ...... END OF RHF CALCULATION ......
 STEP CPU TIME =     2.54 TOTAL CPU TIME =          2.7 (      0.0 MIN)
 TOTAL WALL CLOCK TIME=          2.7 SECONDS, CPU UTILIZATION IS    98.54%

     ---------------------------------------------------------------------
     PROPERTIES FOR THE PBE      DFT FUNCTIONAL (RHF  TYPE) DENSITY MATRIX
     ---------------------------------------------------------------------

          -----------------
          ENERGY COMPONENTS
          -----------------

         WAVEFUNCTION NORMALIZATION =       1.0000000000

                ONE ELECTRON ENERGY =    -944.5727916175
                TWO ELECTRON ENERGY =     301.3253539749
           NUCLEAR REPULSION ENERGY =      95.0386679992
                                      ------------------
                       TOTAL ENERGY =    -548.2087696434

 ELECTRON-ELECTRON POTENTIAL ENERGY =     301.3253539749
  NUCLEUS-ELECTRON POTENTIAL ENERGY =   -1491.4459511514
   NUCLEUS-NUCLEUS POTENTIAL ENERGY =      95.0386679992
                                      ------------------
             TOTAL POTENTIAL ENERGY =   -1095.0819291773
               TOTAL KINETIC ENERGY =     546.8731595339
                 VIRIAL RATIO (V/T) =       2.0024422667

          ---------------------------------------
          MULLIKEN AND LOWDIN POPULATION ANALYSES
          ---------------------------------------

     ATOMIC MULLIKEN POPULATION IN EACH MOLECULAR ORBITAL

                      1          2          3          4          5

                  2.000000   2.000000   2.000000   2.000000   2.000000

    1             1.999975   0.001208   0.000572   2.000507   2.000287
    2             0.000013   0.993608   1.005502  -0.000254  -0.000143
    3             0.000013   1.005184   0.993926  -0.000254  -0.000143

                      6          7          8          9         10

                  2.000000   2.000000   2.000000   2.000000   2.000000

    1             2.000010   2.000182   0.623575   0.249833   1.211413
    2            -0.000005  -0.000091   0.688208   0.875090   0.394292
    3            -0.000005  -0.000091   0.688217   0.875077   0.394295

                     11         12         13         14         15

                  2.000000   2.000000   2.000000   2.000000   2.000000

    1             0.611468   0.991713   1.160090   0.049157   0.247862
    2             0.694266   0.504143   0.419954   0.975422   0.876059
    3             0.694266   0.504144   0.419956   0.975421   0.876079

                     16

                  2.000000

    1             0.118390
    2             0.940818
    3             0.940792

               ----- POPULATIONS IN EACH AO -----
                             MULLIKEN      LOWDIN
              1  S  1  S      1.99983     1.99926
              2  S  1  S      1.99242     1.88740
              3  S  1  S      1.35273     0.69142
              4  S  1  S      0.52492     0.46426
              5  S  1  X      1.99356     1.95741
              6  S  1  Y      1.99461     1.96460
              7  S  1  Z      1.99399     1.96183
              8  S  1  X      0.81376     0.69936
              9  S  1  Y      0.99586     0.90703
             10  S  1  Z      0.90817     0.81888
             11  S  1  X      0.08367     0.21876
             12  S  1  Y      0.11405     0.27430
             13  S  1  Z      0.24845     0.35460
             14  S  1 XX      0.02257     0.29436
             15  S  1 YY      0.07944     0.29246
             16  S  1 ZZ      0.08956     0.28405
             17  S  1 XY      0.04916     0.10588
             18  S  1 XZ      0.00949     0.05745
             19  S  1 YZ      0.00000     0.00922
             20  O  2  S      1.99567     1.97293
             21  O  2  S      0.96351     0.70770
             22  O  2  S      0.97696     0.55201
             23  O  2  X      0.92034     0.88160
             24  O  2  Y      0.98222     0.95014
             25  O  2  Z      0.83341     0.80176
             26  O  2  X      0.52333     0.61288
             27  O  2  Y      0.59985     0.67155
             28  O  2  Z      0.55819     0.59213
             29  O  2 XX      0.00162     0.20779
             30  O  2 YY      0.00327     0.20504
             31  O  2 ZZ      0.00474     0.20914
             32  O  2 XY      0.00230     0.00894
             33  O  2 XZ      0.00148     0.00319
             34  O  2 YZ      0.00000     0.00194
             35  O  3  S      1.99567     1.97293
             36  O  3  S      0.96351     0.70770
             37  O  3  S      0.97695     0.55201
             38  O  3  X      0.92034     0.88160
             39  O  3  Y      0.98222     0.95014
             40  O  3  Z      0.83341     0.80176
             41  O  3  X      0.52333     0.61288
             42  O  3  Y      0.59985     0.67155
             43  O  3  Z      0.55819     0.59213
             44  O  3 XX      0.00162     0.20779
             45  O  3 YY      0.00327     0.20504
             46  O  3 ZZ      0.00474     0.20914
             47  O  3 XY      0.00230     0.00894
             48  O  3 XZ      0.00148     0.00319
             49  O  3 YZ      0.00000     0.00194

          ----- MULLIKEN ATOMIC OVERLAP POPULATIONS -----
          (OFF-DIAGONAL ELEMENTS NEED TO BE MULTIPLIED BY 2)

             1           2           3

    1   14.6654147
    2    0.3004100   8.1119278
    3    0.3004156  -0.0454565   8.1119192

          TOTAL MULLIKEN AND LOWDIN ATOMIC POPULATIONS
       ATOM         MULL.POP.    CHARGE          LOW.POP.     CHARGE
    1 S            15.266240    0.733760        15.242543    0.757457
    2 O             8.366881   -0.366881         8.378729   -0.378729
    3 O             8.366878   -0.366878         8.378728   -0.378728

          MULLIKEN SPHERICAL HARMONIC POPULATIONS
       ATOM           S       P       D      F      G      H      I    TOTAL
    1 S             5.87    9.15    0.25   0.00   0.00   0.00   0.00   15.27
    2 O             3.94    4.42    0.01   0.00   0.00   0.00   0.00    8.37
    3 O             3.94    4.42    0.01   0.00   0.00   0.00   0.00    8.37

          -------------------------------
          BOND ORDER AND VALENCE ANALYSIS     BOND ORDER THRESHOLD=0.050
          -------------------------------

                   BOND                       BOND                       BOND
  ATOM PAIR DIST  ORDER      ATOM PAIR DIST  ORDER      ATOM PAIR DIST  ORDER
    1   2  1.650  1.694        1   3  1.650  1.694        2   3  2.618  0.409

                       TOTAL       BONDED        FREE
      ATOM            VALENCE     VALENCE     VALENCE
    1 S                 3.388       3.388      -0.000
    2 O                 2.103       2.103       0.000
    3 O                 2.103       2.103      -0.000

          ---------------------
          ELECTROSTATIC MOMENTS
          ---------------------

 POINT   1           X           Y           Z (BOHR)    CHARGE
                 0.000000   -0.000000    0.000000       -0.00 (A.U.)
         DX          DY          DZ         /D/  (DEBYE)
    -0.000003   -2.646143    0.000000    2.646143
 ...... END OF PROPERTY EVALUATION ......
 STEP CPU TIME =     0.00 TOTAL CPU TIME =          2.7 (      0.0 MIN)
 TOTAL WALL CLOCK TIME=          2.7 SECONDS, CPU UTILIZATION IS    98.54%
                580000  WORDS OF DYNAMIC MEMORY USED
 EXECUTION OF GAMESS TERMINATED NORMALLY Sun Sep 29 10:52:34 2019
 DDI: 263640 bytes (0.3 MB / 0 MWords) used by master data server.

 ----------------------------------------
 CPU timing information for all processes
 ========================================
 0: 2.638 + 0.73 = 2.712
 ----------------------------------------
 ddikick.x: exited gracefully.
----- accounting info -----
Files used on the master node crcfe02.crc.nd.edu were:
-rw-r--r-- 1 cdrisko campus     208 Sep 29 10:52 /afs/crc.nd.edu/user/c/cdrisko/SO2.F05
-rw-r--r-- 1 cdrisko campus   37566 Sep 29 10:52 /afs/crc.nd.edu/user/c/cdrisko/SO2.F07
-rw-r--r-- 1 cdrisko campus 4140368 Sep 29 10:52 /afs/crc.nd.edu/user/c/cdrisko/SO2.F08
-rw-r--r-- 1 cdrisko campus 1766880 Sep 29 10:52 /afs/crc.nd.edu/user/c/cdrisko/SO2.F10
Sun Sep 29 10:52:37 EDT 2019
0.464u 0.233s 0:06.42 10.7%	0+0k 0+24io 0pf+0w
