   4   4   0   0
  0.1710448E+02  0.4090000E-09  0.4090000E-09  0.4090000E-09  0.5000000E-15
  1.000000000000000E-004
  CAR 
 unknown system                          
     39.75288642     -1.22010576  301      8.47521231      1.00000000
     -1.220  0.0000E+00  0.0000E+00
     -1.084  0.0000E+00  0.0000E+00
     -0.947  0.0000E+00  0.0000E+00
     -0.810  0.0000E+00  0.0000E+00
     -0.674  0.0000E+00  0.0000E+00
     -0.537  0.0000E+00  0.0000E+00
     -0.401  0.0000E+00  0.0000E+00
     -0.264 -0.5908E-37 -0.8069E-38
     -0.127 -0.4391E-27 -0.5998E-28
      0.009 -0.7581E-19 -0.1035E-19
      0.146 -0.2874E-12 -0.3926E-13
      0.282 -0.2439E-07 -0.3331E-08
      0.419 -0.4183E-04 -0.5716E-05
      0.555 -0.1256E-02 -0.1773E-03
      0.692  0.1950E-01  0.2485E-02
      0.829  0.1447E+00  0.2225E-01
      0.965  0.1469E+00  0.4231E-01
      1.102  0.3183E+00  0.8579E-01
      1.238  0.2711E+00  0.1228E+00
      1.375  0.2950E+00  0.1631E+00
      1.511  0.5166E+00  0.2337E+00
      1.648  0.3856E+00  0.2863E+00
      1.785  0.6568E+00  0.3760E+00
      1.921  0.3879E+00  0.4290E+00
      2.058  0.1802E+01  0.6751E+00
      2.194  0.5507E+01  0.1427E+01
      2.331  0.8227E+01  0.2551E+01
      2.467  0.1205E+02  0.4196E+01
      2.604  0.1513E+02  0.6262E+01
      2.741  0.1159E+02  0.7845E+01
      2.877  0.1113E+02  0.9365E+01
      3.014  0.7609E+01  0.1040E+02
      3.150  0.9560E+01  0.1171E+02
      3.287  0.1081E+02  0.1319E+02
      3.424  0.9840E+01  0.1453E+02
      3.560  0.1110E+02  0.1605E+02
      3.697  0.1142E+02  0.1761E+02
      3.833  0.1636E+02  0.1984E+02
      3.970  0.1723E+02  0.2219E+02
      4.106  0.1075E+02  0.2366E+02
      4.243  0.1026E+02  0.2506E+02
      4.380  0.1067E+02  0.2652E+02
      4.516  0.1224E+02  0.2819E+02
      4.653  0.1318E+02  0.2999E+02
      4.789  0.1187E+02  0.3161E+02
      4.926  0.1069E+02  0.3308E+02
      5.062  0.1048E+02  0.3451E+02
      5.199  0.1012E+02  0.3589E+02
      5.336  0.1498E+02  0.3793E+02
      5.472  0.1697E+02  0.4025E+02
      5.609  0.6993E+01  0.4121E+02
      5.745  0.1915E+01  0.4147E+02
      5.882  0.1639E+01  0.4169E+02
      6.018  0.3254E+00  0.4174E+02
      6.155  0.3614E+00  0.4179E+02
      6.292  0.8458E+00  0.4190E+02
      6.428  0.1695E+01  0.4213E+02
      6.565  0.1000E+01  0.4227E+02
      6.701  0.4696E+00  0.4234E+02
      6.838  0.6822E+00  0.4243E+02
      6.974  0.3227E+00  0.4247E+02
      7.111  0.1410E+01  0.4266E+02
      7.248  0.1490E+01  0.4287E+02
      7.384  0.9742E+00  0.4300E+02
      7.521  0.7206E+00  0.4310E+02
      7.657  0.6886E+00  0.4319E+02
      7.794  0.2844E+00  0.4323E+02
      7.931  0.1505E+01  0.4344E+02
      8.067  0.1788E+01  0.4368E+02
      8.204  0.1142E+01  0.4384E+02
      8.340  0.6781E+00  0.4393E+02
      8.477  0.5203E+00  0.4400E+02
      8.613  0.1227E+01  0.4417E+02
      8.750  0.7482E+00  0.4427E+02
      8.887  0.1554E+01  0.4448E+02
      9.023  0.1571E+01  0.4470E+02
      9.160  0.1067E+01  0.4484E+02
      9.296  0.9763E+00  0.4498E+02
      9.433  0.5556E+00  0.4505E+02
      9.569  0.4477E+00  0.4511E+02
      9.706  0.9839E+00  0.4525E+02
      9.843  0.1937E+01  0.4551E+02
      9.979  0.1371E+01  0.4570E+02
     10.116  0.4839E+00  0.4577E+02
     10.252  0.1530E+01  0.4598E+02
     10.389  0.1020E+01  0.4612E+02
     10.525  0.5308E+00  0.4619E+02
     10.662  0.5146E+00  0.4626E+02
     10.799  0.8714E+00  0.4638E+02
     10.935  0.1097E+01  0.4653E+02
     11.072  0.1829E+01  0.4678E+02
     11.208  0.9051E+00  0.4690E+02
     11.345  0.2953E+00  0.4694E+02
     11.482  0.4524E+00  0.4700E+02
     11.618  0.1083E+01  0.4715E+02
     11.755  0.5362E+00  0.4722E+02
     11.891  0.3367E+00  0.4727E+02
     12.028  0.1334E+01  0.4745E+02
     12.164  0.1243E+01  0.4762E+02
     12.301  0.1314E+01  0.4780E+02
     12.438  0.1825E+01  0.4805E+02
     12.574  0.8320E+00  0.4816E+02
     12.711  0.1433E+01  0.4836E+02
     12.847  0.1373E+01  0.4855E+02
     12.984  0.1195E+01  0.4871E+02
     13.120  0.1391E+01  0.4890E+02
     13.257  0.1006E+01  0.4904E+02
     13.394  0.1961E+01  0.4931E+02
     13.530  0.7964E+00  0.4941E+02
     13.667  0.7057E+00  0.4951E+02
     13.803  0.1545E+01  0.4972E+02
     13.940  0.1603E+01  0.4994E+02
     14.076  0.7045E+00  0.5004E+02
     14.213  0.7976E+00  0.5015E+02
     14.350  0.1309E+01  0.5032E+02
     14.486  0.1289E+01  0.5050E+02
     14.623  0.5295E+00  0.5057E+02
     14.759  0.1834E+01  0.5082E+02
     14.896  0.1168E+01  0.5098E+02
     15.033  0.7600E+00  0.5109E+02
     15.169  0.1471E+01  0.5129E+02
     15.306  0.1245E+01  0.5146E+02
     15.442  0.1686E+01  0.5169E+02
     15.579  0.1128E+01  0.5184E+02
     15.715  0.2085E+01  0.5213E+02
     15.852  0.1861E+01  0.5238E+02
     15.989  0.2093E+01  0.5267E+02
     16.125  0.1692E+01  0.5290E+02
     16.262  0.1091E+01  0.5305E+02
     16.398  0.1878E+01  0.5330E+02
     16.535  0.1570E+01  0.5352E+02
     16.671  0.2234E+01  0.5382E+02
     16.808  0.1619E+01  0.5404E+02
     16.945  0.1169E+01  0.5420E+02
     17.081  0.2027E+01  0.5448E+02
     17.218  0.1978E+01  0.5475E+02
     17.354  0.1453E+01  0.5495E+02
     17.491  0.1735E+01  0.5519E+02
     17.627  0.1178E+01  0.5535E+02
     17.764  0.2249E+01  0.5565E+02
     17.901  0.2354E+01  0.5598E+02
     18.037  0.2134E+01  0.5627E+02
     18.174  0.2105E+01  0.5655E+02
     18.310  0.1962E+01  0.5682E+02
     18.447  0.1311E+01  0.5700E+02
     18.584  0.1056E+01  0.5715E+02
     18.720  0.2215E+01  0.5745E+02
     18.857  0.3028E+01  0.5786E+02
     18.993  0.2635E+01  0.5822E+02
     19.130  0.9786E+00  0.5836E+02
     19.266  0.1397E+01  0.5855E+02
     19.403  0.3196E+01  0.5898E+02
     19.540  0.2308E+01  0.5930E+02
     19.676  0.2143E+01  0.5959E+02
     19.813  0.1794E+01  0.5984E+02
     19.949  0.2672E+01  0.6020E+02
     20.086  0.2229E+01  0.6050E+02
     20.222  0.1583E+01  0.6072E+02
     20.359  0.3125E+01  0.6115E+02
     20.496  0.2277E+01  0.6146E+02
     20.632  0.1379E+01  0.6165E+02
     20.769  0.2346E+01  0.6197E+02
     20.905  0.1419E+01  0.6216E+02
     21.042  0.1068E+01  0.6231E+02
     21.178  0.1620E+01  0.6253E+02
     21.315  0.3260E+01  0.6297E+02
     21.452  0.2018E+01  0.6325E+02
     21.588  0.2115E+01  0.6354E+02
     21.725  0.1441E+01  0.6374E+02
     21.861  0.2581E+01  0.6409E+02
     21.998  0.1871E+01  0.6434E+02
     22.134  0.2551E+01  0.6469E+02
     22.271  0.2299E+01  0.6501E+02
     22.408  0.1260E+01  0.6518E+02
     22.544  0.1039E+01  0.6532E+02
     22.681  0.2309E+01  0.6563E+02
     22.817  0.1694E+01  0.6587E+02
     22.954  0.1210E+01  0.6603E+02
     23.091  0.1393E+01  0.6622E+02
     23.227  0.2125E+01  0.6651E+02
     23.364  0.2442E+01  0.6685E+02
     23.500  0.2342E+01  0.6717E+02
     23.637  0.2502E+01  0.6751E+02
     23.773  0.2048E+01  0.6779E+02
     23.910  0.1674E+01  0.6802E+02
     24.047  0.1876E+01  0.6827E+02
     24.183  0.1797E+01  0.6852E+02
     24.320  0.1437E+01  0.6871E+02
     24.456  0.1536E+01  0.6892E+02
     24.593  0.2255E+01  0.6923E+02
     24.729  0.1182E+01  0.6939E+02
     24.866  0.1419E+01  0.6959E+02
     25.003  0.1858E+01  0.6984E+02
     25.139  0.3263E+01  0.7029E+02
     25.276  0.3290E+01  0.7073E+02
     25.412  0.2513E+01  0.7108E+02
     25.549  0.3785E+01  0.7160E+02
     25.685  0.5425E+01  0.7234E+02
     25.822  0.5892E+01  0.7314E+02
     25.959  0.2312E+01  0.7346E+02
     26.095  0.3524E+01  0.7394E+02
     26.232  0.2749E+01  0.7431E+02
     26.368  0.1835E+01  0.7456E+02
     26.505  0.9619E+00  0.7470E+02
     26.642  0.2663E+01  0.7506E+02
     26.778  0.4457E+01  0.7567E+02
     26.915  0.4382E+01  0.7627E+02
     27.051  0.3580E+01  0.7676E+02
     27.188  0.3573E+01  0.7724E+02
     27.324  0.2261E+01  0.7755E+02
     27.461  0.1845E+01  0.7780E+02
     27.598  0.5219E+00  0.7788E+02
     27.734  0.1868E+01  0.7813E+02
     27.871  0.2863E+01  0.7852E+02
     28.007  0.2282E+01  0.7883E+02
     28.144  0.2734E+01  0.7921E+02
     28.280  0.1722E+01  0.7944E+02
     28.417  0.2127E+01  0.7973E+02
     28.554  0.1320E+01  0.7991E+02
     28.690  0.1138E+01  0.8007E+02
     28.827  0.1281E+01  0.8024E+02
     28.963  0.2517E+01  0.8059E+02
     29.100  0.1553E+01  0.8080E+02
     29.236  0.9508E+00  0.8093E+02
     29.373  0.2280E+01  0.8124E+02
     29.510  0.1219E+01  0.8141E+02
     29.646  0.5263E+00  0.8148E+02
     29.783  0.1926E+00  0.8150E+02
     29.919  0.1019E+01  0.8164E+02
     30.056  0.2650E+01  0.8201E+02
     30.193  0.1678E+01  0.8224E+02
     30.329  0.1484E+01  0.8244E+02
     30.466  0.2421E+01  0.8277E+02
     30.602  0.2446E+01  0.8310E+02
     30.739  0.1645E+01  0.8333E+02
     30.875  0.2432E+01  0.8366E+02
     31.012  0.2569E+01  0.8401E+02
     31.149  0.1862E+01  0.8426E+02
     31.285  0.2353E+01  0.8459E+02
     31.422  0.2225E+01  0.8489E+02
     31.558  0.4243E+01  0.8547E+02
     31.695  0.5039E+01  0.8616E+02
     31.831  0.2136E+01  0.8645E+02
     31.968  0.3492E+01  0.8693E+02
     32.105  0.4033E+01  0.8748E+02
     32.241  0.2596E+01  0.8783E+02
     32.378  0.2016E+01  0.8811E+02
     32.514  0.2915E+01  0.8850E+02
     32.651  0.2180E+01  0.8880E+02
     32.787  0.9425E+00  0.8893E+02
     32.924  0.1596E+01  0.8915E+02
     33.061  0.2528E+01  0.8949E+02
     33.197  0.3067E+01  0.8991E+02
     33.334  0.2483E+01  0.9025E+02
     33.470  0.2611E+01  0.9061E+02
     33.607  0.1884E+01  0.9087E+02
     33.744  0.4121E+01  0.9143E+02
     33.880  0.5182E+01  0.9214E+02
     34.017  0.4587E+01  0.9276E+02
     34.153  0.3992E+01  0.9331E+02
     34.290  0.2038E+01  0.9359E+02
     34.426  0.2835E+01  0.9397E+02
     34.563  0.4036E+01  0.9453E+02
     34.700  0.1506E+01  0.9473E+02
     34.836  0.1481E+01  0.9493E+02
     34.973  0.2833E+01  0.9532E+02
     35.109  0.1591E+01  0.9554E+02
     35.246  0.1026E+01  0.9568E+02
     35.382  0.3910E+00  0.9573E+02
     35.519  0.9242E-02  0.9573E+02
     35.656  0.3228E+00  0.9578E+02
     35.792  0.2351E+00  0.9581E+02
     35.929  0.2013E+00  0.9584E+02
     36.065  0.6625E-01  0.9585E+02
     36.202  0.1211E+00  0.9586E+02
     36.338  0.1052E+00  0.9588E+02
     36.475  0.3783E+00  0.9593E+02
     36.612  0.2297E+00  0.9596E+02
     36.748  0.5772E-01  0.9597E+02
     36.885  0.1144E+00  0.9598E+02
     37.021  0.3062E-01  0.9599E+02
     37.158 -0.2571E-02  0.9599E+02
     37.295  0.3833E-03  0.9599E+02
     37.431  0.7780E-01  0.9600E+02
     37.568  0.1113E-01  0.9600E+02
     37.704 -0.1111E-02  0.9600E+02
     37.841  0.1581E-02  0.9600E+02
     37.977  0.9615E-02  0.9600E+02
     38.114 -0.2416E-04  0.9600E+02
     38.251 -0.3830E-04  0.9600E+02
     38.387 -0.2422E-07  0.9600E+02
     38.524 -0.2873E-12  0.9600E+02
     38.660  0.0000E+00  0.9600E+02
     38.797  0.0000E+00  0.9600E+02
     38.933  0.0000E+00  0.9600E+02
     39.070  0.0000E+00  0.9600E+02
     39.207  0.0000E+00  0.9600E+02
     39.343  0.0000E+00  0.9600E+02
     39.480  0.0000E+00  0.9600E+02
     39.616  0.0000E+00  0.9600E+02
     39.753  0.0000E+00  0.9600E+02
