       N       E                     dE             d eps       ncg     rms          rms(c)
DAV:   1     0.195036274312E+03    0.19504E+03   -0.18658E+04  5376   0.733E+02
DAV:   2    -0.881443230251E+01   -0.20385E+03   -0.19170E+03  7080   0.185E+02
DAV:   3    -0.118503409201E+02   -0.30359E+01   -0.30338E+01  6360   0.244E+01
DAV:   4    -0.118594885582E+02   -0.91476E-02   -0.91474E-02  7632   0.142E+00
DAV:   5    -0.118595709665E+02   -0.82408E-04   -0.82408E-04  6000   0.134E-01    0.104E+01
DAV:   6    -0.108868839070E+02    0.97269E+00   -0.24360E+00  6696   0.870E+00    0.670E+00
DAV:   7    -0.108536276198E+02    0.33256E-01   -0.30781E-02  6600   0.963E-01    0.373E+00
DAV:   8    -0.108422159212E+02    0.11412E-01   -0.25202E-03  6792   0.195E-01    0.175E-01
DAV:   9    -0.108422409381E+02   -0.25017E-04   -0.28004E-05  5400   0.201E-02
   1 F= -.10842241E+02 E0= -.10841928E+02  d E =-.938698E-03
