 vasp.5.4.1 05Feb16 (build Feb 08 2018 09:21:51) complex                        
  
 executed on             LinuxIFC date 2019.11.21  13:19:09
 running on   24 total cores
 distrk:  each k-point on   24 cores,    1 groups
 distr:  one band on NCORES_PER_BAND=   1 cores,   24 groups


--------------------------------------------------------------------------------------------------------


 INCAR:
 POTCAR:    PAW_PBE Ag 02Apr2005                  

 ----------------------------------------------------------------------------- 
|                                                                             |
|           W    W    AA    RRRRR   N    N  II  N    N   GGGG   !!!           |
|           W    W   A  A   R    R  NN   N  II  NN   N  G    G  !!!           |
|           W    W  A    A  R    R  N N  N  II  N N  N  G       !!!           |
|           W WW W  AAAAAA  RRRRR   N  N N  II  N  N N  G  GGG   !            |
|           WW  WW  A    A  R   R   N   NN  II  N   NN  G    G                |
|           W    W  A    A  R    R  N    N  II  N    N   GGGG   !!!           |
|                                                                             |
|      For optimal performance we recommend to set                            |
|        NCORE= 4 - approx SQRT( number of cores)                             |
|      NCORE specifies how many cores store one orbital (NPAR=cpu/NCORE).     |
|      This setting can  greatly improve the performance of VASP for DFT.     |
|      The default, NPAR=number of cores might be grossly inefficient         |
|      on modern multi-core architectures or massively parallel machines.     |
|      Do your own testing !!!!                                               |
|      Unfortunately you need to use the default for GW and RPA calculations. |
|      (for HF NCORE is supported but not extensively tested yet)             |
|                                                                             |
 ----------------------------------------------------------------------------- 

 POTCAR:    PAW_PBE Ag 02Apr2005                  
   VRHFIN =Ag : s1 d10                                                          
   LEXCH  = PE                                                                  
   EATOM  =  1037.2675 eV,   76.2370 Ry                                         
                                                                                
   TITEL  = PAW_PBE Ag 02Apr2005                                                
   LULTRA =        F    use ultrasoft PP ?                                      
   IUNSCR =        1    unscreen: 0-lin 1-nonlin 2-no                           
   RPACOR =    2.000    partial core radius                                     
   POMASS =  107.868; ZVAL   =   11.000    mass and valenz                      
   RCORE  =    2.500    outmost cutoff radius                                   
   RWIGS  =    2.840; RWIGS  =    1.503    wigner-seitz radius (au A)           
   ENMAX  =  249.844; ENMIN  =  187.383 eV                                      
   ICORE  =        3    local potential                                         
   LCOR   =        T    correct aug charges                                     
   LPAW   =        T    paw PP                                                  
   EAUG   =  412.496                                                            
   DEXC   =    0.000                                                            
   RMAX   =    2.560    core radius for proj-oper                               
   RAUG   =    1.300    factor for augmentation sphere                          
   RDEP   =    2.576    radius for radial grids                                 
   RDEPT  =    2.072    core radius for aug-charge                              
                                                                                
   Atomic configuration                                                         
   12 entries                                                                   
     n  l   j            E        occ.                                          
     1  0  0.50    -25324.9161   2.0000                                         
     2  0  0.50     -3728.5341   2.0000                                         
     2  1  1.50     -3344.0404   6.0000                                         
     3  0  0.50      -683.5581   2.0000                                         
     3  1  1.50      -557.3225   6.0000                                         
     3  2  2.50      -358.3853  10.0000                                         
     4  0  0.50       -95.0341   2.0000                                         
     4  1  1.50       -58.5511   6.0000                                         
     4  2  2.50        -7.4440  10.0000                                         
     5  0  0.50        -4.4045   1.0000                                         
     5  1  0.50        -1.3606   0.0000                                         
     4  3  2.50        -1.3606   0.0000                                         
   Description                                                                  
     l       E           TYP  RCUT    TYP  RCUT                                 
     2     -7.4439781     23  2.400                                             
     2     -8.8045607     23  2.400                                             
     0     -4.4044681     23  2.400                                             
     0      1.9520038     23  2.400                                             
     1     -1.3605826     23  2.500                                             
     1     27.2116520     23  2.500                                             
     3     -4.0817478     23  2.400                                             
  local pseudopotential read in
  partial core-charges read in
  partial kinetic energy density read in
  atomic valenz-charges read in
  non local Contribution for L=           2  read in
    real space projection operators read in
  non local Contribution for L=           2  read in
    real space projection operators read in
  non local Contribution for L=           0  read in
    real space projection operators read in
  non local Contribution for L=           0  read in
    real space projection operators read in
  non local Contribution for L=           1  read in
    real space projection operators read in
  non local Contribution for L=           1  read in
    real space projection operators read in
    PAW grid and wavefunctions read in
 
   number of l-projection  operators is LMAX  =           6
   number of lm-projection operators is LMMAX =          18
 
  PAW_PBE Ag 02Apr2005                  :
 energy of atom  1       EATOM=-1037.2675
 kinetic energy error for atom=    0.0091 (will be added to EATOM!!)
 
 
 POSCAR: Ag                                      
  positions in cartesian coordinates
  No initial velocities read in
 exchange correlation table for  LEXCH =        8
   RHO(1)=    0.500       N(1)  =     2000
   RHO(2)=  100.500       N(2)  =     4000
 


--------------------------------------------------------------------------------------------------------


 ion  position               nearest neighbor table
   1  0.000  0.000  0.000-   2 2.89   3 2.89   4 2.89   2 2.89   3 2.89   2 2.89   4 2.89   2 2.89
                             3 2.89   4 2.89   3 2.89   4 2.89
   2  0.000  0.500  0.500-   1 2.89   3 2.89   4 2.89   1 2.89   4 2.89   1 2.89   3 2.89   1 2.89
                             3 2.89   4 2.89   4 2.89   3 2.89
   3  0.500  0.000  0.500-   1 2.89   2 2.89   4 2.89   1 2.89   4 2.89   2 2.89   4 2.89   4 2.89
                             1 2.89   2 2.89   1 2.89   2 2.89
   4  0.500  0.500  0.000-   1 2.89   2 2.89   3 2.89   2 2.89   3 2.89   1 2.89   3 2.89   3 2.89
                             1 2.89   2 2.89   2 2.89   1 2.89
 
  LATTYP: Found a simple cubic cell.
 ALAT       =     4.0900000000
  
  Lattice vectors:
  
 A1 = (   4.0900000000,   0.0000000000,   0.0000000000)
 A2 = (   0.0000000000,   4.0900000000,   0.0000000000)
 A3 = (   0.0000000000,   0.0000000000,   4.0900000000)


Analysis of symmetry for initial positions (statically):
=====================================================================
 Subroutine PRICEL returns following result:
 
  LATTYP: Found a face centered cubic cell.
 ALAT       =     4.0900000000
  
  Lattice vectors:
  
 A1 = (   2.0450000000,   2.0450000000,   0.0000000000)
 A2 = (   2.0450000000,   0.0000000000,  -2.0450000000)
 A3 = (   0.0000000000,   2.0450000000,  -2.0450000000)
 
   4 primitive cells build up your supercell.
 

 Routine SETGRP: Setting up the symmetry group for a 
 simple cubic supercell.


 Subroutine GETGRP returns: Found 48 space group operations
 (whereof 48 operations were pure point group operations)
 out of a pool of 48 trial point group operations.


The static configuration has the point symmetry O_h .


Analysis of symmetry for dynamics (positions and initial velocities):
=====================================================================
 Subroutine PRICEL returns following result:
 
  LATTYP: Found a face centered cubic cell.
 ALAT       =     4.0900000000
  
  Lattice vectors:
  
 A1 = (   2.0450000000,   2.0450000000,   0.0000000000)
 A2 = (   2.0450000000,   0.0000000000,  -2.0450000000)
 A3 = (   0.0000000000,   2.0450000000,  -2.0450000000)
 
   4 primitive cells build up your supercell.
 

 Routine SETGRP: Setting up the symmetry group for a 
 simple cubic supercell.


 Subroutine GETGRP returns: Found 48 space group operations
 (whereof 48 operations were pure point group operations)
 out of a pool of 48 trial point group operations.


The dynamic configuration has the point symmetry O_h .


 Subroutine INISYM returns: Found 48 space group operations
 (whereof 48 operations are pure point group operations),
 and found     4 'primitive' translations

 
 
 KPOINTS: KPOINTS created by Atomic Simulation Env

Automatic generation of k-mesh.
Space group operators:
 irot       det(A)        alpha          n_x          n_y          n_z        tau_x        tau_y        tau_z
    1     1.000000     0.000000     1.000000     0.000000     0.000000     0.000000     0.000000     0.000000
    2    -1.000000     0.000000     1.000000     0.000000     0.000000     0.000000     0.000000     0.000000
    3     1.000000   120.000000    -0.577350    -0.577350    -0.577350     0.000000     0.000000     0.000000
    4    -1.000000   120.000000    -0.577350    -0.577350    -0.577350     0.000000     0.000000     0.000000
    5     1.000000   120.000000     0.577350     0.577350     0.577350     0.000000     0.000000     0.000000
    6    -1.000000   120.000000     0.577350     0.577350     0.577350     0.000000     0.000000     0.000000
    7     1.000000    90.000000     0.000000     0.000000    -1.000000     0.000000     0.000000     0.000000
    8    -1.000000    90.000000     0.000000     0.000000    -1.000000     0.000000     0.000000     0.000000
    9     1.000000   180.000000     0.000000     0.707107     0.707107     0.000000     0.000000     0.000000
   10    -1.000000   180.000000     0.000000     0.707107     0.707107     0.000000     0.000000     0.000000
   11     1.000000    90.000000     0.000000     1.000000     0.000000     0.000000     0.000000     0.000000
   12    -1.000000    90.000000     0.000000     1.000000     0.000000     0.000000     0.000000     0.000000
   13     1.000000   180.000000     0.000000     0.000000     1.000000     0.000000     0.000000     0.000000
   14    -1.000000   180.000000     0.000000     0.000000     1.000000     0.000000     0.000000     0.000000
   15     1.000000   120.000000    -0.577350     0.577350     0.577350     0.000000     0.000000     0.000000
   16    -1.000000   120.000000    -0.577350     0.577350     0.577350     0.000000     0.000000     0.000000
   17     1.000000   120.000000    -0.577350     0.577350    -0.577350     0.000000     0.000000     0.000000
   18    -1.000000   120.000000    -0.577350     0.577350    -0.577350     0.000000     0.000000     0.000000
   19     1.000000    90.000000     0.000000     0.000000     1.000000     0.000000     0.000000     0.000000
   20    -1.000000    90.000000     0.000000     0.000000     1.000000     0.000000     0.000000     0.000000
   21     1.000000    90.000000    -1.000000     0.000000     0.000000     0.000000     0.000000     0.000000
   22    -1.000000    90.000000    -1.000000     0.000000     0.000000     0.000000     0.000000     0.000000
   23     1.000000   180.000000     0.707107     0.000000     0.707107     0.000000     0.000000     0.000000
   24    -1.000000   180.000000     0.707107     0.000000     0.707107     0.000000     0.000000     0.000000
   25     1.000000   120.000000     0.577350    -0.577350     0.577350     0.000000     0.000000     0.000000
   26    -1.000000   120.000000     0.577350    -0.577350     0.577350     0.000000     0.000000     0.000000
   27     1.000000   120.000000    -0.577350    -0.577350     0.577350     0.000000     0.000000     0.000000
   28    -1.000000   120.000000    -0.577350    -0.577350     0.577350     0.000000     0.000000     0.000000
   29     1.000000   180.000000     1.000000     0.000000     0.000000     0.000000     0.000000     0.000000
   30    -1.000000   180.000000     1.000000     0.000000     0.000000     0.000000     0.000000     0.000000
   31     1.000000    90.000000     0.000000    -1.000000     0.000000     0.000000     0.000000     0.000000
   32    -1.000000    90.000000     0.000000    -1.000000     0.000000     0.000000     0.000000     0.000000
   33     1.000000   180.000000     0.707107     0.707107     0.000000     0.000000     0.000000     0.000000
   34    -1.000000   180.000000     0.707107     0.707107     0.000000     0.000000     0.000000     0.000000
   35     1.000000    90.000000     1.000000     0.000000     0.000000     0.000000     0.000000     0.000000
   36    -1.000000    90.000000     1.000000     0.000000     0.000000     0.000000     0.000000     0.000000
   37     1.000000   120.000000     0.577350    -0.577350    -0.577350     0.000000     0.000000     0.000000
   38    -1.000000   120.000000     0.577350    -0.577350    -0.577350     0.000000     0.000000     0.000000
   39     1.000000   180.000000     0.000000     1.000000     0.000000     0.000000     0.000000     0.000000
   40    -1.000000   180.000000     0.000000     1.000000     0.000000     0.000000     0.000000     0.000000
   41     1.000000   120.000000     0.577350     0.577350    -0.577350     0.000000     0.000000     0.000000
   42    -1.000000   120.000000     0.577350     0.577350    -0.577350     0.000000     0.000000     0.000000
   43     1.000000   180.000000     0.000000    -0.707107     0.707107     0.000000     0.000000     0.000000
   44    -1.000000   180.000000     0.000000    -0.707107     0.707107     0.000000     0.000000     0.000000
   45     1.000000   180.000000     0.707107    -0.707107     0.000000     0.000000     0.000000     0.000000
   46    -1.000000   180.000000     0.707107    -0.707107     0.000000     0.000000     0.000000     0.000000
   47     1.000000   180.000000     0.707107     0.000000    -0.707107     0.000000     0.000000     0.000000
   48    -1.000000   180.000000     0.707107     0.000000    -0.707107     0.000000     0.000000     0.000000
 
 Subroutine IBZKPT returns following result:
 ===========================================
 
 Found     56 irreducible k-points:
 
 Following reciprocal coordinates:
            Coordinates               Weight
  0.000000  0.000000  0.000000      1.000000
  0.090909  0.000000  0.000000      6.000000
  0.181818  0.000000  0.000000      6.000000
  0.272727  0.000000  0.000000      6.000000
  0.363636  0.000000  0.000000      6.000000
  0.454545  0.000000  0.000000      6.000000
  0.090909  0.090909  0.000000     12.000000
  0.181818  0.090909  0.000000     24.000000
  0.272727  0.090909  0.000000     24.000000
  0.363636  0.090909  0.000000     24.000000
  0.454545  0.090909  0.000000     24.000000
  0.181818  0.181818  0.000000     12.000000
  0.272727  0.181818  0.000000     24.000000
  0.363636  0.181818  0.000000     24.000000
  0.454545  0.181818  0.000000     24.000000
  0.272727  0.272727  0.000000     12.000000
  0.363636  0.272727  0.000000     24.000000
  0.454545  0.272727  0.000000     24.000000
  0.363636  0.363636  0.000000     12.000000
  0.454545  0.363636  0.000000     24.000000
  0.454545  0.454545  0.000000     12.000000
  0.090909  0.090909  0.090909      8.000000
  0.181818  0.090909  0.090909     24.000000
  0.272727  0.090909  0.090909     24.000000
  0.363636  0.090909  0.090909     24.000000
  0.454545  0.090909  0.090909     24.000000
  0.181818  0.181818  0.090909     24.000000
  0.272727  0.181818  0.090909     48.000000
  0.363636  0.181818  0.090909     48.000000
  0.454545  0.181818  0.090909     48.000000
  0.272727  0.272727  0.090909     24.000000
  0.363636  0.272727  0.090909     48.000000
  0.454545  0.272727  0.090909     48.000000
  0.363636  0.363636  0.090909     24.000000
  0.454545  0.363636  0.090909     48.000000
  0.454545  0.454545  0.090909     24.000000
  0.181818  0.181818  0.181818      8.000000
  0.272727  0.181818  0.181818     24.000000
  0.363636  0.181818  0.181818     24.000000
  0.454545  0.181818  0.181818     24.000000
  0.272727  0.272727  0.181818     24.000000
  0.363636  0.272727  0.181818     48.000000
  0.454545  0.272727  0.181818     48.000000
  0.363636  0.363636  0.181818     24.000000
  0.454545  0.363636  0.181818     48.000000
  0.454545  0.454545  0.181818     24.000000
  0.272727  0.272727  0.272727      8.000000
  0.363636  0.272727  0.272727     24.000000
  0.454545  0.272727  0.272727     24.000000
  0.363636  0.363636  0.272727     24.000000
  0.454545  0.363636  0.272727     48.000000
  0.454545  0.454545  0.272727     24.000000
  0.363636  0.363636  0.363636      8.000000
  0.454545  0.363636  0.363636     24.000000
  0.454545  0.454545  0.363636     24.000000
  0.454545  0.454545  0.454545      8.000000
 
 Following cartesian coordinates:
            Coordinates               Weight
  0.000000  0.000000  0.000000      1.000000
  0.022227  0.000000  0.000000      6.000000
  0.044454  0.000000  0.000000      6.000000
  0.066681  0.000000  0.000000      6.000000
  0.088909  0.000000  0.000000      6.000000
  0.111136  0.000000  0.000000      6.000000
  0.022227  0.022227  0.000000     12.000000
  0.044454  0.022227  0.000000     24.000000
  0.066681  0.022227  0.000000     24.000000
  0.088909  0.022227  0.000000     24.000000
  0.111136  0.022227  0.000000     24.000000
  0.044454  0.044454  0.000000     12.000000
  0.066681  0.044454  0.000000     24.000000
  0.088909  0.044454  0.000000     24.000000
  0.111136  0.044454  0.000000     24.000000
  0.066681  0.066681  0.000000     12.000000
  0.088909  0.066681  0.000000     24.000000
  0.111136  0.066681  0.000000     24.000000
  0.088909  0.088909  0.000000     12.000000
  0.111136  0.088909  0.000000     24.000000
  0.111136  0.111136  0.000000     12.000000
  0.022227  0.022227  0.022227      8.000000
  0.044454  0.022227  0.022227     24.000000
  0.066681  0.022227  0.022227     24.000000
  0.088909  0.022227  0.022227     24.000000
  0.111136  0.022227  0.022227     24.000000
  0.044454  0.044454  0.022227     24.000000
  0.066681  0.044454  0.022227     48.000000
  0.088909  0.044454  0.022227     48.000000
  0.111136  0.044454  0.022227     48.000000
  0.066681  0.066681  0.022227     24.000000
  0.088909  0.066681  0.022227     48.000000
  0.111136  0.066681  0.022227     48.000000
  0.088909  0.088909  0.022227     24.000000
  0.111136  0.088909  0.022227     48.000000
  0.111136  0.111136  0.022227     24.000000
  0.044454  0.044454  0.044454      8.000000
  0.066681  0.044454  0.044454     24.000000
  0.088909  0.044454  0.044454     24.000000
  0.111136  0.044454  0.044454     24.000000
  0.066681  0.066681  0.044454     24.000000
  0.088909  0.066681  0.044454     48.000000
  0.111136  0.066681  0.044454     48.000000
  0.088909  0.088909  0.044454     24.000000
  0.111136  0.088909  0.044454     48.000000
  0.111136  0.111136  0.044454     24.000000
  0.066681  0.066681  0.066681      8.000000
  0.088909  0.066681  0.066681     24.000000
  0.111136  0.066681  0.066681     24.000000
  0.088909  0.088909  0.066681     24.000000
  0.111136  0.088909  0.066681     48.000000
  0.111136  0.111136  0.066681     24.000000
  0.088909  0.088909  0.088909      8.000000
  0.111136  0.088909  0.088909     24.000000
  0.111136  0.111136  0.088909     24.000000
  0.111136  0.111136  0.111136      8.000000
 


--------------------------------------------------------------------------------------------------------




 Dimension of arrays:
   k-points           NKPTS =     56   k-points in BZ     NKDIM =     56   number of bands    NBANDS=     48
   number of dos      NEDOS =    301   number of ions     NIONS =      4
   non local maximal  LDIM  =      6   non local SUM 2l+1 LMDIM =     18
   total plane-waves  NPLWV =   8000
   max r-space proj   IRMAX =      1   max aug-charges    IRDMAX=   5948
   dimension x,y,z NGX =    20 NGY =   20 NGZ =   20
   dimension x,y,z NGXF=    40 NGYF=   40 NGZF=   40
   support grid    NGXF=    40 NGYF=   40 NGZF=   40
   ions per type =               4
 NGX,Y,Z   is equivalent  to a cutoff of   8.13,  8.13,  8.13 a.u.
 NGXF,Y,Z  is equivalent  to a cutoff of  16.26, 16.26, 16.26 a.u.


 I would recommend the setting:
   dimension x,y,z NGX =    20 NGY =   20 NGZ =   20
 SYSTEM =  unknown system                          
 POSCAR =  Ag                                      

 Startparameter for this run:
   NWRITE =      2    write-flag & timer
   PREC   = normal    normal or accurate (medium, high low for compatibility)
   ISTART =      0    job   : 0-new  1-cont  2-samecut
   ICHARG =      2    charge: 1-file 2-atom 10-const
   ISPIN  =      1    spin polarized calculation?
   LNONCOLLINEAR =      F non collinear calculations
   LSORBIT =      F    spin-orbit coupling
   INIWAV =      1    electr: 0-lowe 1-rand  2-diag
   LASPH  =      F    aspherical Exc in radial PAW
   METAGGA=      F    non-selfconsistent MetaGGA calc.

 Electronic Relaxation 1
   ENCUT  =  400.0 eV  29.40 Ry    5.42 a.u.   6.67  6.67  6.67*2*pi/ulx,y,z
   ENINI  =  400.0     initial cutoff
   ENAUG  =  412.5 eV  augmentation charge cutoff
   NELM   =     60;   NELMIN=  2; NELMDL= -5     # of ELM steps 
   EDIFF  = 0.1E-03   stopping-criterion for ELM
   LREAL  =      F    real-space projection
   NLSPLINE    = F    spline interpolate recip. space projectors
   LCOMPAT=      F    compatible to vasp.4.4
   GGA_COMPAT  = T    GGA compatible to vasp.4.4-vasp.4.6
   LMAXPAW     = -100 max onsite density
   LMAXMIX     =    2 max onsite mixed and CHGCAR
   VOSKOWN=      0    Vosko Wilk Nusair interpolation
   ROPT   =    0.00000
 Ionic relaxation
   EDIFFG = 0.1E-02   stopping-criterion for IOM
   NSW    =      0    number of steps for IOM
   NBLOCK =      1;   KBLOCK =      1    inner block; outer block 
   IBRION =     -1    ionic relax: 0-MD 1-quasi-New 2-CG
   NFREE  =      0    steps in history (QN), initial steepest desc. (CG)
   ISIF   =      2    stress and relaxation
   IWAVPR =     10    prediction:  0-non 1-charg 2-wave 3-comb
   ISYM   =      2    0-nonsym 1-usesym 2-fastsym
   LCORR  =      T    Harris-Foulkes like correction to forces

   POTIM  = 0.5000    time-step for ionic-motion
   TEIN   =    0.0    initial temperature
   TEBEG  =    0.0;   TEEND  =   0.0 temperature during run
   SMASS  =  -3.00    Nose mass-parameter (am)
   estimated Nose-frequenzy (Omega)   =  0.10E-29 period in steps =****** mass=  -0.382E-27a.u.
   SCALEE = 1.0000    scale energy and forces
   NPACO  =    256;   APACO  = 16.0  distance and # of slots for P.C.
   PSTRESS=    0.0 pullay stress

  Mass of Ions in am
   POMASS = 107.87
  Ionic Valenz
   ZVAL   =  11.00
  Atomic Wigner-Seitz radii
   RWIGS  =  -1.00
  virtual crystal weights 
   VCA    =   1.00
   NELECT =      44.0000    total number of electrons
   NUPDOWN=      -1.0000    fix difference up-down

 DOS related values:
   EMIN   =  10.00;   EMAX   =-10.00  energy-range for DOS
   EFERMI =   0.00
   ISMEAR =     1;   SIGMA  =   0.10  broadening in eV -4-tet -1-fermi 0-gaus

 Electronic relaxation 2 (details)
   IALGO  =     38    algorithm
   LDIAG  =      T    sub-space diagonalisation (order eigenvalues)
   LSUBROT=      F    optimize rotation matrix (better conditioning)
   TURBO    =      0    0=normal 1=particle mesh
   IRESTART =      0    0=no restart 2=restart with 2 vectors
   NREBOOT  =      0    no. of reboots
   NMIN     =      0    reboot dimension
   EREF     =   0.00    reference energy to select bands
   IMIX   =      4    mixing-type and parameters
     AMIX     =   0.40;   BMIX     =  1.00
     AMIX_MAG =   1.60;   BMIX_MAG =  1.00
     AMIN     =   0.10
     WC   =   100.;   INIMIX=   1;  MIXPRE=   1;  MAXMIX= -45

 Intra band minimization:
   WEIMIN = 0.0000     energy-eigenvalue tresh-hold
   EBREAK =  0.52E-06  absolut break condition
   DEPER  =   0.30     relativ break condition  

   TIME   =   0.40     timestep for ELM

  volume/ion in A,a.u.               =      17.10       115.43
  Fermi-wavevector in a.u.,A,eV,Ry     =   1.413088  2.670348 27.168338  1.996817
  Thomas-Fermi vector in A             =   2.534769
 
 Write flags
   LWAVE  =      F    write WAVECAR
   LCHARG =      F    write CHGCAR
   LVTOT  =      F    write LOCPOT, total local potential
   LVHAR  =      F    write LOCPOT, Hartree potential only
   LELF   =      F    write electronic localiz. function (ELF)
   LORBIT =      0    0 simple, 1 ext, 2 COOP (PROOUT)


 Dipole corrections
   LMONO  =      F    monopole corrections only (constant potential shift)
   LDIPOL =      F    correct potential (dipole corrections)
   IDIPOL =      0    1-x, 2-y, 3-z, 4-all directions 
   EPSILON=  1.0000000 bulk dielectric constant

 Exchange correlation treatment:
   GGA     =    --    GGA type
   LEXCH   =     8    internal setting for exchange type
   VOSKOWN=      0    Vosko Wilk Nusair interpolation
   LHFCALC =     F    Hartree Fock is set to
   LHFONE  =     F    Hartree Fock one center treatment
   AEXX    =    0.0000 exact exchange contribution

 Linear response parameters
   LEPSILON=     F    determine dielectric tensor
   LRPA    =     F    only Hartree local field effects (RPA)
   LNABLA  =     F    use nabla operator in PAW spheres
   LVEL    =     F    velocity operator in full k-point grid
   LINTERFAST=   F  fast interpolation
   KINTER  =     0    interpolate to denser k-point grid
   CSHIFT  =0.1000    complex shift for real part using Kramers Kronig
   OMEGAMAX=  -1.0    maximum frequency
   DEG_THRESHOLD= 0.2000000E-02 threshold for treating states as degnerate
   RTIME   =    0.100 relaxation time in fs

 Orbital magnetization related:
   ORBITALMAG=     F  switch on orbital magnetization
   LCHIMAG   =     F  perturbation theory with respect to B field
   DQ        =  0.001000  dq finite difference perturbation B field



--------------------------------------------------------------------------------------------------------


 Static calculation
 charge density and potential will be updated during run
 non-spin polarized calculation
 Variant of blocked Davidson
 Davidson routine will perform the subspace rotation
 perform sub-space diagonalisation
    after iterative eigenvector-optimisation
 modified Broyden-mixing scheme, WC =      100.0
 initial mixing is a Kerker type mixing with AMIX =  0.4000 and BMIX =      1.0000
 Hartree-type preconditioning will be used
 using additional bands           26
 reciprocal scheme for non local part
 use partial core corrections
 calculate Harris-corrections to forces 
   (improved forces if not selfconsistent)
 use gradient corrections 
 use of overlap-Matrix (Vanderbilt PP)
 Methfessel and Paxton  Order N= 1 SIGMA  =   0.10


--------------------------------------------------------------------------------------------------------


  energy-cutoff  :      400.00
  volume of cell :       68.42
      direct lattice vectors                 reciprocal lattice vectors
     4.090000000  0.000000000  0.000000000     0.244498778  0.000000000  0.000000000
     0.000000000  4.090000000  0.000000000     0.000000000  0.244498778  0.000000000
     0.000000000  0.000000000  4.090000000     0.000000000  0.000000000  0.244498778

  length of vectors
     4.090000000  4.090000000  4.090000000     0.244498778  0.244498778  0.244498778


 
 k-points in units of 2pi/SCALE and weight: KPOINTS created by Atomic Simulation Env
   0.00000000  0.00000000  0.00000000       0.001
   0.02222716  0.00000000  0.00000000       0.005
   0.04445432  0.00000000  0.00000000       0.005
   0.06668148  0.00000000  0.00000000       0.005
   0.08890865  0.00000000  0.00000000       0.005
   0.11113581  0.00000000  0.00000000       0.005
   0.02222716  0.02222716  0.00000000       0.009
   0.04445432  0.02222716  0.00000000       0.018
   0.06668148  0.02222716  0.00000000       0.018
   0.08890865  0.02222716  0.00000000       0.018
   0.11113581  0.02222716  0.00000000       0.018
   0.04445432  0.04445432  0.00000000       0.009
   0.06668148  0.04445432  0.00000000       0.018
   0.08890865  0.04445432  0.00000000       0.018
   0.11113581  0.04445432  0.00000000       0.018
   0.06668148  0.06668148  0.00000000       0.009
   0.08890865  0.06668148  0.00000000       0.018
   0.11113581  0.06668148  0.00000000       0.018
   0.08890865  0.08890865  0.00000000       0.009
   0.11113581  0.08890865  0.00000000       0.018
   0.11113581  0.11113581  0.00000000       0.009
   0.02222716  0.02222716  0.02222716       0.006
   0.04445432  0.02222716  0.02222716       0.018
   0.06668148  0.02222716  0.02222716       0.018
   0.08890865  0.02222716  0.02222716       0.018
   0.11113581  0.02222716  0.02222716       0.018
   0.04445432  0.04445432  0.02222716       0.018
   0.06668148  0.04445432  0.02222716       0.036
   0.08890865  0.04445432  0.02222716       0.036
   0.11113581  0.04445432  0.02222716       0.036
   0.06668148  0.06668148  0.02222716       0.018
   0.08890865  0.06668148  0.02222716       0.036
   0.11113581  0.06668148  0.02222716       0.036
   0.08890865  0.08890865  0.02222716       0.018
   0.11113581  0.08890865  0.02222716       0.036
   0.11113581  0.11113581  0.02222716       0.018
   0.04445432  0.04445432  0.04445432       0.006
   0.06668148  0.04445432  0.04445432       0.018
   0.08890865  0.04445432  0.04445432       0.018
   0.11113581  0.04445432  0.04445432       0.018
   0.06668148  0.06668148  0.04445432       0.018
   0.08890865  0.06668148  0.04445432       0.036
   0.11113581  0.06668148  0.04445432       0.036
   0.08890865  0.08890865  0.04445432       0.018
   0.11113581  0.08890865  0.04445432       0.036
   0.11113581  0.11113581  0.04445432       0.018
   0.06668148  0.06668148  0.06668148       0.006
   0.08890865  0.06668148  0.06668148       0.018
   0.11113581  0.06668148  0.06668148       0.018
   0.08890865  0.08890865  0.06668148       0.018
   0.11113581  0.08890865  0.06668148       0.036
   0.11113581  0.11113581  0.06668148       0.018
   0.08890865  0.08890865  0.08890865       0.006
   0.11113581  0.08890865  0.08890865       0.018
   0.11113581  0.11113581  0.08890865       0.018
   0.11113581  0.11113581  0.11113581       0.006
 
 k-points in reciprocal lattice and weights: KPOINTS created by Atomic Simulation Env
   0.00000000  0.00000000  0.00000000       0.001
   0.09090909  0.00000000  0.00000000       0.005
   0.18181818  0.00000000  0.00000000       0.005
   0.27272727  0.00000000  0.00000000       0.005
   0.36363636  0.00000000  0.00000000       0.005
   0.45454545  0.00000000  0.00000000       0.005
   0.09090909  0.09090909  0.00000000       0.009
   0.18181818  0.09090909  0.00000000       0.018
   0.27272727  0.09090909  0.00000000       0.018
   0.36363636  0.09090909  0.00000000       0.018
   0.45454545  0.09090909  0.00000000       0.018
   0.18181818  0.18181818  0.00000000       0.009
   0.27272727  0.18181818  0.00000000       0.018
   0.36363636  0.18181818  0.00000000       0.018
   0.45454545  0.18181818  0.00000000       0.018
   0.27272727  0.27272727  0.00000000       0.009
   0.36363636  0.27272727  0.00000000       0.018
   0.45454545  0.27272727  0.00000000       0.018
   0.36363636  0.36363636  0.00000000       0.009
   0.45454545  0.36363636  0.00000000       0.018
   0.45454545  0.45454545  0.00000000       0.009
   0.09090909  0.09090909  0.09090909       0.006
   0.18181818  0.09090909  0.09090909       0.018
   0.27272727  0.09090909  0.09090909       0.018
   0.36363636  0.09090909  0.09090909       0.018
   0.45454545  0.09090909  0.09090909       0.018
   0.18181818  0.18181818  0.09090909       0.018
   0.27272727  0.18181818  0.09090909       0.036
   0.36363636  0.18181818  0.09090909       0.036
   0.45454545  0.18181818  0.09090909       0.036
   0.27272727  0.27272727  0.09090909       0.018
   0.36363636  0.27272727  0.09090909       0.036
   0.45454545  0.27272727  0.09090909       0.036
   0.36363636  0.36363636  0.09090909       0.018
   0.45454545  0.36363636  0.09090909       0.036
   0.45454545  0.45454545  0.09090909       0.018
   0.18181818  0.18181818  0.18181818       0.006
   0.27272727  0.18181818  0.18181818       0.018
   0.36363636  0.18181818  0.18181818       0.018
   0.45454545  0.18181818  0.18181818       0.018
   0.27272727  0.27272727  0.18181818       0.018
   0.36363636  0.27272727  0.18181818       0.036
   0.45454545  0.27272727  0.18181818       0.036
   0.36363636  0.36363636  0.18181818       0.018
   0.45454545  0.36363636  0.18181818       0.036
   0.45454545  0.45454545  0.18181818       0.018
   0.27272727  0.27272727  0.27272727       0.006
   0.36363636  0.27272727  0.27272727       0.018
   0.45454545  0.27272727  0.27272727       0.018
   0.36363636  0.36363636  0.27272727       0.018
   0.45454545  0.36363636  0.27272727       0.036
   0.45454545  0.45454545  0.27272727       0.018
   0.36363636  0.36363636  0.36363636       0.006
   0.45454545  0.36363636  0.36363636       0.018
   0.45454545  0.45454545  0.36363636       0.018
   0.45454545  0.45454545  0.45454545       0.006
 
 position of ions in fractional coordinates (direct lattice) 
   0.00000000  0.00000000  0.00000000
   0.00000000  0.50000000  0.50000000
   0.50000000  0.00000000  0.50000000
   0.50000000  0.50000000  0.00000000
 
 position of ions in cartesian coordinates  (Angst):
   0.00000000  0.00000000  0.00000000
   0.00000000  2.04500000  2.04500000
   2.04500000  0.00000000  2.04500000
   2.04500000  2.04500000  0.00000000
 


--------------------------------------------------------------------------------------------------------


 k-point  1 :   0.0000 0.0000 0.0000  plane waves:    1237
 k-point  2 :   0.0909 0.0000 0.0000  plane waves:    1257
 k-point  3 :   0.1818 0.0000 0.0000  plane waves:    1261
 k-point  4 :   0.2727 0.0000 0.0000  plane waves:    1253
 k-point  5 :   0.3636 0.0000 0.0000  plane waves:    1230
 k-point  6 :   0.4545 0.0000 0.0000  plane waves:    1230
 k-point  7 :   0.0909 0.0909 0.0000  plane waves:    1259
 k-point  8 :   0.1818 0.0909 0.0000  plane waves:    1258
 k-point  9 :   0.2727 0.0909 0.0000  plane waves:    1249
 k-point 10 :   0.3636 0.0909 0.0000  plane waves:    1235
 k-point 11 :   0.4545 0.0909 0.0000  plane waves:    1237
 k-point 12 :   0.1818 0.1818 0.0000  plane waves:    1261
 k-point 13 :   0.2727 0.1818 0.0000  plane waves:    1254
 k-point 14 :   0.3636 0.1818 0.0000  plane waves:    1236
 k-point 15 :   0.4545 0.1818 0.0000  plane waves:    1236
 k-point 16 :   0.2727 0.2727 0.0000  plane waves:    1245
 k-point 17 :   0.3636 0.2727 0.0000  plane waves:    1243
 k-point 18 :   0.4545 0.2727 0.0000  plane waves:    1249
 k-point 19 :   0.3636 0.3636 0.0000  plane waves:    1248
 k-point 20 :   0.4545 0.3636 0.0000  plane waves:    1244
 k-point 21 :   0.4545 0.4545 0.0000  plane waves:    1242
 k-point 22 :   0.0909 0.0909 0.0909  plane waves:    1261
 k-point 23 :   0.1818 0.0909 0.0909  plane waves:    1256
 k-point 24 :   0.2727 0.0909 0.0909  plane waves:    1250
 k-point 25 :   0.3636 0.0909 0.0909  plane waves:    1236
 k-point 26 :   0.4545 0.0909 0.0909  plane waves:    1232
 k-point 27 :   0.1818 0.1818 0.0909  plane waves:    1255
 k-point 28 :   0.2727 0.1818 0.0909  plane waves:    1245
 k-point 29 :   0.3636 0.1818 0.0909  plane waves:    1237
 k-point 30 :   0.4545 0.1818 0.0909  plane waves:    1239
 k-point 31 :   0.2727 0.2727 0.0909  plane waves:    1238
 k-point 32 :   0.3636 0.2727 0.0909  plane waves:    1238
 k-point 33 :   0.4545 0.2727 0.0909  plane waves:    1247
 k-point 34 :   0.3636 0.3636 0.0909  plane waves:    1250
 k-point 35 :   0.4545 0.3636 0.0909  plane waves:    1247
 k-point 36 :   0.4545 0.4545 0.0909  plane waves:    1244
 k-point 37 :   0.1818 0.1818 0.1818  plane waves:    1244
 k-point 38 :   0.2727 0.1818 0.1818  plane waves:    1240
 k-point 39 :   0.3636 0.1818 0.1818  plane waves:    1248
 k-point 40 :   0.4545 0.1818 0.1818  plane waves:    1243
 k-point 41 :   0.2727 0.2727 0.1818  plane waves:    1240
 k-point 42 :   0.3636 0.2727 0.1818  plane waves:    1239
 k-point 43 :   0.4545 0.2727 0.1818  plane waves:    1237
 k-point 44 :   0.3636 0.3636 0.1818  plane waves:    1240
 k-point 45 :   0.4545 0.3636 0.1818  plane waves:    1243
 k-point 46 :   0.4545 0.4545 0.1818  plane waves:    1238
 k-point 47 :   0.2727 0.2727 0.2727  plane waves:    1238
 k-point 48 :   0.3636 0.2727 0.2727  plane waves:    1243
 k-point 49 :   0.4545 0.2727 0.2727  plane waves:    1234
 k-point 50 :   0.3636 0.3636 0.2727  plane waves:    1236
 k-point 51 :   0.4545 0.3636 0.2727  plane waves:    1239
 k-point 52 :   0.4545 0.4545 0.2727  plane waves:    1238
 k-point 53 :   0.3636 0.3636 0.3636  plane waves:    1238
 k-point 54 :   0.4545 0.3636 0.3636  plane waves:    1248
 k-point 55 :   0.4545 0.4545 0.3636  plane waves:    1250
 k-point 56 :   0.4545 0.4545 0.4545  plane waves:    1259

 maximum and minimum number of plane-waves per node :      1261     1230

 maximum number of plane-waves:      1261
 maximum index in each direction: 
   IXMAX=    6   IYMAX=    6   IZMAX=    6
   IXMIN=   -7   IYMIN=   -7   IZMIN=   -7

 WARNING: aliasing errors must be expected set NGX to  28 to avoid them
 WARNING: aliasing errors must be expected set NGY to  28 to avoid them
 WARNING: aliasing errors must be expected set NGZ to  28 to avoid them
 aliasing errors are usually negligible using standard VASP settings
 and one can safely disregard these warnings

 serial   3D FFT for wavefunctions
 parallel 3D FFT for charge:
    minimum data exchange during FFTs selected (reduces bandwidth)


 total amount of memory used by VASP on root node    43440. kBytes
========================================================================

   base      :      30000. kBytes
   nonl-proj :      10338. kBytes
   fftplans  :        147. kBytes
   grid      :        485. kBytes
   one-center:         62. kBytes
   wavefun   :       2408. kBytes
 
     INWAV:  cpu time    0.0000: real time    0.0001
 Broyden mixing: mesh for mixing (old mesh)
   NGX = 13   NGY = 13   NGZ = 13
  (NGX  = 40   NGY  = 40   NGZ  = 40)
  gives a total of   2197 points

 initial charge density was supplied:
 charge density of overlapping atoms calculated
 number of electron      44.0000000 magnetization 
 keeping initial charge density in first step


--------------------------------------------------------------------------------------------------------


 Maximum index for augmentation-charges          377 (set IRDMAX)


--------------------------------------------------------------------------------------------------------


 First call to EWALD:  gamma=   0.433
 Maximum number of real-space cells 3x 3x 3
 Maximum number of reciprocal cells 3x 3x 3

 FEWALD executed in parallel
    FEWALD:  cpu time    0.0016: real time    0.0016


----------------------------------------- Iteration    1(   1)  ---------------------------------------


    POTLOK:  cpu time    0.0735: real time    0.0736
    SETDIJ:  cpu time    0.0030: real time    0.0030
     EDDAV:  cpu time    0.8014: real time    0.8020
       DOS:  cpu time    0.0012: real time    0.0012
    --------------------------------------------
      LOOP:  cpu time    0.8815: real time    0.8878

 eigenvalue-minimisations  :  5376
 total energy-change (2. order) : 0.1950363E+03  (-0.1865786E+04)
 number of electron      44.0000000 magnetization 
 augmentation part       44.0000000 magnetization 

 Free energy of the ion-electron system (eV)
  ---------------------------------------------------
  alpha Z        PSCENC =       198.91349099
  Ewald energy   TEWEN  =     -3906.37931032
  -Hartree energ DENC   =      -811.91229488
  -exchange      EXHF   =         0.00000000
  -V(xc)+E(xc)   XCENC  =       -41.67125304
  PAW double counting   =      4013.84859731    -3829.39709692
  entropy T*S    EENTRO =         0.00007009
  eigenvalues    EBANDS =       422.60035758
  atomic energy  EATOM  =      4149.03371350
  Solvation  Ediel_sol  =         0.00000000
  ---------------------------------------------------
  free energy    TOTEN  =       195.03627431 eV

  energy without entropy =      195.03620422  energy(sigma->0) =      195.03625095


--------------------------------------------------------------------------------------------------------




----------------------------------------- Iteration    1(   2)  ---------------------------------------


     EDDAV:  cpu time    1.1068: real time    1.1072
       DOS:  cpu time    0.0009: real time    0.0009
    --------------------------------------------
      LOOP:  cpu time    1.1090: real time    1.1108

 eigenvalue-minimisations  :  7080
 total energy-change (2. order) :-0.2038507E+03  (-0.1916975E+03)
 number of electron      44.0000000 magnetization 
 augmentation part       44.0000000 magnetization 

 Free energy of the ion-electron system (eV)
  ---------------------------------------------------
  alpha Z        PSCENC =       198.91349099
  Ewald energy   TEWEN  =     -3906.37931032
  -Hartree energ DENC   =      -811.91229488
  -exchange      EXHF   =         0.00000000
  -V(xc)+E(xc)   XCENC  =       -41.67125304
  PAW double counting   =      4013.84859731    -3829.39709692
  entropy T*S    EENTRO =         0.00085466
  eigenvalues    EBANDS =       218.74886640
  atomic energy  EATOM  =      4149.03371350
  Solvation  Ediel_sol  =         0.00000000
  ---------------------------------------------------
  free energy    TOTEN  =        -8.81443230 eV

  energy without entropy =       -8.81528696  energy(sigma->0) =       -8.81471719


--------------------------------------------------------------------------------------------------------




----------------------------------------- Iteration    1(   3)  ---------------------------------------


     EDDAV:  cpu time    0.9487: real time    0.9491
       DOS:  cpu time    0.0010: real time    0.0010
    --------------------------------------------
      LOOP:  cpu time    0.9506: real time    0.9527

 eigenvalue-minimisations  :  6360
 total energy-change (2. order) :-0.3035909E+01  (-0.3033763E+01)
 number of electron      44.0000000 magnetization 
 augmentation part       44.0000000 magnetization 

 Free energy of the ion-electron system (eV)
  ---------------------------------------------------
  alpha Z        PSCENC =       198.91349099
  Ewald energy   TEWEN  =     -3906.37931032
  -Hartree energ DENC   =      -811.91229488
  -exchange      EXHF   =         0.00000000
  -V(xc)+E(xc)   XCENC  =       -41.67125304
  PAW double counting   =      4013.84859731    -3829.39709692
  entropy T*S    EENTRO =         0.00071050
  eigenvalues    EBANDS =       215.71310194
  atomic energy  EATOM  =      4149.03371350
  Solvation  Ediel_sol  =         0.00000000
  ---------------------------------------------------
  free energy    TOTEN  =       -11.85034092 eV

  energy without entropy =      -11.85105142  energy(sigma->0) =      -11.85057775


--------------------------------------------------------------------------------------------------------




----------------------------------------- Iteration    1(   4)  ---------------------------------------


     EDDAV:  cpu time    1.2560: real time    1.2566
       DOS:  cpu time    0.0010: real time    0.0010
    --------------------------------------------
      LOOP:  cpu time    1.2579: real time    1.2599

 eigenvalue-minimisations  :  7632
 total energy-change (2. order) :-0.9147638E-02  (-0.9147431E-02)
 number of electron      44.0000000 magnetization 
 augmentation part       44.0000000 magnetization 

 Free energy of the ion-electron system (eV)
  ---------------------------------------------------
  alpha Z        PSCENC =       198.91349099
  Ewald energy   TEWEN  =     -3906.37931032
  -Hartree energ DENC   =      -811.91229488
  -exchange      EXHF   =         0.00000000
  -V(xc)+E(xc)   XCENC  =       -41.67125304
  PAW double counting   =      4013.84859731    -3829.39709692
  entropy T*S    EENTRO =         0.00070931
  eigenvalues    EBANDS =       215.70395549
  atomic energy  EATOM  =      4149.03371350
  Solvation  Ediel_sol  =         0.00000000
  ---------------------------------------------------
  free energy    TOTEN  =       -11.85948856 eV

  energy without entropy =      -11.86019787  energy(sigma->0) =      -11.85972500


--------------------------------------------------------------------------------------------------------




----------------------------------------- Iteration    1(   5)  ---------------------------------------


     EDDAV:  cpu time    0.8866: real time    0.8870
       DOS:  cpu time    0.0009: real time    0.0009
    CHARGE:  cpu time    0.0141: real time    0.0141
    MIXING:  cpu time    0.0006: real time    0.0006
    --------------------------------------------
      LOOP:  cpu time    0.9033: real time    0.9054

 eigenvalue-minimisations  :  6000
 total energy-change (2. order) :-0.8240826E-04  (-0.8240774E-04)
 number of electron      43.9999963 magnetization 
 augmentation part       20.2702777 magnetization 

 Broyden mixing:
  rms(total) = 0.10368E+01    rms(broyden)= 0.10368E+01
  rms(prec ) = 0.17223E+01
  weight for this iteration     100.00

 Free energy of the ion-electron system (eV)
  ---------------------------------------------------
  alpha Z        PSCENC =       198.91349099
  Ewald energy   TEWEN  =     -3906.37931032
  -Hartree energ DENC   =      -811.91229488
  -exchange      EXHF   =         0.00000000
  -V(xc)+E(xc)   XCENC  =       -41.67125304
  PAW double counting   =      4013.84859731    -3829.39709692
  entropy T*S    EENTRO =         0.00070930
  eigenvalues    EBANDS =       215.70387309
  atomic energy  EATOM  =      4149.03371350
  Solvation  Ediel_sol  =         0.00000000
  ---------------------------------------------------
  free energy    TOTEN  =       -11.85957097 eV

  energy without entropy =      -11.86028027  energy(sigma->0) =      -11.85980740


--------------------------------------------------------------------------------------------------------




----------------------------------------- Iteration    1(   6)  ---------------------------------------


    POTLOK:  cpu time    0.0063: real time    0.0063
    SETDIJ:  cpu time    0.0023: real time    0.0023
     EDDAV:  cpu time    1.0382: real time    1.0386
       DOS:  cpu time    0.0010: real time    0.0010
    CHARGE:  cpu time    0.0135: real time    0.0135
    MIXING:  cpu time    0.0008: real time    0.0008
    --------------------------------------------
      LOOP:  cpu time    1.0631: real time    1.0653

 eigenvalue-minimisations  :  6696
 total energy-change (2. order) : 0.9726871E+00  (-0.2435981E+00)
 number of electron      43.9999961 magnetization 
 augmentation part       20.9290192 magnetization 

 Broyden mixing:
  rms(total) = 0.67000E+00    rms(broyden)= 0.66999E+00
  rms(prec ) = 0.70774E+00
  weight for this iteration     100.00

 eigenvalues of (default mixing * dielectric matrix)
  average eigenvalue GAMMA=   1.3252
  1.3252

 Free energy of the ion-electron system (eV)
  ---------------------------------------------------
  alpha Z        PSCENC =       198.91349099
  Ewald energy   TEWEN  =     -3906.37931032
  -Hartree energ DENC   =      -772.88534566
  -exchange      EXHF   =         0.00000000
  -V(xc)+E(xc)   XCENC  =       -43.07570704
  PAW double counting   =      4192.21564510    -4011.95691874
  entropy T*S    EENTRO =        -0.00087837
  eigenvalues    EBANDS =       183.24842663
  atomic energy  EATOM  =      4149.03371350
  Solvation  Ediel_sol  =         0.00000000
  ---------------------------------------------------
  free energy    TOTEN  =       -10.88688391 eV

  energy without entropy =      -10.88600554  energy(sigma->0) =      -10.88659112


--------------------------------------------------------------------------------------------------------




----------------------------------------- Iteration    1(   7)  ---------------------------------------


    POTLOK:  cpu time    0.0046: real time    0.0046
    SETDIJ:  cpu time    0.0022: real time    0.0022
     EDDAV:  cpu time    1.0201: real time    1.0205
       DOS:  cpu time    0.0010: real time    0.0010
    CHARGE:  cpu time    0.0122: real time    0.0122
    MIXING:  cpu time    0.0006: real time    0.0006
    --------------------------------------------
      LOOP:  cpu time    1.0418: real time    1.0441

 eigenvalue-minimisations  :  6600
 total energy-change (2. order) : 0.3325629E-01  (-0.3078138E-02)
 number of electron      43.9999961 magnetization 
 augmentation part       20.9887467 magnetization 

 Broyden mixing:
  rms(total) = 0.37281E+00    rms(broyden)= 0.37281E+00
  rms(prec ) = 0.38208E+00
  weight for this iteration     100.00

 eigenvalues of (default mixing * dielectric matrix)
  average eigenvalue GAMMA=   1.8372
  1.0779  2.5965

 Free energy of the ion-electron system (eV)
  ---------------------------------------------------
  alpha Z        PSCENC =       198.91349099
  Ewald energy   TEWEN  =     -3906.37931032
  -Hartree energ DENC   =      -765.84717644
  -exchange      EXHF   =         0.00000000
  -V(xc)+E(xc)   XCENC  =       -43.33931669
  PAW double counting   =      4326.09643978    -4148.98982348
  entropy T*S    EENTRO =        -0.00093238
  eigenvalues    EBANDS =       179.65928741
  atomic energy  EATOM  =      4149.03371350
  Solvation  Ediel_sol  =         0.00000000
  ---------------------------------------------------
  free energy    TOTEN  =       -10.85362762 eV

  energy without entropy =      -10.85269524  energy(sigma->0) =      -10.85331683


--------------------------------------------------------------------------------------------------------




----------------------------------------- Iteration    1(   8)  ---------------------------------------


    POTLOK:  cpu time    0.0052: real time    0.0052
    SETDIJ:  cpu time    0.0021: real time    0.0020
     EDDAV:  cpu time    1.0649: real time    1.0657
       DOS:  cpu time    0.0010: real time    0.0010
    CHARGE:  cpu time    0.0125: real time    0.0125
    MIXING:  cpu time    0.0003: real time    0.0003
    --------------------------------------------
      LOOP:  cpu time    1.0869: real time    1.0896

 eigenvalue-minimisations  :  6792
 total energy-change (2. order) : 0.1141170E-01  (-0.2520221E-03)
 number of electron      43.9999961 magnetization 
 augmentation part       20.9930821 magnetization 

 Broyden mixing:
  rms(total) = 0.17527E-01    rms(broyden)= 0.17525E-01
  rms(prec ) = 0.18007E-01
  weight for this iteration     100.00

 eigenvalues of (default mixing * dielectric matrix)
  average eigenvalue GAMMA=   1.5110
  2.5080  1.0870  0.9380

 Free energy of the ion-electron system (eV)
  ---------------------------------------------------
  alpha Z        PSCENC =       198.91349099
  Ewald energy   TEWEN  =     -3906.37931032
  -Hartree energ DENC   =      -761.08392672
  -exchange      EXHF   =         0.00000000
  -V(xc)+E(xc)   XCENC  =       -43.52410067
  PAW double counting   =      4475.65059933    -4302.12776722
  entropy T*S    EENTRO =        -0.00093892
  eigenvalues    EBANDS =       178.67602410
  atomic energy  EATOM  =      4149.03371350
  Solvation  Ediel_sol  =         0.00000000
  ---------------------------------------------------
  free energy    TOTEN  =       -10.84221592 eV

  energy without entropy =      -10.84127700  energy(sigma->0) =      -10.84190295


--------------------------------------------------------------------------------------------------------




----------------------------------------- Iteration    1(   9)  ---------------------------------------


    POTLOK:  cpu time    0.0047: real time    0.0047
    SETDIJ:  cpu time    0.0020: real time    0.0020
     EDDAV:  cpu time    0.8907: real time    0.8912
       DOS:  cpu time    0.0009: real time    0.0009
    --------------------------------------------
      LOOP:  cpu time    0.8994: real time    0.9018

 eigenvalue-minimisations  :  5400
 total energy-change (2. order) :-0.2501694E-04  (-0.2800368E-05)
 number of electron      43.9999961 magnetization 
 augmentation part       20.9930821 magnetization 

 Free energy of the ion-electron system (eV)
  ---------------------------------------------------
  alpha Z        PSCENC =       198.91349099
  Ewald energy   TEWEN  =     -3906.37931032
  -Hartree energ DENC   =      -761.30682123
  -exchange      EXHF   =         0.00000000
  -V(xc)+E(xc)   XCENC  =       -43.51636380
  PAW double counting   =      4470.48620005    -4296.74965560
  entropy T*S    EENTRO =        -0.00093870
  eigenvalues    EBANDS =       178.67744416
  atomic energy  EATOM  =      4149.03371350
  Solvation  Ediel_sol  =         0.00000000
  ---------------------------------------------------
  free energy    TOTEN  =       -10.84224094 eV

  energy without entropy =      -10.84130224  energy(sigma->0) =      -10.84192804


--------------------------------------------------------------------------------------------------------




 average (electrostatic) potential at core
  the test charge radii are     1.1249
  (the norm of the test charge is              1.0000)
       1 -70.8004       2 -70.8004       3 -70.8004       4 -70.8004
 
 
 
 E-fermi :   8.4752     XC(G=0): -12.1892     alpha+bet :-13.4196


 k-point     1 :       0.0000    0.0000    0.0000
  band No.  band energies     occupation 
      1       0.6423      2.00000
      2       1.9671      2.00000
      3       1.9671      2.00000
      4       1.9671      2.00000
      5       2.1052      2.00000
      6       2.1052      2.00000
      7       2.1052      2.00000
      8       3.5931      2.00000
      9       3.5931      2.00000
     10       3.5931      2.00000
     11       4.6221      2.00000
     12       4.6221      2.00000
     13       5.3814      2.00000
     14       5.3814      2.00000
     15       5.3814      2.00000
     16       5.6195      2.00000
     17       5.6195      2.00000
     18       5.6195      2.00000
     19       5.6195      2.00000
     20       5.6195      2.00000
     21       5.6195      2.00000
     22       9.9961     -0.00000
     23       9.9961     -0.00000
     24       9.9961     -0.00000
     25      15.1046      0.00000
     26      15.1046      0.00000
     27      15.1046      0.00000
     28      19.0358      0.00000
     29      19.0358      0.00000
     30      19.0358      0.00000
     31      19.0358      0.00000
     32      19.0358      0.00000
     33      19.0358      0.00000
     34      24.4074      0.00000
     35      25.5342      0.00000
     36      25.5342      0.00000
     37      25.5342      0.00000
     38      25.5988      0.00000
     39      25.5988      0.00000
     40      25.5988      0.00000
     41      27.9643      0.00000
     42      27.9643      0.00000
     43      27.9643      0.00000
     44      32.7646      0.00000
     45      33.8861      0.00000
     46      33.8861      0.00000
     47      33.8861      0.00000
     48      37.8905      0.00000

 k-point     2 :       0.0909    0.0000    0.0000
  band No.  band energies     occupation 
      1       0.7287      2.00000
      2       2.0024      2.00000
      3       2.0130      2.00000
      4       2.0130      2.00000
      5       2.1320      2.00000
      6       2.1463      2.00000
      7       2.1463      2.00000
      8       3.5590      2.00000
      9       3.6245      2.00000
     10       3.6245      2.00000
     11       4.5882      2.00000
     12       4.6367      2.00000
     13       5.3357      2.00000
     14       5.3357      2.00000
     15       5.3649      2.00000
     16       5.4570      2.00000
     17       5.4570      2.00000
     18       5.5634      2.00000
     19       5.5634      2.00000
     20       5.6195      2.00000
     21       5.6195      2.00000
     22       9.4417     -0.00000
     23      10.2296     -0.00000
     24      10.2296     -0.00000
     25      15.1133      0.00000
     26      15.1133      0.00000
     27      15.7901      0.00000
     28      18.7647      0.00000
     29      18.7647      0.00000
     30      18.7647      0.00000
     31      18.7647      0.00000
     32      19.1903      0.00000
     33      19.1903      0.00000
     34      24.4385      0.00000
     35      25.5169      0.00000
     36      25.5838      0.00000
     37      25.8213      0.00000
     38      25.8213      0.00000
     39      26.0798      0.00000
     40      26.0798      0.00000
     41      27.5996      0.00000
     42      27.7533      0.00000
     43      27.7533      0.00000
     44      33.3148      0.00000
     45      33.6916      0.00000
     46      33.6916      0.00000
     47      34.0259      0.00000
     48      36.8848      0.00000

 k-point     3 :       0.1818    0.0000    0.0000
  band No.  band energies     occupation 
      1       0.9825      2.00000
      2       2.1026      2.00000
      3       2.1440      2.00000
      4       2.1440      2.00000
      5       2.2111      2.00000
      6       2.2695      2.00000
      7       2.2695      2.00000
      8       3.4608      2.00000
      9       3.7176      2.00000
     10       3.7176      2.00000
     11       4.4939      2.00000
     12       4.6796      2.00000
     13       5.0538      2.00000
     14       5.0538      2.00000
     15       5.2051      2.00000
     16       5.2051      2.00000
     17       5.3176      2.00000
     18       5.4057      2.00000
     19       5.4057      2.00000
     20       5.6195      2.00000
     21       5.6195      2.00000
     22       8.2747      2.01572
     23      10.8455     -0.00000
     24      10.8455     -0.00000
     25      15.1418      0.00000
     26      15.1418      0.00000
     27      17.3487      0.00000
     28      18.0580      0.00000
     29      18.0580      0.00000
     30      18.1476      0.00000
     31      18.1476      0.00000
     32      19.6420      0.00000
     33      19.6420      0.00000
     34      24.5265      0.00000
     35      25.4655      0.00000
     36      25.5558      0.00000
     37      26.5826      0.00000
     38      26.5826      0.00000
     39      26.8411      0.00000
     40      27.1159      0.00000
     41      27.1159      0.00000
     42      27.3190      0.00000
     43      27.3190      0.00000
     44      33.4834      0.00000
     45      33.4834      0.00000
     46      33.9584      0.00000
     47      34.4456      0.00000
     48      35.5353      0.00000

 k-point     4 :       0.2727    0.0000    0.0000
  band No.  band energies     occupation 
      1       1.3824      2.00000
      2       2.2492      2.00000
      3       2.3370      2.00000
      4       2.3370      2.00000
      5       2.3377      2.00000
      6       2.4739      2.00000
      7       2.4739      2.00000
      8       3.3092      2.00000
      9       3.8694      2.00000
     10       3.8694      2.00000
     11       4.3680      2.00000
     12       4.5481      2.00000
     13       4.5481      2.00000
     14       4.7473      2.00000
     15       5.0114      2.00000
     16       5.0114      2.00000
     17       5.1719      2.00000
     18       5.1719      2.00000
     19       5.2438      2.00000
     20       5.6198      2.00000
     21       5.6198      2.00000
     22       7.0069      2.00000
     23      11.7008      0.00000
     24      11.7008      0.00000
     25      15.1955      0.00000
     26      15.1955      0.00000
     27      17.1005      0.00000
     28      17.1005      0.00000
     29      17.4783      0.00000
     30      17.4783      0.00000
     31      19.2608      0.00000
     32      20.3592      0.00000
     33      20.3592      0.00000
     34      24.6575      0.00000
     35      25.3818      0.00000
     36      25.5665      0.00000
     37      26.0537      0.00000
     38      26.1158      0.00000
     39      26.1158      0.00000
     40      27.6521      0.00000
     41      27.6521      0.00000
     42      28.9942      0.00000
     43      28.9942      0.00000
     44      32.0016      0.00000
     45      33.6293      0.00000
     46      33.6293      0.00000
     47      35.1487      0.00000
     48      35.2390      0.00000

 k-point     5 :       0.3636    0.0000    0.0000
  band No.  band energies     occupation 
      1       1.8710      2.00000
      2       2.4011      2.00000
      3       2.5043      2.00000
      4       2.5461      2.00000
      5       2.5461      2.00000
      6       2.7575      2.00000
      7       2.7575      2.00000
      8       3.1196      2.00000
      9       4.0297      2.00000
     10       4.0297      2.00000
     11       4.0741      2.00000
     12       4.0741      2.00000
     13       4.2800      2.00000
     14       4.8005      2.00000
     15       4.8005      2.00000
     16       4.8354      2.00000
     17       4.8942      2.00000
     18       4.8942      2.00000
     19       5.1503      2.00000
     20       5.6201      2.00000
     21       5.6201      2.00000
     22       5.8429      2.00000
     23      12.6972      0.00000
     24      12.6972      0.00000
     25      15.2737      0.00000
     26      15.2737      0.00000
     27      16.0218      0.00000
     28      16.0218      0.00000
     29      16.9287      0.00000
     30      16.9287      0.00000
     31      21.2933      0.00000
     32      21.2986      0.00000
     33      21.2986      0.00000
     34      24.8131      0.00000
     35      24.9066      0.00000
     36      24.9066      0.00000
     37      25.2688      0.00000
     38      25.3271      0.00000
     39      25.7159      0.00000
     40      28.9260      0.00000
     41      28.9260      0.00000
     42      29.6604      0.00000
     43      30.8598      0.00000
     44      30.8598      0.00000
     45      33.5671      0.00000
     46      33.5671      0.00000
     47      34.1675      0.00000
     48      34.1675      0.00000

 k-point     6 :       0.4545    0.0000    0.0000
  band No.  band energies     occupation 
      1       2.3009      2.00000
      2       2.4695      2.00000
      3       2.6929      2.00000
      4       2.6929      2.00000
      5       2.6998      2.00000
      6       2.9105      2.00000
      7       3.1167      2.00000
      8       3.1167      2.00000
      9       3.5448      2.00000
     10       3.5448      2.00000
     11       4.3231      2.00000
     12       4.3231      2.00000
     13       4.3911      2.00000
     14       4.6027      2.00000
     15       4.6027      2.00000
     16       4.6516      2.00000
     17       4.6516      2.00000
     18       4.9174      2.00000
     19       4.9372      2.00000
     20       5.0451      2.00000
     21       5.6203      2.00000
     22       5.6203      2.00000
     23      13.7765      0.00000
     24      13.7765      0.00000
     25      14.8976      0.00000
     26      14.8976      0.00000
     27      15.3466      0.00000
     28      15.3466      0.00000
     29      16.6055      0.00000
     30      16.6055      0.00000
     31      22.4101      0.00000
     32      22.4101      0.00000
     33      23.1937      0.00000
     34      23.6368      0.00000
     35      23.6368      0.00000
     36      24.5200      0.00000
     37      24.9757      0.00000
     38      25.1311      0.00000
     39      26.2357      0.00000
     40      27.5714      0.00000
     41      30.3556      0.00000
     42      30.3556      0.00000
     43      31.9138      0.00000
     44      31.9138      0.00000
     45      32.5096      0.00000
     46      32.5096      0.00000
     47      35.0375      0.00000
     48      35.0375      0.00000

 k-point     7 :       0.0909    0.0909    0.0000
  band No.  band energies     occupation 
      1       0.8137      2.00000
      2       2.0487      2.00000
      3       2.0487      2.00000
      4       2.0497      2.00000
      5       2.1725      2.00000
      6       2.1725      2.00000
      7       2.1948      2.00000
      8       3.5463      2.00000
      9       3.6356      2.00000
     10       3.6532      2.00000
     11       4.5792      2.00000
     12       4.6300      2.00000
     13       5.2866      2.00000
     14       5.2866      2.00000
     15       5.2923      2.00000
     16       5.3466      2.00000
     17       5.4330      2.00000
     18       5.4330      2.00000
     19       5.5633      2.00000
     20       5.5633      2.00000
     21       5.5810      2.00000
     22       9.6649     -0.00000
     23       9.6649     -0.00000
     24      10.4503     -0.00000
     25      15.1211      0.00000
     26      15.8094      0.00000
     27      15.8094      0.00000
     28      17.8445      0.00000
     29      18.9087      0.00000
     30      18.9087      0.00000
     31      18.9138      0.00000
     32      18.9138      0.00000
     33      19.3332      0.00000
     34      24.4365      0.00000
     35      25.4942      0.00000
     36      25.8108      0.00000
     37      25.8108      0.00000
     38      26.0730      0.00000
     39      26.0730      0.00000
     40      26.7511      0.00000
     41      26.9849      0.00000
     42      27.5959      0.00000
     43      28.2814      0.00000
     44      32.6036      0.00000
     45      33.8307      0.00000
     46      33.8484      0.00000
     47      34.5355      0.00000
     48      36.7568      0.00000

 k-point     8 :       0.1818    0.0909    0.0000
  band No.  band energies     occupation 
      1       1.0631      2.00000
      2       2.1501      2.00000
      3       2.1583      2.00000
      4       2.1808      2.00000
      5       2.2497      2.00000
      6       2.2938      2.00000
      7       2.3343      2.00000
      8       3.4611      2.00000
      9       3.7186      2.00000
     10       3.7371      2.00000
     11       4.4988      2.00000
     12       4.6709      2.00000
     13       4.9474      2.00000
     14       4.9895      2.00000
     15       5.1387      2.00000
     16       5.1680      2.00000
     17       5.2416      2.00000
     18       5.3711      2.00000
     19       5.4050      2.00000
     20       5.5616      2.00000
     21       5.5631      2.00000
     22       8.4947      0.67738
     23      10.2418     -0.00000
     24      11.0405     -0.00000
     25      15.1414      0.00000
     26      15.8685      0.00000
     27      16.8289      0.00000
     28      17.3728      0.00000
     29      18.1974      0.00000
     30      18.2773      0.00000
     31      19.3199      0.00000
     32      19.3286      0.00000
     33      19.3480      0.00000
     34      24.4080      0.00000
     35      25.7509      0.00000
     36      25.7806      0.00000
     37      25.8242      0.00000
     38      26.0716      0.00000
     39      26.5858      0.00000
     40      27.1314      0.00000
     41      27.3194      0.00000
     42      28.2016      0.00000
     43      28.3677      0.00000
     44      32.1085      0.00000
     45      33.6113      0.00000
     46      34.2774      0.00000
     47      34.9501      0.00000
     48      35.8983      0.00000

 k-point     9 :       0.2727    0.0909    0.0000
  band No.  band energies     occupation 
      1       1.4555      2.00000
      2       2.2989      2.00000
      3       2.3319      2.00000
      4       2.3732      2.00000
      5       2.3757      2.00000
      6       2.4947      2.00000
      7       2.5482      2.00000
      8       3.3163      2.00000
      9       3.8632      2.00000
     10       3.8681      2.00000
     11       4.3924      2.00000
     12       4.4615      2.00000
     13       4.5126      2.00000
     14       4.7497      2.00000
     15       4.9066      2.00000
     16       4.9830      2.00000
     17       5.0379      2.00000
     18       5.1707      2.00000
     19       5.2806      2.00000
     20       5.5580      2.00000
     21       5.5623      2.00000
     22       7.2438      2.00000
     23      11.0202     -0.00000
     24      11.8722      0.00000
     25      15.1197      0.00000
     26      15.9048      0.00000
     27      15.9607      0.00000
     28      17.2334      0.00000
     29      17.6199      0.00000
     30      18.8394      0.00000
     31      19.2717      0.00000
     32      19.9944      0.00000
     33      20.0318      0.00000
     34      24.2626      0.00000
     35      24.7616      0.00000
     36      25.7357      0.00000
     37      26.1329      0.00000
     38      26.4725      0.00000
     39      26.7879      0.00000
     40      27.4212      0.00000
     41      27.6684      0.00000
     42      28.9687      0.00000
     43      30.0036      0.00000
     44      31.6316      0.00000
     45      33.4197      0.00000
     46      33.7032      0.00000
     47      35.0039      0.00000
     48      35.1312      0.00000

 k-point    10 :       0.3636    0.0909    0.0000
  band No.  band energies     occupation 
      1       1.9345      2.00000
      2       2.4542      2.00000
      3       2.5355      2.00000
      4       2.5449      2.00000
      5       2.5870      2.00000
      6       2.7732      2.00000
      7       2.8132      2.00000
      8       3.1332      2.00000
      9       3.9649      2.00000
     10       3.9761      2.00000
     11       4.0141      2.00000
     12       4.0722      2.00000
     13       4.3835      2.00000
     14       4.6140      2.00000
     15       4.7816      2.00000
     16       4.8196      2.00000
     17       4.8562      2.00000
     18       4.8924      2.00000
     19       5.1625      2.00000
     20       5.5578      2.00000
     21       5.5614      2.00000
     22       6.1240      2.00000
     23      11.8974      0.00000
     24      12.8512      0.00000
     25      14.6145      0.00000
     26      15.5620      0.00000
     27      16.0235      0.00000
     28      16.1532      0.00000
     29      17.1804      0.00000
     30      18.1902      0.00000
     31      20.8044      0.00000
     32      20.9128      0.00000
     33      21.3390      0.00000
     34      23.7845      0.00000
     35      23.8031      0.00000
     36      25.6864      0.00000
     37      25.9238      0.00000
     38      26.3171      0.00000
     39      26.3573      0.00000
     40      28.0965      0.00000
     41      28.9531      0.00000
     42      29.8858      0.00000
     43      30.6363      0.00000
     44      31.7935      0.00000
     45      33.5913      0.00000
     46      33.6196      0.00000
     47      33.6521      0.00000
     48      34.1900      0.00000

 k-point    11 :       0.4545    0.0909    0.0000
  band No.  band energies     occupation 
      1       2.3585      2.00000
      2       2.5260      2.00000
      3       2.7176      2.00000
      4       2.7258      2.00000
      5       2.7329      2.00000
      6       2.9304      2.00000
      7       3.1251      2.00000
      8       3.1254      2.00000
      9       3.5100      2.00000
     10       3.5432      2.00000
     11       4.0618      2.00000
     12       4.2949      2.00000
     13       4.3208      2.00000
     14       4.6006      2.00000
     15       4.6215      2.00000
     16       4.6443      2.00000
     17       4.6586      2.00000
     18       4.9851      2.00000
     19       4.9941      2.00000
     20       5.3041      2.00000
     21       5.5588      2.00000
     22       5.5601      2.00000
     23      12.8131      0.00000
     24      13.7325      0.00000
     25      13.9184      0.00000
     26      15.0321      0.00000
     27      15.6928      0.00000
     28      15.9090      0.00000
     29      17.1877      0.00000
     30      17.5886      0.00000
     31      21.7794      0.00000
     32      21.9211      0.00000
     33      22.7889      0.00000
     34      22.9495      0.00000
     35      23.3138      0.00000
     36      25.0039      0.00000
     37      25.6543      0.00000
     38      25.6917      0.00000
     39      26.9201      0.00000
     40      28.0884      0.00000
     41      29.5499      0.00000
     42      30.3921      0.00000
     43      30.8789      0.00000
     44      31.9589      0.00000
     45      33.4305      0.00000
     46      33.5094      0.00000
     47      34.4238      0.00000
     48      35.0242      0.00000

 k-point    12 :       0.1818    0.1818    0.0000
  band No.  band energies     occupation 
      1       1.2988      2.00000
      2       2.2269      2.00000
      3       2.2858      2.00000
      4       2.2858      2.00000
      5       2.3650      2.00000
      6       2.3650      2.00000
      7       2.4961      2.00000
      8       3.4268      2.00000
      9       3.7595      2.00000
     10       3.7926      2.00000
     11       4.4680      2.00000
     12       4.7001      2.00000
     13       4.7350      2.00000
     14       4.7350      2.00000
     15       4.7641      2.00000
     16       5.0606      2.00000
     17       5.2501      2.00000
     18       5.2501      2.00000
     19       5.4032      2.00000
     20       5.4032      2.00000
     21       5.4679      2.00000
     22       9.0420     -0.00000
     23       9.0420     -0.00000
     24      11.5757      0.00000
     25      15.0416      0.00000
     26      15.7371      0.00000
     27      17.4187      0.00000
     28      17.4187      0.00000
     29      18.6016      0.00000
     30      18.6016      0.00000
     31      18.6734      0.00000
     32      18.6734      0.00000
     33      20.1862      0.00000
     34      24.0617      0.00000
     35      24.5953      0.00000
     36      25.3305      0.00000
     37      26.5969      0.00000
     38      26.5969      0.00000
     39      27.1418      0.00000
     40      27.3429      0.00000
     41      27.3429      0.00000
     42      29.1940      0.00000
     43      29.8900      0.00000
     44      30.6807      0.00000
     45      33.7552      0.00000
     46      34.2740      0.00000
     47      34.5802      0.00000
     48      36.3882      0.00000

 k-point    13 :       0.2727    0.1818    0.0000
  band No.  band energies     occupation 
      1       1.6672      2.00000
      2       2.3642      2.00000
      3       2.4414      2.00000
      4       2.4789      2.00000
      5       2.4869      2.00000
      6       2.5557      2.00000
      7       2.7170      2.00000
      8       3.3218      2.00000
      9       3.8616      2.00000
     10       3.8823      2.00000
     11       4.2620      2.00000
     12       4.3922      2.00000
     13       4.3982      2.00000
     14       4.4710      2.00000
     15       4.8153      2.00000
     16       4.8988      2.00000
     17       5.0610      2.00000
     18       5.1673      2.00000
     19       5.1946      2.00000
     20       5.4004      2.00000
     21       5.4178      2.00000
     22       7.7935      2.00000
     23       9.7564     -0.00000
     24      12.3533      0.00000
     25      14.2520      0.00000
     26      15.4805      0.00000
     27      17.2873      0.00000
     28      17.6181      0.00000
     29      18.2290      0.00000
     30      18.9411      0.00000
     31      19.2322      0.00000
     32      19.6102      0.00000
     33      20.3461      0.00000
     34      23.5038      0.00000
     35      23.5192      0.00000
     36      25.7128      0.00000
     37      26.6211      0.00000
     38      27.0907      0.00000
     39      27.4515      0.00000
     40      27.7175      0.00000
     41      28.5890      0.00000
     42      28.9199      0.00000
     43      30.7230      0.00000
     44      31.5720      0.00000
     45      33.0673      0.00000
     46      33.7557      0.00000
     47      34.8182      0.00000
     48      34.9640      0.00000

 k-point    14 :       0.3636    0.1818    0.0000
  band No.  band energies     occupation 
      1       2.1147      2.00000
      2       2.5626      2.00000
      3       2.6072      2.00000
      4       2.6279      2.00000
      5       2.7058      2.00000
      6       2.8188      2.00000
      7       2.9556      2.00000
      8       3.1665      2.00000
      9       3.8063      2.00000
     10       3.8687      2.00000
     11       3.9613      2.00000
     12       4.0748      2.00000
     13       4.1817      2.00000
     14       4.4312      2.00000
     15       4.7228      2.00000
     16       4.8412      2.00000
     17       4.8879      2.00000
     18       5.0038      2.00000
     19       5.0739      2.00000
     20       5.3972      2.00000
     21       5.3990      2.00000
     22       6.6884      2.00000
     23      10.5528     -0.00000
     24      13.2426      0.00000
     25      13.2894      0.00000
     26      15.6202      0.00000
     27      16.5331      0.00000
     28      16.7944      0.00000
     29      18.3560      0.00000
     30      19.8080      0.00000
     31      19.9265      0.00000
     32      20.0344      0.00000
     33      21.4800      0.00000
     34      22.5160      0.00000
     35      22.7583      0.00000
     36      26.6660      0.00000
     37      26.8427      0.00000
     38      26.9770      0.00000
     39      27.0737      0.00000
     40      27.7400      0.00000
     41      29.0330      0.00000
     42      30.1230      0.00000
     43      30.6384      0.00000
     44      32.3121      0.00000
     45      33.3612      0.00000
     46      33.7769      0.00000
     47      33.8054      0.00000
     48      34.1069      0.00000

 k-point    15 :       0.4545    0.1818    0.0000
  band No.  band energies     occupation 
      1       2.5191      2.00000
      2       2.6877      2.00000
      3       2.7762      2.00000
      4       2.8015      2.00000
      5       2.8471      2.00000
      6       2.9865      2.00000
      7       3.1486      2.00000
      8       3.1695      2.00000
      9       3.4248      2.00000
     10       3.5355      2.00000
     11       3.8270      2.00000
     12       3.9248      2.00000
     13       4.3185      2.00000
     14       4.5962      2.00000
     15       4.6139      2.00000
     16       4.6352      2.00000
     17       4.6604      2.00000
     18       4.8841      2.00000
     19       5.3037      2.00000
     20       5.3939      2.00000
     21       5.3945      2.00000
     22       5.8378      2.00000
     23      11.3986      0.00000
     24      12.2910      0.00000
     25      14.3259      0.00000
[...]
  band No.  band energies     occupation 
      1       2.2200      2.00000
      2       2.3088      2.00000
      3       2.4142      2.00000
      4       2.4281      2.00000
      5       3.3232      2.00000
      6       3.3402      2.00000
      7       3.4933      2.00000
      8       3.6100      2.00000
      9       3.7534      2.00000
     10       3.8414      2.00000
     11       3.9240      2.00000
     12       3.9343      2.00000
     13       4.3898      2.00000
     14       4.3964      2.00000
     15       4.4123      2.00000
     16       4.5899      2.00000
     17       5.1553      2.00000
     18       5.3244      2.00000
     19       5.3278      2.00000
     20       5.3368      2.00000
     21       6.3002      2.00000
     22       7.3103      2.00000
     23       9.0867     -0.00000
     24       9.6725     -0.00000
     25      12.2434      0.00000
     26      12.8061      0.00000
     27      14.4544      0.00000
     28      15.3579      0.00000
     29      21.4890      0.00000
     30      22.1248      0.00000
     31      22.9486      0.00000
     32      23.2644      0.00000
     33      23.5294      0.00000
     34      23.7675      0.00000
     35      24.2594      0.00000
     36      25.4076      0.00000
     37      25.6340      0.00000
     38      26.0637      0.00000
     39      26.1590      0.00000
     40      27.1847      0.00000
     41      31.4082      0.00000
     42      31.6498      0.00000
     43      31.6729      0.00000
     44      31.9482      0.00000
     45      32.1129      0.00000
     46      32.8546      0.00000
     47      33.7128      0.00000
     48      33.9399      0.00000

 k-point    52 :       0.4545    0.4545    0.2727
  band No.  band energies     occupation 
      1       2.2281      2.00000
      2       2.2953      2.00000
      3       2.2953      2.00000
      4       2.3353      2.00000
      5       3.4137      2.00000
      6       3.4669      2.00000
      7       3.4669      2.00000
      8       3.5649      2.00000
      9       3.7293      2.00000
     10       3.7943      2.00000
     11       3.7943      2.00000
     12       3.8227      2.00000
     13       4.6231      2.00000
     14       4.6335      2.00000
     15       4.6335      2.00000
     16       4.7931      2.00000
     17       5.0945      2.00000
     18       5.2373      2.00000
     19       5.2373      2.00000
     20       5.2512      2.00000
     21       7.0355      2.00000
     22       7.9816      2.00000
     23       7.9816      2.00000
     24       8.8033     -0.00004
     25      12.7396      0.00000
     26      13.5062      0.00000
     27      13.5062      0.00000
     28      14.3632      0.00000
     29      21.9999      0.00000
     30      22.6223      0.00000
     31      22.6223      0.00000
     32      23.1855      0.00000
     33      24.4746      0.00000
     34      24.4746      0.00000
     35      24.7557      0.00000
     36      25.1918      0.00000
     37      25.4079      0.00000
     38      26.2588      0.00000
     39      26.2588      0.00000
     40      26.9560      0.00000
     41      31.4972      0.00000
     42      31.5519      0.00000
     43      31.5665      0.00000
     44      31.5665      0.00000
     45      32.2930      0.00000
     46      32.4567      0.00000
     47      32.6290      0.00000
     48      32.6290      0.00000

 k-point    53 :       0.3636    0.3636    0.3636
  band No.  band energies     occupation 
      1       2.1059      2.00000
      2       2.3082      2.00000
      3       2.3082      2.00000
      4       2.3082      2.00000
      5       3.4001      2.00000
      6       3.4001      2.00000
      7       3.4001      2.00000
      8       3.6661      2.00000
      9       3.6661      2.00000
     10       3.8503      2.00000
     11       3.8503      2.00000
     12       3.8503      2.00000
     13       4.5091      2.00000
     14       4.5091      2.00000
     15       4.5091      2.00000
     16       5.1491      2.00000
     17       5.1491      2.00000
     18       5.4314      2.00000
     19       5.4314      2.00000
     20       5.4314      2.00000
     21       5.6835      2.00000
     22       8.7729     -0.00021
     23       8.7729     -0.00021
     24       8.7729     -0.00021
     25      12.7053      0.00000
     26      12.7053      0.00000
     27      12.7053      0.00000
     28      15.2451      0.00000
     29      22.6380      0.00000
     30      22.6380      0.00000
     31      22.6380      0.00000
     32      24.1443      0.00000
     33      24.3944      0.00000
     34      24.3944      0.00000
     35      24.3944      0.00000
     36      24.8017      0.00000
     37      24.8017      0.00000
     38      24.8017      0.00000
     39      26.9814      0.00000
     40      26.9814      0.00000
     41      31.1930      0.00000
     42      31.1930      0.00000
     43      32.7632      0.00000
     44      32.7632      0.00000
     45      32.7635      0.00000
     46      32.8411      0.00000
     47      32.8411      0.00000
     48      32.8420      0.00000

 k-point    54 :       0.4545    0.3636    0.3636
  band No.  band energies     occupation 
      1       2.1120      2.00000
      2       2.1835      2.00000
      3       2.2508      2.00000
      4       2.2508      2.00000
      5       3.4221      2.00000
      6       3.4221      2.00000
      7       3.5117      2.00000
      8       3.6041      2.00000
      9       3.6682      2.00000
     10       3.7311      2.00000
     11       3.7780      2.00000
     12       3.7780      2.00000
     13       4.7284      2.00000
     14       4.7284      2.00000
     15       4.7601      2.00000
     16       4.9987      2.00000
     17       5.3101      2.00000
     18       5.3925      2.00000
     19       5.3925      2.00000
     20       5.4075      2.00000
     21       6.5421      2.00000
     22       7.6005      2.00000
     23       8.9972     -0.00000
     24       8.9972     -0.00000
     25      12.1305      0.00000
     26      12.1305      0.00000
     27      13.3945      0.00000
     28      14.2487      0.00000
     29      22.9427      0.00000
     30      22.9427      0.00000
     31      23.5981      0.00000
     32      23.9163      0.00000
     33      24.0036      0.00000
     34      24.0036      0.00000
     35      25.1051      0.00000
     36      25.5849      0.00000
     37      25.6345      0.00000
     38      25.6345      0.00000
     39      25.9759      0.00000
     40      26.7578      0.00000
     41      31.2476      0.00000
     42      31.6211      0.00000
     43      31.8432      0.00000
     44      31.8432      0.00000
     45      32.0740      0.00000
     46      32.1578      0.00000
     47      32.9625      0.00000
     48      32.9625      0.00000

 k-point    55 :       0.4545    0.4545    0.3636
  band No.  band energies     occupation 
      1       2.0840      2.00000
      2       2.1324      2.00000
      3       2.1324      2.00000
      4       2.1554      2.00000
      5       3.4882      2.00000
      6       3.5168      2.00000
      7       3.5168      2.00000
      8       3.5874      2.00000
      9       3.6261      2.00000
     10       3.6714      2.00000
     11       3.6714      2.00000
     12       3.6856      2.00000
     13       4.9886      2.00000
     14       5.0136      2.00000
     15       5.0136      2.00000
     16       5.2163      2.00000
     17       5.2694      2.00000
     18       5.3694      2.00000
     19       5.3732      2.00000
     20       5.3732      2.00000
     21       7.1788      2.00000
     22       8.0630      2.00000
     23       8.0630      2.00000
     24       8.6035     -0.06995
     25      12.0914      0.00000
     26      12.5751      0.00000
     27      12.5751      0.00000
     28      13.3112      0.00000
     29      23.2399      0.00000
     30      23.4873      0.00000
     31      23.4873      0.00000
     32      23.7243      0.00000
     33      24.9721      0.00000
     34      25.0386      0.00000
     35      25.0386      0.00000
     36      25.6491      0.00000
     37      25.7398      0.00000
     38      26.0236      0.00000
     39      26.0236      0.00000
     40      26.6725      0.00000
     41      31.2185      0.00000
     42      31.5110      0.00000
     43      31.5459      0.00000
     44      31.5459      0.00000
     45      31.8688      0.00000
     46      32.0398      0.00000
     47      32.0640      0.00000
     48      32.0640      0.00000

 k-point    56 :       0.4545    0.4545    0.4545
  band No.  band energies     occupation 
      1       2.0246      2.00000
      2       2.0495      2.00000
      3       2.0495      2.00000
      4       2.0495      2.00000
      5       3.5489      2.00000
      6       3.5489      2.00000
      7       3.5489      2.00000
      8       3.5833      2.00000
      9       3.5833      2.00000
     10       3.6037      2.00000
     11       3.6037      2.00000
     12       3.6037      2.00000
     13       5.2688      2.00000
     14       5.2688      2.00000
     15       5.2688      2.00000
     16       5.3804      2.00000
     17       5.3804      2.00000
     18       5.4149      2.00000
     19       5.4149      2.00000
     20       5.4149      2.00000
     21       7.5659      2.00000
     22       8.1285      2.00001
     23       8.1285      2.00001
     24       8.1285      2.00001
     25      12.0504      0.00000
     26      12.0504      0.00000
     27      12.0504      0.00000
     28      12.5101      0.00000
     29      23.6066      0.00000
     30      23.6066      0.00000
     31      23.6066      0.00000
     32      23.6982      0.00000
     33      25.8716      0.00000
     34      25.8716      0.00000
     35      25.8716      0.00000
     36      25.9614      0.00000
     37      25.9614      0.00000
     38      25.9614      0.00000
     39      26.3199      0.00000
     40      26.3199      0.00000
     41      31.1962      0.00000
     42      31.1962      0.00000
     43      31.4320      0.00000
     44      31.4320      0.00000
     45      31.4320      0.00000
     46      31.4816      0.00000
     47      31.4816      0.00000
     48      31.4816      0.00000


--------------------------------------------------------------------------------------------------------


 soft charge-density along one line, spin component           1
         0         1         2         3         4         5         6         7         8         9
 total charge-density along one line
 
 pseudopotential strength for first ion, spin component:           1
 -4.097  -0.000   0.000  -0.000   0.000  -4.326  -0.000   0.000
 -0.000  -4.097  -0.000  -0.000   0.000  -0.000  -4.326  -0.000
  0.000  -0.000  -4.086  -0.000   0.000   0.000  -0.000  -4.316
 -0.000  -0.000  -0.000  -4.097  -0.000  -0.000  -0.000  -0.000
  0.000   0.000  -0.000  -0.000  -4.086   0.000   0.000  -0.000
 -4.326  -0.000   0.000  -0.000   0.000  -4.522  -0.000   0.000
 -0.000  -4.326  -0.000  -0.000   0.000  -0.000  -4.522  -0.000
  0.000  -0.000  -4.316  -0.000  -0.000   0.000  -0.000  -4.512
 -0.000  -0.000  -0.000  -4.326  -0.000  -0.000  -0.000  -0.000
  0.000   0.000  -0.000  -0.000  -4.316   0.000   0.000   0.000
  0.000   0.000   0.000   0.000   0.000   0.000   0.000   0.000
  0.000   0.000  -0.000   0.000  -0.000   0.000   0.000   0.000
 -0.000   0.000   0.000  -0.000   0.000   0.000   0.000   0.000
 -0.000  -0.000   0.000   0.000   0.000  -0.000  -0.000   0.000
 -0.000  -0.000   0.000   0.000  -0.000  -0.000  -0.000   0.000
  0.000   0.000   0.000  -0.000   0.000   0.000   0.000   0.000
 -0.000  -0.000   0.000   0.000   0.000  -0.000  -0.000   0.000
 -0.000  -0.000  -0.000   0.000   0.000  -0.000  -0.000   0.000
 total augmentation occupancy for first ion, spin component:           1
  3.481   0.000   0.000  -0.000   0.000  -1.515   0.000   0.000   0.000   0.000  -0.000  -0.000   0.000  -0.000   0.000   0.000
  0.000   3.481   0.000  -0.000   0.000  -0.000  -1.515  -0.000   0.000   0.000  -0.000   0.000  -0.000   0.000  -0.000   0.000
  0.000  -0.000   3.483   0.000  -0.000  -0.000  -0.000  -1.380  -0.000  -0.000  -0.000  -0.000   0.000  -0.000   0.000  -0.000
  0.000  -0.000   0.000   3.481  -0.000   0.000  -0.000   0.000  -1.515   0.000   0.000   0.000   0.000   0.000  -0.000   0.000
  0.000   0.000   0.000  -0.000   3.483  -0.000  -0.000  -0.000   0.000  -1.380   0.000  -0.000  -0.000   0.000   0.000  -0.000
 -1.515   0.000  -0.000  -0.000   0.000   1.492   0.000   0.000   0.000   0.000  -0.000   0.000  -0.000   0.000  -0.000   0.000
 -0.000  -1.515  -0.000  -0.000   0.000  -0.000   1.492   0.000  -0.000   0.000   0.000   0.000   0.000   0.000   0.000   0.000
  0.000  -0.000  -1.380   0.000  -0.000   0.000   0.000   1.243   0.000   0.000   0.000   0.000   0.000   0.000   0.000   0.000
  0.000  -0.000  -0.000  -1.515   0.000  -0.000   0.000   0.000   1.492   0.000  -0.000   0.000  -0.000   0.000   0.000   0.000
 -0.000   0.000  -0.000  -0.000  -1.380  -0.000  -0.000  -0.000   0.000   1.243   0.000  -0.000   0.000   0.000  -0.000   0.000
 -0.000  -0.000  -0.000   0.000   0.000   0.000   0.000  -0.000   0.000   0.000   2.182  -0.408   0.000   0.000   0.000   0.000
  0.000   0.000  -0.000   0.000  -0.000   0.000   0.000   0.000   0.000  -0.000  -0.408   0.095   0.000   0.000  -0.000   0.000
  0.000  -0.000  -0.000   0.000   0.000   0.000  -0.000   0.000  -0.000   0.000   0.000   0.000   0.173   0.000  -0.000  -0.010
 -0.000  -0.000   0.000  -0.000   0.000  -0.000  -0.000  -0.000   0.000   0.000   0.000   0.000   0.000   0.173   0.000   0.000
 -0.000  -0.000   0.000   0.000   0.000   0.000   0.000  -0.000   0.000   0.000   0.000   0.000  -0.000  -0.000   0.173   0.000
  0.000   0.000   0.000   0.000  -0.000   0.000  -0.000   0.000   0.000  -0.000   0.000   0.000  -0.010   0.000   0.000   0.001
  0.000  -0.000   0.000   0.000   0.000   0.000   0.000   0.000  -0.000  -0.000   0.000   0.000   0.000  -0.010   0.000   0.000
  0.000   0.000   0.000  -0.000   0.000  -0.000  -0.000   0.000  -0.000   0.000   0.000   0.000   0.000  -0.000  -0.010  -0.000


------------------------ aborting loop because EDIFF is reached ----------------------------------------


    CHARGE:  cpu time    0.0116: real time    0.0117
    FORLOC:  cpu time    0.0001: real time    0.0001
    FORNL :  cpu time    0.1285: real time    0.1286
    STRESS:  cpu time    0.4184: real time    0.4189
    FORCOR:  cpu time    0.0040: real time    0.0041
    FORHAR:  cpu time    0.0008: real time    0.0008
    MIXING:  cpu time    0.0003: real time    0.0003
    OFIELD:  cpu time    0.0001: real time    0.0000

  FORCE on cell =-STRESS in cart. coord.  units (eV):
  Direction    XX          YY          ZZ          XY          YZ          ZX
  --------------------------------------------------------------------------------------
  Alpha Z   198.91349   198.91349   198.91349
  Ewald   -1302.12701 -1302.12701 -1302.12701    -0.00000    -0.00000     0.00000
  Hartree   253.75068   253.75068   253.75068    -0.00000    -0.00000    -0.00000
  E(xc)    -232.75807  -232.75807  -232.75807    -0.00000     0.00000     0.00000
  Local     200.39819   200.39819   200.39819    -0.00000     0.00000    -0.00000
  n-local   -20.26418   -34.67578   -37.89624     0.42459     4.19549     1.47369
  augment   368.29883   368.29883   368.29883    -0.00000    -0.00000    -0.00000
  Kinetic   553.58841   545.05540   539.65543    -3.88196     0.22973    -1.29687
  Fock        0.00000     0.00000     0.00000     0.00000     0.00000     0.00000
  -------------------------------------------------------------------------------------
  Total       1.63046     1.63046     1.63046    -0.00000    -0.00000     0.00000
  in kB      38.18133    38.18133    38.18133    -0.00000    -0.00000     0.00000
  external pressure =       38.18 kB  Pullay stress =        0.00 kB


 VOLUME and BASIS-vectors are now :
 -----------------------------------------------------------------------------
  energy-cutoff  :      400.00
  volume of cell :       68.42
      direct lattice vectors                 reciprocal lattice vectors
     4.090000000  0.000000000  0.000000000     0.244498778  0.000000000  0.000000000
     0.000000000  4.090000000  0.000000000     0.000000000  0.244498778  0.000000000
     0.000000000  0.000000000  4.090000000     0.000000000  0.000000000  0.244498778

  length of vectors
     4.090000000  4.090000000  4.090000000     0.244498778  0.244498778  0.244498778


 FORCES acting on ions
    electron-ion (+dipol)            ewald-force                    non-local-force                 convergence-correction
 -----------------------------------------------------------------------------------------------
   0.323E-13 0.524E-13 0.827E-14   -.106E-13 0.211E-15 -.166E-14   -.331E-23 0.414E-23 -.165E-23   0.140E-13 -.112E-13 0.812E-14
   0.328E-13 -.664E-13 -.122E-12   -.884E-14 0.157E-14 0.360E-14   -.165E-23 -.331E-23 0.165E-23   0.749E-14 0.413E-13 0.453E-14
   -.838E-13 0.493E-13 0.850E-12   0.897E-14 -.192E-14 0.347E-14   0.207E-23 0.165E-23 0.165E-23   -.395E-13 -.140E-13 -.464E-13
   -.832E-13 -.903E-14 -.647E-12   0.107E-13 -.558E-15 -.886E-14   0.827E-24 0.248E-23 -.145E-23   -.419E-13 0.298E-13 0.479E-13
 -----------------------------------------------------------------------------------------------
   -.102E-12 0.263E-13 0.894E-13   0.273E-15 -.694E-15 -.345E-14   -.207E-23 0.496E-23 0.207E-24   -.599E-13 0.459E-13 0.142E-13
 
 
 POSITION                                       TOTAL-FORCE (eV/Angst)
 -----------------------------------------------------------------------------------
      0.00000      0.00000      0.00000         0.000000     -0.000000     -0.000000
      0.00000      2.04500      2.04500         0.000000      0.000000      0.000000
      2.04500      0.00000      2.04500        -0.000000      0.000000      0.000000
      2.04500      2.04500      0.00000        -0.000000      0.000000     -0.000000
 -----------------------------------------------------------------------------------
    total drift:                               -0.000000      0.000000      0.000000


--------------------------------------------------------------------------------------------------------



  FREE ENERGIE OF THE ION-ELECTRON SYSTEM (eV)
  ---------------------------------------------------
  free  energy   TOTEN  =       -10.84224094 eV

  energy  without entropy=      -10.84130224  energy(sigma->0) =      -10.84192804
 


--------------------------------------------------------------------------------------------------------


    POTLOK:  cpu time    0.0056: real time    0.0056


--------------------------------------------------------------------------------------------------------


     LOOP+:  cpu time    9.7841: real time    9.8189
    4ORBIT:  cpu time    0.0000: real time    0.0000

 total amount of memory used by VASP on root node    43440. kBytes
========================================================================

   base      :      30000. kBytes
   nonl-proj :      10338. kBytes
   fftplans  :        147. kBytes
   grid      :        485. kBytes
   one-center:         62. kBytes
   wavefun   :       2408. kBytes
 
  
  
 General timing and accounting informations for this job:
 ========================================================
  
                  Total CPU time used (sec):       29.245
                            User time (sec):       29.100
                          System time (sec):        0.145
                         Elapsed time (sec):       30.028
  
                   Maximum memory used (kb):       73848.
                   Average memory used (kb):           0.
  
                          Minor page faults:        17060
                          Major page faults:            8
                 Voluntary context switches:         1512
