<?xml version="1.0" encoding="ISO-8859-1"?>
<modeling>
 <generator>
  <i name="program" type="string">vasp </i>
  <i name="version" type="string">5.4.1  </i>
  <i name="subversion" type="string">05Feb16 (build Feb 08 2018 09:21:51) complex                          parallel </i>
  <i name="platform" type="string">LinuxIFC </i>
  <i name="date" type="string">2019 11 21 </i>
  <i name="time" type="string">13:19:09 </i>
 </generator>
 <incar>
  <i type="string" name="PREC">normal</i>
  <i name="ENCUT">    400.00000000</i>
  <i type="int" name="ISMEAR">     1</i>
  <i name="SIGMA">      0.10000000</i>
  <i type="logical" name="LWAVE"> F  </i>
  <i type="logical" name="LCHARG"> F  </i>
  <v type="int" name="KPOINT_BSE">    -1     0     0     0</v>
 </incar>
 <kpoints>
  <generation param="Monkhorst-Pack">
   <v type="int" name="divisions">      11       11       11 </v>
   <v name="usershift">      0.00000000       0.00000000       0.00000000 </v>
   <v name="genvec1">      0.09090909       0.00000000       0.00000000 </v>
   <v name="genvec2">      0.00000000       0.09090909       0.00000000 </v>
   <v name="genvec3">      0.00000000       0.00000000       0.09090909 </v>
   <v name="shift">      0.00000000       0.00000000       0.00000000 </v>
  </generation>
  <varray name="kpointlist" >
   <v>       0.00000000       0.00000000       0.00000000 </v>
   <v>       0.09090909       0.00000000       0.00000000 </v>
   <v>       0.18181818       0.00000000       0.00000000 </v>
   <v>       0.27272727       0.00000000       0.00000000 </v>
   <v>       0.36363636       0.00000000       0.00000000 </v>
   <v>       0.45454545       0.00000000       0.00000000 </v>
   <v>       0.09090909       0.09090909       0.00000000 </v>
   <v>       0.18181818       0.09090909       0.00000000 </v>
   <v>       0.27272727       0.09090909       0.00000000 </v>
   <v>       0.36363636       0.09090909       0.00000000 </v>
   <v>       0.45454545       0.09090909       0.00000000 </v>
   <v>       0.18181818       0.18181818       0.00000000 </v>
   <v>       0.27272727       0.18181818       0.00000000 </v>
   <v>       0.36363636       0.18181818       0.00000000 </v>
   <v>       0.45454545       0.18181818       0.00000000 </v>
   <v>       0.27272727       0.27272727       0.00000000 </v>
   <v>       0.36363636       0.27272727       0.00000000 </v>
   <v>       0.45454545       0.27272727       0.00000000 </v>
   <v>       0.36363636       0.36363636       0.00000000 </v>
   <v>       0.45454545       0.36363636       0.00000000 </v>
   <v>       0.45454545       0.45454545       0.00000000 </v>
   <v>       0.09090909       0.09090909       0.09090909 </v>
   <v>       0.18181818       0.09090909       0.09090909 </v>
   <v>       0.27272727       0.09090909       0.09090909 </v>
   <v>       0.36363636       0.09090909       0.09090909 </v>
   <v>       0.45454545       0.09090909       0.09090909 </v>
   <v>       0.18181818       0.18181818       0.09090909 </v>
   <v>       0.27272727       0.18181818       0.09090909 </v>
   <v>       0.36363636       0.18181818       0.09090909 </v>
   <v>       0.45454545       0.18181818       0.09090909 </v>
   <v>       0.27272727       0.27272727       0.09090909 </v>
   <v>       0.36363636       0.27272727       0.09090909 </v>
   <v>       0.45454545       0.27272727       0.09090909 </v>
   <v>       0.36363636       0.36363636       0.09090909 </v>
   <v>       0.45454545       0.36363636       0.09090909 </v>
   <v>       0.45454545       0.45454545       0.09090909 </v>
   <v>       0.18181818       0.18181818       0.18181818 </v>
   <v>       0.27272727       0.18181818       0.18181818 </v>
   <v>       0.36363636       0.18181818       0.18181818 </v>
   <v>       0.45454545       0.18181818       0.18181818 </v>
   <v>       0.27272727       0.27272727       0.18181818 </v>
   <v>       0.36363636       0.27272727       0.18181818 </v>
   <v>       0.45454545       0.27272727       0.18181818 </v>
   <v>       0.36363636       0.36363636       0.18181818 </v>
   <v>       0.45454545       0.36363636       0.18181818 </v>
   <v>       0.45454545       0.45454545       0.18181818 </v>
   <v>       0.27272727       0.27272727       0.27272727 </v>
   <v>       0.36363636       0.27272727       0.27272727 </v>
   <v>       0.45454545       0.27272727       0.27272727 </v>
   <v>       0.36363636       0.36363636       0.27272727 </v>
   <v>       0.45454545       0.36363636       0.27272727 </v>
   <v>       0.45454545       0.45454545       0.27272727 </v>
   <v>       0.36363636       0.36363636       0.36363636 </v>
   <v>       0.45454545       0.36363636       0.36363636 </v>
   <v>       0.45454545       0.45454545       0.36363636 </v>
   <v>       0.45454545       0.45454545       0.45454545 </v>
  </varray>
  <varray name="weights" >
   <v>       0.00075131 </v>
   <v>       0.00450789 </v>
   <v>       0.00450789 </v>
   <v>       0.00450789 </v>
   <v>       0.00450789 </v>
   <v>       0.00450789 </v>
   <v>       0.00901578 </v>
   <v>       0.01803156 </v>
   <v>       0.01803156 </v>
   <v>       0.01803156 </v>
   <v>       0.01803156 </v>
   <v>       0.00901578 </v>
   <v>       0.01803156 </v>
   <v>       0.01803156 </v>
   <v>       0.01803156 </v>
   <v>       0.00901578 </v>
   <v>       0.01803156 </v>
   <v>       0.01803156 </v>
   <v>       0.00901578 </v>
   <v>       0.01803156 </v>
   <v>       0.00901578 </v>
   <v>       0.00601052 </v>
   <v>       0.01803156 </v>
   <v>       0.01803156 </v>
   <v>       0.01803156 </v>
   <v>       0.01803156 </v>
   <v>       0.01803156 </v>
   <v>       0.03606311 </v>
   <v>       0.03606311 </v>
   <v>       0.03606311 </v>
   <v>       0.01803156 </v>
   <v>       0.03606311 </v>
   <v>       0.03606311 </v>
   <v>       0.01803156 </v>
   <v>       0.03606311 </v>
   <v>       0.01803156 </v>
   <v>       0.00601052 </v>
   <v>       0.01803156 </v>
   <v>       0.01803156 </v>
   <v>       0.01803156 </v>
   <v>       0.01803156 </v>
   <v>       0.03606311 </v>
   <v>       0.03606311 </v>
   <v>       0.01803156 </v>
   <v>       0.03606311 </v>
   <v>       0.01803156 </v>
   <v>       0.00601052 </v>
   <v>       0.01803156 </v>
   <v>       0.01803156 </v>
   <v>       0.01803156 </v>
   <v>       0.03606311 </v>
   <v>       0.01803156 </v>
   <v>       0.00601052 </v>
   <v>       0.01803156 </v>
   <v>       0.01803156 </v>
   <v>       0.00601052 </v>
  </varray>
 </kpoints>
 <parameters>
  <separator name="general" >
   <i type="string" name="SYSTEM">unknown system</i>
   <i type="logical" name="LCOMPAT"> F  </i>
  </separator>
  <separator name="electronic" >
   <i type="string" name="PREC">normal</i>
   <i name="ENMAX">    400.00000000</i>
   <i name="ENAUG">    412.49600000</i>
   <i name="EDIFF">      0.00010000</i>
   <i type="int" name="IALGO">    38</i>
   <i type="int" name="IWAVPR">    10</i>
   <i type="int" name="NBANDS">    48</i>
   <i name="NELECT">     44.00000000</i>
   <i type="int" name="TURBO">     0</i>
   <i type="int" name="IRESTART">     0</i>
   <i type="int" name="NREBOOT">     0</i>
   <i type="int" name="NMIN">     0</i>
   <i name="EREF">      0.00000000</i>
   <separator name="electronic smearing" >
    <i type="int" name="ISMEAR">     1</i>
    <i name="SIGMA">      0.10000000</i>
    <i name="KSPACING">      0.50000000</i>
    <i type="logical" name="KGAMMA"> T  </i>
   </separator>
   <separator name="electronic projectors" >
    <i type="logical" name="LREAL"> F  </i>
    <v name="ROPT">      0.00000000</v>
    <i type="int" name="LMAXPAW">  -100</i>
    <i type="int" name="LMAXMIX">     2</i>
    <i type="logical" name="NLSPLINE"> F  </i>
   </separator>
   <separator name="electronic startup" >
    <i type="int" name="ISTART">     0</i>
    <i type="int" name="ICHARG">     2</i>
    <i type="int" name="INIWAV">     1</i>
   </separator>
   <separator name="electronic spin" >
    <i type="int" name="ISPIN">     1</i>
    <i type="logical" name="LNONCOLLINEAR"> F  </i>
    <v name="MAGMOM">      1.00000000      1.00000000      1.00000000      1.00000000</v>
    <i name="NUPDOWN">     -1.00000000</i>
    <i type="logical" name="LSORBIT"> F  </i>
    <v name="SAXIS">      0.00000000      0.00000000      1.00000000</v>
    <i type="logical" name="LSPIRAL"> F  </i>
    <v name="QSPIRAL">      0.00000000      0.00000000      0.00000000</v>
    <i type="logical" name="LZEROZ"> F  </i>
   </separator>
   <separator name="electronic exchange-correlation" >
    <i type="logical" name="LASPH"> F  </i>
    <i type="logical" name="LMETAGGA"> F  </i>
   </separator>
   <separator name="electronic convergence" >
    <i type="int" name="NELM">    60</i>
    <i type="int" name="NELMDL">    -5</i>
    <i type="int" name="NELMIN">     2</i>
    <i name="ENINI">    400.00000000</i>
    <separator name="electronic convergence detail" >
     <i type="logical" name="LDIAG"> T  </i>
     <i type="logical" name="LSUBROT"> F  </i>
     <i name="WEIMIN">      0.00000000</i>
     <i name="EBREAK">      0.00000052</i>
     <i name="DEPER">      0.30000000</i>
     <i type="int" name="NRMM">     4</i>
     <i name="TIME">      0.40000000</i>
    </separator>
   </separator>
   <separator name="electronic mixer" >
    <i name="AMIX">      0.40000000</i>
    <i name="BMIX">      1.00000000</i>
    <i name="AMIN">      0.10000000</i>
    <i name="AMIX_MAG">      1.60000000</i>
    <i name="BMIX_MAG">      1.00000000</i>
    <separator name="electronic mixer details" >
     <i type="int" name="IMIX">     4</i>
     <i type="logical" name="MIXFIRST"> F  </i>
     <i type="int" name="MAXMIX">   -45</i>
     <i name="WC">    100.00000000</i>
     <i type="int" name="INIMIX">     1</i>
     <i type="int" name="MIXPRE">     1</i>
     <i type="int" name="MREMOVE">     5</i>
    </separator>
   </separator>
   <separator name="electronic dipolcorrection" >
    <i type="logical" name="LDIPOL"> F  </i>
    <i type="logical" name="LMONO"> F  </i>
    <i type="int" name="IDIPOL">     0</i>
    <i name="EPSILON">      1.00000000</i>
    <v name="DIPOL">   -100.00000000   -100.00000000   -100.00000000</v>
    <i name="EFIELD">      0.00000000</i>
   </separator>
  </separator>
  <separator name="grids" >
   <i type="int" name="NGX">    20</i>
   <i type="int" name="NGY">    20</i>
   <i type="int" name="NGZ">    20</i>
   <i type="int" name="NGXF">    40</i>
   <i type="int" name="NGYF">    40</i>
   <i type="int" name="NGZF">    40</i>
   <i type="logical" name="ADDGRID"> F  </i>
  </separator>
  <separator name="ionic" >
   <i type="int" name="NSW">     0</i>
   <i type="int" name="IBRION">    -1</i>
   <i type="int" name="ISIF">     2</i>
   <i name="PSTRESS">      0.00000000</i>
   <i name="EDIFFG">      0.00100000</i>
   <i type="int" name="NFREE">     0</i>
   <i name="POTIM">      0.50000000</i>
   <i name="SMASS">     -3.00000000</i>
   <i name="SCALEE">      1.00000000</i>
  </separator>
  <separator name="ionic md" >
   <i name="TEBEG">      0.00010000</i>
   <i name="TEEND">      0.00010000</i>
   <i type="int" name="NBLOCK">     1</i>
   <i type="int" name="KBLOCK">     1</i>
   <i type="int" name="NPACO">   256</i>
   <i name="APACO">     16.00000000</i>
  </separator>
  <separator name="symmetry" >
   <i type="int" name="ISYM">     2</i>
   <i name="SYMPREC">      0.00001000</i>
  </separator>
  <separator name="dos" >
   <i type="logical" name="LORBIT"> F  </i>
   <v name="RWIGS">     -1.00000000</v>
   <i type="int" name="NEDOS">   301</i>
   <i name="EMIN">     10.00000000</i>
   <i name="EMAX">    -10.00000000</i>
   <i name="EFERMI">      0.00000000</i>
  </separator>
  <separator name="writing" >
   <i type="int" name="NWRITE">     2</i>
   <i type="logical" name="LWAVE"> F  </i>
   <i type="logical" name="LCHARG"> F  </i>
   <i type="logical" name="LPARD"> F  </i>
   <i type="logical" name="LVTOT"> F  </i>
   <i type="logical" name="LVHAR"> F  </i>
   <i type="logical" name="LELF"> F  </i>
   <i type="logical" name="LOPTICS"> F  </i>
   <v name="STM">      0.00000000      0.00000000      0.00000000      0.00000000      0.00000000      0.00000000      0.00000000</v>
  </separator>
  <separator name="performance" >
   <i type="int" name="NPAR">    24</i>
   <i type="int" name="NSIM">     4</i>
   <i type="int" name="NBLK">    -1</i>
   <i type="logical" name="LPLANE"> T  </i>
   <i type="logical" name="LSCALAPACK"> F  </i>
   <i type="logical" name="LSCAAWARE"> F  </i>
   <i type="logical" name="LSCALU"> F  </i>
   <i type="logical" name="LASYNC"> F  </i>
   <i type="logical" name="LORBITALREAL"> F  </i>
  </separator>
  <separator name="miscellaneous" >
   <i type="int" name="IDIOT">     3</i>
   <i type="logical" name="LMUSIC"> F  </i>
   <v name="POMASS">    107.86800000</v>
   <v name="DARWINR">      0.00000000</v>
   <v name="DARWINV">      1.00000000</v>
   <i type="logical" name="LCORR"> T  </i>
  </separator>
  <i type="logical" name="GGA_COMPAT"> T  </i>
  <i type="logical" name="LBERRY"> F  </i>
  <i type="int" name="ICORELEVEL">     0</i>
  <i type="logical" name="LDAU"> F  </i>
  <i type="int" name="I_CONSTRAINED_M">     0</i>
  <separator name="electronic exchange-correlation" >
   <i type="string" name="GGA">--</i>
   <i type="int" name="VOSKOWN">     0</i>
   <i type="logical" name="LHFCALC"> F  </i>
   <i type="string" name="PRECFOCK"></i>
   <i type="logical" name="LSYMGRAD"> F  </i>
   <i type="logical" name="LHFONE"> F  </i>
   <i type="logical" name="LRHFCALC"> F  </i>
   <i type="logical" name="LTHOMAS"> F  </i>
   <i type="logical" name="LMODELHF"> F  </i>
   <i name="ENCUT4O">     -1.00000000</i>
   <i type="int" name="EXXOEP">     0</i>
   <i type="int" name="FOURORBIT">     0</i>
   <i name="AEXX">      0.00000000</i>
   <i name="HFALPHA">      0.00000000</i>
   <i name="MCALPHA">      0.00000000</i>
   <i name="ALDAX">      1.00000000</i>
   <i name="AGGAX">      1.00000000</i>
   <i name="ALDAC">      1.00000000</i>
   <i name="AGGAC">      1.00000000</i>
   <i type="int" name="NKREDX">     1</i>
   <i type="int" name="NKREDY">     1</i>
   <i type="int" name="NKREDZ">     1</i>
   <i type="logical" name="SHIFTRED"> F  </i>
   <i type="logical" name="ODDONLY"> F  </i>
   <i type="logical" name="EVENONLY"> F  </i>
   <i type="int" name="LMAXFOCK">     0</i>
   <i type="int" name="NMAXFOCKAE">     0</i>
   <i type="logical" name="LFOCKAEDFT"> F  </i>
   <i name="HFSCREEN">      0.00000000</i>
   <i name="HFSCREENC">      0.00000000</i>
   <i type="int" name="NBANDSGWLOW">     0</i>
  </separator>
  <separator name="vdW DFT" >
   <i type="logical" name="LUSE_VDW"> F  </i>
   <i name="Zab_VDW">     -0.84910000</i>
   <i name="PARAM1">      0.12340000</i>
   <i name="PARAM2">      1.00000000</i>
   <i name="PARAM3">      0.00000000</i>
  </separator>
  <separator name="model GW" >
   <i type="int" name="MODEL_GW">     0</i>
   <i name="MODEL_EPS0">     10.26268935</i>
   <i name="MODEL_ALPHA">      1.00000000</i>
  </separator>
  <separator name="linear response parameters" >
   <i type="logical" name="LEPSILON"> F  </i>
   <i type="logical" name="LRPA"> F  </i>
   <i type="logical" name="LNABLA"> F  </i>
   <i type="logical" name="LVEL"> F  </i>
   <i type="int" name="KINTER">     0</i>
   <i name="CSHIFT">      0.10000000</i>
   <i name="OMEGAMAX">     -1.00000000</i>
   <i name="DEG_THRESHOLD">      0.00200000</i>
  </separator>
  <separator name="orbital magnetization" >
   <i type="logical" name="NUCIND"> F  </i>
   <v name="MAGPOS">      0.00000000      0.00000000      0.00000000</v>
   <i type="logical" name="LNICSALL"> T  </i>
   <i type="logical" name="ORBITALMAG"> F  </i>
   <i type="logical" name="LMAGBLOCH"> F  </i>
   <i type="logical" name="LCHIMAG"> F  </i>
   <i type="logical" name="LGAUGE"> T  </i>
   <i type="int" name="MAGATOM">     0</i>
   <v name="MAGDIPOL">      0.00000000      0.00000000      0.00000000</v>
   <v name="AVECCONST">      0.00000000      0.00000000      0.00000000</v>
  </separator>
  <separator name="response functions" >
   <i type="logical" name="LADDER"> F  </i>
   <i type="logical" name="LFXC"> F  </i>
   <i type="logical" name="LHARTREE"> T  </i>
   <i type="int" name="IBSE">     0</i>
   <v type="int" name="KPOINT">    -1     0     0     0</v>
   <i type="logical" name="LTCTE"> F  </i>
   <i type="logical" name="LTETE"> F  </i>
   <i type="logical" name="LTRIPLET"> F  </i>
   <i type="logical" name="LFXCEPS"> F  </i>
   <i type="logical" name="LFXHEG"> F  </i>
   <i type="int" name="NATURALO">     0</i>
   <i type="logical" name="L2ORDER"> F  </i>
   <i type="logical" name="LUSEW"> F  </i>
   <i name="ENCUTGW">     -2.00000000</i>
   <i name="ENCUTGWSOFT">     -2.00000000</i>
   <i name="ENCUTLF">     -1.00000000</i>
   <i type="int" name="LMAXMP2">    -1</i>
   <i name="SCISSOR">      0.00000000</i>
   <i type="int" name="NOMEGA">     0</i>
   <i type="int" name="NOMEGAR">     0</i>
   <i type="int" name="NBANDSGW">    -1</i>
   <i type="int" name="NBANDSO">    -1</i>
   <i type="int" name="NBANDSV">    -1</i>
   <i type="int" name="NELM">     1</i>
   <i type="int" name="NELMHF">     1</i>
   <i type="int" name="DIM">     3</i>
   <i type="int" name="ANTIRES">     0</i>
   <i name="OMEGAMAX">    -30.00000000</i>
   <i name="OMEGAMIN">    -30.00000000</i>
   <i name="OMEGATL">   -200.00000000</i>
   <i type="int" name="OMEGAGRID">     0</i>
   <i name="CSHIFT">     -0.10000000</i>
   <i type="logical" name="SELFENERGY"> F  </i>
   <i type="logical" name="LSPECTRAL"> F  </i>
   <i type="logical" name="LSPECTRALGW"> F  </i>
   <i type="logical" name="LSINGLES"> F  </i>
   <i type="logical" name="LFERMIGW"> F  </i>
   <i type="logical" name="ODDONLYGW"> F  </i>
   <i type="logical" name="EVENONLYGW"> F  </i>
   <i type="int" name="NKREDLFX">     1</i>
   <i type="int" name="NKREDLFY">     1</i>
   <i type="int" name="NKREDLFZ">     1</i>
   <i type="int" name="MAXMEM">  1800</i>
   <i type="int" name="TELESCOPE">     0</i>
   <i type="int" name="TAUPAR">     1</i>
   <i type="int" name="OMEGAPAR">    -1</i>
   <i name="LAMBDA">      1.00000000</i>
  </separator>
  <separator name="External order field" >
   <i name="OFIELD_KAPPA">      0.00000000</i>
   <v name="OFIELD_K">      0.00000000      0.00000000      0.00000000</v>
   <i name="OFIELD_Q6_NEAR">      0.00000000</i>
   <i name="OFIELD_Q6_FAR">      0.00000000</i>
   <i name="OFIELD_A">      0.00000000</i>
  </separator>
 </parameters>
 <atominfo>
  <atoms>       4 </atoms>
  <types>       1 </types>
  <array name="atoms" >
   <dimension dim="1">ion</dimension>
   <field type="string">element</field>
   <field type="int">atomtype</field>
   <set>
    <rc><c>Ag</c><c>   1</c></rc>
    <rc><c>Ag</c><c>   1</c></rc>
    <rc><c>Ag</c><c>   1</c></rc>
    <rc><c>Ag</c><c>   1</c></rc>
   </set>
  </array>
  <array name="atomtypes" >
   <dimension dim="1">type</dimension>
   <field type="int">atomspertype</field>
   <field type="string">element</field>
   <field>mass</field>
   <field>valence</field>
   <field type="string">pseudopotential</field>
   <set>
    <rc><c>   4</c><c>Ag</c><c>    107.86800000</c><c>     11.00000000</c><c>  PAW_PBE Ag 02Apr2005                  </c></rc>
   </set>
  </array>
 </atominfo>
 <structure name="initialpos" >
  <crystal>
   <varray name="basis" >
    <v>       4.09000000       0.00000000       0.00000000 </v>
    <v>       0.00000000       4.09000000       0.00000000 </v>
    <v>       0.00000000       0.00000000       4.09000000 </v>
   </varray>
   <i name="volume">     68.41792900 </i>
   <varray name="rec_basis" >
    <v>       0.24449878       0.00000000       0.00000000 </v>
    <v>       0.00000000       0.24449878       0.00000000 </v>
    <v>       0.00000000       0.00000000       0.24449878 </v>
   </varray>
  </crystal>
  <varray name="positions" >
   <v>       0.00000000       0.00000000       0.00000000 </v>
   <v>       0.00000000       0.50000000       0.50000000 </v>
   <v>       0.50000000       0.00000000       0.50000000 </v>
   <v>       0.50000000       0.50000000       0.00000000 </v>
  </varray>
 </structure>
 <calculation>
  <scstep>
   <time name="dav">    0.80    0.80</time>
   <time name="total">    0.88    0.89</time>
   <energy>
    <i name="alphaZ">    198.91349099 </i>
    <i name="ewald">  -3906.37931032 </i>
    <i name="hartreedc">   -811.91229488 </i>
    <i name="XCdc">    -41.67125304 </i>
    <i name="pawpsdc">   4013.84859731 </i>
    <i name="pawaedc">  -3829.39709692 </i>
    <i name="eentropy">      0.00007009 </i>
    <i name="bandstr">    422.60035758 </i>
    <i name="atom">   4149.03371350 </i>
    <i name="e_fr_energy">    195.03627431 </i>
    <i name="e_wo_entrp">    195.03620422 </i>
    <i name="e_0_energy">    195.03625095 </i>
   </energy>
  </scstep>
  <scstep>
   <time name="dav">    1.11    1.11</time>
   <time name="total">    1.11    1.11</time>
   <energy>
    <i name="e_fr_energy">     -8.81443230 </i>
    <i name="e_wo_entrp">     -8.81528696 </i>
    <i name="e_0_energy">     -8.81471719 </i>
   </energy>
  </scstep>
  <scstep>
   <time name="dav">    0.95    0.95</time>
   <time name="total">    0.95    0.95</time>
   <energy>
    <i name="e_fr_energy">    -11.85034092 </i>
    <i name="e_wo_entrp">    -11.85105142 </i>
    <i name="e_0_energy">    -11.85057775 </i>
   </energy>
  </scstep>
  <scstep>
   <time name="dav">    1.26    1.26</time>
   <time name="total">    1.26    1.26</time>
   <energy>
    <i name="e_fr_energy">    -11.85948856 </i>
    <i name="e_wo_entrp">    -11.86019787 </i>
    <i name="e_0_energy">    -11.85972500 </i>
   </energy>
  </scstep>
  <scstep>
   <time name="dav">    0.89    0.89</time>
   <time name="total">    0.90    0.91</time>
   <energy>
    <i name="e_fr_energy">    -11.85957097 </i>
    <i name="e_wo_entrp">    -11.86028027 </i>
    <i name="e_0_energy">    -11.85980740 </i>
   </energy>
  </scstep>
  <scstep>
   <time name="dav">    1.04    1.04</time>
   <time name="total">    1.06    1.07</time>
   <energy>
    <i name="e_fr_energy">    -10.88688391 </i>
    <i name="e_wo_entrp">    -10.88600554 </i>
    <i name="e_0_energy">    -10.88659112 </i>
   </energy>
  </scstep>
  <scstep>
   <time name="dav">    1.02    1.02</time>
   <time name="total">    1.04    1.04</time>
   <energy>
    <i name="e_fr_energy">    -10.85362762 </i>
    <i name="e_wo_entrp">    -10.85269524 </i>
    <i name="e_0_energy">    -10.85331683 </i>
   </energy>
  </scstep>
  <scstep>
   <time name="dav">    1.06    1.07</time>
   <time name="total">    1.09    1.09</time>
   <energy>
    <i name="e_fr_energy">    -10.84221592 </i>
    <i name="e_wo_entrp">    -10.84127700 </i>
    <i name="e_0_energy">    -10.84190295 </i>
   </energy>
  </scstep>
  <scstep>
   <time name="dav">    0.89    0.89</time>
   <time name="total">    0.90    0.90</time>
   <energy>
    <i name="alphaZ">    198.91349099 </i>
    <i name="ewald">  -3906.37931032 </i>
    <i name="hartreedc">   -761.30682123 </i>
    <i name="XCdc">    -43.51636380 </i>
    <i name="pawpsdc">   4470.48620005 </i>
    <i name="pawaedc">  -4296.74965560 </i>
    <i name="eentropy">     -0.00093870 </i>
    <i name="bandstr">    178.67744416 </i>
    <i name="atom">   4149.03371350 </i>
    <i name="e_fr_energy">    -10.84224094 </i>
    <i name="e_wo_entrp">    -10.84130224 </i>
    <i name="e_0_energy">    -10.84192804 </i>
   </energy>
  </scstep>
  <structure>
   <crystal>
    <varray name="basis" >
     <v>       4.09000000       0.00000000       0.00000000 </v>
     <v>       0.00000000       4.09000000       0.00000000 </v>
     <v>       0.00000000       0.00000000       4.09000000 </v>
    </varray>
    <i name="volume">     68.41792900 </i>
    <varray name="rec_basis" >
     <v>       0.24449878       0.00000000       0.00000000 </v>
     <v>       0.00000000       0.24449878       0.00000000 </v>
     <v>       0.00000000       0.00000000       0.24449878 </v>
    </varray>
   </crystal>
   <varray name="positions" >
    <v>       0.00000000       0.00000000       0.00000000 </v>
    <v>       0.00000000       0.50000000       0.50000000 </v>
    <v>       0.50000000       0.00000000       0.50000000 </v>
    <v>       0.50000000       0.50000000       0.00000000 </v>
   </varray>
  </structure>
  <varray name="forces" >
   <v>       0.00000000      -0.00000000      -0.00000000 </v>
   <v>       0.00000000       0.00000000       0.00000000 </v>
   <v>      -0.00000000       0.00000000       0.00000000 </v>
   <v>      -0.00000000       0.00000000      -0.00000000 </v>
  </varray>
  <varray name="stress" >
   <v>      38.18132748       0.00000000       0.00000000 </v>
   <v>      -0.00000000      38.18132748       0.00000000 </v>
   <v>      -0.00000000      -0.00000000      38.18132748 </v>
  </varray>
  <energy>
   <i name="e_fr_energy">    -10.84224094 </i>
   <i name="e_wo_entrp">    -10.84192804 </i>
   <i name="e_0_energy">     -0.00093870 </i>
  </energy>
  <time name="totalsc">    9.78    9.82</time>
  <eigenvalues>
   <array>
    <dimension dim="1">band</dimension>
    <dimension dim="2">kpoint</dimension>
    <dimension dim="3">spin</dimension>
    <field>eigene</field>
    <field>occ</field>
    <set>
     <set comment="spin 1">
      <set comment="kpoint 1">
       <r>    0.6423    1.0000 </r>
       <r>    1.9671    1.0000 </r>
       <r>    1.9671    1.0000 </r>
       <r>    1.9671    1.0000 </r>
       <r>    2.1052    1.0000 </r>
       <r>    2.1052    1.0000 </r>
       <r>    2.1052    1.0000 </r>
       <r>    3.5931    1.0000 </r>
       <r>    3.5931    1.0000 </r>
       <r>    3.5931    1.0000 </r>
       <r>    4.6221    1.0000 </r>
       <r>    4.6221    1.0000 </r>
       <r>    5.3814    1.0000 </r>
       <r>    5.3814    1.0000 </r>
       <r>    5.3814    1.0000 </r>
       <r>    5.6195    1.0000 </r>
       <r>    5.6195    1.0000 </r>
       <r>    5.6195    1.0000 </r>
       <r>    5.6195    1.0000 </r>
       <r>    5.6195    1.0000 </r>
       <r>    5.6195    1.0000 </r>
       <r>    9.9961   -0.0000 </r>
       <r>    9.9961   -0.0000 </r>
       <r>    9.9961   -0.0000 </r>
       <r>   15.1046    0.0000 </r>
       <r>   15.1046    0.0000 </r>
       <r>   15.1046    0.0000 </r>
       <r>   19.0358    0.0000 </r>
       <r>   19.0358    0.0000 </r>
       <r>   19.0358    0.0000 </r>
       <r>   19.0358    0.0000 </r>
       <r>   19.0358    0.0000 </r>
       <r>   19.0358    0.0000 </r>
       <r>   24.4074    0.0000 </r>
       <r>   25.5342    0.0000 </r>
       <r>   25.5342    0.0000 </r>
       <r>   25.5342    0.0000 </r>
       <r>   25.5988    0.0000 </r>
       <r>   25.5988    0.0000 </r>
       <r>   25.5988    0.0000 </r>
       <r>   27.9643    0.0000 </r>
       <r>   27.9643    0.0000 </r>
       <r>   27.9643    0.0000 </r>
       <r>   32.7646    0.0000 </r>
       <r>   33.8861    0.0000 </r>
       <r>   33.8861    0.0000 </r>
       <r>   33.8861    0.0000 </r>
       <r>   37.8905    0.0000 </r>
      </set>
      <set comment="kpoint 2">
       <r>    0.7287    1.0000 </r>
       <r>    2.0024    1.0000 </r>
       <r>    2.0130    1.0000 </r>
       <r>    2.0130    1.0000 </r>
       <r>    2.1320    1.0000 </r>
       <r>    2.1463    1.0000 </r>
       <r>    2.1463    1.0000 </r>
       <r>    3.5590    1.0000 </r>
       <r>    3.6245    1.0000 </r>
       <r>    3.6245    1.0000 </r>
       <r>    4.5882    1.0000 </r>
       <r>    4.6367    1.0000 </r>
       <r>    5.3357    1.0000 </r>
       <r>    5.3357    1.0000 </r>
       <r>    5.3649    1.0000 </r>
       <r>    5.4570    1.0000 </r>
       <r>    5.4570    1.0000 </r>
       <r>    5.5634    1.0000 </r>
       <r>    5.5634    1.0000 </r>
       <r>    5.6195    1.0000 </r>
       <r>    5.6195    1.0000 </r>
       <r>    9.4417   -0.0000 </r>
       <r>   10.2296   -0.0000 </r>
       <r>   10.2296   -0.0000 </r>
       <r>   15.1133    0.0000 </r>
       <r>   15.1133    0.0000 </r>
       <r>   15.7901    0.0000 </r>
       <r>   18.7647    0.0000 </r>
       <r>   18.7647    0.0000 </r>
       <r>   18.7647    0.0000 </r>
       <r>   18.7647    0.0000 </r>
       <r>   19.1903    0.0000 </r>
       <r>   19.1903    0.0000 </r>
       <r>   24.4385    0.0000 </r>
       <r>   25.5169    0.0000 </r>
       <r>   25.5838    0.0000 </r>
       <r>   25.8213    0.0000 </r>
       <r>   25.8213    0.0000 </r>
       <r>   26.0798    0.0000 </r>
       <r>   26.0798    0.0000 </r>
       <r>   27.5996    0.0000 </r>
       <r>   27.7533    0.0000 </r>
       <r>   27.7533    0.0000 </r>
       <r>   33.3148    0.0000 </r>
       <r>   33.6916    0.0000 </r>
       <r>   33.6916    0.0000 </r>
       <r>   34.0259    0.0000 </r>
       <r>   36.8848    0.0000 </r>
      </set>
      <set comment="kpoint 3">
       <r>    0.9825    1.0000 </r>
       <r>    2.1026    1.0000 </r>
       <r>    2.1440    1.0000 </r>
       <r>    2.1440    1.0000 </r>
       <r>    2.2111    1.0000 </r>
       <r>    2.2695    1.0000 </r>
       <r>    2.2695    1.0000 </r>
       <r>    3.4608    1.0000 </r>
       <r>    3.7176    1.0000 </r>
       <r>    3.7176    1.0000 </r>
       <r>    4.4939    1.0000 </r>
       <r>    4.6796    1.0000 </r>
       <r>    5.0538    1.0000 </r>
       <r>    5.0538    1.0000 </r>
       <r>    5.2051    1.0000 </r>
       <r>    5.2051    1.0000 </r>
       <r>    5.3176    1.0000 </r>
       <r>    5.4057    1.0000 </r>
       <r>    5.4057    1.0000 </r>
       <r>    5.6195    1.0000 </r>
       <r>    5.6195    1.0000 </r>
       <r>    8.2747    1.0079 </r>
       <r>   10.8455   -0.0000 </r>
       <r>   10.8455   -0.0000 </r>
       <r>   15.1418    0.0000 </r>
       <r>   15.1418    0.0000 </r>
       <r>   17.3487    0.0000 </r>
       <r>   18.0580    0.0000 </r>
       <r>   18.0580    0.0000 </r>
       <r>   18.1476    0.0000 </r>
       <r>   18.1476    0.0000 </r>
       <r>   19.6420    0.0000 </r>
       <r>   19.6420    0.0000 </r>
       <r>   24.5265    0.0000 </r>
       <r>   25.4655    0.0000 </r>
       <r>   25.5558    0.0000 </r>
       <r>   26.5826    0.0000 </r>
       <r>   26.5826    0.0000 </r>
       <r>   26.8411    0.0000 </r>
       <r>   27.1159    0.0000 </r>
       <r>   27.1159    0.0000 </r>
       <r>   27.3190    0.0000 </r>
       <r>   27.3190    0.0000 </r>
       <r>   33.4834    0.0000 </r>
       <r>   33.4834    0.0000 </r>
       <r>   33.9584    0.0000 </r>
       <r>   34.4456    0.0000 </r>
       <r>   35.5353    0.0000 </r>
      </set>
      <set comment="kpoint 4">
       <r>    1.3824    1.0000 </r>
       <r>    2.2492    1.0000 </r>
       <r>    2.3370    1.0000 </r>
       <r>    2.3370    1.0000 </r>
       <r>    2.3377    1.0000 </r>
       <r>    2.4739    1.0000 </r>
       <r>    2.4739    1.0000 </r>
       <r>    3.3092    1.0000 </r>
       <r>    3.8694    1.0000 </r>
       <r>    3.8694    1.0000 </r>
       <r>    4.3680    1.0000 </r>
       <r>    4.5481    1.0000 </r>
       <r>    4.5481    1.0000 </r>
       <r>    4.7473    1.0000 </r>
       <r>    5.0114    1.0000 </r>
       <r>    5.0114    1.0000 </r>
       <r>    5.1719    1.0000 </r>
       <r>    5.1719    1.0000 </r>
       <r>    5.2438    1.0000 </r>
       <r>    5.6198    1.0000 </r>
       <r>    5.6198    1.0000 </r>
       <r>    7.0069    1.0000 </r>
       <r>   11.7008    0.0000 </r>
       <r>   11.7008    0.0000 </r>
       <r>   15.1955    0.0000 </r>
       <r>   15.1955    0.0000 </r>
       <r>   17.1005    0.0000 </r>
       <r>   17.1005    0.0000 </r>
       <r>   17.4783    0.0000 </r>
       <r>   17.4783    0.0000 </r>
       <r>   19.2608    0.0000 </r>
       <r>   20.3592    0.0000 </r>
       <r>   20.3592    0.0000 </r>
       <r>   24.6575    0.0000 </r>
       <r>   25.3818    0.0000 </r>
       <r>   25.5665    0.0000 </r>
       <r>   26.0537    0.0000 </r>
       <r>   26.1158    0.0000 </r>
       <r>   26.1158    0.0000 </r>
       <r>   27.6521    0.0000 </r>
       <r>   27.6521    0.0000 </r>
       <r>   28.9942    0.0000 </r>
       <r>   28.9942    0.0000 </r>
       <r>   32.0016    0.0000 </r>
       <r>   33.6293    0.0000 </r>
       <r>   33.6293    0.0000 </r>
       <r>   35.1487    0.0000 </r>
       <r>   35.2390    0.0000 </r>
      </set>
      <set comment="kpoint 5">
       <r>    1.8710    1.0000 </r>
       <r>    2.4011    1.0000 </r>
       <r>    2.5043    1.0000 </r>
       <r>    2.5461    1.0000 </r>
       <r>    2.5461    1.0000 </r>
       <r>    2.7575    1.0000 </r>
       <r>    2.7575    1.0000 </r>
       <r>    3.1196    1.0000 </r>
       <r>    4.0297    1.0000 </r>
       <r>    4.0297    1.0000 </r>
       <r>    4.0741    1.0000 </r>
       <r>    4.0741    1.0000 </r>
       <r>    4.2800    1.0000 </r>
       <r>    4.8005    1.0000 </r>
       <r>    4.8005    1.0000 </r>
       <r>    4.8354    1.0000 </r>
       <r>    4.8942    1.0000 </r>
       <r>    4.8942    1.0000 </r>
       <r>    5.1503    1.0000 </r>
       <r>    5.6201    1.0000 </r>
       <r>    5.6201    1.0000 </r>
       <r>    5.8429    1.0000 </r>
       <r>   12.6972    0.0000 </r>
       <r>   12.6972    0.0000 </r>
       <r>   15.2737    0.0000 </r>
       <r>   15.2737    0.0000 </r>
       <r>   16.0218    0.0000 </r>
       <r>   16.0218    0.0000 </r>
       <r>   16.9287    0.0000 </r>
       <r>   16.9287    0.0000 </r>
       <r>   21.2933    0.0000 </r>
       <r>   21.2986    0.0000 </r>
       <r>   21.2986    0.0000 </r>
       <r>   24.8131    0.0000 </r>
       <r>   24.9066    0.0000 </r>
       <r>   24.9066    0.0000 </r>
       <r>   25.2688    0.0000 </r>
       <r>   25.3271    0.0000 </r>
       <r>   25.7159    0.0000 </r>
       <r>   28.9260    0.0000 </r>
       <r>   28.9260    0.0000 </r>
       <r>   29.6604    0.0000 </r>
       <r>   30.8598    0.0000 </r>
       <r>   30.8598    0.0000 </r>
       <r>   33.5671    0.0000 </r>
       <r>   33.5671    0.0000 </r>
       <r>   34.1675    0.0000 </r>
       <r>   34.1675    0.0000 </r>
      </set>
      <set comment="kpoint 6">
       <r>    2.3009    1.0000 </r>
       <r>    2.4695    1.0000 </r>
       <r>    2.6929    1.0000 </r>
       <r>    2.6929    1.0000 </r>
       <r>    2.6998    1.0000 </r>
       <r>    2.9105    1.0000 </r>
       <r>    3.1167    1.0000 </r>
       <r>    3.1167    1.0000 </r>
       <r>    3.5448    1.0000 </r>
       <r>    3.5448    1.0000 </r>
       <r>    4.3231    1.0000 </r>
       <r>    4.3231    1.0000 </r>
       <r>    4.3911    1.0000 </r>
       <r>    4.6027    1.0000 </r>
       <r>    4.6027    1.0000 </r>
       <r>    4.6516    1.0000 </r>
       <r>    4.6516    1.0000 </r>
       <r>    4.9174    1.0000 </r>
       <r>    4.9372    1.0000 </r>
       <r>    5.0451    1.0000 </r>
       <r>    5.6203    1.0000 </r>
       <r>    5.6203    1.0000 </r>
       <r>   13.7765    0.0000 </r>
       <r>   13.7765    0.0000 </r>
       <r>   14.8976    0.0000 </r>
       <r>   14.8976    0.0000 </r>
       <r>   15.3466    0.0000 </r>
       <r>   15.3466    0.0000 </r>
       <r>   16.6055    0.0000 </r>
       <r>   16.6055    0.0000 </r>
       <r>   22.4101    0.0000 </r>
       <r>   22.4101    0.0000 </r>
       <r>   23.1937    0.0000 </r>
       <r>   23.6368    0.0000 </r>
       <r>   23.6368    0.0000 </r>
       <r>   24.5200    0.0000 </r>
       <r>   24.9757    0.0000 </r>
       <r>   25.1311    0.0000 </r>
       <r>   26.2357    0.0000 </r>
       <r>   27.5714    0.0000 </r>
       <r>   30.3556    0.0000 </r>
       <r>   30.3556    0.0000 </r>
       <r>   31.9138    0.0000 </r>
       <r>   31.9138    0.0000 </r>
       <r>   32.5096    0.0000 </r>
       <r>   32.5096    0.0000 </r>
       <r>   35.0375    0.0000 </r>
       <r>   35.0375    0.0000 </r>
      </set>
      <set comment="kpoint 7">
       <r>    0.8137    1.0000 </r>
       <r>    2.0487    1.0000 </r>
       <r>    2.0487    1.0000 </r>
       <r>    2.0497    1.0000 </r>
       <r>    2.1725    1.0000 </r>
       <r>    2.1725    1.0000 </r>
       <r>    2.1948    1.0000 </r>
       <r>    3.5463    1.0000 </r>
       <r>    3.6356    1.0000 </r>
       <r>    3.6532    1.0000 </r>
       <r>    4.5792    1.0000 </r>
       <r>    4.6300    1.0000 </r>
       <r>    5.2866    1.0000 </r>
       <r>    5.2866    1.0000 </r>
       <r>    5.2923    1.0000 </r>
       <r>    5.3466    1.0000 </r>
       <r>    5.4330    1.0000 </r>
       <r>    5.4330    1.0000 </r>
       <r>    5.5633    1.0000 </r>
       <r>    5.5633    1.0000 </r>
       <r>    5.5810    1.0000 </r>
       <r>    9.6649   -0.0000 </r>
       <r>    9.6649   -0.0000 </r>
       <r>   10.4503   -0.0000 </r>
       <r>   15.1211    0.0000 </r>
       <r>   15.8094    0.0000 </r>
       <r>   15.8094    0.0000 </r>
       <r>   17.8445    0.0000 </r>
       <r>   18.9087    0.0000 </r>
       <r>   18.9087    0.0000 </r>
       <r>   18.9138    0.0000 </r>
       <r>   18.9138    0.0000 </r>
       <r>   19.3332    0.0000 </r>
       <r>   24.4365    0.0000 </r>
       <r>   25.4942    0.0000 </r>
       <r>   25.8108    0.0000 </r>
       <r>   25.8108    0.0000 </r>
       <r>   26.0730    0.0000 </r>
       <r>   26.0730    0.0000 </r>
       <r>   26.7511    0.0000 </r>
       <r>   26.9849    0.0000 </r>
       <r>   27.5959    0.0000 </r>
       <r>   28.2814    0.0000 </r>
       <r>   32.6036    0.0000 </r>
       <r>   33.8307    0.0000 </r>
       <r>   33.8484    0.0000 </r>
       <r>   34.5355    0.0000 </r>
       <r>   36.7568    0.0000 </r>
      </set>
      <set comment="kpoint 8">
       <r>    1.0631    1.0000 </r>
       <r>    2.1501    1.0000 </r>
       <r>    2.1583    1.0000 </r>
       <r>    2.1808    1.0000 </r>
       <r>    2.2497    1.0000 </r>
       <r>    2.2938    1.0000 </r>
       <r>    2.3343    1.0000 </r>
       <r>    3.4611    1.0000 </r>
       <r>    3.7186    1.0000 </r>
       <r>    3.7371    1.0000 </r>
       <r>    4.4988    1.0000 </r>
       <r>    4.6709    1.0000 </r>
       <r>    4.9474    1.0000 </r>
       <r>    4.9895    1.0000 </r>
       <r>    5.1387    1.0000 </r>
       <r>    5.1680    1.0000 </r>
       <r>    5.2416    1.0000 </r>
       <r>    5.3711    1.0000 </r>
       <r>    5.4050    1.0000 </r>
       <r>    5.5616    1.0000 </r>
       <r>    5.5631    1.0000 </r>
       <r>    8.4947    0.3387 </r>
       <r>   10.2418   -0.0000 </r>
       <r>   11.0405   -0.0000 </r>
       <r>   15.1414    0.0000 </r>
       <r>   15.8685    0.0000 </r>
       <r>   16.8289    0.0000 </r>
       <r>   17.3728    0.0000 </r>
       <r>   18.1974    0.0000 </r>
       <r>   18.2773    0.0000 </r>
       <r>   19.3199    0.0000 </r>
       <r>   19.3286    0.0000 </r>
       <r>   19.3480    0.0000 </r>
       <r>   24.4080    0.0000 </r>
       <r>   25.7509    0.0000 </r>
       <r>   25.7806    0.0000 </r>
       <r>   25.8242    0.0000 </r>
       <r>   26.0716    0.0000 </r>
       <r>   26.5858    0.0000 </r>
       <r>   27.1314    0.0000 </r>
       <r>   27.3194    0.0000 </r>
       <r>   28.2016    0.0000 </r>
       <r>   28.3677    0.0000 </r>
       <r>   32.1085    0.0000 </r>
       <r>   33.6113    0.0000 </r>
       <r>   34.2774    0.0000 </r>
       <r>   34.9501    0.0000 </r>
       <r>   35.8983    0.0000 </r>
      </set>
      <set comment="kpoint 9">
       <r>    1.4555    1.0000 </r>
       <r>    2.2989    1.0000 </r>
       <r>    2.3319    1.0000 </r>
       <r>    2.3732    1.0000 </r>
       <r>    2.3757    1.0000 </r>
       <r>    2.4947    1.0000 </r>
       <r>    2.5482    1.0000 </r>
       <r>    3.3163    1.0000 </r>
       <r>    3.8632    1.0000 </r>
       <r>    3.8681    1.0000 </r>
       <r>    4.3924    1.0000 </r>
       <r>    4.4615    1.0000 </r>
       <r>    4.5126    1.0000 </r>
       <r>    4.7497    1.0000 </r>
       <r>    4.9066    1.0000 </r>
       <r>    4.9830    1.0000 </r>
       <r>    5.0379    1.0000 </r>
       <r>    5.1707    1.0000 </r>
       <r>    5.2806    1.0000 </r>
       <r>    5.5580    1.0000 </r>
       <r>    5.5623    1.0000 </r>
       <r>    7.2438    1.0000 </r>
       <r>   11.0202   -0.0000 </r>
       <r>   11.8722    0.0000 </r>
       <r>   15.1197    0.0000 </r>
       <r>   15.9048    0.0000 </r>
       <r>   15.9607    0.0000 </r>
       <r>   17.2334    0.0000 </r>
       <r>   17.6199    0.0000 </r>
       <r>   18.8394    0.0000 </r>
       <r>   19.2717    0.0000 </r>
       <r>   19.9944    0.0000 </r>
       <r>   20.0318    0.0000 </r>
       <r>   24.2626    0.0000 </r>
       <r>   24.7616    0.0000 </r>
       <r>   25.7357    0.0000 </r>
       <r>   26.1329    0.0000 </r>
       <r>   26.4725    0.0000 </r>
       <r>   26.7879    0.0000 </r>
       <r>   27.4212    0.0000 </r>
       <r>   27.6684    0.0000 </r>
       <r>   28.9687    0.0000 </r>
       <r>   30.0036    0.0000 </r>
       <r>   31.6316    0.0000 </r>
       <r>   33.4197    0.0000 </r>
       <r>   33.7032    0.0000 </r>
       <r>   35.0039    0.0000 </r>
       <r>   35.1312    0.0000 </r>
      </set>
      <set comment="kpoint 10">
       <r>    1.9345    1.0000 </r>
       <r>    2.4542    1.0000 </r>
       <r>    2.5355    1.0000 </r>
       <r>    2.5449    1.0000 </r>
       <r>    2.5870    1.0000 </r>
       <r>    2.7732    1.0000 </r>
       <r>    2.8132    1.0000 </r>
       <r>    3.1332    1.0000 </r>
       <r>    3.9649    1.0000 </r>
       <r>    3.9761    1.0000 </r>
       <r>    4.0141    1.0000 </r>
       <r>    4.0722    1.0000 </r>
       <r>    4.3835    1.0000 </r>
       <r>    4.6140    1.0000 </r>
       <r>    4.7816    1.0000 </r>
       <r>    4.8196    1.0000 </r>
       <r>    4.8562    1.0000 </r>
       <r>    4.8924    1.0000 </r>
       <r>    5.1625    1.0000 </r>
       <r>    5.5578    1.0000 </r>
       <r>    5.5614    1.0000 </r>
       <r>    6.1240    1.0000 </r>
       <r>   11.8974    0.0000 </r>
       <r>   12.8512    0.0000 </r>
       <r>   14.6145    0.0000 </r>
       <r>   15.5620    0.0000 </r>
       <r>   16.0235    0.0000 </r>
       <r>   16.1532    0.0000 </r>
       <r>   17.1804    0.0000 </r>
       <r>   18.1902    0.0000 </r>
       <r>   20.8044    0.0000 </r>
       <r>   20.9128    0.0000 </r>
       <r>   21.3390    0.0000 </r>
       <r>   23.7845    0.0000 </r>
       <r>   23.8031    0.0000 </r>
       <r>   25.6864    0.0000 </r>
       <r>   25.9238    0.0000 </r>
       <r>   26.3171    0.0000 </r>
       <r>   26.3573    0.0000 </r>
       <r>   28.0965    0.0000 </r>
       <r>   28.9531    0.0000 </r>
       <r>   29.8858    0.0000 </r>
       <r>   30.6363    0.0000 </r>
       <r>   31.7935    0.0000 </r>
       <r>   33.5913    0.0000 </r>
       <r>   33.6196    0.0000 </r>
       <r>   33.6521    0.0000 </r>
       <r>   34.1900    0.0000 </r>
      </set>
      <set comment="kpoint 11">
       <r>    2.3585    1.0000 </r>
       <r>    2.5260    1.0000 </r>
       <r>    2.7176    1.0000 </r>
       <r>    2.7258    1.0000 </r>
       <r>    2.7329    1.0000 </r>
       <r>    2.9304    1.0000 </r>
       <r>    3.1251    1.0000 </r>
       <r>    3.1254    1.0000 </r>
       <r>    3.5100    1.0000 </r>
       <r>    3.5432    1.0000 </r>
       <r>    4.0618    1.0000 </r>
       <r>    4.2949    1.0000 </r>
       <r>    4.3208    1.0000 </r>
       <r>    4.6006    1.0000 </r>
       <r>    4.6215    1.0000 </r>
       <r>    4.6443    1.0000 </r>
       <r>    4.6586    1.0000 </r>
       <r>    4.9851    1.0000 </r>
       <r>    4.9941    1.0000 </r>
       <r>    5.3041    1.0000 </r>
       <r>    5.5588    1.0000 </r>
       <r>    5.5601    1.0000 </r>
       <r>   12.8131    0.0000 </r>
       <r>   13.7325    0.0000 </r>
       <r>   13.9184    0.0000 </r>
       <r>   15.0321    0.0000 </r>
       <r>   15.6928    0.0000 </r>
       <r>   15.9090    0.0000 </r>
       <r>   17.1877    0.0000 </r>
       <r>   17.5886    0.0000 </r>
       <r>   21.7794    0.0000 </r>
       <r>   21.9211    0.0000 </r>
       <r>   22.7889    0.0000 </r>
       <r>   22.9495    0.0000 </r>
       <r>   23.3138    0.0000 </r>
       <r>   25.0039    0.0000 </r>
       <r>   25.6543    0.0000 </r>
       <r>   25.6917    0.0000 </r>
       <r>   26.9201    0.0000 </r>
       <r>   28.0884    0.0000 </r>
       <r>   29.5499    0.0000 </r>
       <r>   30.3921    0.0000 </r>
       <r>   30.8789    0.0000 </r>
       <r>   31.9589    0.0000 </r>
       <r>   33.4305    0.0000 </r>
       <r>   33.5094    0.0000 </r>
       <r>   34.4238    0.0000 </r>
       <r>   35.0242    0.0000 </r>
      </set>
      <set comment="kpoint 12">
       <r>    1.2988    1.0000 </r>
       <r>    2.2269    1.0000 </r>
       <r>    2.2858    1.0000 </r>
       <r>    2.2858    1.0000 </r>
       <r>    2.3650    1.0000 </r>
       <r>    2.3650    1.0000 </r>
       <r>    2.4961    1.0000 </r>
       <r>    3.4268    1.0000 </r>
       <r>    3.7595    1.0000 </r>
       <r>    3.7926    1.0000 </r>
       <r>    4.4680    1.0000 </r>
       <r>    4.7001    1.0000 </r>
       <r>    4.7350    1.0000 </r>
       <r>    4.7350    1.0000 </r>
       <r>    4.7641    1.0000 </r>
       <r>    5.0606    1.0000 </r>
       <r>    5.2501    1.0000 </r>
       <r>    5.2501    1.0000 </r>
       <r>    5.4032    1.0000 </r>
       <r>    5.4032    1.0000 </r>
       <r>    5.4679    1.0000 </r>
       <r>    9.0420   -0.0000 </r>
       <r>    9.0420   -0.0000 </r>
       <r>   11.5757    0.0000 </r>
       <r>   15.0416    0.0000 </r>
       <r>   15.7371    0.0000 </r>
       <r>   17.4187    0.0000 </r>
       <r>   17.4187    0.0000 </r>
       <r>   18.6016    0.0000 </r>
       <r>   18.6016    0.0000 </r>
       <r>   18.6734    0.0000 </r>
       <r>   18.6734    0.0000 </r>
       <r>   20.1862    0.0000 </r>
       <r>   24.0617    0.0000 </r>
       <r>   24.5953    0.0000 </r>
       <r>   25.3305    0.0000 </r>
       <r>   26.5969    0.0000 </r>
       <r>   26.5969    0.0000 </r>
       <r>   27.1418    0.0000 </r>
       <r>   27.3429    0.0000 </r>
       <r>   27.3429    0.0000 </r>
       <r>   29.1940    0.0000 </r>
       <r>   29.8900    0.0000 </r>
       <r>   30.6807    0.0000 </r>
       <r>   33.7552    0.0000 </r>
       <r>   34.2740    0.0000 </r>
       <r>   34.5802    0.0000 </r>
       <r>   36.3882    0.0000 </r>
      </set>
      <set comment="kpoint 13">
       <r>    1.6672    1.0000 </r>
       <r>    2.3642    1.0000 </r>
       <r>    2.4414    1.0000 </r>
       <r>    2.4789    1.0000 </r>
       <r>    2.4869    1.0000 </r>
       <r>    2.5557    1.0000 </r>
       <r>    2.7170    1.0000 </r>
       <r>    3.3218    1.0000 </r>
       <r>    3.8616    1.0000 </r>
       <r>    3.8823    1.0000 </r>
       <r>    4.2620    1.0000 </r>
       <r>    4.3922    1.0000 </r>
       <r>    4.3982    1.0000 </r>
       <r>    4.4710    1.0000 </r>
       <r>    4.8153    1.0000 </r>
       <r>    4.8988    1.0000 </r>
       <r>    5.0610    1.0000 </r>
       <r>    5.1673    1.0000 </r>
       <r>    5.1946    1.0000 </r>
       <r>    5.4004    1.0000 </r>
       <r>    5.4178    1.0000 </r>
       <r>    7.7935    1.0000 </r>
       <r>    9.7564   -0.0000 </r>
       <r>   12.3533    0.0000 </r>
       <r>   14.2520    0.0000 </r>
       <r>   15.4805    0.0000 </r>
       <r>   17.2873    0.0000 </r>
       <r>   17.6181    0.0000 </r>
       <r>   18.2290    0.0000 </r>
       <r>   18.9411    0.0000 </r>
       <r>   19.2322    0.0000 </r>
       <r>   19.6102    0.0000 </r>
       <r>   20.3461    0.0000 </r>
       <r>   23.5038    0.0000 </r>
       <r>   23.5192    0.0000 </r>
       <r>   25.7128    0.0000 </r>
       <r>   26.6211    0.0000 </r>
       <r>   27.0907    0.0000 </r>
       <r>   27.4515    0.0000 </r>
       <r>   27.7175    0.0000 </r>
       <r>   28.5890    0.0000 </r>
       <r>   28.9199    0.0000 </r>
       <r>   30.7230    0.0000 </r>
       <r>   31.5720    0.0000 </r>
       <r>   33.0673    0.0000 </r>
       <r>   33.7557    0.0000 </r>
       <r>   34.8182    0.0000 </r>
       <r>   34.9640    0.0000 </r>
      </set>
      <set comment="kpoint 14">
       <r>    2.1147    1.0000 </r>
       <r>    2.5626    1.0000 </r>
       <r>    2.6072    1.0000 </r>
       <r>    2.6279    1.0000 </r>
       <r>    2.7058    1.0000 </r>
       <r>    2.8188    1.0000 </r>
       <r>    2.9556    1.0000 </r>
       <r>    3.1665    1.0000 </r>
       <r>    3.8063    1.0000 </r>
       <r>    3.8687    1.0000 </r>
       <r>    3.9613    1.0000 </r>
       <r>    4.0748    1.0000 </r>
       <r>    4.1817    1.0000 </r>
       <r>    4.4312    1.0000 </r>
       <r>    4.7228    1.0000 </r>
       <r>    4.8412    1.0000 </r>
       <r>    4.8879    1.0000 </r>
       <r>    5.0038    1.0000 </r>
       <r>    5.0739    1.0000 </r>
       <r>    5.3972    1.0000 </r>
       <r>    5.3990    1.0000 </r>
       <r>    6.6884    1.0000 </r>
       <r>   10.5528   -0.0000 </r>
       <r>   13.2426    0.0000 </r>
       <r>   13.2894    0.0000 </r>
       <r>   15.6202    0.0000 </r>
       <r>   16.5331    0.0000 </r>
       <r>   16.7944    0.0000 </r>
       <r>   18.3560    0.0000 </r>
       <r>   19.8080    0.0000 </r>
       <r>   19.9265    0.0000 </r>
       <r>   20.0344    0.0000 </r>
       <r>   21.4800    0.0000 </r>
       <r>   22.5160    0.0000 </r>
       <r>   22.7583    0.0000 </r>
       <r>   26.6660    0.0000 </r>
       <r>   26.8427    0.0000 </r>
       <r>   26.9770    0.0000 </r>
       <r>   27.0737    0.0000 </r>
       <r>   27.7400    0.0000 </r>
       <r>   29.0330    0.0000 </r>
       <r>   30.1230    0.0000 </r>
       <r>   30.6384    0.0000 </r>
       <r>   32.3121    0.0000 </r>
       <r>   33.3612    0.0000 </r>
       <r>   33.7769    0.0000 </r>
       <r>   33.8054    0.0000 </r>
       <r>   34.1069    0.0000 </r>
      </set>
      <set comment="kpoint 15">
       <r>    2.5191    1.0000 </r>
       <r>    2.6877    1.0000 </r>
       <r>    2.7762    1.0000 </r>
       <r>    2.8015    1.0000 </r>
       <r>    2.8471    1.0000 </r>
       <r>    2.9865    1.0000 </r>
       <r>    3.1486    1.0000 </r>
       <r>    3.1695    1.0000 </r>
       <r>    3.4248    1.0000 </r>
       <r>    3.5355    1.0000 </r>
       <r>    3.8270    1.0000 </r>
       <r>    3.9248    1.0000 </r>
       <r>    4.3185    1.0000 </r>
       <r>    4.5962    1.0000 </r>
       <r>    4.6139    1.0000 </r>
       <r>    4.6352    1.0000 </r>
       <r>    4.6604    1.0000 </r>
       <r>    4.8841    1.0000 </r>
       <r>    5.3037    1.0000 </r>
       <r>    5.3939    1.0000 </r>
       <r>    5.3945    1.0000 </r>
       <r>    5.8378    1.0000 </r>
       <r>   11.3986    0.0000 </r>
       <r>   12.2910    0.0000 </r>
       <r>   14.3259    0.0000 </r>
       <r>   15.4201    0.0000 </r>
       <r>   15.8898    0.0000 </r>
       <r>   16.2847    0.0000 </r>
       <r>   18.7704    0.0000 </r>
       <r>   19.3278    0.0000 </r>
       <r>   20.6607    0.0000 </r>
       <r>   20.9418    0.0000 </r>
       <r>   21.5662    0.0000 </r>
       <r>   21.8779    0.0000 </r>
       <r>   23.4766    0.0000 </r>
       <r>   25.3717    0.0000 </r>
       <r>   26.7400    0.0000 </r>
       <r>   26.8474    0.0000 </r>
       <r>   28.2894    0.0000 </r>
       <r>   28.3281    0.0000 </r>
       <r>   29.3311    0.0000 </r>
       <r>   29.6790    0.0000 </r>
       <r>   30.4984    0.0000 </r>
       <r>   32.0912    0.0000 </r>
       <r>   33.1162    0.0000 </r>
       <r>   34.0913    0.0000 </r>
       <r>   34.5384    0.0000 </r>
       <r>   34.8540    0.0000 </r>
      </set>
      <set comment="kpoint 16">
       <r>    1.9922    1.0000 </r>
       <r>    2.4600    1.0000 </r>
       <r>    2.6525    1.0000 </r>
       <r>    2.6525    1.0000 </r>
       <r>    2.6545    1.0000 </r>
       <r>    2.6545    1.0000 </r>
       <r>    2.9337    1.0000 </r>
       <r>    3.2879    1.0000 </r>
       <r>    3.8718    1.0000 </r>
       <r>    3.9543    1.0000 </r>
       <r>    4.0176    1.0000 </r>
       <r>    4.0176    1.0000 </r>
       <r>    4.1666    1.0000 </r>
       <r>    4.3352    1.0000 </r>
       <r>    4.7675    1.0000 </r>
       <r>    5.0108    1.0000 </r>
       <r>    5.0246    1.0000 </r>
       <r>    5.0246    1.0000 </r>
       <r>    5.1627    1.0000 </r>
       <r>    5.1627    1.0000 </r>
       <r>    5.2872    1.0000 </r>
       <r>    8.4800    0.4594 </r>
       <r>    8.4800    0.4594 </r>
       <r>   13.0506    0.0000 </r>
       <r>   13.0717    0.0000 </r>
       <r>   15.5814    0.0000 </r>
       <r>   18.0926    0.0000 </r>
       <r>   18.0926    0.0000 </r>
       <r>   18.2172    0.0000 </r>
       <r>   18.2172    0.0000 </r>
       <r>   19.7968    0.0000 </r>
       <r>   19.7968    0.0000 </r>
       <r>   21.5015    0.0000 </r>
       <r>   22.3806    0.0000 </r>
       <r>   22.6401    0.0000 </r>
       <r>   25.1494    0.0000 </r>
       <r>   27.6366    0.0000 </r>
       <r>   27.7990    0.0000 </r>
       <r>   27.7990    0.0000 </r>
       <r>   28.6403    0.0000 </r>
       <r>   28.9197    0.0000 </r>
       <r>   28.9197    0.0000 </r>
       <r>   30.4496    0.0000 </r>
       <r>   32.4123    0.0000 </r>
       <r>   33.2672    0.0000 </r>
       <r>   33.6595    0.0000 </r>
       <r>   34.3491    0.0000 </r>
       <r>   34.3491    0.0000 </r>
      </set>
      <set comment="kpoint 17">
       <r>    2.3789    1.0000 </r>
       <r>    2.6208    1.0000 </r>
       <r>    2.7776    1.0000 </r>
       <r>    2.8393    1.0000 </r>
       <r>    2.8894    1.0000 </r>
       <r>    2.8902    1.0000 </r>
       <r>    3.1495    1.0000 </r>
       <r>    3.1970    1.0000 </r>
       <r>    3.6101    1.0000 </r>
       <r>    3.7727    1.0000 </r>
       <r>    3.8245    1.0000 </r>
       <r>    3.8556    1.0000 </r>
       <r>    4.1078    1.0000 </r>
       <r>    4.3367    1.0000 </r>
       <r>    4.6212    1.0000 </r>
       <r>    4.8123    1.0000 </r>
       <r>    4.8837    1.0000 </r>
       <r>    4.9102    1.0000 </r>
       <r>    5.1590    1.0000 </r>
       <r>    5.2089    1.0000 </r>
       <r>    5.3222    1.0000 </r>
       <r>    7.3489    1.0000 </r>
       <r>    9.2399   -0.0000 </r>
       <r>   11.9463    0.0000 </r>
       <r>   13.9568    0.0000 </r>
       <r>   15.8074    0.0000 </r>
       <r>   17.1246    0.0000 </r>
       <r>   17.2970    0.0000 </r>
       <r>   18.7792    0.0000 </r>
       <r>   18.9801    0.0000 </r>
       <r>   20.1577    0.0000 </r>
       <r>   21.3453    0.0000 </r>
       <r>   21.7025    0.0000 </r>
       <r>   21.7236    0.0000 </r>
       <r>   21.7304    0.0000 </r>
       <r>   25.7149    0.0000 </r>
       <r>   27.3045    0.0000 </r>
       <r>   27.9068    0.0000 </r>
       <r>   27.9734    0.0000 </r>
       <r>   29.0615    0.0000 </r>
       <r>   29.1578    0.0000 </r>
       <r>   29.5575    0.0000 </r>
       <r>   30.8059    0.0000 </r>
       <r>   31.8210    0.0000 </r>
       <r>   33.7641    0.0000 </r>
       <r>   33.8104    0.0000 </r>
       <r>   33.9182    0.0000 </r>
       <r>   34.0321    0.0000 </r>
      </set>
      <set comment="kpoint 18">
       <r>    2.7393    1.0000 </r>
       <r>    2.8364    1.0000 </r>
       <r>    2.9204    1.0000 </r>
       <r>    2.9253    1.0000 </r>
       <r>    3.0125    1.0000 </r>
       <r>    3.0665    1.0000 </r>
       <r>    3.1810    1.0000 </r>
       <r>    3.2827    1.0000 </r>
       <r>    3.3361    1.0000 </r>
       <r>    3.5122    1.0000 </r>
       <r>    3.6186    1.0000 </r>
       <r>    3.6842    1.0000 </r>
       <r>    4.3295    1.0000 </r>
       <r>    4.4970    1.0000 </r>
       <r>    4.5422    1.0000 </r>
       <r>    4.5964    1.0000 </r>
       <r>    4.6190    1.0000 </r>
       <r>    4.7210    1.0000 </r>
       <r>    5.1601    1.0000 </r>
       <r>    5.1728    1.0000 </r>
       <r>    5.7744    1.0000 </r>
       <r>    6.4370    1.0000 </r>
       <r>   10.0612   -0.0000 </r>
       <r>   10.9559   -0.0000 </r>
       <r>   14.9543    0.0000 </r>
       <r>   16.0227    0.0000 </r>
       <r>   16.1563    0.0000 </r>
       <r>   16.6483    0.0000 </r>
       <r>   19.5469    0.0000 </r>
       <r>   19.8526    0.0000 </r>
       <r>   20.4030    0.0000 </r>
       <r>   20.6490    0.0000 </r>
       <r>   20.7824    0.0000 </r>
       <r>   21.2252    0.0000 </r>
       <r>   23.7084    0.0000 </r>
       <r>   25.6038    0.0000 </r>
       <r>   27.1032    0.0000 </r>
       <r>   28.0175    0.0000 </r>
       <r>   28.0728    0.0000 </r>
       <r>   28.6153    0.0000 </r>
       <r>   29.4373    0.0000 </r>
       <r>   30.0991    0.0000 </r>
       <r>   30.6599    0.0000 </r>
       <r>   32.2923    0.0000 </r>
       <r>   32.3732    0.0000 </r>
       <r>   33.0950    0.0000 </r>
       <r>   34.4182    0.0000 </r>
       <r>   35.2502    0.0000 </r>
      </set>
      <set comment="kpoint 19">
       <r>    2.6704    1.0000 </r>
       <r>    2.7290    1.0000 </r>
       <r>    2.9769    1.0000 </r>
       <r>    2.9769    1.0000 </r>
       <r>    3.1097    1.0000 </r>
       <r>    3.1097    1.0000 </r>
       <r>    3.1952    1.0000 </r>
       <r>    3.3489    1.0000 </r>
       <r>    3.4201    1.0000 </r>
       <r>    3.4201    1.0000 </r>
       <r>    3.6844    1.0000 </r>
       <r>    3.8080    1.0000 </r>
       <r>    4.2036    1.0000 </r>
       <r>    4.2360    1.0000 </r>
       <r>    4.4948    1.0000 </r>
       <r>    4.7040    1.0000 </r>
       <r>    4.7040    1.0000 </r>
       <r>    4.8854    1.0000 </r>
       <r>    4.8854    1.0000 </r>
       <r>    5.0508    1.0000 </r>
       <r>    5.7634    1.0000 </r>
       <r>    8.0752    1.0000 </r>
       <r>    8.0752    1.0000 </r>
       <r>   10.7885   -0.0000 </r>
       <r>   14.7943    0.0000 </r>
       <r>   16.1073    0.0000 </r>
       <r>   17.8700    0.0000 </r>
       <r>   17.8700    0.0000 </r>
       <r>   17.8806    0.0000 </r>
       <r>   17.8806    0.0000 </r>
       <r>   20.2952    0.0000 </r>
       <r>   20.7022    0.0000 </r>
       <r>   22.1067    0.0000 </r>
       <r>   22.1067    0.0000 </r>
       <r>   23.1752    0.0000 </r>
       <r>   25.0812    0.0000 </r>
       <r>   26.9925    0.0000 </r>
       <r>   28.7989    0.0000 </r>
       <r>   29.0877    0.0000 </r>
       <r>   29.0877    0.0000 </r>
       <r>   29.3023    0.0000 </r>
       <r>   29.3023    0.0000 </r>
       <r>   29.4603    0.0000 </r>
       <r>   32.9686    0.0000 </r>
       <r>   33.6328    0.0000 </r>
       <r>   33.9674    0.0000 </r>
       <r>   33.9674    0.0000 </r>
       <r>   34.0814    0.0000 </r>
      </set>
      <set comment="kpoint 20">
       <r>    2.8941    1.0000 </r>
       <r>    2.9320    1.0000 </r>
       <r>    3.0690    1.0000 </r>
       <r>    3.1187    1.0000 </r>
       <r>    3.1388    1.0000 </r>
       <r>    3.1485    1.0000 </r>
       <r>    3.2118    1.0000 </r>
       <r>    3.3626    1.0000 </r>
       <r>    3.4435    1.0000 </r>
       <r>    3.4565    1.0000 </r>
       <r>    3.4589    1.0000 </r>
       <r>    3.6698    1.0000 </r>
       <r>    4.3160    1.0000 </r>
       <r>    4.3768    1.0000 </r>
       <r>    4.4218    1.0000 </r>
       <r>    4.5076    1.0000 </r>
       <r>    4.5198    1.0000 </r>
       <r>    4.6136    1.0000 </r>
       <r>    4.9030    1.0000 </r>
       <r>    4.9516    1.0000 </r>
       <r>    6.3429    1.0000 </r>
       <r>    7.1051    1.0000 </r>
       <r>    8.8749   -0.0000 </r>
       <r>    9.7706   -0.0000 </r>
       <r>   15.7528    0.0000 </r>
       <r>   16.5389    0.0000 </r>
       <r>   16.7927    0.0000 </r>
       <r>   17.1221    0.0000 </r>
       <r>   18.5592    0.0000 </r>
       <r>   18.7544    0.0000 </r>
       <r>   19.3674    0.0000 </r>
       <r>   19.7054    0.0000 </r>
       <r>   22.6137    0.0000 </r>
       <r>   23.1887    0.0000 </r>
       <r>   24.0563    0.0000 </r>
       <r>   25.8285    0.0000 </r>
       <r>   26.0743    0.0000 </r>
       <r>   27.7373    0.0000 </r>
       <r>   28.8029    0.0000 </r>
       <r>   28.8193    0.0000 </r>
       <r>   29.2842    0.0000 </r>
       <r>   29.3956    0.0000 </r>
       <r>   30.8247    0.0000 </r>
       <r>   32.4648    0.0000 </r>
       <r>   33.6744    0.0000 </r>
       <r>   33.9280    0.0000 </r>
       <r>   33.9360    0.0000 </r>
       <r>   34.8336    0.0000 </r>
      </set>
      <set comment="kpoint 21">
       <r>    2.9735    1.0000 </r>
       <r>    3.0321    1.0000 </r>
       <r>    3.0860    1.0000 </r>
       <r>    3.0860    1.0000 </r>
       <r>    3.2065    1.0000 </r>
       <r>    3.2257    1.0000 </r>
       <r>    3.2257    1.0000 </r>
       <r>    3.3628    1.0000 </r>
       <r>    3.5602    1.0000 </r>
       <r>    3.5602    1.0000 </r>
       <r>    3.6036    1.0000 </r>
       <r>    3.7026    1.0000 </r>
       <r>    4.2158    1.0000 </r>
       <r>    4.3019    1.0000 </r>
       <r>    4.3364    1.0000 </r>
       <r>    4.3364    1.0000 </r>
       <r>    4.4856    1.0000 </r>
       <r>    4.6664    1.0000 </r>
       <r>    4.6664    1.0000 </r>
       <r>    4.7764    1.0000 </r>
       <r>    7.0280    1.0000 </r>
       <r>    7.8641    1.0000 </r>
       <r>    7.8641    1.0000 </r>
       <r>    8.7438   -0.0005 </r>
       <r>   16.6756    0.0000 </r>
       <r>   17.0581    0.0000 </r>
       <r>   17.6861    0.0000 </r>
       <r>   17.6861    0.0000 </r>
       <r>   17.7286    0.0000 </r>
       <r>   17.7286    0.0000 </r>
       <r>   18.4757    0.0000 </r>
       <r>   18.6663    0.0000 </r>
       <r>   24.5518    0.0000 </r>
       <r>   24.5518    0.0000 </r>
       <r>   25.1171    0.0000 </r>
       <r>   25.2776    0.0000 </r>
       <r>   25.8801    0.0000 </r>
       <r>   27.1074    0.0000 </r>
       <r>   27.1074    0.0000 </r>
       <r>   27.2497    0.0000 </r>
       <r>   30.3112    0.0000 </r>
       <r>   30.8222    0.0000 </r>
       <r>   30.8222    0.0000 </r>
       <r>   32.0807    0.0000 </r>
       <r>   33.7486    0.0000 </r>
       <r>   34.0707    0.0000 </r>
       <r>   34.2739    0.0000 </r>
       <r>   34.2739    0.0000 </r>
      </set>
      <set comment="kpoint 22">
       <r>    0.8969    1.0000 </r>
       <r>    2.0843    1.0000 </r>
       <r>    2.0843    1.0000 </r>
       <r>    2.0843    1.0000 </r>
       <r>    2.2217    1.0000 </r>
       <r>    2.2217    1.0000 </r>
       <r>    2.2217    1.0000 </r>
       <r>    3.5388    1.0000 </r>
       <r>    3.6612    1.0000 </r>
       <r>    3.6612    1.0000 </r>
       <r>    4.5984    1.0000 </r>
       <r>    4.5984    1.0000 </r>
       <r>    5.2498    1.0000 </r>
       <r>    5.2498    1.0000 </r>
       <r>    5.2498    1.0000 </r>
       <r>    5.2851    1.0000 </r>
       <r>    5.2851    1.0000 </r>
       <r>    5.2851    1.0000 </r>
       <r>    5.5565    1.0000 </r>
       <r>    5.5565    1.0000 </r>
       <r>    5.5565    1.0000 </r>
       <r>    9.8729   -0.0000 </r>
       <r>    9.8729   -0.0000 </r>
       <r>    9.8729   -0.0000 </r>
       <r>   15.8250    0.0000 </r>
       <r>   15.8250    0.0000 </r>
       <r>   15.8250    0.0000 </r>
       <r>   17.9866    0.0000 </r>
       <r>   17.9866    0.0000 </r>
       <r>   17.9866    0.0000 </r>
       <r>   19.4816    0.0000 </r>
       <r>   19.4816    0.0000 </r>
       <r>   19.4816    0.0000 </r>
       <r>   24.3651    0.0000 </r>
       <r>   25.4763    0.0000 </r>
       <r>   25.4763    0.0000 </r>
       <r>   25.4763    0.0000 </r>
       <r>   26.1781    0.0000 </r>
       <r>   26.9906    0.0000 </r>
       <r>   26.9906    0.0000 </r>
       <r>   26.9906    0.0000 </r>
       <r>   28.0616    0.0000 </r>
       <r>   28.0616    0.0000 </r>
       <r>   32.3713    0.0000 </r>
       <r>   33.5559    0.0000 </r>
       <r>   33.5559    0.0000 </r>
       <r>   35.2764    0.0000 </r>
       <r>   37.3784    0.0000 </r>
      </set>
      <set comment="kpoint 23">
       <r>    1.1406    1.0000 </r>
       <r>    2.1813    1.0000 </r>
       <r>    2.1906    1.0000 </r>
       <r>    2.1906    1.0000 </r>
       <r>    2.3020    1.0000 </r>
       <r>    2.3621    1.0000 </r>
       <r>    2.3621    1.0000 </r>
       <r>    3.4679    1.0000 </r>
       <r>    3.7330    1.0000 </r>
       <r>    3.7373    1.0000 </r>
       <r>    4.5147    1.0000 </r>
       <r>    4.6547    1.0000 </r>
       <r>    4.9041    1.0000 </r>
       <r>    4.9041    1.0000 </r>
       <r>    5.1096    1.0000 </r>
       <r>    5.1268    1.0000 </r>
       <r>    5.1539    1.0000 </r>
       <r>    5.1539    1.0000 </r>
       <r>    5.4890    1.0000 </r>
       <r>    5.5382    1.0000 </r>
       <r>    5.5382    1.0000 </r>
       <r>    8.6927   -0.0044 </r>
       <r>   10.4199   -0.0000 </r>
       <r>   10.4199   -0.0000 </r>
       <r>   15.8502    0.0000 </r>
       <r>   15.8502    0.0000 </r>
       <r>   16.9968    0.0000 </r>
       <r>   16.9968    0.0000 </r>
       <r>   17.3697    0.0000 </r>
       <r>   18.4129    0.0000 </r>
       <r>   19.4537    0.0000 </r>
       <r>   19.4537    0.0000 </r>
       <r>   19.9168    0.0000 </r>
       <r>   24.0552    0.0000 </r>
       <r>   25.4302    0.0000 </r>
       <r>   25.5003    0.0000 </r>
       <r>   25.8121    0.0000 </r>
       <r>   25.8121    0.0000 </r>
       <r>   27.0205    0.0000 </r>
       <r>   27.3946    0.0000 </r>
       <r>   28.3785    0.0000 </r>
       <r>   28.3813    0.0000 </r>
       <r>   28.3813    0.0000 </r>
       <r>   31.7938    0.0000 </r>
       <r>   33.2492    0.0000 </r>
       <r>   33.8072    0.0000 </r>
       <r>   35.5885    0.0000 </r>
       <r>   36.5274    0.0000 </r>
      </set>
      <set comment="kpoint 24">
       <r>    1.5227    1.0000 </r>
       <r>    2.3198    1.0000 </r>
       <r>    2.3627    1.0000 </r>
       <r>    2.3627    1.0000 </r>
       <r>    2.4342    1.0000 </r>
       <r>    2.5747    1.0000 </r>
       <r>    2.5747    1.0000 </r>
       <r>    3.3335    1.0000 </r>
       <r>    3.8564    1.0000 </r>
       <r>    3.8617    1.0000 </r>
       <r>    4.4275    1.0000 </r>
       <r>    4.4353    1.0000 </r>
       <r>    4.4353    1.0000 </r>
       <r>    4.7437    1.0000 </r>
       <r>    4.8429    1.0000 </r>
       <r>    4.9388    1.0000 </r>
       <r>    4.9835    1.0000 </r>
       <r>    4.9835    1.0000 </r>
       <r>    5.3891    1.0000 </r>
       <r>    5.5236    1.0000 </r>
       <r>    5.5236    1.0000 </r>
       <r>    7.4411    1.0000 </r>
       <r>   11.1709   -0.0000 </r>
       <r>   11.1709   -0.0000 </r>
       <r>   15.5960    0.0000 </r>
       <r>   15.5960    0.0000 </r>
       <r>   16.3706    0.0000 </r>
       <r>   16.3706    0.0000 </r>
       <r>   18.8613    0.0000 </r>
       <r>   18.9535    0.0000 </r>
       <r>   18.9535    0.0000 </r>
       <r>   19.4438    0.0000 </r>
       <r>   20.6119    0.0000 </r>
       <r>   23.3833    0.0000 </r>
       <r>   25.1554    0.0000 </r>
       <r>   25.3781    0.0000 </r>
       <r>   26.3560    0.0000 </r>
       <r>   26.7825    0.0000 </r>
       <r>   26.7825    0.0000 </r>
       <r>   27.1122    0.0000 </r>
       <r>   28.0081    0.0000 </r>
       <r>   30.0003    0.0000 </r>
       <r>   30.0003    0.0000 </r>
       <r>   31.2588    0.0000 </r>
       <r>   33.3441    0.0000 </r>
       <r>   33.6947    0.0000 </r>
       <r>   34.8341    0.0000 </r>
       <r>   35.1778    0.0000 </r>
      </set>
      <set comment="kpoint 25">
       <r>    1.9862    1.0000 </r>
       <r>    2.4646    1.0000 </r>
       <r>    2.5779    1.0000 </r>
       <r>    2.5779    1.0000 </r>
       <r>    2.6053    1.0000 </r>
       <r>    2.8314    1.0000 </r>
       <r>    2.8314    1.0000 </r>
       <r>    3.1616    1.0000 </r>
       <r>    3.9363    1.0000 </r>
       <r>    3.9586    1.0000 </r>
       <r>    3.9586    1.0000 </r>
       <r>    4.0308    1.0000 </r>
       <r>    4.4835    1.0000 </r>
       <r>    4.5150    1.0000 </r>
       <r>    4.7107    1.0000 </r>
       <r>    4.7853    1.0000 </r>
       <r>    4.7853    1.0000 </r>
       <r>    4.8586    1.0000 </r>
       <r>    5.2661    1.0000 </r>
       <r>    5.5159    1.0000 </r>
       <r>    5.5159    1.0000 </r>
       <r>    6.3161    1.0000 </r>
       <r>   12.0267    0.0000 </r>
       <r>   12.0267    0.0000 </r>
       <r>   14.7630    0.0000 </r>
       <r>   14.7630    0.0000 </r>
       <r>   16.4552    0.0000 </r>
       <r>   16.4552    0.0000 </r>
       <r>   18.2992    0.0000 </r>
       <r>   18.2992    0.0000 </r>
       <r>   19.7288    0.0000 </r>
       <r>   21.3830    0.0000 </r>
       <r>   21.5289    0.0000 </r>
       <r>   22.5091    0.0000 </r>
       <r>   24.9813    0.0000 </r>
       <r>   25.1206    0.0000 </r>
       <r>   25.3562    0.0000 </r>
       <r>   27.0982    0.0000 </r>
       <r>   27.3304    0.0000 </r>
       <r>   28.0765    0.0000 </r>
       <r>   28.0765    0.0000 </r>
       <r>   30.0333    0.0000 </r>
       <r>   31.5940    0.0000 </r>
       <r>   31.5940    0.0000 </r>
       <r>   33.5867    0.0000 </r>
       <r>   33.7282    0.0000 </r>
       <r>   33.7282    0.0000 </r>
       <r>   33.8256    0.0000 </r>
      </set>
      <set comment="kpoint 26">
       <r>    2.3926    1.0000 </r>
       <r>    2.5435    1.0000 </r>
       <r>    2.7556    1.0000 </r>
       <r>    2.7556    1.0000 </r>
       <r>    2.7869    1.0000 </r>
       <r>    2.9732    1.0000 </r>
       <r>    3.1131    1.0000 </r>
       <r>    3.1131    1.0000 </r>
       <r>    3.5345    1.0000 </r>
       <r>    3.5345    1.0000 </r>
       <r>    3.9778    1.0000 </r>
       <r>    4.1817    1.0000 </r>
       <r>    4.2372    1.0000 </r>
       <r>    4.4693    1.0000 </r>
       <r>    4.6394    1.0000 </r>
       <r>    4.6394    1.0000 </r>
       <r>    4.8172    1.0000 </r>
       <r>    4.9908    1.0000 </r>
       <r>    5.1302    1.0000 </r>
       <r>    5.4243    1.0000 </r>
       <r>    5.5127    1.0000 </r>
       <r>    5.5127    1.0000 </r>
       <r>   12.9259    0.0000 </r>
       <r>   12.9259    0.0000 </r>
       <r>   13.8483    0.0000 </r>
       <r>   13.8483    0.0000 </r>
       <r>   16.7011    0.0000 </r>
       <r>   16.7011    0.0000 </r>
       <r>   17.7648    0.0000 </r>
       <r>   17.7648    0.0000 </r>
       <r>   20.6327    0.0000 </r>
       <r>   21.5741    0.0000 </r>
       <r>   22.6232    0.0000 </r>
       <r>   23.3143    0.0000 </r>
       <r>   23.8428    0.0000 </r>
       <r>   24.6263    0.0000 </r>
       <r>   25.4406    0.0000 </r>
       <r>   25.9862    0.0000 </r>
       <r>   27.7860    0.0000 </r>
       <r>   28.6597    0.0000 </r>
       <r>   29.3982    0.0000 </r>
       <r>   29.3982    0.0000 </r>
       <r>   31.5031    0.0000 </r>
       <r>   31.5031    0.0000 </r>
       <r>   34.0390    0.0000 </r>
       <r>   34.0390    0.0000 </r>
       <r>   34.3448    0.0000 </r>
       <r>   34.5927    0.0000 </r>
      </set>
      <set comment="kpoint 27">
       <r>    1.3663    1.0000 </r>
       <r>    2.2534    1.0000 </r>
       <r>    2.2794    1.0000 </r>
       <r>    2.2794    1.0000 </r>
       <r>    2.4469    1.0000 </r>
       <r>    2.4469    1.0000 </r>
       <r>    2.5265    1.0000 </r>
       <r>    3.4528    1.0000 </r>
       <r>    3.7637    1.0000 </r>
       <r>    3.7845    1.0000 </r>
       <r>    4.5052    1.0000 </r>
       <r>    4.6730    1.0000 </r>
       <r>    4.7058    1.0000 </r>
       <r>    4.7058    1.0000 </r>
       <r>    4.7060    1.0000 </r>
       <r>    4.9899    1.0000 </r>
       <r>    5.0599    1.0000 </r>
       <r>    5.0599    1.0000 </r>
       <r>    5.4795    1.0000 </r>
       <r>    5.4795    1.0000 </r>
       <r>    5.4857    1.0000 </r>
       <r>    9.2009   -0.0000 </r>
       <r>    9.2009   -0.0000 </r>
       <r>   10.9028   -0.0000 </r>
       <r>   15.4188    0.0000 </r>
       <r>   16.2790    0.0000 </r>
       <r>   17.0309    0.0000 </r>
       <r>   17.0309    0.0000 </r>
       <r>   17.7890    0.0000 </r>
       <r>   17.7890    0.0000 </r>
       <r>   19.8454    0.0000 </r>
       <r>   19.8454    0.0000 </r>
       <r>   20.3177    0.0000 </r>
       <r>   23.2247    0.0000 </r>
       <r>   25.1114    0.0000 </r>
       <r>   25.3069    0.0000 </r>
       <r>   25.7855    0.0000 </r>
       <r>   25.7855    0.0000 </r>
       <r>   27.3881    0.0000 </r>
       <r>   28.4356    0.0000 </r>
       <r>   28.4356    0.0000 </r>
       <r>   28.9512    0.0000 </r>
       <r>   29.9124    0.0000 </r>
       <r>   30.8883    0.0000 </r>
       <r>   32.9767    0.0000 </r>
       <r>   33.5799    0.0000 </r>
       <r>   35.7042    0.0000 </r>
       <r>   36.3905    0.0000 </r>
      </set>
      <set comment="kpoint 28">
       <r>    1.7151    1.0000 </r>
       <r>    2.3859    1.0000 </r>
       <r>    2.4011    1.0000 </r>
       <r>    2.4445    1.0000 </r>
       <r>    2.5902    1.0000 </r>
       <r>    2.6585    1.0000 </r>
       <r>    2.7456    1.0000 </r>
       <r>    3.3704    1.0000 </r>
       <r>    3.8515    1.0000 </r>
       <r>    3.8617    1.0000 </r>
       <r>    4.2503    1.0000 </r>
       <r>    4.3392    1.0000 </r>
       <r>    4.4455    1.0000 </r>
       <r>    4.4585    1.0000 </r>
       <r>    4.7909    1.0000 </r>
       <r>    4.8431    1.0000 </r>
       <r>    4.8754    1.0000 </r>
       <r>    4.9368    1.0000 </r>
       <r>    5.3918    1.0000 </r>
       <r>    5.4347    1.0000 </r>
       <r>    5.4377    1.0000 </r>
       <r>    7.9336    1.0000 </r>
       <r>    9.8829   -0.0000 </r>
       <r>   11.5867    0.0000 </r>
       <r>   14.3807    0.0000 </r>
       <r>   16.0862    0.0000 </r>
       <r>   16.3513    0.0000 </r>
       <r>   17.7588    0.0000 </r>
       <r>   17.8726    0.0000 </r>
       <r>   19.2922    0.0000 </r>
       <r>   19.5385    0.0000 </r>
       <r>   20.4567    0.0000 </r>
       <r>   20.4680    0.0000 </r>
       <r>   22.2501    0.0000 </r>
       <r>   24.6409    0.0000 </r>
       <r>   25.6911    0.0000 </r>
       <r>   25.7745    0.0000 </r>
       <r>   26.7766    0.0000 </r>
       <r>   26.8991    0.0000 </r>
       <r>   28.5652    0.0000 </r>
       <r>   28.9456    0.0000 </r>
       <r>   30.0083    0.0000 </r>
       <r>   30.4694    0.0000 </r>
       <r>   31.5837    0.0000 </r>
       <r>   32.5604    0.0000 </r>
       <r>   34.0017    0.0000 </r>
       <r>   34.8661    0.0000 </r>
       <r>   34.9242    0.0000 </r>
      </set>
      <set comment="kpoint 29">
       <r>    2.1283    1.0000 </r>
       <r>    2.5259    1.0000 </r>
       <r>    2.5814    1.0000 </r>
       <r>    2.6631    1.0000 </r>
       <r>    2.7756    1.0000 </r>
       <r>    2.8928    1.0000 </r>
       <r>    2.9705    1.0000 </r>
       <r>    3.2422    1.0000 </r>
       <r>    3.8237    1.0000 </r>
       <r>    3.8544    1.0000 </r>
       <r>    3.9338    1.0000 </r>
       <r>    4.0048    1.0000 </r>
       <r>    4.1550    1.0000 </r>
       <r>    4.5575    1.0000 </r>
       <r>    4.6426    1.0000 </r>
       <r>    4.6860    1.0000 </r>
       <r>    4.7636    1.0000 </r>
       <r>    4.9749    1.0000 </r>
       <r>    5.2663    1.0000 </r>
       <r>    5.4012    1.0000 </r>
       <r>    5.4049    1.0000 </r>
       <r>    6.7958    1.0000 </r>
       <r>   10.6557   -0.0000 </r>
       <r>   12.3694    0.0000 </r>
       <r>   13.3705    0.0000 </r>
       <r>   15.1109    0.0000 </r>
       <r>   16.6325    0.0000 </r>
       <r>   18.0168    0.0000 </r>
       <r>   18.5242    0.0000 </r>
       <r>   18.7214    0.0000 </r>
       <r>   20.0134    0.0000 </r>
       <r>   21.2645    0.0000 </r>
       <r>   21.2726    0.0000 </r>
       <r>   21.5205    0.0000 </r>
       <r>   24.0001    0.0000 </r>
       <r>   25.8315    0.0000 </r>
       <r>   26.1595    0.0000 </r>
       <r>   26.8075    0.0000 </r>
       <r>   27.8186    0.0000 </r>
       <r>   28.0168    0.0000 </r>
       <r>   28.8179    0.0000 </r>
       <r>   30.5078    0.0000 </r>
       <r>   31.1887    0.0000 </r>
       <r>   32.4861    0.0000 </r>
       <r>   33.0065    0.0000 </r>
       <r>   33.9163    0.0000 </r>
       <r>   34.0067    0.0000 </r>
       <r>   34.0552    0.0000 </r>
      </set>
      <set comment="kpoint 30">
       <r>    2.4791    1.0000 </r>
       <r>    2.5981    1.0000 </r>
       <r>    2.8025    1.0000 </r>
       <r>    2.8637    1.0000 </r>
       <r>    2.9574    1.0000 </r>
       <r>    3.0719    1.0000 </r>
       <r>    3.1030    1.0000 </r>
       <r>    3.1117    1.0000 </r>
       <r>    3.5270    1.0000 </r>
       <r>    3.5921    1.0000 </r>
       <r>    3.8045    1.0000 </r>
       <r>    3.8981    1.0000 </r>
       <r>    4.1864    1.0000 </r>
       <r>    4.4037    1.0000 </r>
       <r>    4.5769    1.0000 </r>
       <r>    4.6089    1.0000 </r>
       <r>    4.8384    1.0000 </r>
       <r>    5.0922    1.0000 </r>
       <r>    5.2798    1.0000 </r>
       <r>    5.3871    1.0000 </r>
       <r>    5.3887    1.0000 </r>
       <r>    5.8814    1.0000 </r>
       <r>   11.4832    0.0000 </r>
       <r>   12.3459    0.0000 </r>
       <r>   13.3054    0.0000 </r>
       <r>   14.1814    0.0000 </r>
       <r>   17.0634    0.0000 </r>
       <r>   17.6164    0.0000 </r>
       <r>   18.8670    0.0000 </r>
       <r>   19.3816    0.0000 </r>
       <r>   19.4040    0.0000 </r>
       <r>   20.3029    0.0000 </r>
       <r>   22.2044    0.0000 </r>
       <r>   23.1573    0.0000 </r>
       <r>   23.4808    0.0000 </r>
       <r>   25.1355    0.0000 </r>
       <r>   26.0464    0.0000 </r>
       <r>   26.6397    0.0000 </r>
       <r>   28.1517    0.0000 </r>
       <r>   28.8923    0.0000 </r>
       <r>   29.2470    0.0000 </r>
       <r>   29.8811    0.0000 </r>
       <r>   31.0694    0.0000 </r>
       <r>   31.9139    0.0000 </r>
       <r>   33.1721    0.0000 </r>
       <r>   34.1337    0.0000 </r>
       <r>   34.5283    0.0000 </r>
       <r>   34.9110    0.0000 </r>
      </set>
      <set comment="kpoint 31">
       <r>    2.0018    1.0000 </r>
       <r>    2.4721    1.0000 </r>
       <r>    2.5487    1.0000 </r>
       <r>    2.5487    1.0000 </r>
       <r>    2.8075    1.0000 </r>
       <r>    2.8075    1.0000 </r>
       <r>    2.9563    1.0000 </r>
       <r>    3.3833    1.0000 </r>
       <r>    3.8648    1.0000 </r>
       <r>    3.9025    1.0000 </r>
       <r>    4.0199    1.0000 </r>
       <r>    4.0199    1.0000 </r>
       <r>    4.1416    1.0000 </r>
       <r>    4.4228    1.0000 </r>
       <r>    4.6820    1.0000 </r>
       <r>    4.7974    1.0000 </r>
       <r>    4.7974    1.0000 </r>
       <r>    4.9801    1.0000 </r>
       <r>    5.3249    1.0000 </r>
       <r>    5.3249    1.0000 </r>
       <r>    5.3378    1.0000 </r>
       <r>    8.5814   -0.0304 </r>
       <r>    8.5814   -0.0304 </r>
       <r>   12.1652    0.0000 </r>
       <r>   13.1938    0.0000 </r>
       <r>   16.5621    0.0000 </r>
       <r>   16.6607    0.0000 </r>
       <r>   16.6607    0.0000 </r>
       <r>   19.6095    0.0000 </r>
       <r>   19.6095    0.0000 </r>
       <r>   19.9527    0.0000 </r>
       <r>   19.9527    0.0000 </r>
       <r>   21.1427    0.0000 </r>
       <r>   21.6077    0.0000 </r>
       <r>   23.8418    0.0000 </r>
       <r>   25.1132    0.0000 </r>
       <r>   26.8017    0.0000 </r>
       <r>   26.8017    0.0000 </r>
       <r>   27.2262    0.0000 </r>
[...]
       <r>   31.6211    0.0000 </r>
       <r>   31.8432    0.0000 </r>
       <r>   31.8432    0.0000 </r>
       <r>   32.0740    0.0000 </r>
       <r>   32.1578    0.0000 </r>
       <r>   32.9625    0.0000 </r>
       <r>   32.9625    0.0000 </r>
      </set>
      <set comment="kpoint 55">
       <r>    2.0840    1.0000 </r>
       <r>    2.1324    1.0000 </r>
       <r>    2.1324    1.0000 </r>
       <r>    2.1554    1.0000 </r>
       <r>    3.4882    1.0000 </r>
       <r>    3.5168    1.0000 </r>
       <r>    3.5168    1.0000 </r>
       <r>    3.5874    1.0000 </r>
       <r>    3.6261    1.0000 </r>
       <r>    3.6714    1.0000 </r>
       <r>    3.6714    1.0000 </r>
       <r>    3.6856    1.0000 </r>
       <r>    4.9886    1.0000 </r>
       <r>    5.0136    1.0000 </r>
       <r>    5.0136    1.0000 </r>
       <r>    5.2163    1.0000 </r>
       <r>    5.2694    1.0000 </r>
       <r>    5.3694    1.0000 </r>
       <r>    5.3732    1.0000 </r>
       <r>    5.3732    1.0000 </r>
       <r>    7.1788    1.0000 </r>
       <r>    8.0630    1.0000 </r>
       <r>    8.0630    1.0000 </r>
       <r>    8.6035   -0.0350 </r>
       <r>   12.0914    0.0000 </r>
       <r>   12.5751    0.0000 </r>
       <r>   12.5751    0.0000 </r>
       <r>   13.3112    0.0000 </r>
       <r>   23.2399    0.0000 </r>
       <r>   23.4873    0.0000 </r>
       <r>   23.4873    0.0000 </r>
       <r>   23.7243    0.0000 </r>
       <r>   24.9721    0.0000 </r>
       <r>   25.0386    0.0000 </r>
       <r>   25.0386    0.0000 </r>
       <r>   25.6491    0.0000 </r>
       <r>   25.7398    0.0000 </r>
       <r>   26.0236    0.0000 </r>
       <r>   26.0236    0.0000 </r>
       <r>   26.6725    0.0000 </r>
       <r>   31.2185    0.0000 </r>
       <r>   31.5110    0.0000 </r>
       <r>   31.5459    0.0000 </r>
       <r>   31.5459    0.0000 </r>
       <r>   31.8688    0.0000 </r>
       <r>   32.0398    0.0000 </r>
       <r>   32.0640    0.0000 </r>
       <r>   32.0640    0.0000 </r>
      </set>
      <set comment="kpoint 56">
       <r>    2.0246    1.0000 </r>
       <r>    2.0495    1.0000 </r>
       <r>    2.0495    1.0000 </r>
       <r>    2.0495    1.0000 </r>
       <r>    3.5489    1.0000 </r>
       <r>    3.5489    1.0000 </r>
       <r>    3.5489    1.0000 </r>
       <r>    3.5833    1.0000 </r>
       <r>    3.5833    1.0000 </r>
       <r>    3.6037    1.0000 </r>
       <r>    3.6037    1.0000 </r>
       <r>    3.6037    1.0000 </r>
       <r>    5.2688    1.0000 </r>
       <r>    5.2688    1.0000 </r>
       <r>    5.2688    1.0000 </r>
       <r>    5.3804    1.0000 </r>
       <r>    5.3804    1.0000 </r>
       <r>    5.4149    1.0000 </r>
       <r>    5.4149    1.0000 </r>
       <r>    5.4149    1.0000 </r>
       <r>    7.5659    1.0000 </r>
       <r>    8.1285    1.0000 </r>
       <r>    8.1285    1.0000 </r>
       <r>    8.1285    1.0000 </r>
       <r>   12.0504    0.0000 </r>
       <r>   12.0504    0.0000 </r>
       <r>   12.0504    0.0000 </r>
       <r>   12.5101    0.0000 </r>
       <r>   23.6066    0.0000 </r>
       <r>   23.6066    0.0000 </r>
       <r>   23.6066    0.0000 </r>
       <r>   23.6982    0.0000 </r>
       <r>   25.8716    0.0000 </r>
       <r>   25.8716    0.0000 </r>
       <r>   25.8716    0.0000 </r>
       <r>   25.9614    0.0000 </r>
       <r>   25.9614    0.0000 </r>
       <r>   25.9614    0.0000 </r>
       <r>   26.3199    0.0000 </r>
       <r>   26.3199    0.0000 </r>
       <r>   31.1962    0.0000 </r>
       <r>   31.1962    0.0000 </r>
       <r>   31.4320    0.0000 </r>
       <r>   31.4320    0.0000 </r>
       <r>   31.4320    0.0000 </r>
       <r>   31.4816    0.0000 </r>
       <r>   31.4816    0.0000 </r>
       <r>   31.4816    0.0000 </r>
      </set>
     </set>
    </set>
   </array>
  </eigenvalues>
  <separator name="orbital magnetization" >
   <v name="MAGDIPOLOUT">      0.00000000      0.00000000      0.00000000</v>
  </separator>
  <dos>
   <i name="efermi">      8.47521231 </i>
   <total>
    <array>
     <dimension dim="1">gridpoints</dimension>
     <dimension dim="2">spin</dimension>
     <field>energy</field>
     <field>total</field>
     <field>integrated</field>
     <set>
      <set comment="spin 1">
       <r>    -1.2201     0.0000     0.0000 </r>
       <r>    -1.0835     0.0000     0.0000 </r>
       <r>    -0.9470     0.0000     0.0000 </r>
       <r>    -0.8104     0.0000     0.0000 </r>
       <r>    -0.6738     0.0000     0.0000 </r>
       <r>    -0.5372     0.0000     0.0000 </r>
       <r>    -0.4006     0.0000     0.0000 </r>
       <r>    -0.2641    -0.0000    -0.0000 </r>
       <r>    -0.1275    -0.0000    -0.0000 </r>
       <r>     0.0091    -0.0000    -0.0000 </r>
       <r>     0.1457    -0.0000    -0.0000 </r>
       <r>     0.2822    -0.0000    -0.0000 </r>
       <r>     0.4188    -0.0000    -0.0000 </r>
       <r>     0.5554    -0.0013    -0.0002 </r>
       <r>     0.6920     0.0195     0.0025 </r>
       <r>     0.8285     0.1447     0.0223 </r>
       <r>     0.9651     0.1469     0.0423 </r>
       <r>     1.1017     0.3183     0.0858 </r>
       <r>     1.2383     0.2711     0.1228 </r>
       <r>     1.3749     0.2950     0.1631 </r>
       <r>     1.5114     0.5166     0.2337 </r>
       <r>     1.6480     0.3856     0.2863 </r>
       <r>     1.7846     0.6568     0.3760 </r>
       <r>     1.9212     0.3879     0.4290 </r>
       <r>     2.0577     1.8021     0.6751 </r>
       <r>     2.1943     5.5066     1.4272 </r>
       <r>     2.3309     8.2271     2.5508 </r>
       <r>     2.4675    12.0474     4.1962 </r>
       <r>     2.6040    15.1280     6.2624 </r>
       <r>     2.7406    11.5870     7.8449 </r>
       <r>     2.8772    11.1277     9.3647 </r>
       <r>     3.0138     7.6092    10.4039 </r>
       <r>     3.1503     9.5605    11.7096 </r>
       <r>     3.2869    10.8105    13.1861 </r>
       <r>     3.4235     9.8401    14.5300 </r>
       <r>     3.5601    11.0963    16.0455 </r>
       <r>     3.6967    11.4212    17.6054 </r>
       <r>     3.8332    16.3614    19.8400 </r>
       <r>     3.9698    17.2319    22.1934 </r>
       <r>     4.1064    10.7544    23.6622 </r>
       <r>     4.2430    10.2642    25.0641 </r>
       <r>     4.3795    10.6682    26.5211 </r>
       <r>     4.5161    12.2381    28.1926 </r>
       <r>     4.6527    13.1809    29.9928 </r>
       <r>     4.7893    11.8742    31.6145 </r>
       <r>     4.9258    10.6947    33.0752 </r>
       <r>     5.0624    10.4850    34.5072 </r>
       <r>     5.1990    10.1202    35.8893 </r>
       <r>     5.3356    14.9773    37.9349 </r>
       <r>     5.4721    16.9744    40.2532 </r>
       <r>     5.6087     6.9928    41.2083 </r>
       <r>     5.7453     1.9147    41.4698 </r>
       <r>     5.8819     1.6388    41.6936 </r>
       <r>     6.0185     0.3254    41.7380 </r>
       <r>     6.1550     0.3614    41.7874 </r>
       <r>     6.2916     0.8458    41.9029 </r>
       <r>     6.4282     1.6946    42.1344 </r>
       <r>     6.5648     1.0003    42.2710 </r>
       <r>     6.7013     0.4696    42.3351 </r>
       <r>     6.8379     0.6822    42.4283 </r>
       <r>     6.9745     0.3227    42.4724 </r>
       <r>     7.1111     1.4095    42.6649 </r>
       <r>     7.2476     1.4896    42.8683 </r>
       <r>     7.3842     0.9742    43.0014 </r>
       <r>     7.5208     0.7206    43.0998 </r>
       <r>     7.6574     0.6886    43.1938 </r>
       <r>     7.7940     0.2844    43.2327 </r>
       <r>     7.9305     1.5047    43.4382 </r>
       <r>     8.0671     1.7878    43.6823 </r>
       <r>     8.2037     1.1415    43.8383 </r>
       <r>     8.3403     0.6781    43.9309 </r>
       <r>     8.4768     0.5203    44.0019 </r>
       <r>     8.6134     1.2266    44.1694 </r>
       <r>     8.7500     0.7482    44.2716 </r>
       <r>     8.8866     1.5537    44.4838 </r>
       <r>     9.0231     1.5712    44.6984 </r>
       <r>     9.1597     1.0671    44.8442 </r>
       <r>     9.2963     0.9763    44.9775 </r>
       <r>     9.4329     0.5556    45.0534 </r>
       <r>     9.5694     0.4477    45.1145 </r>
       <r>     9.7060     0.9839    45.2489 </r>
       <r>     9.8426     1.9369    45.5134 </r>
       <r>     9.9792     1.3709    45.7007 </r>
       <r>    10.1158     0.4839    45.7668 </r>
       <r>    10.2523     1.5305    45.9758 </r>
       <r>    10.3889     1.0203    46.1151 </r>
       <r>    10.5255     0.5308    46.1876 </r>
       <r>    10.6621     0.5146    46.2579 </r>
       <r>    10.7986     0.8714    46.3769 </r>
       <r>    10.9352     1.0969    46.5268 </r>
       <r>    11.0718     1.8290    46.7765 </r>
       <r>    11.2084     0.9051    46.9002 </r>
       <r>    11.3449     0.2953    46.9405 </r>
       <r>    11.4815     0.4524    47.0023 </r>
       <r>    11.6181     1.0832    47.1502 </r>
       <r>    11.7547     0.5362    47.2235 </r>
       <r>    11.8913     0.3367    47.2694 </r>
       <r>    12.0278     1.3335    47.4516 </r>
       <r>    12.1644     1.2427    47.6213 </r>
       <r>    12.3010     1.3140    47.8008 </r>
       <r>    12.4376     1.8246    48.0500 </r>
       <r>    12.5741     0.8320    48.1636 </r>
       <r>    12.7107     1.4330    48.3593 </r>
       <r>    12.8473     1.3727    48.5468 </r>
       <r>    12.9839     1.1947    48.7100 </r>
       <r>    13.1204     1.3912    48.9000 </r>
       <r>    13.2570     1.0060    49.0373 </r>
       <r>    13.3936     1.9607    49.3051 </r>
       <r>    13.5302     0.7964    49.4139 </r>
       <r>    13.6667     0.7057    49.5103 </r>
       <r>    13.8033     1.5454    49.7213 </r>
       <r>    13.9399     1.6033    49.9403 </r>
       <r>    14.0765     0.7045    50.0365 </r>
       <r>    14.2131     0.7976    50.1455 </r>
       <r>    14.3496     1.3094    50.3243 </r>
       <r>    14.4862     1.2885    50.5003 </r>
       <r>    14.6228     0.5295    50.5726 </r>
       <r>    14.7594     1.8338    50.8231 </r>
       <r>    14.8959     1.1675    50.9825 </r>
       <r>    15.0325     0.7600    51.0863 </r>
       <r>    15.1691     1.4709    51.2872 </r>
       <r>    15.3057     1.2454    51.4573 </r>
       <r>    15.4422     1.6857    51.6875 </r>
       <r>    15.5788     1.1283    51.8416 </r>
       <r>    15.7154     2.0852    52.1264 </r>
       <r>    15.8520     1.8614    52.3806 </r>
       <r>    15.9886     2.0927    52.6664 </r>
       <r>    16.1251     1.6918    52.8975 </r>
       <r>    16.2617     1.0913    53.0466 </r>
       <r>    16.3983     1.8784    53.3031 </r>
       <r>    16.5349     1.5699    53.5175 </r>
       <r>    16.6714     2.2343    53.8227 </r>
       <r>    16.8080     1.6191    54.0438 </r>
       <r>    16.9446     1.1691    54.2035 </r>
       <r>    17.0812     2.0271    54.4803 </r>
       <r>    17.2177     1.9775    54.7504 </r>
       <r>    17.3543     1.4534    54.9489 </r>
       <r>    17.4909     1.7349    55.1859 </r>
       <r>    17.6275     1.1776    55.3467 </r>
       <r>    17.7640     2.2495    55.6539 </r>
       <r>    17.9006     2.3537    55.9754 </r>
       <r>    18.0372     2.1342    56.2669 </r>
       <r>    18.1738     2.1046    56.5543 </r>
       <r>    18.3104     1.9625    56.8223 </r>
       <r>    18.4469     1.3109    57.0014 </r>
       <r>    18.5835     1.0558    57.1455 </r>
       <r>    18.7201     2.2152    57.4481 </r>
       <r>    18.8567     3.0285    57.8617 </r>
       <r>    18.9932     2.6348    58.2216 </r>
       <r>    19.1298     0.9786    58.3552 </r>
       <r>    19.2664     1.3969    58.5460 </r>
       <r>    19.4030     3.1963    58.9825 </r>
       <r>    19.5395     2.3076    59.2977 </r>
       <r>    19.6761     2.1432    59.5904 </r>
       <r>    19.8127     1.7945    59.8355 </r>
       <r>    19.9493     2.6724    60.2005 </r>
       <r>    20.0859     2.2287    60.5049 </r>
       <r>    20.2224     1.5828    60.7210 </r>
       <r>    20.3590     3.1252    61.1479 </r>
       <r>    20.4956     2.2775    61.4589 </r>
       <r>    20.6322     1.3787    61.6472 </r>
       <r>    20.7687     2.3463    61.9677 </r>
       <r>    20.9053     1.4193    62.1615 </r>
       <r>    21.0419     1.0681    62.3074 </r>
       <r>    21.1785     1.6198    62.5286 </r>
       <r>    21.3150     3.2597    62.9738 </r>
       <r>    21.4516     2.0185    63.2495 </r>
       <r>    21.5882     2.1149    63.5383 </r>
       <r>    21.7248     1.4411    63.7351 </r>
       <r>    21.8613     2.5807    64.0876 </r>
       <r>    21.9979     1.8715    64.3432 </r>
       <r>    22.1345     2.5514    64.6917 </r>
       <r>    22.2711     2.2991    65.0057 </r>
       <r>    22.4077     1.2599    65.1777 </r>
       <r>    22.5442     1.0392    65.3197 </r>
       <r>    22.6808     2.3087    65.6350 </r>
       <r>    22.8174     1.6937    65.8663 </r>
       <r>    22.9540     1.2099    66.0315 </r>
       <r>    23.0905     1.3925    66.2217 </r>
       <r>    23.2271     2.1245    66.5119 </r>
       <r>    23.3637     2.4416    66.8454 </r>
       <r>    23.5003     2.3418    67.1652 </r>
       <r>    23.6368     2.5017    67.5069 </r>
       <r>    23.7734     2.0483    67.7866 </r>
       <r>    23.9100     1.6744    68.0153 </r>
       <r>    24.0466     1.8765    68.2716 </r>
       <r>    24.1831     1.7973    68.5170 </r>
       <r>    24.3197     1.4373    68.7133 </r>
       <r>    24.4563     1.5357    68.9231 </r>
       <r>    24.5929     2.2550    69.2311 </r>
       <r>    24.7295     1.1825    69.3926 </r>
       <r>    24.8660     1.4187    69.5863 </r>
       <r>    25.0026     1.8582    69.8401 </r>
       <r>    25.1392     3.2626    70.2857 </r>
       <r>    25.2758     3.2896    70.7350 </r>
       <r>    25.4123     2.5129    71.0782 </r>
       <r>    25.5489     3.7850    71.5951 </r>
       <r>    25.6855     5.4252    72.3361 </r>
       <r>    25.8221     5.8916    73.1407 </r>
       <r>    25.9586     2.3124    73.4565 </r>
       <r>    26.0952     3.5241    73.9378 </r>
       <r>    26.2318     2.7489    74.3133 </r>
       <r>    26.3684     1.8351    74.5639 </r>
       <r>    26.5050     0.9619    74.6953 </r>
       <r>    26.6415     2.6631    75.0590 </r>
       <r>    26.7781     4.4572    75.6678 </r>
       <r>    26.9147     4.3822    76.2663 </r>
       <r>    27.0513     3.5802    76.7552 </r>
       <r>    27.1878     3.5728    77.2432 </r>
       <r>    27.3244     2.2613    77.5520 </r>
       <r>    27.4610     1.8452    77.8040 </r>
       <r>    27.5976     0.5219    77.8753 </r>
       <r>    27.7341     1.8684    78.1305 </r>
       <r>    27.8707     2.8631    78.5215 </r>
       <r>    28.0073     2.2820    78.8332 </r>
       <r>    28.1439     2.7345    79.2067 </r>
       <r>    28.2804     1.7224    79.4419 </r>
       <r>    28.4170     2.1265    79.7323 </r>
       <r>    28.5536     1.3203    79.9127 </r>
       <r>    28.6902     1.1378    80.0681 </r>
       <r>    28.8268     1.2810    80.2430 </r>
       <r>    28.9633     2.5173    80.5868 </r>
       <r>    29.0999     1.5530    80.7989 </r>
       <r>    29.2365     0.9508    80.9288 </r>
       <r>    29.3731     2.2795    81.2401 </r>
       <r>    29.5096     1.2191    81.4066 </r>
       <r>    29.6462     0.5263    81.4785 </r>
       <r>    29.7828     0.1926    81.5048 </r>
       <r>    29.9194     1.0188    81.6439 </r>
       <r>    30.0559     2.6501    82.0059 </r>
       <r>    30.1925     1.6782    82.2351 </r>
       <r>    30.3291     1.4841    82.4378 </r>
       <r>    30.4657     2.4213    82.7685 </r>
       <r>    30.6023     2.4465    83.1026 </r>
       <r>    30.7388     1.6448    83.3272 </r>
       <r>    30.8754     2.4317    83.6594 </r>
       <r>    31.0120     2.5691    84.0102 </r>
       <r>    31.1486     1.8625    84.2646 </r>
       <r>    31.2851     2.3528    84.5859 </r>
       <r>    31.4217     2.2253    84.8899 </r>
       <r>    31.5583     4.2430    85.4694 </r>
       <r>    31.6949     5.0393    86.1576 </r>
       <r>    31.8314     2.1362    86.4494 </r>
       <r>    31.9680     3.4918    86.9263 </r>
       <r>    32.1046     4.0327    87.4770 </r>
       <r>    32.2412     2.5960    87.8316 </r>
       <r>    32.3777     2.0156    88.1069 </r>
       <r>    32.5143     2.9146    88.5049 </r>
       <r>    32.6509     2.1796    88.8026 </r>
       <r>    32.7875     0.9425    88.9313 </r>
       <r>    32.9241     1.5961    89.1493 </r>
       <r>    33.0606     2.5275    89.4945 </r>
       <r>    33.1972     3.0668    89.9134 </r>
       <r>    33.3338     2.4829    90.2525 </r>
       <r>    33.4704     2.6112    90.6091 </r>
       <r>    33.6069     1.8843    90.8665 </r>
       <r>    33.7435     4.1214    91.4293 </r>
       <r>    33.8801     5.1823    92.1371 </r>
       <r>    34.0167     4.5870    92.7636 </r>
       <r>    34.1532     3.9922    93.3088 </r>
       <r>    34.2898     2.0379    93.5872 </r>
       <r>    34.4264     2.8349    93.9744 </r>
       <r>    34.5630     4.0355    94.5255 </r>
       <r>    34.6996     1.5064    94.7313 </r>
       <r>    34.8361     1.4808    94.9335 </r>
       <r>    34.9727     2.8332    95.3204 </r>
       <r>    35.1093     1.5906    95.5377 </r>
       <r>    35.2459     1.0256    95.6777 </r>
       <r>    35.3824     0.3910    95.7311 </r>
       <r>    35.5190     0.0092    95.7324 </r>
       <r>    35.6556     0.3228    95.7765 </r>
       <r>    35.7922     0.2351    95.8086 </r>
       <r>    35.9287     0.2013    95.8361 </r>
       <r>    36.0653     0.0662    95.8452 </r>
       <r>    36.2019     0.1211    95.8617 </r>
       <r>    36.3385     0.1052    95.8761 </r>
       <r>    36.4750     0.3783    95.9277 </r>
       <r>    36.6116     0.2297    95.9591 </r>
       <r>    36.7482     0.0577    95.9670 </r>
       <r>    36.8848     0.1144    95.9826 </r>
       <r>    37.0214     0.0306    95.9868 </r>
       <r>    37.1579    -0.0026    95.9864 </r>
       <r>    37.2945     0.0004    95.9865 </r>
       <r>    37.4311     0.0778    95.9971 </r>
       <r>    37.5677     0.0111    95.9986 </r>
       <r>    37.7042    -0.0011    95.9985 </r>
       <r>    37.8408     0.0016    95.9987 </r>
       <r>    37.9774     0.0096    96.0000 </r>
       <r>    38.1140    -0.0000    96.0000 </r>
       <r>    38.2505    -0.0000    96.0000 </r>
       <r>    38.3871    -0.0000    96.0000 </r>
       <r>    38.5237    -0.0000    96.0000 </r>
       <r>    38.6603     0.0000    96.0000 </r>
       <r>    38.7968     0.0000    96.0000 </r>
       <r>    38.9334     0.0000    96.0000 </r>
       <r>    39.0700     0.0000    96.0000 </r>
       <r>    39.2066     0.0000    96.0000 </r>
       <r>    39.3432     0.0000    96.0000 </r>
       <r>    39.4797     0.0000    96.0000 </r>
       <r>    39.6163     0.0000    96.0000 </r>
       <r>    39.7529     0.0000    96.0000 </r>
      </set>
     </set>
    </array>
   </total>
  </dos>
 </calculation>
 <structure name="finalpos" >
  <crystal>
   <varray name="basis" >
    <v>       4.09000000       0.00000000       0.00000000 </v>
    <v>       0.00000000       4.09000000       0.00000000 </v>
    <v>       0.00000000       0.00000000       4.09000000 </v>
   </varray>
   <i name="volume">     68.41792900 </i>
   <varray name="rec_basis" >
    <v>       0.24449878       0.00000000       0.00000000 </v>
    <v>       0.00000000       0.24449878       0.00000000 </v>
    <v>       0.00000000       0.00000000       0.24449878 </v>
   </varray>
  </crystal>
  <varray name="positions" >
   <v>       0.00000000       0.00000000       0.00000000 </v>
   <v>       0.00000000       0.50000000       0.50000000 </v>
   <v>       0.50000000       0.00000000       0.50000000 </v>
   <v>       0.50000000       0.50000000       0.00000000 </v>
  </varray>
 </structure>
</modeling>
