   4   4   0   0
  0.1697933E+02  0.4080000E-09  0.4080000E-09  0.4080000E-09  0.5000000E-15
  1.000000000000000E-004
  CAR 
 unknown system                          
     39.56839192     -2.26169906  301      9.33577902      1.00000000
     -2.262  0.0000E+00  0.0000E+00
     -2.122  0.0000E+00  0.0000E+00
     -1.983  0.0000E+00  0.0000E+00
     -1.843  0.0000E+00  0.0000E+00
     -1.704  0.0000E+00  0.0000E+00
     -1.565  0.0000E+00  0.0000E+00
     -1.425  0.0000E+00  0.0000E+00
     -1.286 -0.7113E-38 -0.9918E-39
     -1.146 -0.1392E-27 -0.1940E-28
     -1.007 -0.5400E-19 -0.7530E-20
     -0.867 -0.3936E-12 -0.5488E-13
     -0.728 -0.5450E-07 -0.7599E-08
     -0.588 -0.1214E-03 -0.1693E-04
     -0.449 -0.2655E-03 -0.5394E-04
     -0.310  0.3399E-01  0.4686E-02
     -0.170  0.4384E-01  0.1080E-01
     -0.031  0.2026E+00  0.3905E-01
      0.109  0.2638E+00  0.7584E-01
      0.248  0.2704E+00  0.1135E+00
      0.388  0.2841E+00  0.1531E+00
      0.527  0.8477E-01  0.1650E+00
      0.666  0.1738E+00  0.1892E+00
      0.806  0.7694E+00  0.2965E+00
      0.945  0.6898E+00  0.3927E+00
      1.085  0.6061E+00  0.4772E+00
      1.224 -0.5148E-01  0.4700E+00
      1.364  0.2280E+00  0.5018E+00
      1.503  0.1079E+01  0.6523E+00
      1.642  0.4352E+00  0.7130E+00
      1.782  0.1039E+01  0.8579E+00
      1.921  0.1237E+01  0.1030E+01
      2.061 -0.3050E-01  0.1026E+01
      2.200  0.2330E+01  0.1351E+01
      2.340  0.3810E+01  0.1882E+01
      2.479  0.5786E+00  0.1963E+01
      2.618  0.4131E+01  0.2539E+01
      2.758  0.6002E+01  0.3376E+01
      2.897  0.4605E+01  0.4018E+01
      3.037  0.7802E+01  0.5106E+01
      3.176  0.1014E+02  0.6519E+01
      3.316  0.3659E+01  0.7030E+01
      3.455  0.6235E+01  0.7899E+01
      3.595  0.1043E+02  0.9353E+01
      3.734  0.2368E+01  0.9684E+01
      3.873  0.3365E+01  0.1015E+02
      4.013  0.7801E+01  0.1124E+02
      4.152  0.8545E+01  0.1243E+02
      4.292  0.6831E+01  0.1338E+02
      4.431  0.6504E+01  0.1429E+02
      4.571  0.7423E+01  0.1533E+02
      4.710  0.8707E+01  0.1654E+02
      4.849  0.9188E+01  0.1782E+02
      4.989  0.1189E+02  0.1948E+02
      5.128  0.1159E+02  0.2109E+02
      5.268  0.1253E+02  0.2284E+02
      5.407  0.6288E+01  0.2372E+02
      5.547  0.6559E+01  0.2463E+02
      5.686  0.6464E+01  0.2553E+02
      5.825  0.6074E+01  0.2638E+02
      5.965  0.1105E+02  0.2792E+02
      6.104  0.6290E+01  0.2880E+02
      6.244  0.6853E+01  0.2975E+02
      6.383  0.8649E+01  0.3096E+02
      6.523  0.9121E+01  0.3223E+02
      6.662  0.4864E+01  0.3291E+02
      6.801  0.5529E+01  0.3368E+02
      6.941  0.7033E+01  0.3466E+02
      7.080  0.7606E+01  0.3572E+02
      7.220  0.6677E+01  0.3665E+02
      7.359  0.9107E+01  0.3792E+02
      7.499  0.1136E+02  0.3951E+02
      7.638  0.1127E+02  0.4108E+02
      7.778  0.4956E+01  0.4177E+02
      7.917  0.1820E+01  0.4202E+02
      8.056  0.8596E+00  0.4214E+02
      8.196  0.5072E+00  0.4221E+02
      8.335  0.4225E+01  0.4280E+02
      8.475  0.1432E+01  0.4300E+02
      8.614  0.3499E+00  0.4305E+02
      8.754  0.4185E+00  0.4311E+02
      8.893  0.6200E+00  0.4319E+02
      9.032 -0.5485E-01  0.4319E+02
      9.172  0.4885E-01  0.4319E+02
      9.311  0.4985E+01  0.4389E+02
      9.451  0.1324E+01  0.4407E+02
      9.590  0.6856E+00  0.4417E+02
      9.730  0.4446E+00  0.4423E+02
      9.869  0.1794E+01  0.4448E+02
     10.008  0.8166E-01  0.4449E+02
     10.148  0.9078E+00  0.4462E+02
     10.287  0.2904E-01  0.4462E+02
     10.427  0.1284E+01  0.4480E+02
     10.566  0.2352E+01  0.4513E+02
     10.706  0.1526E+01  0.4534E+02
     10.845  0.1020E+01  0.4548E+02
     10.984  0.1541E+01  0.4570E+02
     11.124 -0.8822E-01  0.4569E+02
     11.263  0.3465E+00  0.4574E+02
     11.403  0.2125E+01  0.4603E+02
     11.542  0.1082E+01  0.4618E+02
     11.682  0.4320E+00  0.4624E+02
     11.821  0.1448E+01  0.4645E+02
     11.961  0.1787E+01  0.4669E+02
     12.100  0.1463E+01  0.4690E+02
     12.239  0.3786E+00  0.4695E+02
     12.379 -0.2537E-01  0.4695E+02
     12.518  0.3260E+00  0.4699E+02
     12.658  0.9127E+00  0.4712E+02
     12.797  0.2130E+01  0.4742E+02
     12.937  0.4687E+01  0.4807E+02
     13.076  0.6100E+00  0.4816E+02
     13.215  0.3696E+00  0.4821E+02
     13.355  0.8040E+00  0.4832E+02
     13.494  0.9075E+00  0.4845E+02
     13.634  0.5954E+00  0.4853E+02
     13.773  0.7415E+00  0.4863E+02
     13.913  0.1763E+01  0.4888E+02
     14.052  0.1268E+01  0.4905E+02
     14.191  0.2159E+01  0.4936E+02
     14.331  0.2533E+01  0.4971E+02
     14.470  0.1149E+01  0.4987E+02
     14.610  0.1125E+00  0.4989E+02
     14.749  0.5639E+00  0.4996E+02
     14.889  0.6422E+00  0.5005E+02
     15.028  0.3536E+01  0.5055E+02
     15.168  0.2546E+01  0.5090E+02
     15.307  0.1212E+00  0.5092E+02
     15.446  0.8762E+00  0.5104E+02
     15.586  0.2242E+00  0.5107E+02
     15.725  0.7778E+00  0.5118E+02
     15.865  0.9778E+00  0.5132E+02
     16.004  0.2442E+00  0.5135E+02
     16.144  0.3698E+00  0.5140E+02
     16.283  0.3875E+01  0.5194E+02
     16.422  0.2677E+01  0.5232E+02
     16.562  0.4876E+00  0.5238E+02
     16.701  0.2320E+01  0.5271E+02
     16.841  0.2006E+01  0.5299E+02
     16.980  0.3035E+00  0.5303E+02
     17.120  0.1350E+01  0.5322E+02
     17.259  0.1713E+01  0.5346E+02
     17.398  0.7214E+00  0.5356E+02
     17.538  0.7547E+00  0.5366E+02
     17.677  0.2309E+00  0.5369E+02
     17.817  0.7520E+00  0.5380E+02
     17.956  0.2016E+01  0.5408E+02
     18.096  0.2396E+01  0.5441E+02
     18.235  0.2464E+01  0.5476E+02
     18.374  0.9314E+00  0.5489E+02
     18.514 -0.6129E-01  0.5488E+02
     18.653  0.7931E+00  0.5499E+02
     18.793  0.3527E+01  0.5548E+02
     18.932  0.7638E+00  0.5559E+02
     19.072  0.1972E+01  0.5586E+02
     19.211  0.1304E+01  0.5604E+02
     19.351  0.4953E+00  0.5611E+02
     19.490  0.1679E+01  0.5635E+02
     19.629  0.4564E+01  0.5698E+02
     19.769  0.2286E+01  0.5730E+02
     19.908  0.3177E+01  0.5775E+02
     20.048  0.2313E+01  0.5807E+02
     20.187  0.9020E+00  0.5819E+02
     20.327 -0.1070E+00  0.5818E+02
     20.466  0.6862E+00  0.5827E+02
     20.605  0.3874E+01  0.5881E+02
     20.745  0.1582E+00  0.5884E+02
     20.884  0.2515E+01  0.5919E+02
     21.024  0.2542E+01  0.5954E+02
     21.163  0.1072E+01  0.5969E+02
     21.303  0.2745E+01  0.6007E+02
     21.442  0.3473E+01  0.6056E+02
     21.581  0.2689E+01  0.6093E+02
     21.721  0.2054E+01  0.6122E+02
     21.860  0.1859E+01  0.6148E+02
     22.000  0.1194E+01  0.6165E+02
     22.139  0.1968E+01  0.6192E+02
     22.279  0.1033E+01  0.6206E+02
     22.418  0.9918E+00  0.6220E+02
     22.557  0.2994E+01  0.6262E+02
     22.697  0.2410E+01  0.6296E+02
     22.836  0.1307E+01  0.6314E+02
     22.976  0.3243E+00  0.6318E+02
     23.115  0.3612E+01  0.6369E+02
     23.255  0.5510E+01  0.6445E+02
     23.394  0.2531E+01  0.6481E+02
     23.534  0.1286E+01  0.6499E+02
     23.673  0.1309E+01  0.6517E+02
     23.812  0.2670E+01  0.6554E+02
     23.952  0.2111E+01  0.6584E+02
     24.091  0.7759E+00  0.6594E+02
     24.231  0.1082E+01  0.6610E+02
     24.370  0.1663E+01  0.6633E+02
     24.510  0.6741E+01  0.6727E+02
     24.649  0.3468E+01  0.6775E+02
     24.788  0.1170E+01  0.6791E+02
     24.928  0.3383E+01  0.6839E+02
     25.067  0.2539E+01  0.6874E+02
     25.207  0.2871E+01  0.6914E+02
     25.346  0.5310E+00  0.6921E+02
     25.486  0.1062E+01  0.6936E+02
     25.625  0.6010E+00  0.6945E+02
     25.764  0.1624E+01  0.6967E+02
     25.904  0.1176E+01  0.6984E+02
     26.043  0.3582E+01  0.7034E+02
     26.183  0.4095E+01  0.7091E+02
     26.322  0.3469E+01  0.7139E+02
     26.462  0.1935E+01  0.7166E+02
     26.601  0.2767E+01  0.7205E+02
     26.740  0.1301E+01  0.7223E+02
     26.880  0.3377E+01  0.7270E+02
     27.019  0.3354E+01  0.7317E+02
     27.159  0.1541E+01  0.7338E+02
     27.298  0.3249E+01  0.7383E+02
     27.438  0.2324E+01  0.7416E+02
     27.577  0.4769E+01  0.7482E+02
     27.717  0.2345E+01  0.7515E+02
     27.856  0.4052E+01  0.7571E+02
     27.995  0.6197E+01  0.7658E+02
     28.135  0.2512E+01  0.7693E+02
     28.274  0.2400E+01  0.7726E+02
     28.414  0.8732E+00  0.7739E+02
     28.553  0.1257E+01  0.7756E+02
     28.693  0.4098E+00  0.7762E+02
     28.832  0.2134E+01  0.7792E+02
     28.971  0.3946E+01  0.7847E+02
     29.111  0.1514E+01  0.7868E+02
     29.250  0.2805E+01  0.7907E+02
     29.390  0.1750E+01  0.7931E+02
     29.529  0.2579E+01  0.7967E+02
     29.669  0.1921E+01  0.7994E+02
     29.808  0.1781E+01  0.8019E+02
     29.947  0.3091E+01  0.8062E+02
     30.087  0.2057E+01  0.8091E+02
     30.226  0.3194E+01  0.8135E+02
     30.366  0.9702E+00  0.8149E+02
     30.505  0.9546E+00  0.8162E+02
     30.645  0.2094E+00  0.8165E+02
     30.784  0.8619E+00  0.8177E+02
     30.924  0.1640E+01  0.8200E+02
     31.063  0.9136E+00  0.8212E+02
     31.202  0.4138E+00  0.8218E+02
     31.342  0.1893E+01  0.8245E+02
     31.481  0.2508E+01  0.8280E+02
     31.621  0.1232E+01  0.8297E+02
     31.760  0.3416E+01  0.8344E+02
     31.900  0.2932E+00  0.8348E+02
     32.039  0.1298E+01  0.8367E+02
     32.178  0.3431E+01  0.8414E+02
     32.318  0.2983E+01  0.8456E+02
     32.457  0.2052E+01  0.8485E+02
     32.597  0.1898E+01  0.8511E+02
     32.736  0.2001E+01  0.8539E+02
     32.876  0.2472E+01  0.8573E+02
     33.015  0.1783E+01  0.8598E+02
     33.154  0.1582E+01  0.8620E+02
     33.294  0.4823E+01  0.8688E+02
     33.433  0.2015E+01  0.8716E+02
     33.573  0.9538E+00  0.8729E+02
     33.712  0.3027E+01  0.8771E+02
     33.852  0.1648E+01  0.8794E+02
     33.991  0.3251E+01  0.8840E+02
     34.130  0.1942E+01  0.8867E+02
     34.270  0.1926E+01  0.8893E+02
     34.409  0.3450E+01  0.8942E+02
     34.549  0.6510E+01  0.9032E+02
     34.688  0.3339E+01  0.9079E+02
     34.828  0.3459E+01  0.9127E+02
     34.967  0.3252E+01  0.9172E+02
     35.107  0.6009E+01  0.9256E+02
     35.246  0.7215E+01  0.9357E+02
     35.385  0.2621E+01  0.9393E+02
     35.525  0.3497E+01  0.9442E+02
     35.664  0.2245E+01  0.9473E+02
     35.804  0.2579E+01  0.9509E+02
     35.943  0.6783E+00  0.9519E+02
     36.083  0.1257E-01  0.9519E+02
     36.222  0.2206E+01  0.9550E+02
     36.361  0.1217E+01  0.9567E+02
     36.501  0.1122E+01  0.9582E+02
     36.640  0.6071E+00  0.9591E+02
     36.780  0.4827E+00  0.9598E+02
     36.919  0.2349E-03  0.9598E+02
     37.059  0.1011E+00  0.9599E+02
     37.198  0.2764E-01  0.9599E+02
     37.337 -0.1948E-02  0.9599E+02
     37.477 -0.4576E-03  0.9599E+02
     37.616  0.5726E-02  0.9599E+02
     37.756  0.3693E-01  0.9600E+02
     37.895 -0.2606E-03  0.9600E+02
     38.035 -0.1214E-03  0.9600E+02
     38.174 -0.5450E-07  0.9600E+02
     38.313 -0.3936E-12  0.9600E+02
     38.453  0.0000E+00  0.9600E+02
     38.592  0.0000E+00  0.9600E+02
     38.732  0.0000E+00  0.9600E+02
     38.871  0.0000E+00  0.9600E+02
     39.011  0.0000E+00  0.9600E+02
     39.150  0.0000E+00  0.9600E+02
     39.290  0.0000E+00  0.9600E+02
     39.429  0.0000E+00  0.9600E+02
     39.568  0.0000E+00  0.9600E+02
