       N       E                     dE             d eps       ncg     rms          rms(c)
DAV:   1     0.183600069612E+03    0.18360E+03   -0.18672E+04  1968   0.716E+02
DAV:   2    -0.113404135361E+02   -0.19494E+03   -0.18431E+03  2544   0.180E+02
DAV:   3    -0.138238119536E+02   -0.24834E+01   -0.24804E+01  2424   0.202E+01
DAV:   4    -0.138340316856E+02   -0.10220E-01   -0.10220E-01  2760   0.147E+00
DAV:   5    -0.138341232952E+02   -0.91610E-04   -0.91610E-04  2328   0.138E-01    0.190E+01
DAV:   6    -0.128426505352E+02    0.99147E+00   -0.17327E+00  2424   0.652E+00    0.120E+01
DAV:   7    -0.127626415631E+02    0.80009E-01   -0.24429E-01  2568   0.246E+00    0.483E+00
DAV:   8    -0.127532460969E+02    0.93955E-02   -0.18816E-02  2592   0.638E-01    0.607E-01
DAV:   9    -0.127531402565E+02    0.10584E-03   -0.13724E-04  2280   0.564E-02    0.696E-02
DAV:  10    -0.127531629872E+02   -0.22731E-04   -0.18334E-05  1944   0.197E-02
   1 F= -.12753163E+02 E0= -.12752591E+02  d E =-.171645E-02
