 vasp.5.4.1 05Feb16 (build Feb 08 2018 09:21:51) complex                        
  
 executed on             LinuxIFC date 2019.11.21  13:19:51
 running on   24 total cores
 distrk:  each k-point on   24 cores,    1 groups
 distr:  one band on NCORES_PER_BAND=   1 cores,   24 groups


--------------------------------------------------------------------------------------------------------


 INCAR:
 POTCAR:    PAW_PBE Au 04Oct2007                  

 ----------------------------------------------------------------------------- 
|                                                                             |
|           W    W    AA    RRRRR   N    N  II  N    N   GGGG   !!!           |
|           W    W   A  A   R    R  NN   N  II  NN   N  G    G  !!!           |
|           W    W  A    A  R    R  N N  N  II  N N  N  G       !!!           |
|           W WW W  AAAAAA  RRRRR   N  N N  II  N  N N  G  GGG   !            |
|           WW  WW  A    A  R   R   N   NN  II  N   NN  G    G                |
|           W    W  A    A  R    R  N    N  II  N    N   GGGG   !!!           |
|                                                                             |
|      For optimal performance we recommend to set                            |
|        NCORE= 4 - approx SQRT( number of cores)                             |
|      NCORE specifies how many cores store one orbital (NPAR=cpu/NCORE).     |
|      This setting can  greatly improve the performance of VASP for DFT.     |
|      The default, NPAR=number of cores might be grossly inefficient         |
|      on modern multi-core architectures or massively parallel machines.     |
|      Do your own testing !!!!                                               |
|      Unfortunately you need to use the default for GW and RPA calculations. |
|      (for HF NCORE is supported but not extensively tested yet)             |
|                                                                             |
 ----------------------------------------------------------------------------- 

 POTCAR:    PAW_PBE Au 04Oct2007                  
   VRHFIN =Au: s1d10                                                            
   LEXCH  = PE                                                                  
   EATOM  =   926.0867 eV,   68.0654 Ry                                         
                                                                                
   TITEL  = PAW_PBE Au 04Oct2007                                                
   LULTRA =        F    use ultrasoft PP ?                                      
   IUNSCR =        1    unscreen: 0-lin 1-nonlin 2-no                           
   RPACOR =    2.330    partial core radius                                     
   POMASS =  196.966; ZVAL   =   11.000    mass and valenz                      
   RCORE  =    2.500    outmost cutoff radius                                   
   RWIGS  =    2.840; RWIGS  =    1.503    wigner-seitz radius (au A)           
   ENMAX  =  229.943; ENMIN  =  172.457 eV                                      
   ICORE  =        3    local potential                                         
   LCOR   =        T    correct aug charges                                     
   LPAW   =        T    paw PP                                                  
   EAUG   =  356.670                                                            
   DEXC   =    0.000                                                            
   RMAX   =    2.562    core radius for proj-oper                               
   RAUG   =    1.300    factor for augmentation sphere                          
   RDEP   =    2.598    radius for radial grids                                 
   RDEPT  =    2.193    core radius for aug-charge                              
                                                                                
   Atomic configuration                                                         
   16 entries                                                                   
     n  l   j            E        occ.                                          
     1  0  0.50    -80748.5001   2.0000                                         
     2  0  0.50    -14244.7466   2.0000                                         
     2  1  1.50    -12310.9591   6.0000                                         
     3  0  0.50     -3362.1768   2.0000                                         
     3  1  1.50     -2801.5463   6.0000                                         
     3  2  2.50     -2203.8206  10.0000                                         
     4  0  0.50      -729.8168   2.0000                                         
     4  1  1.50      -546.0527   6.0000                                         
     4  2  2.50      -325.7302  10.0000                                         
     4  3  3.50       -81.1472  14.0000                                         
     5  0  0.50      -108.3201   2.0000                                         
     5  1  1.50       -59.7479   6.0000                                         
     5  2  2.50        -6.8783  10.0000                                         
     6  0  0.50        -5.7602   1.0000                                         
     6  1  1.50        -6.8029   0.0000                                         
     5  3  2.50        -1.3606   0.0000                                         
   Description                                                                  
     l       E           TYP  RCUT    TYP  RCUT                                 
     2     -6.8782861     23  2.500                                             
     2     -8.2388687     23  2.500                                             
     0     -5.7601759     23  2.500                                             
     0     -0.8493231     23  2.500                                             
     1     -2.7211652     23  2.500                                             
     1     27.2116520     23  2.500                                             
     3     -1.3605826     23  2.500                                             
  local pseudopotential read in
  partial core-charges read in
  partial kinetic energy density read in
  atomic valenz-charges read in
  non local Contribution for L=           2  read in
    real space projection operators read in
  non local Contribution for L=           2  read in
    real space projection operators read in
  non local Contribution for L=           0  read in
    real space projection operators read in
  non local Contribution for L=           0  read in
    real space projection operators read in
  non local Contribution for L=           1  read in
    real space projection operators read in
  non local Contribution for L=           1  read in
    real space projection operators read in
    PAW grid and wavefunctions read in
 
   number of l-projection  operators is LMAX  =           6
   number of lm-projection operators is LMMAX =          18
 
  PAW_PBE Au 04Oct2007                  :
 energy of atom  1       EATOM= -926.0867
 kinetic energy error for atom=    0.0062 (will be added to EATOM!!)
 
 
 POSCAR: Au                                      
  positions in cartesian coordinates
  No initial velocities read in
 exchange correlation table for  LEXCH =        8
   RHO(1)=    0.500       N(1)  =     2000
   RHO(2)=  100.500       N(2)  =     4000
 


--------------------------------------------------------------------------------------------------------


 ion  position               nearest neighbor table
   1  0.000  0.000  0.000-   2 2.88   3 2.88   4 2.88   2 2.88   3 2.88   2 2.88   4 2.88   2 2.88
                             3 2.88   4 2.88   3 2.88   4 2.88
   2  0.000  0.500  0.500-   1 2.88   3 2.88   4 2.88   1 2.88   4 2.88   1 2.88   3 2.88   1 2.88
                             3 2.88   4 2.88   4 2.88   3 2.88
   3  0.500  0.000  0.500-   1 2.88   2 2.88   4 2.88   1 2.88   4 2.88   2 2.88   4 2.88   4 2.88
                             1 2.88   2 2.88   1 2.88   2 2.88
   4  0.500  0.500  0.000-   1 2.88   2 2.88   3 2.88   2 2.88   3 2.88   1 2.88   3 2.88   3 2.88
                             1 2.88   2 2.88   2 2.88   1 2.88
 
  LATTYP: Found a simple cubic cell.
 ALAT       =     4.0800000000
  
  Lattice vectors:
  
 A1 = (   4.0800000000,   0.0000000000,   0.0000000000)
 A2 = (   0.0000000000,   4.0800000000,   0.0000000000)
 A3 = (   0.0000000000,   0.0000000000,   4.0800000000)


Analysis of symmetry for initial positions (statically):
=====================================================================
 Subroutine PRICEL returns following result:
 
  LATTYP: Found a face centered cubic cell.
 ALAT       =     4.0800000000
  
  Lattice vectors:
  
 A1 = (   2.0400000000,   2.0400000000,   0.0000000000)
 A2 = (   2.0400000000,   0.0000000000,  -2.0400000000)
 A3 = (   0.0000000000,   2.0400000000,  -2.0400000000)
 
   4 primitive cells build up your supercell.
 

 Routine SETGRP: Setting up the symmetry group for a 
 simple cubic supercell.


 Subroutine GETGRP returns: Found 48 space group operations
 (whereof 48 operations were pure point group operations)
 out of a pool of 48 trial point group operations.


The static configuration has the point symmetry O_h .


Analysis of symmetry for dynamics (positions and initial velocities):
=====================================================================
 Subroutine PRICEL returns following result:
 
  LATTYP: Found a face centered cubic cell.
 ALAT       =     4.0800000000
  
  Lattice vectors:
  
 A1 = (   2.0400000000,   2.0400000000,   0.0000000000)
 A2 = (   2.0400000000,   0.0000000000,  -2.0400000000)
 A3 = (   0.0000000000,   2.0400000000,  -2.0400000000)
 
   4 primitive cells build up your supercell.
 

 Routine SETGRP: Setting up the symmetry group for a 
 simple cubic supercell.


 Subroutine GETGRP returns: Found 48 space group operations
 (whereof 48 operations were pure point group operations)
 out of a pool of 48 trial point group operations.


The dynamic configuration has the point symmetry O_h .


 Subroutine INISYM returns: Found 48 space group operations
 (whereof 48 operations are pure point group operations),
 and found     4 'primitive' translations

 
 
 KPOINTS: KPOINTS created by Atomic Simulation Env

Automatic generation of k-mesh.
Space group operators:
 irot       det(A)        alpha          n_x          n_y          n_z        tau_x        tau_y        tau_z
    1     1.000000     0.000001     1.000000     0.000000     0.000000     0.000000     0.000000     0.000000
    2    -1.000000     0.000001     1.000000     0.000000     0.000000     0.000000     0.000000     0.000000
    3     1.000000   120.000000    -0.577350    -0.577350    -0.577350     0.000000     0.000000     0.000000
    4    -1.000000   120.000000    -0.577350    -0.577350    -0.577350     0.000000     0.000000     0.000000
    5     1.000000   120.000000     0.577350     0.577350     0.577350     0.000000     0.000000     0.000000
    6    -1.000000   120.000000     0.577350     0.577350     0.577350     0.000000     0.000000     0.000000
    7     1.000000    90.000000     0.000000     0.000000    -1.000000     0.000000     0.000000     0.000000
    8    -1.000000    90.000000     0.000000     0.000000    -1.000000     0.000000     0.000000     0.000000
    9     1.000000   180.000000     0.000000     0.707107     0.707107     0.000000     0.000000     0.000000
   10    -1.000000   180.000000     0.000000     0.707107     0.707107     0.000000     0.000000     0.000000
   11     1.000000    90.000000     0.000000     1.000000     0.000000     0.000000     0.000000     0.000000
   12    -1.000000    90.000000     0.000000     1.000000     0.000000     0.000000     0.000000     0.000000
   13     1.000000   180.000000     0.000000     0.000000     1.000000     0.000000     0.000000     0.000000
   14    -1.000000   180.000000     0.000000     0.000000     1.000000     0.000000     0.000000     0.000000
   15     1.000000   120.000000    -0.577350     0.577350     0.577350     0.000000     0.000000     0.000000
   16    -1.000000   120.000000    -0.577350     0.577350     0.577350     0.000000     0.000000     0.000000
   17     1.000000   120.000000    -0.577350     0.577350    -0.577350     0.000000     0.000000     0.000000
   18    -1.000000   120.000000    -0.577350     0.577350    -0.577350     0.000000     0.000000     0.000000
   19     1.000000    90.000000     0.000000     0.000000     1.000000     0.000000     0.000000     0.000000
   20    -1.000000    90.000000     0.000000     0.000000     1.000000     0.000000     0.000000     0.000000
   21     1.000000    90.000000    -1.000000     0.000000     0.000000     0.000000     0.000000     0.000000
   22    -1.000000    90.000000    -1.000000     0.000000     0.000000     0.000000     0.000000     0.000000
   23     1.000000   180.000000     0.707107     0.000000     0.707107     0.000000     0.000000     0.000000
   24    -1.000000   180.000000     0.707107     0.000000     0.707107     0.000000     0.000000     0.000000
   25     1.000000   120.000000     0.577350    -0.577350     0.577350     0.000000     0.000000     0.000000
   26    -1.000000   120.000000     0.577350    -0.577350     0.577350     0.000000     0.000000     0.000000
   27     1.000000   120.000000    -0.577350    -0.577350     0.577350     0.000000     0.000000     0.000000
   28    -1.000000   120.000000    -0.577350    -0.577350     0.577350     0.000000     0.000000     0.000000
   29     1.000000   180.000000     1.000000     0.000000     0.000000     0.000000     0.000000     0.000000
   30    -1.000000   180.000000     1.000000     0.000000     0.000000     0.000000     0.000000     0.000000
   31     1.000000    90.000000     0.000000    -1.000000     0.000000     0.000000     0.000000     0.000000
   32    -1.000000    90.000000     0.000000    -1.000000     0.000000     0.000000     0.000000     0.000000
   33     1.000000   180.000000     0.707107     0.707107     0.000000     0.000000     0.000000     0.000000
   34    -1.000000   180.000000     0.707107     0.707107     0.000000     0.000000     0.000000     0.000000
   35     1.000000    90.000000     1.000000     0.000000     0.000000     0.000000     0.000000     0.000000
   36    -1.000000    90.000000     1.000000     0.000000     0.000000     0.000000     0.000000     0.000000
   37     1.000000   120.000000     0.577350    -0.577350    -0.577350     0.000000     0.000000     0.000000
   38    -1.000000   120.000000     0.577350    -0.577350    -0.577350     0.000000     0.000000     0.000000
   39     1.000000   180.000000     0.000000     1.000000     0.000000     0.000000     0.000000     0.000000
   40    -1.000000   180.000000     0.000000     1.000000     0.000000     0.000000     0.000000     0.000000
   41     1.000000   120.000000     0.577350     0.577350    -0.577350     0.000000     0.000000     0.000000
   42    -1.000000   120.000000     0.577350     0.577350    -0.577350     0.000000     0.000000     0.000000
   43     1.000000   180.000000     0.000000    -0.707107     0.707107     0.000000     0.000000     0.000000
   44    -1.000000   180.000000     0.000000    -0.707107     0.707107     0.000000     0.000000     0.000000
   45     1.000000   180.000000     0.707107    -0.707107     0.000000     0.000000     0.000000     0.000000
   46    -1.000000   180.000000     0.707107    -0.707107     0.000000     0.000000     0.000000     0.000000
   47     1.000000   180.000000     0.707107     0.000000    -0.707107     0.000000     0.000000     0.000000
   48    -1.000000   180.000000     0.707107     0.000000    -0.707107     0.000000     0.000000     0.000000
 
 Subroutine IBZKPT returns following result:
 ===========================================
 
 Found     20 irreducible k-points:
 
 Following reciprocal coordinates:
            Coordinates               Weight
  0.000000  0.000000  0.000000      1.000000
  0.142857  0.000000  0.000000      6.000000
  0.285714  0.000000  0.000000      6.000000
  0.428571  0.000000  0.000000      6.000000
  0.142857  0.142857  0.000000     12.000000
  0.285714  0.142857  0.000000     24.000000
  0.428571  0.142857  0.000000     24.000000
  0.285714  0.285714  0.000000     12.000000
  0.428571  0.285714  0.000000     24.000000
  0.428571  0.428571  0.000000     12.000000
  0.142857  0.142857  0.142857      8.000000
  0.285714  0.142857  0.142857     24.000000
  0.428571  0.142857  0.142857     24.000000
  0.285714  0.285714  0.142857     24.000000
  0.428571  0.285714  0.142857     48.000000
  0.428571  0.428571  0.142857     24.000000
  0.285714  0.285714  0.285714      8.000000
  0.428571  0.285714  0.285714     24.000000
  0.428571  0.428571  0.285714     24.000000
  0.428571  0.428571  0.428571      8.000000
 
 Following cartesian coordinates:
            Coordinates               Weight
  0.000000  0.000000  0.000000      1.000000
  0.035014  0.000000  0.000000      6.000000
  0.070028  0.000000  0.000000      6.000000
  0.105042  0.000000  0.000000      6.000000
  0.035014  0.035014  0.000000     12.000000
  0.070028  0.035014  0.000000     24.000000
  0.105042  0.035014  0.000000     24.000000
  0.070028  0.070028  0.000000     12.000000
  0.105042  0.070028  0.000000     24.000000
  0.105042  0.105042  0.000000     12.000000
  0.035014  0.035014  0.035014      8.000000
  0.070028  0.035014  0.035014     24.000000
  0.105042  0.035014  0.035014     24.000000
  0.070028  0.070028  0.035014     24.000000
  0.105042  0.070028  0.035014     48.000000
  0.105042  0.105042  0.035014     24.000000
  0.070028  0.070028  0.070028      8.000000
  0.105042  0.070028  0.070028     24.000000
  0.105042  0.105042  0.070028     24.000000
  0.105042  0.105042  0.105042      8.000000
 


--------------------------------------------------------------------------------------------------------




 Dimension of arrays:
   k-points           NKPTS =     20   k-points in BZ     NKDIM =     20   number of bands    NBANDS=     48
   number of dos      NEDOS =    301   number of ions     NIONS =      4
   non local maximal  LDIM  =      6   non local SUM 2l+1 LMDIM =     18
   total plane-waves  NPLWV =   8000
   max r-space proj   IRMAX =      1   max aug-charges    IRDMAX=   7402
   dimension x,y,z NGX =    20 NGY =   20 NGZ =   20
   dimension x,y,z NGXF=    40 NGYF=   40 NGZF=   40
   support grid    NGXF=    40 NGYF=   40 NGZF=   40
   ions per type =               4
 NGX,Y,Z   is equivalent  to a cutoff of   8.15,  8.15,  8.15 a.u.
 NGXF,Y,Z  is equivalent  to a cutoff of  16.30, 16.30, 16.30 a.u.


 I would recommend the setting:
   dimension x,y,z NGX =    20 NGY =   20 NGZ =   20
 SYSTEM =  unknown system                          
 POSCAR =  Au                                      

 Startparameter for this run:
   NWRITE =      2    write-flag & timer
   PREC   = normal    normal or accurate (medium, high low for compatibility)
   ISTART =      0    job   : 0-new  1-cont  2-samecut
   ICHARG =      2    charge: 1-file 2-atom 10-const
   ISPIN  =      1    spin polarized calculation?
   LNONCOLLINEAR =      F non collinear calculations
   LSORBIT =      F    spin-orbit coupling
   INIWAV =      1    electr: 0-lowe 1-rand  2-diag
   LASPH  =      F    aspherical Exc in radial PAW
   METAGGA=      F    non-selfconsistent MetaGGA calc.

 Electronic Relaxation 1
   ENCUT  =  400.0 eV  29.40 Ry    5.42 a.u.   6.65  6.65  6.65*2*pi/ulx,y,z
   ENINI  =  400.0     initial cutoff
   ENAUG  =  356.7 eV  augmentation charge cutoff
   NELM   =     60;   NELMIN=  2; NELMDL= -5     # of ELM steps 
   EDIFF  = 0.1E-03   stopping-criterion for ELM
   LREAL  =      F    real-space projection
   NLSPLINE    = F    spline interpolate recip. space projectors
   LCOMPAT=      F    compatible to vasp.4.4
   GGA_COMPAT  = T    GGA compatible to vasp.4.4-vasp.4.6
   LMAXPAW     = -100 max onsite density
   LMAXMIX     =    2 max onsite mixed and CHGCAR
   VOSKOWN=      0    Vosko Wilk Nusair interpolation
   ROPT   =    0.00000
 Ionic relaxation
   EDIFFG = 0.1E-02   stopping-criterion for IOM
   NSW    =      0    number of steps for IOM
   NBLOCK =      1;   KBLOCK =      1    inner block; outer block 
   IBRION =     -1    ionic relax: 0-MD 1-quasi-New 2-CG
   NFREE  =      0    steps in history (QN), initial steepest desc. (CG)
   ISIF   =      2    stress and relaxation
   IWAVPR =     10    prediction:  0-non 1-charg 2-wave 3-comb
   ISYM   =      2    0-nonsym 1-usesym 2-fastsym
   LCORR  =      T    Harris-Foulkes like correction to forces

   POTIM  = 0.5000    time-step for ionic-motion
   TEIN   =    0.0    initial temperature
   TEBEG  =    0.0;   TEEND  =   0.0 temperature during run
   SMASS  =  -3.00    Nose mass-parameter (am)
   estimated Nose-frequenzy (Omega)   =  0.10E-29 period in steps =****** mass=  -0.380E-27a.u.
   SCALEE = 1.0000    scale energy and forces
   NPACO  =    256;   APACO  = 16.0  distance and # of slots for P.C.
   PSTRESS=    0.0 pullay stress

  Mass of Ions in am
   POMASS = 196.97
  Ionic Valenz
   ZVAL   =  11.00
  Atomic Wigner-Seitz radii
   RWIGS  =  -1.00
  virtual crystal weights 
   VCA    =   1.00
   NELECT =      44.0000    total number of electrons
   NUPDOWN=      -1.0000    fix difference up-down

 DOS related values:
   EMIN   =  10.00;   EMAX   =-10.00  energy-range for DOS
   EFERMI =   0.00
   ISMEAR =     1;   SIGMA  =   0.10  broadening in eV -4-tet -1-fermi 0-gaus

 Electronic relaxation 2 (details)
   IALGO  =     38    algorithm
   LDIAG  =      T    sub-space diagonalisation (order eigenvalues)
   LSUBROT=      F    optimize rotation matrix (better conditioning)
   TURBO    =      0    0=normal 1=particle mesh
   IRESTART =      0    0=no restart 2=restart with 2 vectors
   NREBOOT  =      0    no. of reboots
   NMIN     =      0    reboot dimension
   EREF     =   0.00    reference energy to select bands
   IMIX   =      4    mixing-type and parameters
     AMIX     =   0.40;   BMIX     =  1.00
     AMIX_MAG =   1.60;   BMIX_MAG =  1.00
     AMIN     =   0.10
     WC   =   100.;   INIMIX=   1;  MIXPRE=   1;  MAXMIX= -45

 Intra band minimization:
   WEIMIN = 0.0000     energy-eigenvalue tresh-hold
   EBREAK =  0.52E-06  absolut break condition
   DEPER  =   0.30     relativ break condition  

   TIME   =   0.40     timestep for ELM

  volume/ion in A,a.u.               =      16.98       114.58
  Fermi-wavevector in a.u.,A,eV,Ry     =   1.416551  2.676893 27.301680  2.006617
  Thomas-Fermi vector in A             =   2.537874
 
 Write flags
   LWAVE  =      F    write WAVECAR
   LCHARG =      F    write CHGCAR
   LVTOT  =      F    write LOCPOT, total local potential
   LVHAR  =      F    write LOCPOT, Hartree potential only
   LELF   =      F    write electronic localiz. function (ELF)
   LORBIT =      0    0 simple, 1 ext, 2 COOP (PROOUT)


 Dipole corrections
   LMONO  =      F    monopole corrections only (constant potential shift)
   LDIPOL =      F    correct potential (dipole corrections)
   IDIPOL =      0    1-x, 2-y, 3-z, 4-all directions 
   EPSILON=  1.0000000 bulk dielectric constant

 Exchange correlation treatment:
   GGA     =    --    GGA type
   LEXCH   =     8    internal setting for exchange type
   VOSKOWN=      0    Vosko Wilk Nusair interpolation
   LHFCALC =     F    Hartree Fock is set to
   LHFONE  =     F    Hartree Fock one center treatment
   AEXX    =    0.0000 exact exchange contribution

 Linear response parameters
   LEPSILON=     F    determine dielectric tensor
   LRPA    =     F    only Hartree local field effects (RPA)
   LNABLA  =     F    use nabla operator in PAW spheres
   LVEL    =     F    velocity operator in full k-point grid
   LINTERFAST=   F  fast interpolation
   KINTER  =     0    interpolate to denser k-point grid
   CSHIFT  =0.1000    complex shift for real part using Kramers Kronig
   OMEGAMAX=  -1.0    maximum frequency
   DEG_THRESHOLD= 0.2000000E-02 threshold for treating states as degnerate
   RTIME   =    0.100 relaxation time in fs

 Orbital magnetization related:
   ORBITALMAG=     F  switch on orbital magnetization
   LCHIMAG   =     F  perturbation theory with respect to B field
   DQ        =  0.001000  dq finite difference perturbation B field



--------------------------------------------------------------------------------------------------------


 Static calculation
 charge density and potential will be updated during run
 non-spin polarized calculation
 Variant of blocked Davidson
 Davidson routine will perform the subspace rotation
 perform sub-space diagonalisation
    after iterative eigenvector-optimisation
 modified Broyden-mixing scheme, WC =      100.0
 initial mixing is a Kerker type mixing with AMIX =  0.4000 and BMIX =      1.0000
 Hartree-type preconditioning will be used
 using additional bands           26
 reciprocal scheme for non local part
 use partial core corrections
 calculate Harris-corrections to forces 
   (improved forces if not selfconsistent)
 use gradient corrections 
 use of overlap-Matrix (Vanderbilt PP)
 Methfessel and Paxton  Order N= 1 SIGMA  =   0.10


--------------------------------------------------------------------------------------------------------


  energy-cutoff  :      400.00
  volume of cell :       67.92
      direct lattice vectors                 reciprocal lattice vectors
     4.080000000  0.000000000  0.000000000     0.245098039  0.000000000  0.000000000
     0.000000000  4.080000000  0.000000000     0.000000000  0.245098039  0.000000000
     0.000000000  0.000000000  4.080000000     0.000000000  0.000000000  0.245098039

  length of vectors
     4.080000000  4.080000000  4.080000000     0.245098039  0.245098039  0.245098039


 
 k-points in units of 2pi/SCALE and weight: KPOINTS created by Atomic Simulation Env
   0.00000000  0.00000000  0.00000000       0.003
   0.03501401  0.00000000  0.00000000       0.017
   0.07002801  0.00000000  0.00000000       0.017
   0.10504202  0.00000000  0.00000000       0.017
   0.03501401  0.03501401  0.00000000       0.035
   0.07002801  0.03501401  0.00000000       0.070
   0.10504202  0.03501401  0.00000000       0.070
   0.07002801  0.07002801  0.00000000       0.035
   0.10504202  0.07002801  0.00000000       0.070
   0.10504202  0.10504202  0.00000000       0.035
   0.03501401  0.03501401  0.03501401       0.023
   0.07002801  0.03501401  0.03501401       0.070
   0.10504202  0.03501401  0.03501401       0.070
   0.07002801  0.07002801  0.03501401       0.070
   0.10504202  0.07002801  0.03501401       0.140
   0.10504202  0.10504202  0.03501401       0.070
   0.07002801  0.07002801  0.07002801       0.023
   0.10504202  0.07002801  0.07002801       0.070
   0.10504202  0.10504202  0.07002801       0.070
   0.10504202  0.10504202  0.10504202       0.023
 
 k-points in reciprocal lattice and weights: KPOINTS created by Atomic Simulation Env
   0.00000000  0.00000000  0.00000000       0.003
   0.14285714  0.00000000  0.00000000       0.017
   0.28571429  0.00000000  0.00000000       0.017
   0.42857143  0.00000000  0.00000000       0.017
   0.14285714  0.14285714  0.00000000       0.035
   0.28571429  0.14285714  0.00000000       0.070
   0.42857143  0.14285714  0.00000000       0.070
   0.28571429  0.28571429  0.00000000       0.035
   0.42857143  0.28571429  0.00000000       0.070
   0.42857143  0.42857143  0.00000000       0.035
   0.14285714  0.14285714  0.14285714       0.023
   0.28571429  0.14285714  0.14285714       0.070
   0.42857143  0.14285714  0.14285714       0.070
   0.28571429  0.28571429  0.14285714       0.070
   0.42857143  0.28571429  0.14285714       0.140
   0.42857143  0.42857143  0.14285714       0.070
   0.28571429  0.28571429  0.28571429       0.023
   0.42857143  0.28571429  0.28571429       0.070
   0.42857143  0.42857143  0.28571429       0.070
   0.42857143  0.42857143  0.42857143       0.023
 
 position of ions in fractional coordinates (direct lattice) 
   0.00000000  0.00000000  0.00000000
   0.00000000  0.50000000  0.50000000
   0.50000000  0.00000000  0.50000000
   0.50000000  0.50000000  0.00000000
 
 position of ions in cartesian coordinates  (Angst):
   0.00000000  0.00000000  0.00000000
   0.00000000  2.04000000  2.04000000
   2.04000000  0.00000000  2.04000000
   2.04000000  2.04000000  0.00000000
 


--------------------------------------------------------------------------------------------------------


 k-point  1 :   0.0000 0.0000 0.0000  plane waves:    1237
 k-point  2 :   0.1429 0.0000 0.0000  plane waves:    1245
 k-point  3 :   0.2857 0.0000 0.0000  plane waves:    1229
 k-point  4 :   0.4286 0.0000 0.0000  plane waves:    1230
 k-point  5 :   0.1429 0.1429 0.0000  plane waves:    1253
 k-point  6 :   0.2857 0.1429 0.0000  plane waves:    1244
 k-point  7 :   0.4286 0.1429 0.0000  plane waves:    1227
 k-point  8 :   0.2857 0.2857 0.0000  plane waves:    1237
 k-point  9 :   0.4286 0.2857 0.0000  plane waves:    1247
 k-point 10 :   0.4286 0.4286 0.0000  plane waves:    1222
 k-point 11 :   0.1429 0.1429 0.1429  plane waves:    1246
 k-point 12 :   0.2857 0.1429 0.1429  plane waves:    1250
 k-point 13 :   0.4286 0.1429 0.1429  plane waves:    1222
 k-point 14 :   0.2857 0.2857 0.1429  plane waves:    1230
 k-point 15 :   0.4286 0.2857 0.1429  plane waves:    1228
 k-point 16 :   0.4286 0.4286 0.1429  plane waves:    1234
 k-point 17 :   0.2857 0.2857 0.2857  plane waves:    1238
 k-point 18 :   0.4286 0.2857 0.2857  plane waves:    1227
 k-point 19 :   0.4286 0.4286 0.2857  plane waves:    1228
 k-point 20 :   0.4286 0.4286 0.4286  plane waves:    1259

 maximum and minimum number of plane-waves per node :      1259     1222

 maximum number of plane-waves:      1259
 maximum index in each direction: 
   IXMAX=    6   IYMAX=    6   IZMAX=    6
   IXMIN=   -7   IYMIN=   -7   IZMIN=   -7

 WARNING: aliasing errors must be expected set NGX to  28 to avoid them
 WARNING: aliasing errors must be expected set NGY to  28 to avoid them
 WARNING: aliasing errors must be expected set NGZ to  28 to avoid them
 aliasing errors are usually negligible using standard VASP settings
 and one can safely disregard these warnings

 serial   3D FFT for wavefunctions
 parallel 3D FFT for charge:
    minimum data exchange during FFTs selected (reduces bandwidth)


 total amount of memory used by VASP on root node    35298. kBytes
========================================================================

   base      :      30000. kBytes
   nonl-proj :       3744. kBytes
   fftplans  :        147. kBytes
   grid      :        485. kBytes
   one-center:         62. kBytes
   wavefun   :        860. kBytes
 
     INWAV:  cpu time    0.0001: real time    0.0065
 Broyden mixing: mesh for mixing (old mesh)
   NGX = 13   NGY = 13   NGZ = 13
  (NGX  = 40   NGY  = 40   NGZ  = 40)
  gives a total of   2197 points

 initial charge density was supplied:
 charge density of overlapping atoms calculated
 number of electron      44.0000000 magnetization 
 keeping initial charge density in first step


--------------------------------------------------------------------------------------------------------


 Maximum index for augmentation-charges          437 (set IRDMAX)


--------------------------------------------------------------------------------------------------------


 First call to EWALD:  gamma=   0.434
 Maximum number of real-space cells 3x 3x 3
 Maximum number of reciprocal cells 3x 3x 3

 FEWALD executed in parallel
    FEWALD:  cpu time    0.0016: real time    0.0016


----------------------------------------- Iteration    1(   1)  ---------------------------------------


    POTLOK:  cpu time    0.0581: real time    0.0586
    SETDIJ:  cpu time    0.0028: real time    0.0028
     EDDAV:  cpu time    0.3047: real time    0.3047
       DOS:  cpu time    0.0007: real time    0.0007
    --------------------------------------------
      LOOP:  cpu time    0.3684: real time    0.3696

 eigenvalue-minimisations  :  1968
 total energy-change (2. order) : 0.1836001E+03  (-0.1867246E+04)
 number of electron      44.0000000 magnetization 
 augmentation part       44.0000000 magnetization 

 Free energy of the ion-electron system (eV)
  ---------------------------------------------------
  alpha Z        PSCENC =       274.40333328
  Ewald energy   TEWEN  =     -3915.95376942
  -Hartree energ DENC   =      -494.00614683
  -exchange      EXHF   =         0.00000000
  -V(xc)+E(xc)   XCENC  =        62.70648169
  PAW double counting   =      3496.39001341    -3404.04053930
  entropy T*S    EENTRO =        -0.00204860
  eigenvalues    EBANDS =       459.78067031
  atomic energy  EATOM  =      3704.32207507
  Solvation  Ediel_sol  =         0.00000000
  ---------------------------------------------------
  free energy    TOTEN  =       183.60006961 eV

  energy without entropy =      183.60211821  energy(sigma->0) =      183.60075248


--------------------------------------------------------------------------------------------------------




----------------------------------------- Iteration    1(   2)  ---------------------------------------


     EDDAV:  cpu time    0.4037: real time    0.4037
       DOS:  cpu time    0.0015: real time    0.0015
    --------------------------------------------
      LOOP:  cpu time    0.4064: real time    0.4081

 eigenvalue-minimisations  :  2544
 total energy-change (2. order) :-0.1949405E+03  (-0.1843113E+03)
 number of electron      44.0000000 magnetization 
 augmentation part       44.0000000 magnetization 

 Free energy of the ion-electron system (eV)
  ---------------------------------------------------
  alpha Z        PSCENC =       274.40333328
  Ewald energy   TEWEN  =     -3915.95376942
  -Hartree energ DENC   =      -494.00614683
  -exchange      EXHF   =         0.00000000
  -V(xc)+E(xc)   XCENC  =        62.70648169
  PAW double counting   =      3496.39001341    -3404.04053930
  entropy T*S    EENTRO =        -0.00022940
  eigenvalues    EBANDS =       264.83836796
  atomic energy  EATOM  =      3704.32207507
  Solvation  Ediel_sol  =         0.00000000
  ---------------------------------------------------
  free energy    TOTEN  =       -11.34041354 eV

  energy without entropy =      -11.34018414  energy(sigma->0) =      -11.34033707


--------------------------------------------------------------------------------------------------------




----------------------------------------- Iteration    1(   3)  ---------------------------------------


     EDDAV:  cpu time    0.3747: real time    0.3748
       DOS:  cpu time    0.0012: real time    0.0012
    --------------------------------------------
      LOOP:  cpu time    0.3768: real time    0.3913

 eigenvalue-minimisations  :  2424
 total energy-change (2. order) :-0.2483398E+01  (-0.2480414E+01)
 number of electron      44.0000000 magnetization 
 augmentation part       44.0000000 magnetization 

 Free energy of the ion-electron system (eV)
  ---------------------------------------------------
  alpha Z        PSCENC =       274.40333328
  Ewald energy   TEWEN  =     -3915.95376942
  -Hartree energ DENC   =      -494.00614683
  -exchange      EXHF   =         0.00000000
  -V(xc)+E(xc)   XCENC  =        62.70648169
  PAW double counting   =      3496.39001341    -3404.04053930
  entropy T*S    EENTRO =        -0.00109905
  eigenvalues    EBANDS =       262.35583920
  atomic energy  EATOM  =      3704.32207507
  Solvation  Ediel_sol  =         0.00000000
  ---------------------------------------------------
  free energy    TOTEN  =       -13.82381195 eV

  energy without entropy =      -13.82271290  energy(sigma->0) =      -13.82344560


--------------------------------------------------------------------------------------------------------




----------------------------------------- Iteration    1(   4)  ---------------------------------------


     EDDAV:  cpu time    0.4593: real time    0.4595
       DOS:  cpu time    0.0006: real time    0.0006
    --------------------------------------------
      LOOP:  cpu time    0.4609: real time    0.4710

 eigenvalue-minimisations  :  2760
 total energy-change (2. order) :-0.1021973E-01  (-0.1021951E-01)
 number of electron      44.0000000 magnetization 
 augmentation part       44.0000000 magnetization 

 Free energy of the ion-electron system (eV)
  ---------------------------------------------------
  alpha Z        PSCENC =       274.40333328
  Ewald energy   TEWEN  =     -3915.95376942
  -Hartree energ DENC   =      -494.00614683
  -exchange      EXHF   =         0.00000000
  -V(xc)+E(xc)   XCENC  =        62.70648169
  PAW double counting   =      3496.39001341    -3404.04053930
  entropy T*S    EENTRO =        -0.00109946
  eigenvalues    EBANDS =       262.34561988
  atomic energy  EATOM  =      3704.32207507
  Solvation  Ediel_sol  =         0.00000000
  ---------------------------------------------------
  free energy    TOTEN  =       -13.83403169 eV

  energy without entropy =      -13.83293222  energy(sigma->0) =      -13.83366520


--------------------------------------------------------------------------------------------------------




----------------------------------------- Iteration    1(   5)  ---------------------------------------


     EDDAV:  cpu time    0.4070: real time    0.4161
       DOS:  cpu time    0.0005: real time    0.0005
    CHARGE:  cpu time    0.0076: real time    0.0076
    MIXING:  cpu time    0.0010: real time    0.0011
    --------------------------------------------
      LOOP:  cpu time    0.4171: real time    0.4365

 eigenvalue-minimisations  :  2328
 total energy-change (2. order) :-0.9160958E-04  (-0.9161033E-04)
 number of electron      43.9999811 magnetization 
 augmentation part       15.4401007 magnetization 

 Broyden mixing:
  rms(total) = 0.18997E+01    rms(broyden)= 0.18997E+01
  rms(prec ) = 0.23606E+01
  weight for this iteration     100.00

 Free energy of the ion-electron system (eV)
  ---------------------------------------------------
  alpha Z        PSCENC =       274.40333328
  Ewald energy   TEWEN  =     -3915.95376942
  -Hartree energ DENC   =      -494.00614683
  -exchange      EXHF   =         0.00000000
  -V(xc)+E(xc)   XCENC  =        62.70648169
  PAW double counting   =      3496.39001341    -3404.04053930
  entropy T*S    EENTRO =        -0.00109947
  eigenvalues    EBANDS =       262.34552827
  atomic energy  EATOM  =      3704.32207507
  Solvation  Ediel_sol  =         0.00000000
  ---------------------------------------------------
  free energy    TOTEN  =       -13.83412330 eV

  energy without entropy =      -13.83302383  energy(sigma->0) =      -13.83375681


--------------------------------------------------------------------------------------------------------




----------------------------------------- Iteration    1(   6)  ---------------------------------------


    POTLOK:  cpu time    0.0043: real time    0.0043
    SETDIJ:  cpu time    0.0024: real time    0.0024
     EDDAV:  cpu time    0.3815: real time    0.3818
       DOS:  cpu time    0.0005: real time    0.0005
    CHARGE:  cpu time    0.0075: real time    0.0075
    MIXING:  cpu time    0.0004: real time    0.0004
    --------------------------------------------
      LOOP:  cpu time    0.3974: real time    0.3995

 eigenvalue-minimisations  :  2424
 total energy-change (2. order) : 0.9914728E+00  (-0.1732681E+00)
 number of electron      43.9999806 magnetization 
 augmentation part       15.9199115 magnetization 

 Broyden mixing:
  rms(total) = 0.11995E+01    rms(broyden)= 0.11995E+01
  rms(prec ) = 0.12606E+01
  weight for this iteration     100.00

 eigenvalues of (default mixing * dielectric matrix)
  average eigenvalue GAMMA=   2.2235
  2.2235

 Free energy of the ion-electron system (eV)
  ---------------------------------------------------
  alpha Z        PSCENC =       274.40333328
  Ewald energy   TEWEN  =     -3915.95376942
  -Hartree energ DENC   =      -463.32153768
  -exchange      EXHF   =         0.00000000
  -V(xc)+E(xc)   XCENC  =        61.35606928
  PAW double counting   =      3782.99319030    -3695.81762926
  entropy T*S    EENTRO =        -0.00130978
  eigenvalues    EBANDS =       239.17692769
  atomic energy  EATOM  =      3704.32207507
  Solvation  Ediel_sol  =         0.00000000
  ---------------------------------------------------
  free energy    TOTEN  =       -12.84265054 eV

  energy without entropy =      -12.84134075  energy(sigma->0) =      -12.84221394


--------------------------------------------------------------------------------------------------------




----------------------------------------- Iteration    1(   7)  ---------------------------------------


    POTLOK:  cpu time    0.0040: real time    0.0041
    SETDIJ:  cpu time    0.0021: real time    0.0021
     EDDAV:  cpu time    0.4151: real time    0.4160
       DOS:  cpu time    0.0008: real time    0.0008
    CHARGE:  cpu time    0.0070: real time    0.0075
    MIXING:  cpu time    0.0003: real time    0.0003
    --------------------------------------------
      LOOP:  cpu time    0.4302: real time    0.4335

 eigenvalue-minimisations  :  2568
 total energy-change (2. order) : 0.8000897E-01  (-0.2442906E-01)
 number of electron      43.9999804 magnetization 
 augmentation part       16.0995514 magnetization 

 Broyden mixing:
  rms(total) = 0.48306E+00    rms(broyden)= 0.48306E+00
  rms(prec ) = 0.48704E+00
  weight for this iteration     100.00

 eigenvalues of (default mixing * dielectric matrix)
  average eigenvalue GAMMA=   1.9971
  1.2747  2.7195

 Free energy of the ion-electron system (eV)
  ---------------------------------------------------
  alpha Z        PSCENC =       274.40333328
  Ewald energy   TEWEN  =     -3915.95376942
  -Hartree energ DENC   =      -449.59875547
  -exchange      EXHF   =         0.00000000
  -V(xc)+E(xc)   XCENC  =        60.74438752
  PAW double counting   =      4078.68959607    -3995.68548216
  entropy T*S    EENTRO =        -0.00180544
  eigenvalues    EBANDS =       230.31777899
  atomic energy  EATOM  =      3704.32207507
  Solvation  Ediel_sol  =         0.00000000
  ---------------------------------------------------
  free energy    TOTEN  =       -12.76264156 eV

  energy without entropy =      -12.76083612  energy(sigma->0) =      -12.76203975


--------------------------------------------------------------------------------------------------------




----------------------------------------- Iteration    1(   8)  ---------------------------------------


    POTLOK:  cpu time    0.0045: real time    0.0045
    SETDIJ:  cpu time    0.0021: real time    0.0021
     EDDAV:  cpu time    0.4162: real time    0.4166
       DOS:  cpu time    0.0006: real time    0.0006
    CHARGE:  cpu time    0.0067: real time    0.0067
    MIXING:  cpu time    0.0002: real time    0.0003
    --------------------------------------------
      LOOP:  cpu time    0.4311: real time    0.4337

 eigenvalue-minimisations  :  2592
 total energy-change (2. order) : 0.9395466E-02  (-0.1881572E-02)
 number of electron      43.9999805 magnetization 
 augmentation part       16.0619173 magnetization 

 Broyden mixing:
  rms(total) = 0.60671E-01    rms(broyden)= 0.60671E-01
  rms(prec ) = 0.60743E-01
  weight for this iteration     100.00

 eigenvalues of (default mixing * dielectric matrix)
  average eigenvalue GAMMA=   1.5213
  2.5740  1.2707  0.7194

 Free energy of the ion-electron system (eV)
  ---------------------------------------------------
  alpha Z        PSCENC =       274.40333328
  Ewald energy   TEWEN  =     -3915.95376942
  -Hartree energ DENC   =      -449.34533818
  -exchange      EXHF   =         0.00000000
  -V(xc)+E(xc)   XCENC  =        60.71700808
  PAW double counting   =      4245.87786407    -4164.76315264
  entropy T*S    EENTRO =        -0.00170428
  eigenvalues    EBANDS =       231.99043793
  atomic energy  EATOM  =      3704.32207507
  Solvation  Ediel_sol  =         0.00000000
  ---------------------------------------------------
  free energy    TOTEN  =       -12.75324610 eV

  energy without entropy =      -12.75154182  energy(sigma->0) =      -12.75267800


--------------------------------------------------------------------------------------------------------




----------------------------------------- Iteration    1(   9)  ---------------------------------------


    POTLOK:  cpu time    0.0038: real time    0.0038
    SETDIJ:  cpu time    0.0020: real time    0.0020
     EDDAV:  cpu time    0.3836: real time    0.3843
       DOS:  cpu time    0.0006: real time    0.0006
    CHARGE:  cpu time    0.0073: real time    0.0073
    MIXING:  cpu time    0.0003: real time    0.0003
    --------------------------------------------
      LOOP:  cpu time    0.3985: real time    0.4012

 eigenvalue-minimisations  :  2280
 total energy-change (2. order) : 0.1058404E-03  (-0.1372402E-04)
 number of electron      43.9999804 magnetization 
 augmentation part       16.0646836 magnetization 

 Broyden mixing:
  rms(total) = 0.69616E-02    rms(broyden)= 0.69614E-02
  rms(prec ) = 0.77546E-02
  weight for this iteration     100.00

 eigenvalues of (default mixing * dielectric matrix)
  average eigenvalue GAMMA=   1.8521
  1.0011  1.2462  2.6566  2.5045

 Free energy of the ion-electron system (eV)
  ---------------------------------------------------
  alpha Z        PSCENC =       274.40333328
  Ewald energy   TEWEN  =     -3915.95376942
  -Hartree energ DENC   =      -449.43513210
  -exchange      EXHF   =         0.00000000
  -V(xc)+E(xc)   XCENC  =        60.72164855
  PAW double counting   =      4230.28216711    -4148.94255896
  entropy T*S    EENTRO =        -0.00171402
  eigenvalues    EBANDS =       231.85081024
  atomic energy  EATOM  =      3704.32207507
  Solvation  Ediel_sol  =         0.00000000
  ---------------------------------------------------
  free energy    TOTEN  =       -12.75314026 eV

  energy without entropy =      -12.75142624  energy(sigma->0) =      -12.75256892


--------------------------------------------------------------------------------------------------------




----------------------------------------- Iteration    1(  10)  ---------------------------------------


    POTLOK:  cpu time    0.0044: real time    0.0044
    SETDIJ:  cpu time    0.0022: real time    0.0022
     EDDAV:  cpu time    0.3438: real time    0.3442
       DOS:  cpu time    0.0006: real time    0.0006
    --------------------------------------------
      LOOP:  cpu time    0.3520: real time    0.3541

 eigenvalue-minimisations  :  1944
 total energy-change (2. order) :-0.2273073E-04  (-0.1833397E-05)
 number of electron      43.9999804 magnetization 
 augmentation part       16.0646836 magnetization 

 Free energy of the ion-electron system (eV)
  ---------------------------------------------------
  alpha Z        PSCENC =       274.40333328
  Ewald energy   TEWEN  =     -3915.95376942
  -Hartree energ DENC   =      -449.42047266
  -exchange      EXHF   =         0.00000000
  -V(xc)+E(xc)   XCENC  =        60.71974631
  PAW double counting   =      4232.72441287    -4151.32183144
  entropy T*S    EENTRO =        -0.00171645
  eigenvalues    EBANDS =       231.77505946
  atomic energy  EATOM  =      3704.32207507
  Solvation  Ediel_sol  =         0.00000000
  ---------------------------------------------------
  free energy    TOTEN  =       -12.75316299 eV

  energy without entropy =      -12.75144654  energy(sigma->0) =      -12.75259084


--------------------------------------------------------------------------------------------------------




 average (electrostatic) potential at core
  the test charge radii are     1.2098
  (the norm of the test charge is              1.0000)
       1 -64.1017       2 -64.1017       3 -64.1017       4 -64.1017
 
 
 
 E-fermi :   9.3358     XC(G=0): -12.7415     alpha+bet :-13.9847


 k-point     1 :       0.0000    0.0000    0.0000
  band No.  band energies     occupation 
      1      -0.3603      2.00000
      2       2.4319      2.00000
      3       2.4319      2.00000
      4       2.4319      2.00000
      5       2.7448      2.00000
      6       2.7448      2.00000
      7       2.7448      2.00000
      8       4.8144      2.00000
      9       4.8144      2.00000
     10       4.8144      2.00000
     11       6.3415      2.00000
     12       6.3415      2.00000
     13       7.5042      2.00000
     14       7.5042      2.00000
     15       7.5042      2.00000
     16       7.8700      2.00000
     17       7.8700      2.00000
     18       7.8700      2.00000
     19       7.8700      2.00000
     20       7.8700      2.00000
     21       7.8700      2.00000
     22      10.5457     -0.00000
     23      10.5457     -0.00000
     24      10.5457     -0.00000
     25      15.3360      0.00000
     26      15.3360      0.00000
     27      15.3360      0.00000
     28      19.5552      0.00000
     29      19.5552      0.00000
     30      19.5552      0.00000
     31      19.5552      0.00000
     32      19.5552      0.00000
     33      19.5552      0.00000
     34      24.0515      0.00000
     35      26.7845      0.00000
     36      26.7845      0.00000
     37      26.7845      0.00000
     38      28.0751      0.00000
     39      28.0751      0.00000
     40      28.0751      0.00000
     41      29.3953      0.00000
     42      29.3953      0.00000
     43      29.3953      0.00000
     44      32.9898      0.00000
     45      37.0209      0.00000
     46      37.0209      0.00000
     47      37.0209      0.00000
     48      37.6670      0.00000

 k-point     2 :       0.1429    0.0000    0.0000
  band No.  band energies     occupation 
      1      -0.1221      2.00000
      2       2.5101      2.00000
      3       2.5898      2.00000
      4       2.5898      2.00000
      5       2.8315      2.00000
      6       2.8775      2.00000
      7       2.8775      2.00000
      8       4.6913      2.00000
      9       4.9218      2.00000
     10       4.9218      2.00000
     11       6.2101      2.00000
     12       6.3944      2.00000
     13       7.1297      2.00000
     14       7.1297      2.00000
     15       7.3143      2.00000
     16       7.3143      2.00000
     17       7.4412      2.00000
     18       7.6422      2.00000
     19       7.6422      2.00000
     20       7.8704      2.00000
     21       7.8704      2.00000
     22       9.1553      2.02846
     23      11.4491     -0.00000
     24      11.4491     -0.00000
     25      15.0997      0.00000
     26      15.0997      0.00000
     27      17.1322      0.00000
     28      19.2012      0.00000
     29      19.2012      0.00000
     30      19.3985      0.00000
     31      19.3985      0.00000
     32      20.0498      0.00000
     33      20.0498      0.00000
     34      24.3436      0.00000
     35      26.6048      0.00000
     36      27.3359      0.00000
     37      27.7594      0.00000
     38      27.7594      0.00000
     39      27.9259      0.00000
     40      27.9259      0.00000
     41      29.1651      0.00000
     42      29.5916      0.00000
     43      29.5916      0.00000
     44      34.4376      0.00000
     45      35.7861      0.00000
     46      35.7861      0.00000
     47      36.5774      0.00000
     48      36.5774      0.00000

 k-point     3 :       0.2857    0.0000    0.0000
  band No.  band energies     occupation 
      1       0.5639      2.00000
      2       2.6488      2.00000
      3       3.0084      2.00000
      4       3.0084      2.00000
      5       3.0812      2.00000
      6       3.2736      2.00000
      7       3.2736      2.00000
      8       4.3608      2.00000
      9       5.2379      2.00000
     10       5.2379      2.00000
     11       5.8722      2.00000
     12       5.9252      2.00000
     13       5.9252      2.00000
     14       6.5448      2.00000
     15       6.8110      2.00000
     16       6.8110      2.00000
     17       7.0747      2.00000
     18       7.0747      2.00000
     19       7.0830      2.00000
     20       7.2682      2.00000
     21       7.8711      2.00000
     22       7.8711      2.00000
     23      13.1254      0.00000
     24      13.1254      0.00000
     25      14.6347      0.00000
     26      14.6347      0.00000
     27      18.1967      0.00000
     28      18.1967      0.00000
     29      19.1486      0.00000
     30      19.1486      0.00000
     31      20.4904      0.00000
     32      21.3982      0.00000
     33      21.3982      0.00000
     34      25.1483      0.00000
     35      26.2130      0.00000
     36      26.3204      0.00000
     37      27.1349      0.00000
     38      27.1349      0.00000
     39      28.4966      0.00000
     40      30.1753      0.00000
     41      30.1753      0.00000
     42      30.2449      0.00000
     43      30.2449      0.00000
     44      32.8910      0.00000
     45      34.4163      0.00000
     46      34.4163      0.00000
     47      35.0634      0.00000
     48      35.0634      0.00000

 k-point     4 :       0.4286    0.0000    0.0000
  band No.  band energies     occupation 
      1       1.5674      2.00000
      2       2.4506      2.00000
      3       3.4570      2.00000
      4       3.4570      2.00000
      5       3.4620      2.00000
      6       3.9166      2.00000
      7       3.9265      2.00000
      8       3.9265      2.00000
      9       4.8217      2.00000
     10       4.8217      2.00000
     11       5.5339      2.00000
     12       5.7286      2.00000
     13       5.7415      2.00000
     14       5.7415      2.00000
     15       6.2818      2.00000
     16       6.2818      2.00000
     17       6.3853      2.00000
     18       6.3853      2.00000
     19       6.7685      2.00000
     20       7.0264      2.00000
     21       7.8718      2.00000
     22       7.8718      2.00000
     23      14.3191      0.00000
     24      14.3191      0.00000
     25      14.9503      0.00000
     26      14.9503      0.00000
     27      16.7077      0.00000
     28      16.7077      0.00000
     29      19.0033      0.00000
     30      19.0033      0.00000
     31      23.3073      0.00000
     32      23.3073      0.00000
     33      24.2588      0.00000
     34      25.4099      0.00000
     35      25.4099      0.00000
     36      25.7525      0.00000
     37      25.9871      0.00000
     38      26.2762      0.00000
     39      27.4748      0.00000
     40      28.6617      0.00000
     41      31.4332      0.00000
     42      31.4332      0.00000
     43      33.1142      0.00000
     44      33.1142      0.00000
     45      33.1181      0.00000
     46      33.1181      0.00000
     47      34.6859      0.00000
     48      34.6859      0.00000

 k-point     5 :       0.1429    0.1429    0.0000
  band No.  band energies     occupation 
      1       0.1084      2.00000
      2       2.6725      2.00000
      3       2.6725      2.00000
      4       2.6931      2.00000
      5       2.9592      2.00000
      6       2.9592      2.00000
      7       3.0451      2.00000
      8       4.6463      2.00000
      9       4.9610      2.00000
     10       4.9997      2.00000
     11       6.1811      2.00000
     12       6.3818      2.00000
     13       6.7318      2.00000
     14       6.7318      2.00000
     15       6.7460      2.00000
     16       7.1561      2.00000
     17       7.3474      2.00000
     18       7.3474      2.00000
     19       7.6409      2.00000
     20       7.6409      2.00000
     21       7.7179      2.00000
     22      10.0752     -0.00000
     23      10.0752     -0.00000
     24      12.1530      0.00000
     25      14.7575      0.00000
     26      16.8137      0.00000
     27      16.8137      0.00000
     28      18.1347      0.00000
     29      19.6792      0.00000
     30      19.6792      0.00000
     31      19.9514      0.00000
     32      19.9514      0.00000
     33      20.4746      0.00000
     34      24.5553      0.00000
     35      25.9858      0.00000
     36      27.6181      0.00000
     37      27.6249      0.00000
     38      27.6249      0.00000
     39      27.7891      0.00000
     40      29.0409      0.00000
     41      29.3975      0.00000
     42      29.3975      0.00000
     43      30.4593      0.00000
     44      33.1320      0.00000
     45      35.4570      0.00000
     46      36.1925      0.00000
     47      36.3990      0.00000
     48      36.6998      0.00000

 k-point     6 :       0.2857    0.1429    0.0000
  band No.  band energies     occupation 
      1       0.7717      2.00000
      2       2.8237      2.00000
      3       3.0141      2.00000
      4       3.1074      2.00000
      5       3.1941      2.00000
      6       3.3394      2.00000
      7       3.4768      2.00000
      8       4.3763      2.00000
      9       5.1937      2.00000
     10       5.2424      2.00000
     11       5.5709      2.00000
     12       5.7972      2.00000
     13       5.9290      2.00000
     14       5.9450      2.00000
     15       6.5704      2.00000
     16       6.7234      2.00000
     17       6.8855      2.00000
     18       7.0705      2.00000
     19       7.1193      2.00000
     20       7.6372      2.00000
     21       7.6414      2.00000
     22       8.3341      2.00000
     23      11.4248     -0.00000
     24      13.6629      0.00000
     25      14.0269      0.00000
     26      16.2758      0.00000
     27      17.2956      0.00000
     28      18.6451      0.00000
     29      19.4565      0.00000
     30      19.8946      0.00000
     31      20.8503      0.00000
     32      20.9673      0.00000
     33      21.6749      0.00000
     34      24.5764      0.00000
     35      24.9711      0.00000
     36      27.2838      0.00000
     37      27.4528      0.00000
     38      28.2031      0.00000
     39      28.8358      0.00000
     40      28.9070      0.00000
     41      29.9079      0.00000
     42      30.1345      0.00000
     43      31.6659      0.00000
     44      32.3620      0.00000
     45      34.6363      0.00000
     46      34.7682      0.00000
     47      35.1656      0.00000
     48      35.1900      0.00000

 k-point     7 :       0.4286    0.1429    0.0000
  band No.  band energies     occupation 
      1       1.7449      2.00000
      2       2.6244      2.00000
      3       3.4970      2.00000
      4       3.5506      2.00000
      5       3.5845      2.00000
      6       3.9619      2.00000
      7       3.9713      2.00000
      8       3.9723      2.00000
      9       4.5849      2.00000
     10       4.8020      2.00000
     11       5.2029      2.00000
     12       5.2246      2.00000
     13       5.7381      2.00000
     14       6.0014      2.00000
     15       6.2751      2.00000
     16       6.3583      2.00000
     17       6.3801      2.00000
     18       6.5604      2.00000
     19       6.9040      2.00000
     20       7.3797      2.00000
     21       7.6295      2.00000
     22       7.6321      2.00000
     23      12.5396      0.00000
     24      13.3140      0.00000
     25      15.4132      0.00000
     26      16.1604      0.00000
     27      16.6067      0.00000
     28      17.1457      0.00000
     29      20.0679      0.00000
     30      20.4844      0.00000
     31      21.6146      0.00000
     32      22.7322      0.00000
     33      23.2566      0.00000
     34      24.4027      0.00000
     35      24.4467      0.00000
     36      26.9285      0.00000
     37      27.1998      0.00000
     38      27.8978      0.00000
     39      28.0010      0.00000
     40      29.6736      0.00000
     41      29.8858      0.00000
     42      31.0588      0.00000
     43      31.4159      0.00000
     44      33.1917      0.00000
     45      33.8509      0.00000
     46      34.9107      0.00000
     47      35.0842      0.00000
     48      35.1867      0.00000

 k-point     8 :       0.2857    0.2857    0.0000
  band No.  band energies     occupation 
      1       1.3651      2.00000
      2       3.1683      2.00000
      3       3.3041      2.00000
      4       3.3041      2.00000
      5       3.5263      2.00000
      6       3.5263      2.00000
      7       3.8925      2.00000
      8       4.3218      2.00000
      9       4.9267      2.00000
     10       4.9267      2.00000
     11       5.1522      2.00000
     12       5.3696      2.00000
     13       5.3757      2.00000
     14       5.8620      2.00000
     15       6.4494      2.00000
     16       6.7629      2.00000
     17       6.7629      2.00000
     18       6.8847      2.00000
     19       7.0622      2.00000
     20       7.0622      2.00000
     21       7.2894      2.00000
     22       9.5569     -0.00762
     23       9.5569     -0.00762
     24      12.8035      0.00000
     25      14.9628      0.00000
     26      16.8012      0.00000
     27      18.0288      0.00000
     28      18.0288      0.00000
     29      19.8332      0.00000
     30      19.8332      0.00000
     31      21.9994      0.00000
     32      21.9994      0.00000
     33      22.7774      0.00000
     34      22.8598      0.00000
     35      24.2983      0.00000
     36      26.8820      0.00000
     37      27.7622      0.00000
     38      28.8157      0.00000
     39      29.5557      0.00000
     40      29.5557      0.00000
     41      29.7980      0.00000
     42      29.7980      0.00000
     43      31.6053      0.00000
     44      33.9570      0.00000
     45      34.5416      0.00000
     46      35.0754      0.00000
     47      35.0754      0.00000
     48      35.4728      0.00000

 k-point     9 :       0.4286    0.2857    0.0000
  band No.  band energies     occupation 
      1       2.2322      2.00000
      2       3.0805      2.00000
      3       3.5342      2.00000
      4       3.8005      2.00000
      5       3.9107      2.00000
      6       4.0536      2.00000
      7       4.0995      2.00000
      8       4.1239      2.00000
      9       4.1938      2.00000
     10       4.6617      2.00000
     11       4.7152      2.00000
     12       4.9623      2.00000
     13       5.7761      2.00000
     14       5.8923      2.00000
     15       6.1513      2.00000
     16       6.3101      2.00000
     17       6.3191      2.00000
     18       6.3809      2.00000
     19       7.0645      2.00000
     20       7.1143      2.00000
     21       7.4744      2.00000
     22       8.2878      2.00000
     23      10.6645     -0.00000
     24      11.6813     -0.00000
     25      16.5950      0.00000
     26      16.7071      0.00000
     27      17.0730      0.00000
     28      18.2912      0.00000
     29      19.6042      0.00000
     30      21.1710      0.00000
     31      21.4237      0.00000
     32      22.5237      0.00000
     33      23.0393      0.00000
     34      23.1986      0.00000
     35      24.5948      0.00000
     36      26.8480      0.00000
     37      27.6428      0.00000
     38      28.4885      0.00000
     39      29.2306      0.00000
     40      29.4479      0.00000
     41      29.9481      0.00000
     42      31.3078      0.00000
     43      31.6044      0.00000
     44      33.2850      0.00000
     45      33.3211      0.00000
     46      34.3966      0.00000
     47      35.7998      0.00000
     48      36.3144      0.00000

 k-point    10 :       0.4286    0.4286    0.0000
  band No.  band energies     occupation 
      1       2.8840      2.00000
      2       3.5138      2.00000
      3       3.5138      2.00000
      4       3.5656      2.00000
      5       4.1547      2.00000
      6       4.1547      2.00000
      7       4.1863      2.00000
      8       4.4470      2.00000
      9       4.4470      2.00000
     10       4.4678      2.00000
     11       4.4987      2.00000
     12       4.8304      2.00000
     13       5.6930      2.00000
     14       5.8836      2.00000
     15       5.9528      2.00000
     16       5.9528      2.00000
     17       5.9840      2.00000
     18       6.4441      2.00000
     19       6.4441      2.00000
     20       6.6687      2.00000
     21       8.2848      2.00000
     22       9.2802      1.79806
     23       9.2802      1.79806
     24      10.3452     -0.00000
     25      17.1573      0.00000
     26      18.0997      0.00000
     27      18.0997      0.00000
     28      18.1502      0.00000
     29      19.4559      0.00000
     30      19.8234      0.00000
     31      19.8234      0.00000
     32      21.4680      0.00000
     33      25.0974      0.00000
     34      25.0974      0.00000
     35      26.0872      0.00000
     36      26.1028      0.00000
     37      26.4479      0.00000
     38      28.7312      0.00000
     39      28.7312      0.00000
     40      29.7652      0.00000
     41      29.8134      0.00000
     42      30.8576      0.00000
     43      30.8576      0.00000
     44      32.6237      0.00000
     45      35.1161      0.00000
     46      35.4680      0.00000
     47      35.6949      0.00000
     48      35.6950      0.00000

 k-point    11 :       0.1429    0.1429    0.1429
  band No.  band energies     occupation 
      1       0.3277      2.00000
      2       2.7666      2.00000
      3       2.7666      2.00000
      4       2.7666      2.00000
      5       3.1323      2.00000
      6       3.1323      2.00000
      7       3.1323      2.00000
      8       4.6293      2.00000
      9       5.0166      2.00000
     10       5.0166      2.00000
     11       6.2794      2.00000
     12       6.2794      2.00000
     13       6.4184      2.00000
     14       6.4184      2.00000
     15       6.4184      2.00000
     16       6.9323      2.00000
     17       6.9323      2.00000
     18       6.9323      2.00000
     19       7.7134      2.00000
     20       7.7134      2.00000
     21       7.7134      2.00000
     22      10.6782     -0.00000
     23      10.6782     -0.00000
     24      10.6782     -0.00000
     25      16.2021      0.00000
     26      16.2021      0.00000
     27      16.2021      0.00000
     28      19.0423      0.00000
     29      19.0423      0.00000
     30      19.0423      0.00000
     31      20.8934      0.00000
     32      20.8934      0.00000
     33      20.8934      0.00000
     34      24.3827      0.00000
     35      25.2016      0.00000
     36      27.4101      0.00000
     37      27.4101      0.00000
     38      27.4101      0.00000
     39      28.8647      0.00000
     40      28.8647      0.00000
     41      30.3699      0.00000
     42      30.3699      0.00000
     43      30.3699      0.00000
     44      32.5276      0.00000
     45      34.8137      0.00000
     46      34.8137      0.00000
     47      36.4590      0.00000
     48      36.4590      0.00000

 k-point    12 :       0.2857    0.1429    0.1429
  band No.  band energies     occupation 
      1       0.9555      2.00000
      2       2.8929      2.00000
      3       3.0693      2.00000
      4       3.0693      2.00000
      5       3.3820      2.00000
      6       3.5657      2.00000
      7       3.5657      2.00000
      8       4.4314      2.00000
      9       5.1639      2.00000
     10       5.1943      2.00000
     11       5.5110      2.00000
     12       5.5110      2.00000
     13       5.6409      2.00000
     14       6.0984      2.00000
     15       6.4602      2.00000
     16       6.5455      2.00000
     17       6.6069      2.00000
     18       6.6069      2.00000
     19       7.5791      2.00000
     20       7.6096      2.00000
     21       7.6096      2.00000
     22       8.7635      2.00000
     23      11.8270     -0.00000
     24      11.8270     -0.00000
     25      15.1003      0.00000
     26      15.1003      0.00000
     27      18.0882      0.00000
     28      18.7800      0.00000
     29      18.7800      0.00000
     30      21.1872      0.00000
     31      21.1872      0.00000
     32      21.4847      0.00000
     33      22.0785      0.00000
     34      23.0838      0.00000
     35      25.3610      0.00000
     36      26.9694      0.00000
     37      27.8851      0.00000
     38      27.9437      0.00000
     39      27.9437      0.00000
     40      29.5039      0.00000
     41      30.1702      0.00000
     42      31.2917      0.00000
     43      32.2915      0.00000
     44      32.2915      0.00000
     45      33.5890      0.00000
     46      34.4677      0.00000
     47      35.2681      0.00000
     48      35.2681      0.00000

 k-point    13 :       0.4286    0.1429    0.1429
  band No.  band energies     occupation 
      1       1.8689      2.00000
      2       2.6930      2.00000
      3       3.5577      2.00000
      4       3.5577      2.00000
      5       3.7237      2.00000
      6       3.9342      2.00000
      7       3.9342      2.00000
      8       4.0898      2.00000
      9       4.7495      2.00000
     10       4.7495      2.00000
     11       5.0416      2.00000
     12       5.1027      2.00000
     13       5.5086      2.00000
     14       5.9485      2.00000
     15       6.2324      2.00000
     16       6.2324      2.00000
     17       6.3833      2.00000
     18       6.9101      2.00000
     19       7.2859      2.00000
     20       7.3130      2.00000
     21       7.5240      2.00000
     22       7.5240      2.00000
     23      12.8179      0.00000
     24      12.8179      0.00000
     25      14.2595      0.00000
     26      14.2595      0.00000
     27      18.7053      0.00000
     28      18.7053      0.00000
     29      19.8934      0.00000
     30      20.8719      0.00000
     31      20.8719      0.00000
     32      21.5718      0.00000
     33      23.8527      0.00000
     34      24.4014      0.00000
     35      25.6564      0.00000
     36      25.9541      0.00000
     37      26.7016      0.00000
     38      27.8863      0.00000
     39      29.1110      0.00000
     40      29.1110      0.00000
     41      30.1258      0.00000
     42      30.6906      0.00000
     43      32.8920      0.00000
     44      32.8920      0.00000
     45      33.9771      0.00000
     46      34.5629      0.00000
     47      35.1649      0.00000
     48      35.7312      0.00000

 k-point    14 :       0.2857    0.2857    0.1429
  band No.  band energies     occupation 
      1       1.4710      2.00000
      2       3.1206      2.00000
      3       3.1206      2.00000
      4       3.1542      2.00000
      5       3.8435      2.00000
      6       3.8435      2.00000
      7       3.9618      2.00000
      8       4.4926      2.00000
      9       4.9625      2.00000
     10       4.9625      2.00000
     11       5.1274      2.00000
     12       5.1991      2.00000
     13       5.2662      2.00000
     14       6.1693      2.00000
     15       6.1697      2.00000
     16       6.2062      2.00000
     17       6.2062      2.00000
     18       6.8058      2.00000
     19       7.4633      2.00000
     20       7.4800      2.00000
     21       7.4800      2.00000
     22       9.7881     -0.00000
     23       9.7881     -0.00000
     24      12.6853      0.00000
     25      13.4710      0.00000
     26      16.3618      0.00000
     27      16.3618      0.00000
     28      19.0373      0.00000
     29      21.2807      0.00000
     30      21.3817      0.00000
     31      21.3817      0.00000
     32      22.2814      0.00000
     33      22.2814      0.00000
     34      23.0941      0.00000
     35      25.0835      0.00000
     36      26.5632      0.00000
     37      27.4660      0.00000
     38      27.4660      0.00000
     39      27.8117      0.00000
     40      30.0158      0.00000
     41      31.3810      0.00000
     42      32.2023      0.00000
     43      32.2023      0.00000
     44      32.4356      0.00000
     45      34.3796      0.00000
     46      34.5643      0.00000
     47      35.1591      0.00000
     48      35.1604      0.00000

 k-point    15 :       0.4286    0.2857    0.1429
  band No.  band energies     occupation 
      1       2.1943      2.00000
      2       2.8607      2.00000
      3       3.3855      2.00000
      4       3.4305      2.00000
      5       4.0883      2.00000
      6       4.1130      2.00000
      7       4.2108      2.00000
      8       4.4065      2.00000
      9       4.6858      2.00000
     10       4.7381      2.00000
     11       4.9514      2.00000
     12       5.0105      2.00000
     13       5.3666      2.00000
     14       5.7268      2.00000
     15       5.9021      2.00000
     16       5.9760      2.00000
     17       6.4430      2.00000
     18       7.0738      2.00000
     19       7.2846      2.00000
     20       7.2909      2.00000
     21       7.3830      2.00000
     22       8.2645      2.00000
     23      10.8767     -0.00000
     24      11.9845     -0.00000
     25      13.8596      0.00000
     26      14.9742      0.00000
     27      17.9038      0.00000
     28      19.5653      0.00000
     29      19.6179      0.00000
     30      20.5508      0.00000
     31      22.5843      0.00000
     32      23.1989      0.00000
     33      23.2723      0.00000
     34      24.4410      0.00000
     35      24.4754      0.00000
     36      26.3036      0.00000
     37      27.1989      0.00000
     38      27.5199      0.00000
     39      28.1178      0.00000
     40      28.8885      0.00000
     41      31.7121      0.00000
     42      32.0725      0.00000
     43      32.6151      0.00000
     44      33.2078      0.00000
     45      33.6023      0.00000
     46      34.5110      0.00000
     47      35.5763      0.00000
     48      36.1542      0.00000

 k-point    16 :       0.4286    0.4286    0.1429
  band No.  band energies     occupation 
      1       2.6152      2.00000
      2       3.0475      2.00000
      3       3.0475      2.00000
      4       3.2090      2.00000
      5       4.3292      2.00000
      6       4.4528      2.00000
      7       4.4528      2.00000
      8       4.6325      2.00000
      9       4.8472      2.00000
     10       4.8472      2.00000
     11       4.9610      2.00000
     12       5.1654      2.00000
     13       5.3087      2.00000
     14       5.5751      2.00000
     15       5.5751      2.00000
     16       5.5791      2.00000
     17       6.4515      2.00000
     18       6.8761      2.00000
     19       6.8761      2.00000
     20       6.9779      2.00000
     21       8.1985      2.00000
     22       9.2816      1.78474
     23       9.2816      1.78474
     24      10.4492     -0.00000
     25      14.9143      0.00000
     26      16.2447      0.00000
     27      16.2447      0.00000
     28      17.7860      0.00000
     29      20.5511      0.00000
     30      21.8017      0.00000
     31      21.8017      0.00000
     32      23.1230      0.00000
     33      24.8543      0.00000
     34      24.8543      0.00000
     35      25.6440      0.00000
     36      25.8451      0.00000
     37      26.0555      0.00000
     38      27.8514      0.00000
     39      27.8514      0.00000
     40      29.2837      0.00000
     41      30.8947      0.00000
     42      32.0499      0.00000
     43      32.0499      0.00000
     44      33.2184      0.00000
     45      34.4511      0.00000
     46      35.0265      0.00000
     47      35.3870      0.00000
     48      35.3870      0.00000

 k-point    17 :       0.2857    0.2857    0.2857
  band No.  band energies     occupation 
      1       1.7627      2.00000
      2       2.9993      2.00000
      3       2.9993      2.00000
      4       2.9993      2.00000
      5       4.2119      2.00000
      6       4.2119      2.00000
      7       4.2119      2.00000
      8       4.9313      2.00000
      9       5.0517      2.00000
     10       5.0517      2.00000
     11       5.1113      2.00000
     12       5.1113      2.00000
     13       5.1113      2.00000
     14       5.7042      2.00000
     15       5.7042      2.00000
     16       5.7042      2.00000
     17       6.6833      2.00000
     18       6.6833      2.00000
     19       7.6148      2.00000
     20       7.6148      2.00000
     21       7.6148      2.00000
     22      10.4495     -0.00000
     23      10.4495     -0.00000
     24      10.4495     -0.00000
     25      14.3809      0.00000
     26      14.3809      0.00000
     27      14.3809      0.00000
     28      19.3233      0.00000
     29      22.0076      0.00000
     30      22.0076      0.00000
     31      22.0076      0.00000
     32      23.8293      0.00000
     33      23.8293      0.00000
     34      23.8293      0.00000
     35      24.8572      0.00000
     36      25.9519      0.00000
     37      25.9519      0.00000
     38      25.9519      0.00000
     39      29.1993      0.00000
     40      29.1993      0.00000
     41      31.7437      0.00000
     42      32.5862      0.00000
     43      32.5862      0.00000
     44      34.8967      0.00000
     45      34.8967      0.00000
     46      34.8973      0.00000
     47      35.0395      0.00000
     48      35.0395      0.00000

 k-point    18 :       0.4286    0.2857    0.2857
  band No.  band energies     occupation 
      1       2.1782      2.00000
      2       2.6329      2.00000
      3       2.9728      2.00000
      4       2.9728      2.00000
      5       4.2870      2.00000
      6       4.2870      2.00000
      7       4.5933      2.00000
      8       4.8893      2.00000
      9       5.0865      2.00000
     10       5.1088      2.00000
     11       5.2091      2.00000
     12       5.3144      2.00000
     13       5.4018      2.00000
     14       5.4018      2.00000
     15       5.5258      2.00000
     16       5.5258      2.00000
     17       7.0923      2.00000
     18       7.1748      2.00000
     19       7.4700      2.00000
     20       7.4700      2.00000
     21       7.5171      2.00000
     22       8.4639      2.00000
     23      11.3058     -0.00000
     24      11.3058     -0.00000
     25      12.9001      0.00000
     26      12.9001      0.00000
     27      15.8371      0.00000
     28      17.5068      0.00000
     29      22.5180      0.00000
     30      22.5180      0.00000
     31      23.5098      0.00000
     32      23.5098      0.00000
     33      24.1832      0.00000
     34      24.5291      0.00000
     35      25.1146      0.00000
     36      26.2068      0.00000
     37      26.5087      0.00000
     38      26.5087      0.00000
     39      26.9390      0.00000
     40      28.3640      0.00000
     41      32.8069      0.00000
     42      33.3809      0.00000
     43      33.9419      0.00000
     44      33.9419      0.00000
     45      34.1674      0.00000
     46      34.2994      0.00000
     47      34.8653      0.00000
     48      35.4689      0.00000

 k-point    19 :       0.4286    0.4286    0.2857
  band No.  band energies     occupation 
      1       2.2928      2.00000
      2       2.5673      2.00000
      3       2.5673      2.00000
      4       2.6805      2.00000
      5       4.4905      2.00000
      6       4.5861      2.00000
      7       4.5861      2.00000
      8       4.8241      2.00000
      9       4.9651      2.00000
     10       5.1168      2.00000
     11       5.1168      2.00000
     12       5.1617      2.00000
     13       5.8814      2.00000
     14       5.8814      2.00000
     15       5.9852      2.00000
     16       5.9963      2.00000
     17       7.0115      2.00000
     18       7.3742      2.00000
     19       7.3742      2.00000
     20       7.3794      2.00000
     21       7.9280      2.00000
     22       9.2746      1.85027
     23       9.2746      1.85027
     24      10.4723     -0.00000
     25      12.8957      0.00000
     26      14.1389      0.00000
     27      14.1389      0.00000
     28      15.6871      0.00000
     29      23.0777      0.00000
     30      23.7884      0.00000
     31      23.7884      0.00000
     32      24.0464      0.00000
     33      24.7929      0.00000
     34      24.7929      0.00000
     35      25.0247      0.00000
     36      26.0412      0.00000
     37      26.1419      0.00000
     38      26.7988      0.00000
     39      26.7988      0.00000
     40      28.1645      0.00000
     41      32.8448      0.00000
     42      33.7241      0.00000
     43      33.7241      0.00000
     44      34.0762      0.00000
     45      34.3004      0.00000
     46      34.7943      0.00000
     47      35.0422      0.00000
     48      35.0422      0.00000

 k-point    20 :       0.4286    0.4286    0.4286
  band No.  band energies     occupation 
      1       2.1802      2.00000
      2       2.3141      2.00000
      3       2.3141      2.00000
      4       2.3141      2.00000
      5       4.6943      2.00000
      6       4.6943      2.00000
      7       4.6943      2.00000
      8       4.8183      2.00000
      9       4.8183      2.00000
     10       4.8882      2.00000
     11       4.8882      2.00000
     12       4.8882      2.00000
     13       6.7872      2.00000
     14       6.7872      2.00000
     15       6.7872      2.00000
     16       7.4197      2.00000
     17       7.4197      2.00000
     18       7.5367      2.00000
     19       7.5552      2.00000
     20       7.5552      2.00000
     21       7.5552      2.00000
     22       9.2477      2.01576
     23       9.2477      2.01576
     24       9.2477      2.01576
     25      12.7970      0.00000
     26      12.7970      0.00000
     27      12.7970      0.00000
     28      13.9631      0.00000
     29      23.6648      0.00000
     30      23.6648      0.00000
     31      23.6648      0.00000
     32      23.6800      0.00000
     33      26.1326      0.00000
     34      26.1326      0.00000
     35      26.1326      0.00000
     36      26.3164      0.00000
     37      26.3164      0.00000
     38      26.3164      0.00000
     39      27.0467      0.00000
     40      27.0467      0.00000
     41      34.1897      0.00000
     42      34.1897      0.00000
     43      34.4849      0.00000
     44      34.4849      0.00000
     45      34.4849      0.00000
     46      34.7223      0.00000
     47      34.7223      0.00000
     48      34.7223      0.00000


--------------------------------------------------------------------------------------------------------


 soft charge-density along one line, spin component           1
         0         1         2         3         4         5         6         7         8         9
 total charge-density along one line
 
 pseudopotential strength for first ion, spin component:           1
 -3.729   0.000   0.000   0.000  -0.000  -3.971   0.000   0.000
  0.000  -3.729   0.000  -0.000  -0.000   0.000  -3.971   0.000
  0.000   0.000  -3.713  -0.000  -0.000   0.000   0.000  -3.956
  0.000  -0.000  -0.000  -3.729   0.000   0.000  -0.000  -0.000
 -0.000  -0.000  -0.000   0.000  -3.713  -0.000  -0.000  -0.000
 -3.971   0.000   0.000   0.000  -0.000  -4.196   0.000   0.000
  0.000  -3.971   0.000  -0.000  -0.000   0.000  -4.196   0.000
  0.000   0.000  -3.956  -0.000   0.000   0.000   0.000  -4.180
  0.000  -0.000  -0.000  -3.971   0.000   0.000  -0.000  -0.000
 -0.000  -0.000  -0.000   0.000  -3.956  -0.000  -0.000  -0.000
  0.000  -0.000   0.000  -0.000   0.000   0.000  -0.000   0.000
  0.000  -0.000   0.000  -0.000   0.000   0.000  -0.000   0.000
 -0.000   0.000   0.000   0.000   0.000  -0.000   0.000   0.000
  0.000  -0.000   0.000  -0.000   0.000   0.000  -0.000   0.000
 -0.000   0.000   0.000   0.000  -0.000  -0.000   0.000   0.000
 -0.000   0.000   0.000   0.000   0.000  -0.000   0.000   0.000
  0.000  -0.000   0.000  -0.000   0.000   0.000  -0.000   0.000
 -0.000   0.000   0.000   0.000  -0.000  -0.000   0.000   0.000
 total augmentation occupancy for first ion, spin component:           1
  5.024   0.000   0.000   0.000  -0.000  -3.028   0.000  -0.000  -0.000  -0.000  -0.000   0.000   0.000   0.000   0.000  -0.000
  0.000   5.024  -0.000   0.000  -0.000  -0.000  -3.028  -0.000   0.000   0.000  -0.000  -0.000  -0.000  -0.000  -0.000   0.000
  0.000   0.000   4.792   0.000   0.000  -0.000   0.000  -2.578   0.000  -0.000  -0.000  -0.000  -0.000   0.000   0.000  -0.000
  0.000   0.000   0.000   5.024   0.000  -0.000  -0.000  -0.000  -3.028   0.000   0.000  -0.000   0.000  -0.000   0.000   0.000
  0.000   0.000   0.000  -0.000   4.792   0.000  -0.000   0.000  -0.000  -2.578   0.000   0.000   0.000   0.000  -0.000  -0.000
 -3.028  -0.000  -0.000  -0.000  -0.000   2.943  -0.000  -0.000  -0.000   0.000   0.000  -0.000  -0.000  -0.000   0.000   0.000
  0.000  -3.028   0.000  -0.000  -0.000  -0.000   2.943  -0.000  -0.000  -0.000   0.000  -0.000   0.000  -0.000   0.000  -0.000
 -0.000  -0.000  -2.578  -0.000   0.000  -0.000   0.000   2.330  -0.000   0.000   0.000   0.000   0.000   0.000  -0.000  -0.000
 -0.000   0.000   0.000  -3.028  -0.000   0.000  -0.000  -0.000   2.943   0.000  -0.000   0.000   0.000  -0.000   0.000   0.000
 -0.000   0.000   0.000   0.000  -2.578   0.000  -0.000   0.000   0.000   2.330   0.000   0.000   0.000  -0.000  -0.000   0.000
 -0.000   0.000  -0.000  -0.000   0.000  -0.000   0.000   0.000   0.000  -0.000   2.679  -0.715   0.000   0.000   0.000  -0.000
  0.000   0.000  -0.000   0.000  -0.000  -0.000  -0.000   0.000   0.000  -0.000  -0.715   0.238  -0.000  -0.000   0.000   0.000
  0.000  -0.000   0.000   0.000   0.000   0.000  -0.000  -0.000   0.000   0.000   0.000   0.000   0.192  -0.000  -0.000  -0.007
  0.000   0.000   0.000  -0.000   0.000  -0.000  -0.000   0.000  -0.000   0.000   0.000   0.000  -0.000   0.192   0.000  -0.000
  0.000  -0.000  -0.000   0.000   0.000   0.000   0.000  -0.000   0.000  -0.000   0.000   0.000  -0.000   0.000   0.192   0.000
 -0.000   0.000  -0.000   0.000   0.000   0.000   0.000   0.000   0.000  -0.000   0.000   0.000  -0.007  -0.000   0.000   0.000
  0.000   0.000  -0.000  -0.000  -0.000  -0.000   0.000   0.000  -0.000   0.000   0.000  -0.000   0.000  -0.007   0.000  -0.000
 -0.000   0.000  -0.000   0.000   0.000   0.000  -0.000  -0.000   0.000   0.000   0.000   0.000   0.000   0.000  -0.007  -0.000


------------------------ aborting loop because EDIFF is reached ----------------------------------------


    CHARGE:  cpu time    0.0087: real time    0.0087
    FORLOC:  cpu time    0.0001: real time    0.0001
    FORNL :  cpu time    0.0472: real time    0.0474
    STRESS:  cpu time    0.1558: real time    0.1560
    FORCOR:  cpu time    0.0043: real time    0.0043
    FORHAR:  cpu time    0.0008: real time    0.0008
    MIXING:  cpu time    0.0003: real time    0.0003
    OFIELD:  cpu time    0.0000: real time    0.0000

  FORCE on cell =-STRESS in cart. coord.  units (eV):
  Direction    XX          YY          ZZ          XY          YZ          ZX
  --------------------------------------------------------------------------------------
  Alpha Z   274.40333   274.40333   274.40333
  Ewald   -1305.31850 -1305.31850 -1305.31850     0.00000     0.00000     0.00000
  Hartree   149.81306   149.81306   149.81306    -0.00000    -0.00000    -0.00000
  E(xc)    -198.91779  -198.91779  -198.91779     0.00000     0.00000    -0.00000
  Local     195.61693   195.61693   195.61693    -0.00000     0.00000     0.00000
  n-local    20.23942    -2.82048    -8.24189     2.54913     6.86507     3.26088
  augment   270.84544   270.84544   270.84544    -0.00000     0.00000    -0.00000
  Kinetic   617.63261   614.98713   610.07328    -5.27157    -2.69839    -3.07904
  Fock        0.00000     0.00000     0.00000     0.00000     0.00000     0.00000
  -------------------------------------------------------------------------------------
  Total       3.73249     3.73249     3.73249     0.00000    -0.00000    -0.00000
  in kB      88.04993    88.04993    88.04993     0.00000    -0.00000    -0.00000
  external pressure =       88.05 kB  Pullay stress =        0.00 kB


 VOLUME and BASIS-vectors are now :
 -----------------------------------------------------------------------------
  energy-cutoff  :      400.00
  volume of cell :       67.92
      direct lattice vectors                 reciprocal lattice vectors
     4.080000000  0.000000000  0.000000000     0.245098039  0.000000000  0.000000000
     0.000000000  4.080000000  0.000000000     0.000000000  0.245098039  0.000000000
     0.000000000  0.000000000  4.080000000     0.000000000  0.000000000  0.245098039

  length of vectors
     4.080000000  4.080000000  4.080000000     0.245098039  0.245098039  0.245098039


 FORCES acting on ions
    electron-ion (+dipol)            ewald-force                    non-local-force                 convergence-correction
 -----------------------------------------------------------------------------------------------
   0.206E-13 0.329E-13 -.495E-14   0.688E-15 0.184E-14 -.914E-14   -.132E-22 -.182E-22 -.993E-23   -.857E-14 -.586E-15 -.246E-13
   0.211E-13 -.328E-13 -.653E-13   0.177E-16 -.398E-14 0.423E-14   -.331E-23 0.331E-22 0.132E-22   -.932E-14 0.201E-13 0.161E-13
   -.455E-13 0.364E-13 0.451E-12   -.282E-15 0.227E-14 0.435E-14   -.124E-22 -.290E-23 0.662E-23   -.835E-15 -.898E-14 0.185E-13
   -.446E-13 -.180E-13 -.428E-12   -.952E-15 -.355E-14 0.484E-16   0.662E-23 -.662E-23 0.124E-22   0.547E-14 0.203E-13 -.835E-14
 -----------------------------------------------------------------------------------------------
   -.484E-13 0.185E-13 -.478E-13   -.528E-15 -.343E-14 -.507E-15   -.223E-22 0.538E-23 0.223E-22   -.133E-13 0.308E-13 0.165E-14
 
 
 POSITION                                       TOTAL-FORCE (eV/Angst)
 -----------------------------------------------------------------------------------
      0.00000      0.00000      0.00000         0.000000     -0.000000      0.000000
      0.00000      2.04000      2.04000         0.000000     -0.000000     -0.000000
      2.04000      0.00000      2.04000        -0.000000      0.000000     -0.000000
      2.04000      2.04000      0.00000        -0.000000     -0.000000     -0.000000
 -----------------------------------------------------------------------------------
    total drift:                               -0.000000      0.000000     -0.000000


--------------------------------------------------------------------------------------------------------



  FREE ENERGIE OF THE ION-ELECTRON SYSTEM (eV)
  ---------------------------------------------------
  free  energy   TOTEN  =       -12.75316299 eV

  energy  without entropy=      -12.75144654  energy(sigma->0) =      -12.75259084
 


--------------------------------------------------------------------------------------------------------


    POTLOK:  cpu time    0.0053: real time    0.0054


--------------------------------------------------------------------------------------------------------


     LOOP+:  cpu time    4.2777: real time    4.3435
    4ORBIT:  cpu time    0.0000: real time    0.0000

 total amount of memory used by VASP on root node    35298. kBytes
========================================================================

   base      :      30000. kBytes
   nonl-proj :       3744. kBytes
   fftplans  :        147. kBytes
   grid      :        485. kBytes
   one-center:         62. kBytes
   wavefun   :        860. kBytes
 
  
  
 General timing and accounting informations for this job:
 ========================================================
  
                  Total CPU time used (sec):       23.477
                            User time (sec):       23.376
                          System time (sec):        0.101
                         Elapsed time (sec):       24.532
  
                   Maximum memory used (kb):       40624.
                   Average memory used (kb):           0.
  
                          Minor page faults:        16786
                          Major page faults:            9
                 Voluntary context switches:         1426
