<?xml version="1.0" encoding="ISO-8859-1"?>
<modeling>
 <generator>
  <i name="program" type="string">vasp </i>
  <i name="version" type="string">5.4.1  </i>
  <i name="subversion" type="string">05Feb16 (build Feb 08 2018 09:21:51) complex                          parallel </i>
  <i name="platform" type="string">LinuxIFC </i>
  <i name="date" type="string">2019 11 21 </i>
  <i name="time" type="string">13:19:51 </i>
 </generator>
 <incar>
  <i type="string" name="PREC">normal</i>
  <i name="ENCUT">    400.00000000</i>
  <i type="int" name="ISMEAR">     1</i>
  <i name="SIGMA">      0.10000000</i>
  <i type="logical" name="LWAVE"> F  </i>
  <i type="logical" name="LCHARG"> F  </i>
  <v type="int" name="KPOINT_BSE">    -1     0     0     0</v>
 </incar>
 <kpoints>
  <generation param="Monkhorst-Pack">
   <v type="int" name="divisions">       7        7        7 </v>
   <v name="usershift">      0.00000000       0.00000000       0.00000000 </v>
   <v name="genvec1">      0.14285714       0.00000000       0.00000000 </v>
   <v name="genvec2">      0.00000000       0.14285714       0.00000000 </v>
   <v name="genvec3">      0.00000000       0.00000000       0.14285714 </v>
   <v name="shift">      0.00000000       0.00000000       0.00000000 </v>
  </generation>
  <varray name="kpointlist" >
   <v>       0.00000000       0.00000000       0.00000000 </v>
   <v>       0.14285714       0.00000000       0.00000000 </v>
   <v>       0.28571429       0.00000000       0.00000000 </v>
   <v>       0.42857143       0.00000000       0.00000000 </v>
   <v>       0.14285714       0.14285714       0.00000000 </v>
   <v>       0.28571429       0.14285714       0.00000000 </v>
   <v>       0.42857143       0.14285714       0.00000000 </v>
   <v>       0.28571429       0.28571429       0.00000000 </v>
   <v>       0.42857143       0.28571429       0.00000000 </v>
   <v>       0.42857143       0.42857143       0.00000000 </v>
   <v>       0.14285714       0.14285714       0.14285714 </v>
   <v>       0.28571429       0.14285714       0.14285714 </v>
   <v>       0.42857143       0.14285714       0.14285714 </v>
   <v>       0.28571429       0.28571429       0.14285714 </v>
   <v>       0.42857143       0.28571429       0.14285714 </v>
   <v>       0.42857143       0.42857143       0.14285714 </v>
   <v>       0.28571429       0.28571429       0.28571429 </v>
   <v>       0.42857143       0.28571429       0.28571429 </v>
   <v>       0.42857143       0.42857143       0.28571429 </v>
   <v>       0.42857143       0.42857143       0.42857143 </v>
  </varray>
  <varray name="weights" >
   <v>       0.00291545 </v>
   <v>       0.01749271 </v>
   <v>       0.01749271 </v>
   <v>       0.01749271 </v>
   <v>       0.03498542 </v>
   <v>       0.06997085 </v>
   <v>       0.06997085 </v>
   <v>       0.03498542 </v>
   <v>       0.06997085 </v>
   <v>       0.03498542 </v>
   <v>       0.02332362 </v>
   <v>       0.06997085 </v>
   <v>       0.06997085 </v>
   <v>       0.06997085 </v>
   <v>       0.13994169 </v>
   <v>       0.06997085 </v>
   <v>       0.02332362 </v>
   <v>       0.06997085 </v>
   <v>       0.06997085 </v>
   <v>       0.02332362 </v>
  </varray>
 </kpoints>
 <parameters>
  <separator name="general" >
   <i type="string" name="SYSTEM">unknown system</i>
   <i type="logical" name="LCOMPAT"> F  </i>
  </separator>
  <separator name="electronic" >
   <i type="string" name="PREC">normal</i>
   <i name="ENMAX">    400.00000000</i>
   <i name="ENAUG">    356.67000000</i>
   <i name="EDIFF">      0.00010000</i>
   <i type="int" name="IALGO">    38</i>
   <i type="int" name="IWAVPR">    10</i>
   <i type="int" name="NBANDS">    48</i>
   <i name="NELECT">     44.00000000</i>
   <i type="int" name="TURBO">     0</i>
   <i type="int" name="IRESTART">     0</i>
   <i type="int" name="NREBOOT">     0</i>
   <i type="int" name="NMIN">     0</i>
   <i name="EREF">      0.00000000</i>
   <separator name="electronic smearing" >
    <i type="int" name="ISMEAR">     1</i>
    <i name="SIGMA">      0.10000000</i>
    <i name="KSPACING">      0.50000000</i>
    <i type="logical" name="KGAMMA"> T  </i>
   </separator>
   <separator name="electronic projectors" >
    <i type="logical" name="LREAL"> F  </i>
    <v name="ROPT">      0.00000000</v>
    <i type="int" name="LMAXPAW">  -100</i>
    <i type="int" name="LMAXMIX">     2</i>
    <i type="logical" name="NLSPLINE"> F  </i>
   </separator>
   <separator name="electronic startup" >
    <i type="int" name="ISTART">     0</i>
    <i type="int" name="ICHARG">     2</i>
    <i type="int" name="INIWAV">     1</i>
   </separator>
   <separator name="electronic spin" >
    <i type="int" name="ISPIN">     1</i>
    <i type="logical" name="LNONCOLLINEAR"> F  </i>
    <v name="MAGMOM">      1.00000000      1.00000000      1.00000000      1.00000000</v>
    <i name="NUPDOWN">     -1.00000000</i>
    <i type="logical" name="LSORBIT"> F  </i>
    <v name="SAXIS">      0.00000000      0.00000000      1.00000000</v>
    <i type="logical" name="LSPIRAL"> F  </i>
    <v name="QSPIRAL">      0.00000000      0.00000000      0.00000000</v>
    <i type="logical" name="LZEROZ"> F  </i>
   </separator>
   <separator name="electronic exchange-correlation" >
    <i type="logical" name="LASPH"> F  </i>
    <i type="logical" name="LMETAGGA"> F  </i>
   </separator>
   <separator name="electronic convergence" >
    <i type="int" name="NELM">    60</i>
    <i type="int" name="NELMDL">    -5</i>
    <i type="int" name="NELMIN">     2</i>
    <i name="ENINI">    400.00000000</i>
    <separator name="electronic convergence detail" >
     <i type="logical" name="LDIAG"> T  </i>
     <i type="logical" name="LSUBROT"> F  </i>
     <i name="WEIMIN">      0.00000000</i>
     <i name="EBREAK">      0.00000052</i>
     <i name="DEPER">      0.30000000</i>
     <i type="int" name="NRMM">     4</i>
     <i name="TIME">      0.40000000</i>
    </separator>
   </separator>
   <separator name="electronic mixer" >
    <i name="AMIX">      0.40000000</i>
    <i name="BMIX">      1.00000000</i>
    <i name="AMIN">      0.10000000</i>
    <i name="AMIX_MAG">      1.60000000</i>
    <i name="BMIX_MAG">      1.00000000</i>
    <separator name="electronic mixer details" >
     <i type="int" name="IMIX">     4</i>
     <i type="logical" name="MIXFIRST"> F  </i>
     <i type="int" name="MAXMIX">   -45</i>
     <i name="WC">    100.00000000</i>
     <i type="int" name="INIMIX">     1</i>
     <i type="int" name="MIXPRE">     1</i>
     <i type="int" name="MREMOVE">     5</i>
    </separator>
   </separator>
   <separator name="electronic dipolcorrection" >
    <i type="logical" name="LDIPOL"> F  </i>
    <i type="logical" name="LMONO"> F  </i>
    <i type="int" name="IDIPOL">     0</i>
    <i name="EPSILON">      1.00000000</i>
    <v name="DIPOL">   -100.00000000   -100.00000000   -100.00000000</v>
    <i name="EFIELD">      0.00000000</i>
   </separator>
  </separator>
  <separator name="grids" >
   <i type="int" name="NGX">    20</i>
   <i type="int" name="NGY">    20</i>
   <i type="int" name="NGZ">    20</i>
   <i type="int" name="NGXF">    40</i>
   <i type="int" name="NGYF">    40</i>
   <i type="int" name="NGZF">    40</i>
   <i type="logical" name="ADDGRID"> F  </i>
  </separator>
  <separator name="ionic" >
   <i type="int" name="NSW">     0</i>
   <i type="int" name="IBRION">    -1</i>
   <i type="int" name="ISIF">     2</i>
   <i name="PSTRESS">      0.00000000</i>
   <i name="EDIFFG">      0.00100000</i>
   <i type="int" name="NFREE">     0</i>
   <i name="POTIM">      0.50000000</i>
   <i name="SMASS">     -3.00000000</i>
   <i name="SCALEE">      1.00000000</i>
  </separator>
  <separator name="ionic md" >
   <i name="TEBEG">      0.00010000</i>
   <i name="TEEND">      0.00010000</i>
   <i type="int" name="NBLOCK">     1</i>
   <i type="int" name="KBLOCK">     1</i>
   <i type="int" name="NPACO">   256</i>
   <i name="APACO">     16.00000000</i>
  </separator>
  <separator name="symmetry" >
   <i type="int" name="ISYM">     2</i>
   <i name="SYMPREC">      0.00001000</i>
  </separator>
  <separator name="dos" >
   <i type="logical" name="LORBIT"> F  </i>
   <v name="RWIGS">     -1.00000000</v>
   <i type="int" name="NEDOS">   301</i>
   <i name="EMIN">     10.00000000</i>
   <i name="EMAX">    -10.00000000</i>
   <i name="EFERMI">      0.00000000</i>
  </separator>
  <separator name="writing" >
   <i type="int" name="NWRITE">     2</i>
   <i type="logical" name="LWAVE"> F  </i>
   <i type="logical" name="LCHARG"> F  </i>
   <i type="logical" name="LPARD"> F  </i>
   <i type="logical" name="LVTOT"> F  </i>
   <i type="logical" name="LVHAR"> F  </i>
   <i type="logical" name="LELF"> F  </i>
   <i type="logical" name="LOPTICS"> F  </i>
   <v name="STM">      0.00000000      0.00000000      0.00000000      0.00000000      0.00000000      0.00000000      0.00000000</v>
  </separator>
  <separator name="performance" >
   <i type="int" name="NPAR">    24</i>
   <i type="int" name="NSIM">     4</i>
   <i type="int" name="NBLK">    -1</i>
   <i type="logical" name="LPLANE"> T  </i>
   <i type="logical" name="LSCALAPACK"> F  </i>
   <i type="logical" name="LSCAAWARE"> F  </i>
   <i type="logical" name="LSCALU"> F  </i>
   <i type="logical" name="LASYNC"> F  </i>
   <i type="logical" name="LORBITALREAL"> F  </i>
  </separator>
  <separator name="miscellaneous" >
   <i type="int" name="IDIOT">     3</i>
   <i type="logical" name="LMUSIC"> F  </i>
   <v name="POMASS">    196.96600000</v>
   <v name="DARWINR">      0.00000000</v>
   <v name="DARWINV">      1.00000000</v>
   <i type="logical" name="LCORR"> T  </i>
  </separator>
  <i type="logical" name="GGA_COMPAT"> T  </i>
  <i type="logical" name="LBERRY"> F  </i>
  <i type="int" name="ICORELEVEL">     0</i>
  <i type="logical" name="LDAU"> F  </i>
  <i type="int" name="I_CONSTRAINED_M">     0</i>
  <separator name="electronic exchange-correlation" >
   <i type="string" name="GGA">--</i>
   <i type="int" name="VOSKOWN">     0</i>
   <i type="logical" name="LHFCALC"> F  </i>
   <i type="string" name="PRECFOCK"></i>
   <i type="logical" name="LSYMGRAD"> F  </i>
   <i type="logical" name="LHFONE"> F  </i>
   <i type="logical" name="LRHFCALC"> F  </i>
   <i type="logical" name="LTHOMAS"> F  </i>
   <i type="logical" name="LMODELHF"> F  </i>
   <i name="ENCUT4O">     -1.00000000</i>
   <i type="int" name="EXXOEP">     0</i>
   <i type="int" name="FOURORBIT">     0</i>
   <i name="AEXX">      0.00000000</i>
   <i name="HFALPHA">      0.00000000</i>
   <i name="MCALPHA">      0.00000000</i>
   <i name="ALDAX">      1.00000000</i>
   <i name="AGGAX">      1.00000000</i>
   <i name="ALDAC">      1.00000000</i>
   <i name="AGGAC">      1.00000000</i>
   <i type="int" name="NKREDX">     1</i>
   <i type="int" name="NKREDY">     1</i>
   <i type="int" name="NKREDZ">     1</i>
   <i type="logical" name="SHIFTRED"> F  </i>
   <i type="logical" name="ODDONLY"> F  </i>
   <i type="logical" name="EVENONLY"> F  </i>
   <i type="int" name="LMAXFOCK">     0</i>
   <i type="int" name="NMAXFOCKAE">     0</i>
   <i type="logical" name="LFOCKAEDFT"> F  </i>
   <i name="HFSCREEN">      0.00000000</i>
   <i name="HFSCREENC">      0.00000000</i>
   <i type="int" name="NBANDSGWLOW">     0</i>
  </separator>
  <separator name="vdW DFT" >
   <i type="logical" name="LUSE_VDW"> F  </i>
   <i name="Zab_VDW">     -0.84910000</i>
   <i name="PARAM1">      0.12340000</i>
   <i name="PARAM2">      1.00000000</i>
   <i name="PARAM3">      0.00000000</i>
  </separator>
  <separator name="model GW" >
   <i type="int" name="MODEL_GW">     0</i>
   <i name="MODEL_EPS0">     10.18759680</i>
   <i name="MODEL_ALPHA">      1.00000000</i>
  </separator>
  <separator name="linear response parameters" >
   <i type="logical" name="LEPSILON"> F  </i>
   <i type="logical" name="LRPA"> F  </i>
   <i type="logical" name="LNABLA"> F  </i>
   <i type="logical" name="LVEL"> F  </i>
   <i type="int" name="KINTER">     0</i>
   <i name="CSHIFT">      0.10000000</i>
   <i name="OMEGAMAX">     -1.00000000</i>
   <i name="DEG_THRESHOLD">      0.00200000</i>
  </separator>
  <separator name="orbital magnetization" >
   <i type="logical" name="NUCIND"> F  </i>
   <v name="MAGPOS">      0.00000000      0.00000000      0.00000000</v>
   <i type="logical" name="LNICSALL"> T  </i>
   <i type="logical" name="ORBITALMAG"> F  </i>
   <i type="logical" name="LMAGBLOCH"> F  </i>
   <i type="logical" name="LCHIMAG"> F  </i>
   <i type="logical" name="LGAUGE"> T  </i>
   <i type="int" name="MAGATOM">     0</i>
   <v name="MAGDIPOL">      0.00000000      0.00000000      0.00000000</v>
   <v name="AVECCONST">      0.00000000      0.00000000      0.00000000</v>
  </separator>
  <separator name="response functions" >
   <i type="logical" name="LADDER"> F  </i>
   <i type="logical" name="LFXC"> F  </i>
   <i type="logical" name="LHARTREE"> T  </i>
   <i type="int" name="IBSE">     0</i>
   <v type="int" name="KPOINT">    -1     0     0     0</v>
   <i type="logical" name="LTCTE"> F  </i>
   <i type="logical" name="LTETE"> F  </i>
   <i type="logical" name="LTRIPLET"> F  </i>
   <i type="logical" name="LFXCEPS"> F  </i>
   <i type="logical" name="LFXHEG"> F  </i>
   <i type="int" name="NATURALO">     0</i>
   <i type="logical" name="L2ORDER"> F  </i>
   <i type="logical" name="LUSEW"> F  </i>
   <i name="ENCUTGW">     -2.00000000</i>
   <i name="ENCUTGWSOFT">     -2.00000000</i>
   <i name="ENCUTLF">     -1.00000000</i>
   <i type="int" name="LMAXMP2">    -1</i>
   <i name="SCISSOR">      0.00000000</i>
   <i type="int" name="NOMEGA">     0</i>
   <i type="int" name="NOMEGAR">     0</i>
   <i type="int" name="NBANDSGW">    -1</i>
   <i type="int" name="NBANDSO">    -1</i>
   <i type="int" name="NBANDSV">    -1</i>
   <i type="int" name="NELM">     1</i>
   <i type="int" name="NELMHF">     1</i>
   <i type="int" name="DIM">     3</i>
   <i type="int" name="ANTIRES">     0</i>
   <i name="OMEGAMAX">    -30.00000000</i>
   <i name="OMEGAMIN">    -30.00000000</i>
   <i name="OMEGATL">   -200.00000000</i>
   <i type="int" name="OMEGAGRID">     0</i>
   <i name="CSHIFT">     -0.10000000</i>
   <i type="logical" name="SELFENERGY"> F  </i>
   <i type="logical" name="LSPECTRAL"> F  </i>
   <i type="logical" name="LSPECTRALGW"> F  </i>
   <i type="logical" name="LSINGLES"> F  </i>
   <i type="logical" name="LFERMIGW"> F  </i>
   <i type="logical" name="ODDONLYGW"> F  </i>
   <i type="logical" name="EVENONLYGW"> F  </i>
   <i type="int" name="NKREDLFX">     1</i>
   <i type="int" name="NKREDLFY">     1</i>
   <i type="int" name="NKREDLFZ">     1</i>
   <i type="int" name="MAXMEM">  1800</i>
   <i type="int" name="TELESCOPE">     0</i>
   <i type="int" name="TAUPAR">     1</i>
   <i type="int" name="OMEGAPAR">    -1</i>
   <i name="LAMBDA">      1.00000000</i>
  </separator>
  <separator name="External order field" >
   <i name="OFIELD_KAPPA">      0.00000000</i>
   <v name="OFIELD_K">      0.00000000      0.00000000      0.00000000</v>
   <i name="OFIELD_Q6_NEAR">      0.00000000</i>
   <i name="OFIELD_Q6_FAR">      0.00000000</i>
   <i name="OFIELD_A">      0.00000000</i>
  </separator>
 </parameters>
 <atominfo>
  <atoms>       4 </atoms>
  <types>       1 </types>
  <array name="atoms" >
   <dimension dim="1">ion</dimension>
   <field type="string">element</field>
   <field type="int">atomtype</field>
   <set>
    <rc><c>Au</c><c>   1</c></rc>
    <rc><c>Au</c><c>   1</c></rc>
    <rc><c>Au</c><c>   1</c></rc>
    <rc><c>Au</c><c>   1</c></rc>
   </set>
  </array>
  <array name="atomtypes" >
   <dimension dim="1">type</dimension>
   <field type="int">atomspertype</field>
   <field type="string">element</field>
   <field>mass</field>
   <field>valence</field>
   <field type="string">pseudopotential</field>
   <set>
    <rc><c>   4</c><c>Au</c><c>    196.96600000</c><c>     11.00000000</c><c>  PAW_PBE Au 04Oct2007                  </c></rc>
   </set>
  </array>
 </atominfo>
 <structure name="initialpos" >
  <crystal>
   <varray name="basis" >
    <v>       4.08000000       0.00000000       0.00000000 </v>
    <v>       0.00000000       4.08000000       0.00000000 </v>
    <v>       0.00000000       0.00000000       4.08000000 </v>
   </varray>
   <i name="volume">     67.91731200 </i>
   <varray name="rec_basis" >
    <v>       0.24509804       0.00000000       0.00000000 </v>
    <v>       0.00000000       0.24509804       0.00000000 </v>
    <v>       0.00000000       0.00000000       0.24509804 </v>
   </varray>
  </crystal>
  <varray name="positions" >
   <v>       0.00000000       0.00000000       0.00000000 </v>
   <v>       0.00000000       0.50000000       0.50000000 </v>
   <v>       0.50000000       0.00000000       0.50000000 </v>
   <v>       0.50000000       0.50000000       0.00000000 </v>
  </varray>
 </structure>
 <calculation>
  <scstep>
   <time name="dav">    0.30    0.30</time>
   <time name="total">    0.37    0.37</time>
   <energy>
    <i name="alphaZ">    274.40333328 </i>
    <i name="ewald">  -3915.95376942 </i>
    <i name="hartreedc">   -494.00614683 </i>
    <i name="XCdc">     62.70648169 </i>
    <i name="pawpsdc">   3496.39001341 </i>
    <i name="pawaedc">  -3404.04053930 </i>
    <i name="eentropy">     -0.00204860 </i>
    <i name="bandstr">    459.78067031 </i>
    <i name="atom">   3704.32207507 </i>
    <i name="e_fr_energy">    183.60006961 </i>
    <i name="e_wo_entrp">    183.60211821 </i>
    <i name="e_0_energy">    183.60075248 </i>
   </energy>
  </scstep>
  <scstep>
   <time name="dav">    0.40    0.40</time>
   <time name="total">    0.41    0.41</time>
   <energy>
    <i name="e_fr_energy">    -11.34041354 </i>
    <i name="e_wo_entrp">    -11.34018414 </i>
    <i name="e_0_energy">    -11.34033707 </i>
   </energy>
  </scstep>
  <scstep>
   <time name="dav">    0.37    0.37</time>
   <time name="total">    0.38    0.39</time>
   <energy>
    <i name="e_fr_energy">    -13.82381195 </i>
    <i name="e_wo_entrp">    -13.82271290 </i>
    <i name="e_0_energy">    -13.82344560 </i>
   </energy>
  </scstep>
  <scstep>
   <time name="dav">    0.46    0.46</time>
   <time name="total">    0.46    0.47</time>
   <energy>
    <i name="e_fr_energy">    -13.83403169 </i>
    <i name="e_wo_entrp">    -13.83293222 </i>
    <i name="e_0_energy">    -13.83366520 </i>
   </energy>
  </scstep>
  <scstep>
   <time name="dav">    0.41    0.42</time>
   <time name="total">    0.42    0.44</time>
   <energy>
    <i name="e_fr_energy">    -13.83412330 </i>
    <i name="e_wo_entrp">    -13.83302383 </i>
    <i name="e_0_energy">    -13.83375681 </i>
   </energy>
  </scstep>
  <scstep>
   <time name="dav">    0.38    0.38</time>
   <time name="total">    0.40    0.40</time>
   <energy>
    <i name="e_fr_energy">    -12.84265054 </i>
    <i name="e_wo_entrp">    -12.84134075 </i>
    <i name="e_0_energy">    -12.84221394 </i>
   </energy>
  </scstep>
  <scstep>
   <time name="dav">    0.42    0.42</time>
   <time name="total">    0.43    0.43</time>
   <energy>
    <i name="e_fr_energy">    -12.76264156 </i>
    <i name="e_wo_entrp">    -12.76083612 </i>
    <i name="e_0_energy">    -12.76203975 </i>
   </energy>
  </scstep>
  <scstep>
   <time name="dav">    0.42    0.42</time>
   <time name="total">    0.43    0.43</time>
   <energy>
    <i name="e_fr_energy">    -12.75324610 </i>
    <i name="e_wo_entrp">    -12.75154182 </i>
    <i name="e_0_energy">    -12.75267800 </i>
   </energy>
  </scstep>
  <scstep>
   <time name="dav">    0.38    0.38</time>
   <time name="total">    0.40    0.40</time>
   <energy>
    <i name="e_fr_energy">    -12.75314026 </i>
    <i name="e_wo_entrp">    -12.75142624 </i>
    <i name="e_0_energy">    -12.75256892 </i>
   </energy>
  </scstep>
  <scstep>
   <time name="dav">    0.34    0.34</time>
   <time name="total">    0.35    0.35</time>
   <energy>
    <i name="alphaZ">    274.40333328 </i>
    <i name="ewald">  -3915.95376942 </i>
    <i name="hartreedc">   -449.42047266 </i>
    <i name="XCdc">     60.71974631 </i>
    <i name="pawpsdc">   4232.72441287 </i>
    <i name="pawaedc">  -4151.32183144 </i>
    <i name="eentropy">     -0.00171645 </i>
    <i name="bandstr">    231.77505946 </i>
    <i name="atom">   3704.32207507 </i>
    <i name="e_fr_energy">    -12.75316299 </i>
    <i name="e_wo_entrp">    -12.75144654 </i>
    <i name="e_0_energy">    -12.75259084 </i>
   </energy>
  </scstep>
  <structure>
   <crystal>
    <varray name="basis" >
     <v>       4.08000000       0.00000000       0.00000000 </v>
     <v>       0.00000000       4.08000000       0.00000000 </v>
     <v>       0.00000000       0.00000000       4.08000000 </v>
    </varray>
    <i name="volume">     67.91731200 </i>
    <varray name="rec_basis" >
     <v>       0.24509804       0.00000000       0.00000000 </v>
     <v>       0.00000000       0.24509804       0.00000000 </v>
     <v>       0.00000000       0.00000000       0.24509804 </v>
    </varray>
   </crystal>
   <varray name="positions" >
    <v>       0.00000000       0.00000000       0.00000000 </v>
    <v>       0.00000000       0.50000000       0.50000000 </v>
    <v>       0.50000000       0.00000000       0.50000000 </v>
    <v>       0.50000000       0.50000000       0.00000000 </v>
   </varray>
  </structure>
  <varray name="forces" >
   <v>       0.00000000      -0.00000000       0.00000000 </v>
   <v>       0.00000000      -0.00000000      -0.00000000 </v>
   <v>      -0.00000000       0.00000000      -0.00000000 </v>
   <v>      -0.00000000      -0.00000000      -0.00000000 </v>
  </varray>
  <varray name="stress" >
   <v>      88.04993216       0.00000000      -0.00000000 </v>
   <v>       0.00000000      88.04993216      -0.00000000 </v>
   <v>      -0.00000000      -0.00000000      88.04993216 </v>
  </varray>
  <energy>
   <i name="e_fr_energy">    -12.75316299 </i>
   <i name="e_wo_entrp">    -12.75259084 </i>
   <i name="e_0_energy">     -0.00171645 </i>
  </energy>
  <time name="totalsc">    4.28    4.34</time>
  <eigenvalues>
   <array>
    <dimension dim="1">band</dimension>
    <dimension dim="2">kpoint</dimension>
    <dimension dim="3">spin</dimension>
    <field>eigene</field>
    <field>occ</field>
    <set>
     <set comment="spin 1">
      <set comment="kpoint 1">
       <r>   -0.3603    1.0000 </r>
       <r>    2.4319    1.0000 </r>
       <r>    2.4319    1.0000 </r>
       <r>    2.4319    1.0000 </r>
       <r>    2.7448    1.0000 </r>
       <r>    2.7448    1.0000 </r>
       <r>    2.7448    1.0000 </r>
       <r>    4.8144    1.0000 </r>
       <r>    4.8144    1.0000 </r>
       <r>    4.8144    1.0000 </r>
       <r>    6.3415    1.0000 </r>
       <r>    6.3415    1.0000 </r>
       <r>    7.5042    1.0000 </r>
       <r>    7.5042    1.0000 </r>
       <r>    7.5042    1.0000 </r>
       <r>    7.8700    1.0000 </r>
       <r>    7.8700    1.0000 </r>
       <r>    7.8700    1.0000 </r>
       <r>    7.8700    1.0000 </r>
       <r>    7.8700    1.0000 </r>
       <r>    7.8700    1.0000 </r>
       <r>   10.5457   -0.0000 </r>
       <r>   10.5457   -0.0000 </r>
       <r>   10.5457   -0.0000 </r>
       <r>   15.3360    0.0000 </r>
       <r>   15.3360    0.0000 </r>
       <r>   15.3360    0.0000 </r>
       <r>   19.5552    0.0000 </r>
       <r>   19.5552    0.0000 </r>
       <r>   19.5552    0.0000 </r>
       <r>   19.5552    0.0000 </r>
       <r>   19.5552    0.0000 </r>
       <r>   19.5552    0.0000 </r>
       <r>   24.0515    0.0000 </r>
       <r>   26.7845    0.0000 </r>
       <r>   26.7845    0.0000 </r>
       <r>   26.7845    0.0000 </r>
       <r>   28.0751    0.0000 </r>
       <r>   28.0751    0.0000 </r>
       <r>   28.0751    0.0000 </r>
       <r>   29.3953    0.0000 </r>
       <r>   29.3953    0.0000 </r>
       <r>   29.3953    0.0000 </r>
       <r>   32.9898    0.0000 </r>
       <r>   37.0209    0.0000 </r>
       <r>   37.0209    0.0000 </r>
       <r>   37.0209    0.0000 </r>
       <r>   37.6670    0.0000 </r>
      </set>
      <set comment="kpoint 2">
       <r>   -0.1221    1.0000 </r>
       <r>    2.5101    1.0000 </r>
       <r>    2.5898    1.0000 </r>
       <r>    2.5898    1.0000 </r>
       <r>    2.8315    1.0000 </r>
       <r>    2.8775    1.0000 </r>
       <r>    2.8775    1.0000 </r>
       <r>    4.6913    1.0000 </r>
       <r>    4.9218    1.0000 </r>
       <r>    4.9218    1.0000 </r>
       <r>    6.2101    1.0000 </r>
       <r>    6.3944    1.0000 </r>
       <r>    7.1297    1.0000 </r>
       <r>    7.1297    1.0000 </r>
       <r>    7.3143    1.0000 </r>
       <r>    7.3143    1.0000 </r>
       <r>    7.4412    1.0000 </r>
       <r>    7.6422    1.0000 </r>
       <r>    7.6422    1.0000 </r>
       <r>    7.8704    1.0000 </r>
       <r>    7.8704    1.0000 </r>
       <r>    9.1553    1.0142 </r>
       <r>   11.4491   -0.0000 </r>
       <r>   11.4491   -0.0000 </r>
       <r>   15.0997    0.0000 </r>
       <r>   15.0997    0.0000 </r>
       <r>   17.1322    0.0000 </r>
       <r>   19.2012    0.0000 </r>
       <r>   19.2012    0.0000 </r>
       <r>   19.3985    0.0000 </r>
       <r>   19.3985    0.0000 </r>
       <r>   20.0498    0.0000 </r>
       <r>   20.0498    0.0000 </r>
       <r>   24.3436    0.0000 </r>
       <r>   26.6048    0.0000 </r>
       <r>   27.3359    0.0000 </r>
       <r>   27.7594    0.0000 </r>
       <r>   27.7594    0.0000 </r>
       <r>   27.9259    0.0000 </r>
       <r>   27.9259    0.0000 </r>
       <r>   29.1651    0.0000 </r>
       <r>   29.5916    0.0000 </r>
       <r>   29.5916    0.0000 </r>
       <r>   34.4376    0.0000 </r>
       <r>   35.7861    0.0000 </r>
       <r>   35.7861    0.0000 </r>
       <r>   36.5774    0.0000 </r>
       <r>   36.5774    0.0000 </r>
      </set>
      <set comment="kpoint 3">
       <r>    0.5639    1.0000 </r>
       <r>    2.6488    1.0000 </r>
       <r>    3.0084    1.0000 </r>
       <r>    3.0084    1.0000 </r>
       <r>    3.0812    1.0000 </r>
       <r>    3.2736    1.0000 </r>
       <r>    3.2736    1.0000 </r>
       <r>    4.3608    1.0000 </r>
       <r>    5.2379    1.0000 </r>
       <r>    5.2379    1.0000 </r>
       <r>    5.8722    1.0000 </r>
       <r>    5.9252    1.0000 </r>
       <r>    5.9252    1.0000 </r>
       <r>    6.5448    1.0000 </r>
       <r>    6.8110    1.0000 </r>
       <r>    6.8110    1.0000 </r>
       <r>    7.0747    1.0000 </r>
       <r>    7.0747    1.0000 </r>
       <r>    7.0830    1.0000 </r>
       <r>    7.2682    1.0000 </r>
       <r>    7.8711    1.0000 </r>
       <r>    7.8711    1.0000 </r>
       <r>   13.1254    0.0000 </r>
       <r>   13.1254    0.0000 </r>
       <r>   14.6347    0.0000 </r>
       <r>   14.6347    0.0000 </r>
       <r>   18.1967    0.0000 </r>
       <r>   18.1967    0.0000 </r>
       <r>   19.1486    0.0000 </r>
       <r>   19.1486    0.0000 </r>
       <r>   20.4904    0.0000 </r>
       <r>   21.3982    0.0000 </r>
       <r>   21.3982    0.0000 </r>
       <r>   25.1483    0.0000 </r>
       <r>   26.2130    0.0000 </r>
       <r>   26.3204    0.0000 </r>
       <r>   27.1349    0.0000 </r>
       <r>   27.1349    0.0000 </r>
       <r>   28.4966    0.0000 </r>
       <r>   30.1753    0.0000 </r>
       <r>   30.1753    0.0000 </r>
       <r>   30.2449    0.0000 </r>
       <r>   30.2449    0.0000 </r>
       <r>   32.8910    0.0000 </r>
       <r>   34.4163    0.0000 </r>
       <r>   34.4163    0.0000 </r>
       <r>   35.0634    0.0000 </r>
       <r>   35.0634    0.0000 </r>
      </set>
      <set comment="kpoint 4">
       <r>    1.5674    1.0000 </r>
       <r>    2.4506    1.0000 </r>
       <r>    3.4570    1.0000 </r>
       <r>    3.4570    1.0000 </r>
       <r>    3.4620    1.0000 </r>
       <r>    3.9166    1.0000 </r>
       <r>    3.9265    1.0000 </r>
       <r>    3.9265    1.0000 </r>
       <r>    4.8217    1.0000 </r>
       <r>    4.8217    1.0000 </r>
       <r>    5.5339    1.0000 </r>
       <r>    5.7286    1.0000 </r>
       <r>    5.7415    1.0000 </r>
       <r>    5.7415    1.0000 </r>
       <r>    6.2818    1.0000 </r>
       <r>    6.2818    1.0000 </r>
       <r>    6.3853    1.0000 </r>
       <r>    6.3853    1.0000 </r>
       <r>    6.7685    1.0000 </r>
       <r>    7.0264    1.0000 </r>
       <r>    7.8718    1.0000 </r>
       <r>    7.8718    1.0000 </r>
       <r>   14.3191    0.0000 </r>
       <r>   14.3191    0.0000 </r>
       <r>   14.9503    0.0000 </r>
       <r>   14.9503    0.0000 </r>
       <r>   16.7077    0.0000 </r>
       <r>   16.7077    0.0000 </r>
       <r>   19.0033    0.0000 </r>
       <r>   19.0033    0.0000 </r>
       <r>   23.3073    0.0000 </r>
       <r>   23.3073    0.0000 </r>
       <r>   24.2588    0.0000 </r>
       <r>   25.4099    0.0000 </r>
       <r>   25.4099    0.0000 </r>
       <r>   25.7525    0.0000 </r>
       <r>   25.9871    0.0000 </r>
       <r>   26.2762    0.0000 </r>
       <r>   27.4748    0.0000 </r>
       <r>   28.6617    0.0000 </r>
       <r>   31.4332    0.0000 </r>
       <r>   31.4332    0.0000 </r>
       <r>   33.1142    0.0000 </r>
       <r>   33.1142    0.0000 </r>
       <r>   33.1181    0.0000 </r>
       <r>   33.1181    0.0000 </r>
       <r>   34.6859    0.0000 </r>
       <r>   34.6859    0.0000 </r>
      </set>
      <set comment="kpoint 5">
       <r>    0.1084    1.0000 </r>
       <r>    2.6725    1.0000 </r>
       <r>    2.6725    1.0000 </r>
       <r>    2.6931    1.0000 </r>
       <r>    2.9592    1.0000 </r>
       <r>    2.9592    1.0000 </r>
       <r>    3.0451    1.0000 </r>
       <r>    4.6463    1.0000 </r>
       <r>    4.9610    1.0000 </r>
       <r>    4.9997    1.0000 </r>
       <r>    6.1811    1.0000 </r>
       <r>    6.3818    1.0000 </r>
       <r>    6.7318    1.0000 </r>
       <r>    6.7318    1.0000 </r>
       <r>    6.7460    1.0000 </r>
       <r>    7.1561    1.0000 </r>
       <r>    7.3474    1.0000 </r>
       <r>    7.3474    1.0000 </r>
       <r>    7.6409    1.0000 </r>
       <r>    7.6409    1.0000 </r>
       <r>    7.7179    1.0000 </r>
       <r>   10.0752   -0.0000 </r>
       <r>   10.0752   -0.0000 </r>
       <r>   12.1530    0.0000 </r>
       <r>   14.7575    0.0000 </r>
       <r>   16.8137    0.0000 </r>
       <r>   16.8137    0.0000 </r>
       <r>   18.1347    0.0000 </r>
       <r>   19.6792    0.0000 </r>
       <r>   19.6792    0.0000 </r>
       <r>   19.9514    0.0000 </r>
       <r>   19.9514    0.0000 </r>
       <r>   20.4746    0.0000 </r>
       <r>   24.5553    0.0000 </r>
       <r>   25.9858    0.0000 </r>
       <r>   27.6181    0.0000 </r>
       <r>   27.6249    0.0000 </r>
       <r>   27.6249    0.0000 </r>
       <r>   27.7891    0.0000 </r>
       <r>   29.0409    0.0000 </r>
       <r>   29.3975    0.0000 </r>
       <r>   29.3975    0.0000 </r>
       <r>   30.4593    0.0000 </r>
       <r>   33.1320    0.0000 </r>
       <r>   35.4570    0.0000 </r>
       <r>   36.1925    0.0000 </r>
       <r>   36.3990    0.0000 </r>
       <r>   36.6998    0.0000 </r>
      </set>
      <set comment="kpoint 6">
       <r>    0.7717    1.0000 </r>
       <r>    2.8237    1.0000 </r>
       <r>    3.0141    1.0000 </r>
       <r>    3.1074    1.0000 </r>
       <r>    3.1941    1.0000 </r>
       <r>    3.3394    1.0000 </r>
       <r>    3.4768    1.0000 </r>
       <r>    4.3763    1.0000 </r>
       <r>    5.1937    1.0000 </r>
       <r>    5.2424    1.0000 </r>
       <r>    5.5709    1.0000 </r>
       <r>    5.7972    1.0000 </r>
       <r>    5.9290    1.0000 </r>
       <r>    5.9450    1.0000 </r>
       <r>    6.5704    1.0000 </r>
       <r>    6.7234    1.0000 </r>
       <r>    6.8855    1.0000 </r>
       <r>    7.0705    1.0000 </r>
       <r>    7.1193    1.0000 </r>
       <r>    7.6372    1.0000 </r>
       <r>    7.6414    1.0000 </r>
       <r>    8.3341    1.0000 </r>
       <r>   11.4248   -0.0000 </r>
       <r>   13.6629    0.0000 </r>
       <r>   14.0269    0.0000 </r>
       <r>   16.2758    0.0000 </r>
       <r>   17.2956    0.0000 </r>
       <r>   18.6451    0.0000 </r>
       <r>   19.4565    0.0000 </r>
       <r>   19.8946    0.0000 </r>
       <r>   20.8503    0.0000 </r>
       <r>   20.9673    0.0000 </r>
       <r>   21.6749    0.0000 </r>
       <r>   24.5764    0.0000 </r>
       <r>   24.9711    0.0000 </r>
       <r>   27.2838    0.0000 </r>
       <r>   27.4528    0.0000 </r>
       <r>   28.2031    0.0000 </r>
       <r>   28.8358    0.0000 </r>
       <r>   28.9070    0.0000 </r>
       <r>   29.9079    0.0000 </r>
       <r>   30.1345    0.0000 </r>
       <r>   31.6659    0.0000 </r>
       <r>   32.3620    0.0000 </r>
       <r>   34.6363    0.0000 </r>
       <r>   34.7682    0.0000 </r>
       <r>   35.1656    0.0000 </r>
       <r>   35.1900    0.0000 </r>
      </set>
      <set comment="kpoint 7">
       <r>    1.7449    1.0000 </r>
       <r>    2.6244    1.0000 </r>
       <r>    3.4970    1.0000 </r>
       <r>    3.5506    1.0000 </r>
       <r>    3.5845    1.0000 </r>
       <r>    3.9619    1.0000 </r>
       <r>    3.9713    1.0000 </r>
       <r>    3.9723    1.0000 </r>
       <r>    4.5849    1.0000 </r>
       <r>    4.8020    1.0000 </r>
       <r>    5.2029    1.0000 </r>
       <r>    5.2246    1.0000 </r>
       <r>    5.7381    1.0000 </r>
       <r>    6.0014    1.0000 </r>
       <r>    6.2751    1.0000 </r>
       <r>    6.3583    1.0000 </r>
       <r>    6.3801    1.0000 </r>
       <r>    6.5604    1.0000 </r>
       <r>    6.9040    1.0000 </r>
       <r>    7.3797    1.0000 </r>
       <r>    7.6295    1.0000 </r>
       <r>    7.6321    1.0000 </r>
       <r>   12.5396    0.0000 </r>
       <r>   13.3140    0.0000 </r>
       <r>   15.4132    0.0000 </r>
       <r>   16.1604    0.0000 </r>
       <r>   16.6067    0.0000 </r>
       <r>   17.1457    0.0000 </r>
       <r>   20.0679    0.0000 </r>
       <r>   20.4844    0.0000 </r>
       <r>   21.6146    0.0000 </r>
       <r>   22.7322    0.0000 </r>
       <r>   23.2566    0.0000 </r>
       <r>   24.4027    0.0000 </r>
       <r>   24.4467    0.0000 </r>
       <r>   26.9285    0.0000 </r>
       <r>   27.1998    0.0000 </r>
       <r>   27.8978    0.0000 </r>
       <r>   28.0010    0.0000 </r>
       <r>   29.6736    0.0000 </r>
       <r>   29.8858    0.0000 </r>
       <r>   31.0588    0.0000 </r>
       <r>   31.4159    0.0000 </r>
       <r>   33.1917    0.0000 </r>
       <r>   33.8509    0.0000 </r>
       <r>   34.9107    0.0000 </r>
       <r>   35.0842    0.0000 </r>
       <r>   35.1867    0.0000 </r>
      </set>
      <set comment="kpoint 8">
       <r>    1.3651    1.0000 </r>
       <r>    3.1683    1.0000 </r>
       <r>    3.3041    1.0000 </r>
       <r>    3.3041    1.0000 </r>
       <r>    3.5263    1.0000 </r>
       <r>    3.5263    1.0000 </r>
       <r>    3.8925    1.0000 </r>
       <r>    4.3218    1.0000 </r>
       <r>    4.9267    1.0000 </r>
       <r>    4.9267    1.0000 </r>
       <r>    5.1522    1.0000 </r>
       <r>    5.3696    1.0000 </r>
       <r>    5.3757    1.0000 </r>
       <r>    5.8620    1.0000 </r>
       <r>    6.4494    1.0000 </r>
       <r>    6.7629    1.0000 </r>
       <r>    6.7629    1.0000 </r>
       <r>    6.8847    1.0000 </r>
       <r>    7.0622    1.0000 </r>
       <r>    7.0622    1.0000 </r>
       <r>    7.2894    1.0000 </r>
       <r>    9.5569   -0.0038 </r>
       <r>    9.5569   -0.0038 </r>
       <r>   12.8035    0.0000 </r>
       <r>   14.9628    0.0000 </r>
       <r>   16.8012    0.0000 </r>
       <r>   18.0288    0.0000 </r>
       <r>   18.0288    0.0000 </r>
       <r>   19.8332    0.0000 </r>
       <r>   19.8332    0.0000 </r>
       <r>   21.9994    0.0000 </r>
       <r>   21.9994    0.0000 </r>
       <r>   22.7774    0.0000 </r>
       <r>   22.8598    0.0000 </r>
       <r>   24.2983    0.0000 </r>
       <r>   26.8820    0.0000 </r>
       <r>   27.7622    0.0000 </r>
       <r>   28.8157    0.0000 </r>
       <r>   29.5557    0.0000 </r>
       <r>   29.5557    0.0000 </r>
       <r>   29.7980    0.0000 </r>
       <r>   29.7980    0.0000 </r>
       <r>   31.6053    0.0000 </r>
       <r>   33.9570    0.0000 </r>
       <r>   34.5416    0.0000 </r>
       <r>   35.0754    0.0000 </r>
       <r>   35.0754    0.0000 </r>
       <r>   35.4728    0.0000 </r>
      </set>
      <set comment="kpoint 9">
       <r>    2.2322    1.0000 </r>
       <r>    3.0805    1.0000 </r>
       <r>    3.5342    1.0000 </r>
       <r>    3.8005    1.0000 </r>
       <r>    3.9107    1.0000 </r>
       <r>    4.0536    1.0000 </r>
       <r>    4.0995    1.0000 </r>
       <r>    4.1239    1.0000 </r>
       <r>    4.1938    1.0000 </r>
       <r>    4.6617    1.0000 </r>
       <r>    4.7152    1.0000 </r>
       <r>    4.9623    1.0000 </r>
       <r>    5.7761    1.0000 </r>
       <r>    5.8923    1.0000 </r>
       <r>    6.1513    1.0000 </r>
       <r>    6.3101    1.0000 </r>
       <r>    6.3191    1.0000 </r>
       <r>    6.3809    1.0000 </r>
       <r>    7.0645    1.0000 </r>
       <r>    7.1143    1.0000 </r>
       <r>    7.4744    1.0000 </r>
       <r>    8.2878    1.0000 </r>
       <r>   10.6645   -0.0000 </r>
       <r>   11.6813   -0.0000 </r>
       <r>   16.5950    0.0000 </r>
       <r>   16.7071    0.0000 </r>
       <r>   17.0730    0.0000 </r>
       <r>   18.2912    0.0000 </r>
       <r>   19.6042    0.0000 </r>
       <r>   21.1710    0.0000 </r>
       <r>   21.4237    0.0000 </r>
       <r>   22.5237    0.0000 </r>
       <r>   23.0393    0.0000 </r>
       <r>   23.1986    0.0000 </r>
       <r>   24.5948    0.0000 </r>
       <r>   26.8480    0.0000 </r>
       <r>   27.6428    0.0000 </r>
       <r>   28.4885    0.0000 </r>
       <r>   29.2306    0.0000 </r>
       <r>   29.4479    0.0000 </r>
       <r>   29.9481    0.0000 </r>
       <r>   31.3078    0.0000 </r>
       <r>   31.6044    0.0000 </r>
       <r>   33.2850    0.0000 </r>
       <r>   33.3211    0.0000 </r>
       <r>   34.3966    0.0000 </r>
       <r>   35.7998    0.0000 </r>
       <r>   36.3144    0.0000 </r>
      </set>
      <set comment="kpoint 10">
       <r>    2.8840    1.0000 </r>
       <r>    3.5138    1.0000 </r>
       <r>    3.5138    1.0000 </r>
       <r>    3.5656    1.0000 </r>
       <r>    4.1547    1.0000 </r>
       <r>    4.1547    1.0000 </r>
       <r>    4.1863    1.0000 </r>
       <r>    4.4470    1.0000 </r>
       <r>    4.4470    1.0000 </r>
       <r>    4.4678    1.0000 </r>
       <r>    4.4987    1.0000 </r>
       <r>    4.8304    1.0000 </r>
       <r>    5.6930    1.0000 </r>
       <r>    5.8836    1.0000 </r>
       <r>    5.9528    1.0000 </r>
       <r>    5.9528    1.0000 </r>
       <r>    5.9840    1.0000 </r>
       <r>    6.4441    1.0000 </r>
       <r>    6.4441    1.0000 </r>
       <r>    6.6687    1.0000 </r>
       <r>    8.2848    1.0000 </r>
       <r>    9.2802    0.8990 </r>
       <r>    9.2802    0.8990 </r>
       <r>   10.3452   -0.0000 </r>
       <r>   17.1573    0.0000 </r>
       <r>   18.0997    0.0000 </r>
       <r>   18.0997    0.0000 </r>
       <r>   18.1502    0.0000 </r>
       <r>   19.4559    0.0000 </r>
       <r>   19.8234    0.0000 </r>
       <r>   19.8234    0.0000 </r>
       <r>   21.4680    0.0000 </r>
       <r>   25.0974    0.0000 </r>
       <r>   25.0974    0.0000 </r>
       <r>   26.0872    0.0000 </r>
       <r>   26.1028    0.0000 </r>
       <r>   26.4479    0.0000 </r>
       <r>   28.7312    0.0000 </r>
       <r>   28.7312    0.0000 </r>
       <r>   29.7652    0.0000 </r>
       <r>   29.8134    0.0000 </r>
       <r>   30.8576    0.0000 </r>
       <r>   30.8576    0.0000 </r>
       <r>   32.6237    0.0000 </r>
       <r>   35.1161    0.0000 </r>
       <r>   35.4680    0.0000 </r>
       <r>   35.6949    0.0000 </r>
       <r>   35.6950    0.0000 </r>
      </set>
      <set comment="kpoint 11">
       <r>    0.3277    1.0000 </r>
       <r>    2.7666    1.0000 </r>
       <r>    2.7666    1.0000 </r>
       <r>    2.7666    1.0000 </r>
       <r>    3.1323    1.0000 </r>
       <r>    3.1323    1.0000 </r>
       <r>    3.1323    1.0000 </r>
       <r>    4.6293    1.0000 </r>
       <r>    5.0166    1.0000 </r>
       <r>    5.0166    1.0000 </r>
       <r>    6.2794    1.0000 </r>
       <r>    6.2794    1.0000 </r>
       <r>    6.4184    1.0000 </r>
       <r>    6.4184    1.0000 </r>
       <r>    6.4184    1.0000 </r>
       <r>    6.9323    1.0000 </r>
       <r>    6.9323    1.0000 </r>
       <r>    6.9323    1.0000 </r>
       <r>    7.7134    1.0000 </r>
       <r>    7.7134    1.0000 </r>
       <r>    7.7134    1.0000 </r>
       <r>   10.6782   -0.0000 </r>
       <r>   10.6782   -0.0000 </r>
       <r>   10.6782   -0.0000 </r>
       <r>   16.2021    0.0000 </r>
       <r>   16.2021    0.0000 </r>
       <r>   16.2021    0.0000 </r>
       <r>   19.0423    0.0000 </r>
       <r>   19.0423    0.0000 </r>
       <r>   19.0423    0.0000 </r>
       <r>   20.8934    0.0000 </r>
       <r>   20.8934    0.0000 </r>
       <r>   20.8934    0.0000 </r>
       <r>   24.3827    0.0000 </r>
       <r>   25.2016    0.0000 </r>
       <r>   27.4101    0.0000 </r>
       <r>   27.4101    0.0000 </r>
       <r>   27.4101    0.0000 </r>
       <r>   28.8647    0.0000 </r>
       <r>   28.8647    0.0000 </r>
       <r>   30.3699    0.0000 </r>
       <r>   30.3699    0.0000 </r>
       <r>   30.3699    0.0000 </r>
       <r>   32.5276    0.0000 </r>
       <r>   34.8137    0.0000 </r>
       <r>   34.8137    0.0000 </r>
       <r>   36.4590    0.0000 </r>
       <r>   36.4590    0.0000 </r>
      </set>
      <set comment="kpoint 12">
       <r>    0.9555    1.0000 </r>
       <r>    2.8929    1.0000 </r>
       <r>    3.0693    1.0000 </r>
       <r>    3.0693    1.0000 </r>
       <r>    3.3820    1.0000 </r>
       <r>    3.5657    1.0000 </r>
       <r>    3.5657    1.0000 </r>
       <r>    4.4314    1.0000 </r>
       <r>    5.1639    1.0000 </r>
       <r>    5.1943    1.0000 </r>
       <r>    5.5110    1.0000 </r>
       <r>    5.5110    1.0000 </r>
       <r>    5.6409    1.0000 </r>
       <r>    6.0984    1.0000 </r>
       <r>    6.4602    1.0000 </r>
       <r>    6.5455    1.0000 </r>
       <r>    6.6069    1.0000 </r>
       <r>    6.6069    1.0000 </r>
       <r>    7.5791    1.0000 </r>
       <r>    7.6096    1.0000 </r>
       <r>    7.6096    1.0000 </r>
       <r>    8.7635    1.0000 </r>
       <r>   11.8270   -0.0000 </r>
       <r>   11.8270   -0.0000 </r>
       <r>   15.1003    0.0000 </r>
       <r>   15.1003    0.0000 </r>
       <r>   18.0882    0.0000 </r>
       <r>   18.7800    0.0000 </r>
       <r>   18.7800    0.0000 </r>
       <r>   21.1872    0.0000 </r>
       <r>   21.1872    0.0000 </r>
       <r>   21.4847    0.0000 </r>
       <r>   22.0785    0.0000 </r>
       <r>   23.0838    0.0000 </r>
       <r>   25.3610    0.0000 </r>
       <r>   26.9694    0.0000 </r>
       <r>   27.8851    0.0000 </r>
       <r>   27.9437    0.0000 </r>
       <r>   27.9437    0.0000 </r>
       <r>   29.5039    0.0000 </r>
       <r>   30.1702    0.0000 </r>
       <r>   31.2917    0.0000 </r>
       <r>   32.2915    0.0000 </r>
       <r>   32.2915    0.0000 </r>
       <r>   33.5890    0.0000 </r>
       <r>   34.4677    0.0000 </r>
       <r>   35.2681    0.0000 </r>
       <r>   35.2681    0.0000 </r>
      </set>
      <set comment="kpoint 13">
       <r>    1.8689    1.0000 </r>
       <r>    2.6930    1.0000 </r>
       <r>    3.5577    1.0000 </r>
       <r>    3.5577    1.0000 </r>
       <r>    3.7237    1.0000 </r>
       <r>    3.9342    1.0000 </r>
       <r>    3.9342    1.0000 </r>
       <r>    4.0898    1.0000 </r>
       <r>    4.7495    1.0000 </r>
       <r>    4.7495    1.0000 </r>
       <r>    5.0416    1.0000 </r>
       <r>    5.1027    1.0000 </r>
       <r>    5.5086    1.0000 </r>
       <r>    5.9485    1.0000 </r>
       <r>    6.2324    1.0000 </r>
       <r>    6.2324    1.0000 </r>
       <r>    6.3833    1.0000 </r>
       <r>    6.9101    1.0000 </r>
       <r>    7.2859    1.0000 </r>
       <r>    7.3130    1.0000 </r>
       <r>    7.5240    1.0000 </r>
       <r>    7.5240    1.0000 </r>
       <r>   12.8179    0.0000 </r>
       <r>   12.8179    0.0000 </r>
       <r>   14.2595    0.0000 </r>
       <r>   14.2595    0.0000 </r>
       <r>   18.7053    0.0000 </r>
       <r>   18.7053    0.0000 </r>
       <r>   19.8934    0.0000 </r>
       <r>   20.8719    0.0000 </r>
       <r>   20.8719    0.0000 </r>
       <r>   21.5718    0.0000 </r>
       <r>   23.8527    0.0000 </r>
       <r>   24.4014    0.0000 </r>
       <r>   25.6564    0.0000 </r>
       <r>   25.9541    0.0000 </r>
       <r>   26.7016    0.0000 </r>
       <r>   27.8863    0.0000 </r>
       <r>   29.1110    0.0000 </r>
       <r>   29.1110    0.0000 </r>
       <r>   30.1258    0.0000 </r>
       <r>   30.6906    0.0000 </r>
       <r>   32.8920    0.0000 </r>
       <r>   32.8920    0.0000 </r>
       <r>   33.9771    0.0000 </r>
       <r>   34.5629    0.0000 </r>
       <r>   35.1649    0.0000 </r>
       <r>   35.7312    0.0000 </r>
      </set>
      <set comment="kpoint 14">
       <r>    1.4710    1.0000 </r>
       <r>    3.1206    1.0000 </r>
       <r>    3.1206    1.0000 </r>
       <r>    3.1542    1.0000 </r>
       <r>    3.8435    1.0000 </r>
       <r>    3.8435    1.0000 </r>
       <r>    3.9618    1.0000 </r>
       <r>    4.4926    1.0000 </r>
       <r>    4.9625    1.0000 </r>
       <r>    4.9625    1.0000 </r>
       <r>    5.1274    1.0000 </r>
       <r>    5.1991    1.0000 </r>
       <r>    5.2662    1.0000 </r>
       <r>    6.1693    1.0000 </r>
       <r>    6.1697    1.0000 </r>
       <r>    6.2062    1.0000 </r>
       <r>    6.2062    1.0000 </r>
       <r>    6.8058    1.0000 </r>
       <r>    7.4633    1.0000 </r>
       <r>    7.4800    1.0000 </r>
       <r>    7.4800    1.0000 </r>
       <r>    9.7881   -0.0000 </r>
       <r>    9.7881   -0.0000 </r>
       <r>   12.6853    0.0000 </r>
       <r>   13.4710    0.0000 </r>
       <r>   16.3618    0.0000 </r>
       <r>   16.3618    0.0000 </r>
       <r>   19.0373    0.0000 </r>
       <r>   21.2807    0.0000 </r>
       <r>   21.3817    0.0000 </r>
       <r>   21.3817    0.0000 </r>
       <r>   22.2814    0.0000 </r>
       <r>   22.2814    0.0000 </r>
       <r>   23.0941    0.0000 </r>
       <r>   25.0835    0.0000 </r>
       <r>   26.5632    0.0000 </r>
       <r>   27.4660    0.0000 </r>
       <r>   27.4660    0.0000 </r>
       <r>   27.8117    0.0000 </r>
       <r>   30.0158    0.0000 </r>
       <r>   31.3810    0.0000 </r>
       <r>   32.2023    0.0000 </r>
       <r>   32.2023    0.0000 </r>
       <r>   32.4356    0.0000 </r>
       <r>   34.3796    0.0000 </r>
       <r>   34.5643    0.0000 </r>
       <r>   35.1591    0.0000 </r>
       <r>   35.1604    0.0000 </r>
      </set>
      <set comment="kpoint 15">
       <r>    2.1943    1.0000 </r>
       <r>    2.8607    1.0000 </r>
       <r>    3.3855    1.0000 </r>
       <r>    3.4305    1.0000 </r>
       <r>    4.0883    1.0000 </r>
       <r>    4.1130    1.0000 </r>
       <r>    4.2108    1.0000 </r>
       <r>    4.4065    1.0000 </r>
       <r>    4.6858    1.0000 </r>
       <r>    4.7381    1.0000 </r>
       <r>    4.9514    1.0000 </r>
       <r>    5.0105    1.0000 </r>
       <r>    5.3666    1.0000 </r>
       <r>    5.7268    1.0000 </r>
       <r>    5.9021    1.0000 </r>
       <r>    5.9760    1.0000 </r>
       <r>    6.4430    1.0000 </r>
       <r>    7.0738    1.0000 </r>
       <r>    7.2846    1.0000 </r>
       <r>    7.2909    1.0000 </r>
       <r>    7.3830    1.0000 </r>
       <r>    8.2645    1.0000 </r>
       <r>   10.8767   -0.0000 </r>
       <r>   11.9845   -0.0000 </r>
       <r>   13.8596    0.0000 </r>
       <r>   14.9742    0.0000 </r>
       <r>   17.9038    0.0000 </r>
       <r>   19.5653    0.0000 </r>
       <r>   19.6179    0.0000 </r>
       <r>   20.5508    0.0000 </r>
       <r>   22.5843    0.0000 </r>
       <r>   23.1989    0.0000 </r>
       <r>   23.2723    0.0000 </r>
       <r>   24.4410    0.0000 </r>
       <r>   24.4754    0.0000 </r>
       <r>   26.3036    0.0000 </r>
       <r>   27.1989    0.0000 </r>
       <r>   27.5199    0.0000 </r>
       <r>   28.1178    0.0000 </r>
       <r>   28.8885    0.0000 </r>
       <r>   31.7121    0.0000 </r>
       <r>   32.0725    0.0000 </r>
       <r>   32.6151    0.0000 </r>
       <r>   33.2078    0.0000 </r>
       <r>   33.6023    0.0000 </r>
       <r>   34.5110    0.0000 </r>
       <r>   35.5763    0.0000 </r>
       <r>   36.1542    0.0000 </r>
      </set>
      <set comment="kpoint 16">
       <r>    2.6152    1.0000 </r>
       <r>    3.0475    1.0000 </r>
       <r>    3.0475    1.0000 </r>
       <r>    3.2090    1.0000 </r>
       <r>    4.3292    1.0000 </r>
       <r>    4.4528    1.0000 </r>
       <r>    4.4528    1.0000 </r>
       <r>    4.6325    1.0000 </r>
       <r>    4.8472    1.0000 </r>
       <r>    4.8472    1.0000 </r>
       <r>    4.9610    1.0000 </r>
       <r>    5.1654    1.0000 </r>
       <r>    5.3087    1.0000 </r>
       <r>    5.5751    1.0000 </r>
       <r>    5.5751    1.0000 </r>
       <r>    5.5791    1.0000 </r>
       <r>    6.4515    1.0000 </r>
       <r>    6.8761    1.0000 </r>
       <r>    6.8761    1.0000 </r>
       <r>    6.9779    1.0000 </r>
       <r>    8.1985    1.0000 </r>
       <r>    9.2816    0.8924 </r>
       <r>    9.2816    0.8924 </r>
       <r>   10.4492   -0.0000 </r>
       <r>   14.9143    0.0000 </r>
       <r>   16.2447    0.0000 </r>
       <r>   16.2447    0.0000 </r>
       <r>   17.7860    0.0000 </r>
       <r>   20.5511    0.0000 </r>
       <r>   21.8017    0.0000 </r>
       <r>   21.8017    0.0000 </r>
       <r>   23.1230    0.0000 </r>
       <r>   24.8543    0.0000 </r>
       <r>   24.8543    0.0000 </r>
       <r>   25.6440    0.0000 </r>
       <r>   25.8451    0.0000 </r>
       <r>   26.0555    0.0000 </r>
       <r>   27.8514    0.0000 </r>
       <r>   27.8514    0.0000 </r>
       <r>   29.2837    0.0000 </r>
       <r>   30.8947    0.0000 </r>
       <r>   32.0499    0.0000 </r>
       <r>   32.0499    0.0000 </r>
       <r>   33.2184    0.0000 </r>
       <r>   34.4511    0.0000 </r>
       <r>   35.0265    0.0000 </r>
       <r>   35.3870    0.0000 </r>
       <r>   35.3870    0.0000 </r>
      </set>
      <set comment="kpoint 17">
       <r>    1.7627    1.0000 </r>
       <r>    2.9993    1.0000 </r>
       <r>    2.9993    1.0000 </r>
       <r>    2.9993    1.0000 </r>
       <r>    4.2119    1.0000 </r>
       <r>    4.2119    1.0000 </r>
       <r>    4.2119    1.0000 </r>
       <r>    4.9313    1.0000 </r>
       <r>    5.0517    1.0000 </r>
       <r>    5.0517    1.0000 </r>
       <r>    5.1113    1.0000 </r>
       <r>    5.1113    1.0000 </r>
       <r>    5.1113    1.0000 </r>
       <r>    5.7042    1.0000 </r>
       <r>    5.7042    1.0000 </r>
       <r>    5.7042    1.0000 </r>
       <r>    6.6833    1.0000 </r>
       <r>    6.6833    1.0000 </r>
       <r>    7.6148    1.0000 </r>
       <r>    7.6148    1.0000 </r>
       <r>    7.6148    1.0000 </r>
       <r>   10.4495   -0.0000 </r>
       <r>   10.4495   -0.0000 </r>
       <r>   10.4495   -0.0000 </r>
       <r>   14.3809    0.0000 </r>
       <r>   14.3809    0.0000 </r>
       <r>   14.3809    0.0000 </r>
       <r>   19.3233    0.0000 </r>
       <r>   22.0076    0.0000 </r>
       <r>   22.0076    0.0000 </r>
       <r>   22.0076    0.0000 </r>
       <r>   23.8293    0.0000 </r>
       <r>   23.8293    0.0000 </r>
       <r>   23.8293    0.0000 </r>
       <r>   24.8572    0.0000 </r>
       <r>   25.9519    0.0000 </r>
       <r>   25.9519    0.0000 </r>
       <r>   25.9519    0.0000 </r>
       <r>   29.1993    0.0000 </r>
       <r>   29.1993    0.0000 </r>
       <r>   31.7437    0.0000 </r>
       <r>   32.5862    0.0000 </r>
       <r>   32.5862    0.0000 </r>
       <r>   34.8967    0.0000 </r>
       <r>   34.8967    0.0000 </r>
       <r>   34.8973    0.0000 </r>
       <r>   35.0395    0.0000 </r>
       <r>   35.0395    0.0000 </r>
      </set>
      <set comment="kpoint 18">
       <r>    2.1782    1.0000 </r>
       <r>    2.6329    1.0000 </r>
       <r>    2.9728    1.0000 </r>
       <r>    2.9728    1.0000 </r>
       <r>    4.2870    1.0000 </r>
       <r>    4.2870    1.0000 </r>
       <r>    4.5933    1.0000 </r>
       <r>    4.8893    1.0000 </r>
       <r>    5.0865    1.0000 </r>
       <r>    5.1088    1.0000 </r>
       <r>    5.2091    1.0000 </r>
       <r>    5.3144    1.0000 </r>
       <r>    5.4018    1.0000 </r>
       <r>    5.4018    1.0000 </r>
       <r>    5.5258    1.0000 </r>
       <r>    5.5258    1.0000 </r>
       <r>    7.0923    1.0000 </r>
       <r>    7.1748    1.0000 </r>
       <r>    7.4700    1.0000 </r>
       <r>    7.4700    1.0000 </r>
       <r>    7.5171    1.0000 </r>
       <r>    8.4639    1.0000 </r>
       <r>   11.3058   -0.0000 </r>
       <r>   11.3058   -0.0000 </r>
       <r>   12.9001    0.0000 </r>
       <r>   12.9001    0.0000 </r>
       <r>   15.8371    0.0000 </r>
       <r>   17.5068    0.0000 </r>
       <r>   22.5180    0.0000 </r>
       <r>   22.5180    0.0000 </r>
       <r>   23.5098    0.0000 </r>
       <r>   23.5098    0.0000 </r>
       <r>   24.1832    0.0000 </r>
       <r>   24.5291    0.0000 </r>
       <r>   25.1146    0.0000 </r>
       <r>   26.2068    0.0000 </r>
       <r>   26.5087    0.0000 </r>
       <r>   26.5087    0.0000 </r>
       <r>   26.9390    0.0000 </r>
       <r>   28.3640    0.0000 </r>
       <r>   32.8069    0.0000 </r>
       <r>   33.3809    0.0000 </r>
       <r>   33.9419    0.0000 </r>
       <r>   33.9419    0.0000 </r>
       <r>   34.1674    0.0000 </r>
       <r>   34.2994    0.0000 </r>
       <r>   34.8653    0.0000 </r>
       <r>   35.4689    0.0000 </r>
      </set>
      <set comment="kpoint 19">
       <r>    2.2928    1.0000 </r>
       <r>    2.5673    1.0000 </r>
       <r>    2.5673    1.0000 </r>
       <r>    2.6805    1.0000 </r>
       <r>    4.4905    1.0000 </r>
       <r>    4.5861    1.0000 </r>
       <r>    4.5861    1.0000 </r>
       <r>    4.8241    1.0000 </r>
       <r>    4.9651    1.0000 </r>
       <r>    5.1168    1.0000 </r>
       <r>    5.1168    1.0000 </r>
       <r>    5.1617    1.0000 </r>
       <r>    5.8814    1.0000 </r>
       <r>    5.8814    1.0000 </r>
       <r>    5.9852    1.0000 </r>
       <r>    5.9963    1.0000 </r>
       <r>    7.0115    1.0000 </r>
       <r>    7.3742    1.0000 </r>
       <r>    7.3742    1.0000 </r>
       <r>    7.3794    1.0000 </r>
       <r>    7.9280    1.0000 </r>
       <r>    9.2746    0.9251 </r>
       <r>    9.2746    0.9251 </r>
       <r>   10.4723   -0.0000 </r>
       <r>   12.8957    0.0000 </r>
       <r>   14.1389    0.0000 </r>
       <r>   14.1389    0.0000 </r>
       <r>   15.6871    0.0000 </r>
       <r>   23.0777    0.0000 </r>
       <r>   23.7884    0.0000 </r>
       <r>   23.7884    0.0000 </r>
       <r>   24.0464    0.0000 </r>
       <r>   24.7929    0.0000 </r>
       <r>   24.7929    0.0000 </r>
       <r>   25.0247    0.0000 </r>
       <r>   26.0412    0.0000 </r>
       <r>   26.1419    0.0000 </r>
       <r>   26.7988    0.0000 </r>
       <r>   26.7988    0.0000 </r>
       <r>   28.1645    0.0000 </r>
       <r>   32.8448    0.0000 </r>
       <r>   33.7241    0.0000 </r>
       <r>   33.7241    0.0000 </r>
       <r>   34.0762    0.0000 </r>
       <r>   34.3004    0.0000 </r>
       <r>   34.7943    0.0000 </r>
       <r>   35.0422    0.0000 </r>
       <r>   35.0422    0.0000 </r>
      </set>
      <set comment="kpoint 20">
       <r>    2.1802    1.0000 </r>
       <r>    2.3141    1.0000 </r>
       <r>    2.3141    1.0000 </r>
       <r>    2.3141    1.0000 </r>
       <r>    4.6943    1.0000 </r>
       <r>    4.6943    1.0000 </r>
       <r>    4.6943    1.0000 </r>
       <r>    4.8183    1.0000 </r>
       <r>    4.8183    1.0000 </r>
       <r>    4.8882    1.0000 </r>
       <r>    4.8882    1.0000 </r>
       <r>    4.8882    1.0000 </r>
       <r>    6.7872    1.0000 </r>
       <r>    6.7872    1.0000 </r>
       <r>    6.7872    1.0000 </r>
       <r>    7.4197    1.0000 </r>
       <r>    7.4197    1.0000 </r>
       <r>    7.5367    1.0000 </r>
       <r>    7.5552    1.0000 </r>
       <r>    7.5552    1.0000 </r>
       <r>    7.5552    1.0000 </r>
       <r>    9.2477    1.0079 </r>
       <r>    9.2477    1.0079 </r>
       <r>    9.2477    1.0079 </r>
       <r>   12.7970    0.0000 </r>
       <r>   12.7970    0.0000 </r>
       <r>   12.7970    0.0000 </r>
       <r>   13.9631    0.0000 </r>
       <r>   23.6648    0.0000 </r>
       <r>   23.6648    0.0000 </r>
       <r>   23.6648    0.0000 </r>
       <r>   23.6800    0.0000 </r>
       <r>   26.1326    0.0000 </r>
       <r>   26.1326    0.0000 </r>
       <r>   26.1326    0.0000 </r>
       <r>   26.3164    0.0000 </r>
       <r>   26.3164    0.0000 </r>
       <r>   26.3164    0.0000 </r>
       <r>   27.0467    0.0000 </r>
       <r>   27.0467    0.0000 </r>
       <r>   34.1897    0.0000 </r>
       <r>   34.1897    0.0000 </r>
       <r>   34.4849    0.0000 </r>
       <r>   34.4849    0.0000 </r>
       <r>   34.4849    0.0000 </r>
       <r>   34.7223    0.0000 </r>
       <r>   34.7223    0.0000 </r>
       <r>   34.7223    0.0000 </r>
      </set>
     </set>
    </set>
   </array>
  </eigenvalues>
  <separator name="orbital magnetization" >
   <v name="MAGDIPOLOUT">      0.00000000      0.00000000      0.00000000</v>
  </separator>
  <dos>
   <i name="efermi">      9.33577902 </i>
   <total>
    <array>
     <dimension dim="1">gridpoints</dimension>
     <dimension dim="2">spin</dimension>
     <field>energy</field>
     <field>total</field>
     <field>integrated</field>
     <set>
      <set comment="spin 1">
       <r>    -2.2617     0.0000     0.0000 </r>
       <r>    -2.1223     0.0000     0.0000 </r>
       <r>    -1.9828     0.0000     0.0000 </r>
       <r>    -1.8434     0.0000     0.0000 </r>
       <r>    -1.7040     0.0000     0.0000 </r>
       <r>    -1.5645     0.0000     0.0000 </r>
       <r>    -1.4251     0.0000     0.0000 </r>
       <r>    -1.2857    -0.0000    -0.0000 </r>
       <r>    -1.1462    -0.0000    -0.0000 </r>
       <r>    -1.0068    -0.0000    -0.0000 </r>
       <r>    -0.8674    -0.0000    -0.0000 </r>
       <r>    -0.7279    -0.0000    -0.0000 </r>
       <r>    -0.5885    -0.0001    -0.0000 </r>
       <r>    -0.4491    -0.0003    -0.0001 </r>
       <r>    -0.3096     0.0340     0.0047 </r>
       <r>    -0.1702     0.0438     0.0108 </r>
       <r>    -0.0308     0.2026     0.0391 </r>
       <r>     0.1087     0.2638     0.0758 </r>
       <r>     0.2481     0.2704     0.1135 </r>
       <r>     0.3875     0.2841     0.1531 </r>
       <r>     0.5270     0.0848     0.1650 </r>
       <r>     0.6664     0.1738     0.1892 </r>
       <r>     0.8058     0.7694     0.2965 </r>
       <r>     0.9453     0.6898     0.3927 </r>
       <r>     1.0847     0.6061     0.4772 </r>
       <r>     1.2241    -0.0515     0.4700 </r>
       <r>     1.3636     0.2280     0.5018 </r>
       <r>     1.5030     1.0795     0.6523 </r>
       <r>     1.6424     0.4352     0.7130 </r>
       <r>     1.7819     1.0393     0.8579 </r>
       <r>     1.9213     1.2374     1.0304 </r>
       <r>     2.0607    -0.0305     1.0262 </r>
       <r>     2.2002     2.3304     1.3511 </r>
       <r>     2.3396     3.8097     1.8823 </r>
       <r>     2.4790     0.5786     1.9630 </r>
       <r>     2.6185     4.1311     2.5390 </r>
       <r>     2.7579     6.0019     3.3759 </r>
       <r>     2.8973     4.6048     4.0179 </r>
       <r>     3.0368     7.8021     5.1058 </r>
       <r>     3.1762    10.1382     6.5194 </r>
       <r>     3.3156     3.6590     7.0296 </r>
       <r>     3.4551     6.2347     7.8989 </r>
       <r>     3.5945    10.4316     9.3534 </r>
       <r>     3.7339     2.3676     9.6835 </r>
       <r>     3.8734     3.3653    10.1528 </r>
       <r>     4.0128     7.8011    11.2405 </r>
       <r>     4.1522     8.5450    12.4320 </r>
       <r>     4.2917     6.8314    13.3845 </r>
       <r>     4.4311     6.5042    14.2914 </r>
       <r>     4.5705     7.4227    15.3264 </r>
       <r>     4.7100     8.7072    16.5405 </r>
       <r>     4.8494     9.1877    17.8216 </r>
       <r>     4.9889    11.8898    19.4794 </r>
       <r>     5.1283    11.5850    21.0947 </r>
       <r>     5.2677    12.5254    22.8412 </r>
       <r>     5.4072     6.2881    23.7180 </r>
       <r>     5.5466     6.5592    24.6325 </r>
       <r>     5.6860     6.4641    25.5338 </r>
       <r>     5.8255     6.0741    26.3808 </r>
       <r>     5.9649    11.0459    27.9210 </r>
       <r>     6.1043     6.2900    28.7980 </r>
       <r>     6.2438     6.8528    29.7535 </r>
       <r>     6.3832     8.6488    30.9594 </r>
       <r>     6.5226     9.1208    32.2312 </r>
       <r>     6.6621     4.8639    32.9094 </r>
       <r>     6.8015     5.5295    33.6804 </r>
       <r>     6.9409     7.0332    34.6611 </r>
       <r>     7.0804     7.6061    35.7216 </r>
       <r>     7.2198     6.6766    36.6525 </r>
       <r>     7.3592     9.1067    37.9223 </r>
       <r>     7.4987    11.3562    39.5057 </r>
       <r>     7.6381    11.2660    41.0766 </r>
       <r>     7.7775     4.9556    41.7676 </r>
       <r>     7.9170     1.8203    42.0214 </r>
       <r>     8.0564     0.8596    42.1412 </r>
       <r>     8.1958     0.5072    42.2120 </r>
       <r>     8.3353     4.2253    42.8011 </r>
       <r>     8.4747     1.4319    43.0008 </r>
       <r>     8.6141     0.3499    43.0495 </r>
       <r>     8.7536     0.4185    43.1079 </r>
       <r>     8.8930     0.6200    43.1943 </r>
       <r>     9.0324    -0.0548    43.1867 </r>
       <r>     9.1719     0.0489    43.1935 </r>
       <r>     9.3113     4.9852    43.8886 </r>
       <r>     9.4507     1.3240    44.0732 </r>
       <r>     9.5902     0.6856    44.1688 </r>
       <r>     9.7296     0.4446    44.2308 </r>
       <r>     9.8690     1.7938    44.4809 </r>
       <r>    10.0085     0.0817    44.4923 </r>
       <r>    10.1479     0.9078    44.6189 </r>
       <r>    10.2873     0.0290    44.6230 </r>
       <r>    10.4268     1.2844    44.8020 </r>
       <r>    10.5662     2.3517    45.1300 </r>
       <r>    10.7056     1.5255    45.3427 </r>
       <r>    10.8451     1.0202    45.4849 </r>
       <r>    10.9845     1.5410    45.6998 </r>
       <r>    11.1239    -0.0882    45.6875 </r>
       <r>    11.2634     0.3465    45.7358 </r>
       <r>    11.4028     2.1246    46.0320 </r>
       <r>    11.5422     1.0816    46.1828 </r>
       <r>    11.6817     0.4320    46.2431 </r>
       <r>    11.8211     1.4484    46.4450 </r>
       <r>    11.9605     1.7872    46.6942 </r>
       <r>    12.1000     1.4630    46.8982 </r>
       <r>    12.2394     0.3786    46.9510 </r>
       <r>    12.3788    -0.0254    46.9475 </r>
       <r>    12.5183     0.3260    46.9929 </r>
       <r>    12.6577     0.9127    47.1202 </r>
       <r>    12.7971     2.1302    47.4172 </r>
       <r>    12.9366     4.6869    48.0707 </r>
       <r>    13.0760     0.6100    48.1558 </r>
       <r>    13.2154     0.3696    48.2073 </r>
       <r>    13.3549     0.8040    48.3194 </r>
       <r>    13.4943     0.9075    48.4459 </r>
       <r>    13.6337     0.5954    48.5290 </r>
       <r>    13.7732     0.7415    48.6323 </r>
       <r>    13.9126     1.7627    48.8781 </r>
       <r>    14.0520     1.2679    49.0549 </r>
       <r>    14.1915     2.1592    49.3560 </r>
       <r>    14.3309     2.5327    49.7091 </r>
       <r>    14.4703     1.1489    49.8693 </r>
       <r>    14.6098     0.1125    49.8850 </r>
       <r>    14.7492     0.5639    49.9636 </r>
       <r>    14.8886     0.6422    50.0532 </r>
       <r>    15.0281     3.5362    50.5462 </r>
       <r>    15.1675     2.5455    50.9012 </r>
       <r>    15.3069     0.1212    50.9181 </r>
       <r>    15.4464     0.8762    51.0402 </r>
       <r>    15.5858     0.2242    51.0715 </r>
       <r>    15.7252     0.7778    51.1800 </r>
       <r>    15.8647     0.9778    51.3163 </r>
       <r>    16.0041     0.2442    51.3503 </r>
       <r>    16.1435     0.3698    51.4019 </r>
       <r>    16.2830     3.8752    51.9422 </r>
       <r>    16.4224     2.6767    52.3155 </r>
       <r>    16.5618     0.4876    52.3835 </r>
       <r>    16.7013     2.3197    52.7069 </r>
       <r>    16.8407     2.0056    52.9865 </r>
       <r>    16.9801     0.3035    53.0289 </r>
       <r>    17.1196     1.3501    53.2171 </r>
       <r>    17.2590     1.7132    53.4560 </r>
       <r>    17.3984     0.7214    53.5566 </r>
       <r>    17.5379     0.7547    53.6618 </r>
       <r>    17.6773     0.2309    53.6940 </r>
       <r>    17.8167     0.7520    53.7989 </r>
       <r>    17.9562     2.0157    54.0799 </r>
       <r>    18.0956     2.3960    54.4140 </r>
       <r>    18.2350     2.4641    54.7576 </r>
       <r>    18.3745     0.9314    54.8875 </r>
       <r>    18.5139    -0.0613    54.8789 </r>
       <r>    18.6533     0.7931    54.9895 </r>
       <r>    18.7928     3.5272    55.4813 </r>
       <r>    18.9322     0.7638    55.5878 </r>
       <r>    19.0716     1.9723    55.8628 </r>
       <r>    19.2111     1.3035    56.0446 </r>
       <r>    19.3505     0.4953    56.1136 </r>
       <r>    19.4899     1.6788    56.3477 </r>
       <r>    19.6294     4.5637    56.9840 </r>
       <r>    19.7688     2.2862    57.3028 </r>
       <r>    19.9082     3.1774    57.7458 </r>
       <r>    20.0477     2.3129    58.0684 </r>
       <r>    20.1871     0.9020    58.1941 </r>
       <r>    20.3266    -0.1070    58.1792 </r>
       <r>    20.4660     0.6862    58.2749 </r>
       <r>    20.6054     3.8736    58.8150 </r>
       <r>    20.7449     0.1582    58.8370 </r>
       <r>    20.8843     2.5148    59.1877 </r>
       <r>    21.0237     2.5415    59.5421 </r>
       <r>    21.1632     1.0716    59.6915 </r>
       <r>    21.3026     2.7447    60.0742 </r>
       <r>    21.4420     3.4730    60.5584 </r>
       <r>    21.5815     2.6890    60.9334 </r>
       <r>    21.7209     2.0535    61.2197 </r>
       <r>    21.8603     1.8591    61.4789 </r>
       <r>    21.9998     1.1943    61.6454 </r>
       <r>    22.1392     1.9679    61.9198 </r>
       <r>    22.2786     1.0334    62.0639 </r>
       <r>    22.4181     0.9918    62.2022 </r>
       <r>    22.5575     2.9940    62.6197 </r>
       <r>    22.6969     2.4096    62.9557 </r>
       <r>    22.8364     1.3068    63.1379 </r>
       <r>    22.9758     0.3243    63.1831 </r>
       <r>    23.1152     3.6119    63.6867 </r>
       <r>    23.2547     5.5095    64.4549 </r>
       <r>    23.3941     2.5314    64.8079 </r>
       <r>    23.5335     1.2862    64.9873 </r>
       <r>    23.6730     1.3089    65.1698 </r>
       <r>    23.8124     2.6696    65.5420 </r>
       <r>    23.9518     2.1114    65.8364 </r>
       <r>    24.0913     0.7759    65.9446 </r>
       <r>    24.2307     1.0816    66.0954 </r>
       <r>    24.3701     1.6633    66.3273 </r>
       <r>    24.5096     6.7408    67.2672 </r>
       <r>    24.6490     3.4678    67.7507 </r>
       <r>    24.7884     1.1703    67.9139 </r>
       <r>    24.9279     3.3829    68.3856 </r>
       <r>    25.0673     2.5387    68.7396 </r>
       <r>    25.2067     2.8707    69.1398 </r>
       <r>    25.3462     0.5310    69.2139 </r>
       <r>    25.4856     1.0621    69.3620 </r>
       <r>    25.6250     0.6010    69.4458 </r>
       <r>    25.7645     1.6242    69.6722 </r>
       <r>    25.9039     1.1761    69.8362 </r>
       <r>    26.0433     3.5816    70.3356 </r>
       <r>    26.1828     4.0953    70.9066 </r>
       <r>    26.3222     3.4690    71.3903 </r>
       <r>    26.4616     1.9347    71.6601 </r>
       <r>    26.6011     2.7674    72.0460 </r>
       <r>    26.7405     1.3013    72.2274 </r>
       <r>    26.8799     3.3769    72.6983 </r>
       <r>    27.0194     3.3544    73.1660 </r>
       <r>    27.1588     1.5409    73.3808 </r>
       <r>    27.2982     3.2490    73.8339 </r>
       <r>    27.4377     2.3244    74.1580 </r>
       <r>    27.5771     4.7694    74.8230 </r>
       <r>    27.7165     2.3452    75.1500 </r>
       <r>    27.8560     4.0518    75.7149 </r>
       <r>    27.9954     6.1966    76.5789 </r>
       <r>    28.1348     2.5119    76.9292 </r>
       <r>    28.2743     2.3995    77.2637 </r>
       <r>    28.4137     0.8732    77.3855 </r>
       <r>    28.5531     1.2574    77.5608 </r>
       <r>    28.6926     0.4098    77.6180 </r>
       <r>    28.8320     2.1344    77.9156 </r>
       <r>    28.9714     3.9458    78.4657 </r>
       <r>    29.1109     1.5136    78.6768 </r>
       <r>    29.2503     2.8052    79.0679 </r>
       <r>    29.3897     1.7497    79.3119 </r>
       <r>    29.5292     2.5785    79.6714 </r>
       <r>    29.6686     1.9211    79.9393 </r>
       <r>    29.8080     1.7811    80.1876 </r>
       <r>    29.9475     3.0911    80.6186 </r>
       <r>    30.0869     2.0567    80.9054 </r>
       <r>    30.2263     3.1936    81.3507 </r>
       <r>    30.3658     0.9702    81.4860 </r>
       <r>    30.5052     0.9546    81.6191 </r>
       <r>    30.6446     0.2094    81.6483 </r>
       <r>    30.7841     0.8619    81.7685 </r>
       <r>    30.9235     1.6403    81.9972 </r>
       <r>    31.0629     0.9136    82.1246 </r>
       <r>    31.2024     0.4138    82.1823 </r>
       <r>    31.3418     1.8926    82.4461 </r>
       <r>    31.4812     2.5085    82.7959 </r>
       <r>    31.6207     1.2324    82.9678 </r>
       <r>    31.7601     3.4161    83.4441 </r>
       <r>    31.8995     0.2932    83.4850 </r>
       <r>    32.0390     1.2983    83.6660 </r>
       <r>    32.1784     3.4306    84.1443 </r>
       <r>    32.3178     2.9829    84.5602 </r>
       <r>    32.4573     2.0517    84.8463 </r>
       <r>    32.5967     1.8979    85.1110 </r>
       <r>    32.7361     2.0008    85.3899 </r>
       <r>    32.8756     2.4716    85.7346 </r>
       <r>    33.0150     1.7833    85.9832 </r>
       <r>    33.1544     1.5824    86.2039 </r>
       <r>    33.2939     4.8226    86.8763 </r>
       <r>    33.4333     2.0151    87.1572 </r>
       <r>    33.5727     0.9538    87.2902 </r>
       <r>    33.7122     3.0268    87.7123 </r>
       <r>    33.8516     1.6475    87.9420 </r>
       <r>    33.9910     3.2513    88.3953 </r>
       <r>    34.1305     1.9418    88.6661 </r>
       <r>    34.2699     1.9265    88.9347 </r>
       <r>    34.4093     3.4500    89.4158 </r>
       <r>    34.5488     6.5105    90.3235 </r>
       <r>    34.6882     3.3389    90.7891 </r>
       <r>    34.8276     3.4586    91.2713 </r>
       <r>    34.9671     3.2524    91.7248 </r>
       <r>    35.1065     6.0091    92.5627 </r>
       <r>    35.2459     7.2151    93.5687 </r>
       <r>    35.3854     2.6210    93.9342 </r>
       <r>    35.5248     3.4966    94.4217 </r>
       <r>    35.6643     2.2448    94.7347 </r>
       <r>    35.8037     2.5793    95.0944 </r>
       <r>    35.9431     0.6783    95.1890 </r>
       <r>    36.0826     0.0126    95.1907 </r>
       <r>    36.2220     2.2058    95.4983 </r>
       <r>    36.3614     1.2173    95.6680 </r>
       <r>    36.5009     1.1225    95.8245 </r>
       <r>    36.6403     0.6071    95.9092 </r>
       <r>    36.7797     0.4827    95.9765 </r>
       <r>    36.9192     0.0002    95.9765 </r>
       <r>    37.0586     0.1011    95.9906 </r>
       <r>    37.1980     0.0276    95.9944 </r>
       <r>    37.3375    -0.0019    95.9942 </r>
       <r>    37.4769    -0.0005    95.9941 </r>
       <r>    37.6163     0.0057    95.9949 </r>
       <r>    37.7558     0.0369    96.0001 </r>
       <r>    37.8952    -0.0003    96.0000 </r>
       <r>    38.0346    -0.0001    96.0000 </r>
       <r>    38.1741    -0.0000    96.0000 </r>
       <r>    38.3135    -0.0000    96.0000 </r>
       <r>    38.4529     0.0000    96.0000 </r>
       <r>    38.5924     0.0000    96.0000 </r>
       <r>    38.7318     0.0000    96.0000 </r>
       <r>    38.8712     0.0000    96.0000 </r>
       <r>    39.0107     0.0000    96.0000 </r>
       <r>    39.1501     0.0000    96.0000 </r>
       <r>    39.2895     0.0000    96.0000 </r>
       <r>    39.4290     0.0000    96.0000 </r>
       <r>    39.5684     0.0000    96.0000 </r>
      </set>
     </set>
    </array>
   </total>
  </dos>
 </calculation>
 <structure name="finalpos" >
  <crystal>
   <varray name="basis" >
    <v>       4.08000000       0.00000000       0.00000000 </v>
    <v>       0.00000000       4.08000000       0.00000000 </v>
    <v>       0.00000000       0.00000000       4.08000000 </v>
   </varray>
   <i name="volume">     67.91731200 </i>
   <varray name="rec_basis" >
    <v>       0.24509804       0.00000000       0.00000000 </v>
    <v>       0.00000000       0.24509804       0.00000000 </v>
    <v>       0.00000000       0.00000000       0.24509804 </v>
   </varray>
  </crystal>
  <varray name="positions" >
   <v>       0.00000000       0.00000000       0.00000000 </v>
   <v>       0.00000000       0.50000000       0.50000000 </v>
   <v>       0.50000000       0.00000000       0.50000000 </v>
   <v>       0.50000000       0.50000000       0.00000000 </v>
  </varray>
 </structure>
</modeling>
