   4   4   0   0
  0.2060662E+02  0.4352000E-09  0.4352000E-09  0.4352000E-09  0.5000000E-15
  1.000000000000000E-004
  CAR 
 unknown system                          
     34.05299170     -3.08122237  301      6.52790393      1.00000000
     -3.081  0.0000E+00  0.0000E+00
     -2.957  0.0000E+00  0.0000E+00
     -2.834  0.0000E+00  0.0000E+00
     -2.710  0.0000E+00  0.0000E+00
     -2.586  0.0000E+00  0.0000E+00
     -2.462  0.0000E+00  0.0000E+00
     -2.339  0.0000E+00  0.0000E+00
     -2.215 -0.2541E-30 -0.3145E-31
     -2.091 -0.3166E-22 -0.3919E-23
     -1.967 -0.1734E-15 -0.2147E-16
     -1.843 -0.4257E-10 -0.5269E-11
     -1.720 -0.4407E-06 -0.5455E-07
     -1.596 -0.1656E-03 -0.2055E-04
     -1.472 -0.5998E-03 -0.9479E-04
     -1.348  0.1955E-01  0.2325E-02
     -1.225  0.1240E+00  0.1767E-01
     -1.101  0.2567E+00  0.4945E-01
     -0.977  0.1880E+00  0.7271E-01
     -0.853  0.1857E+00  0.9570E-01
     -0.729  0.5816E+00  0.1677E+00
     -0.606  0.4376E+00  0.2219E+00
     -0.482  0.8678E-01  0.2326E+00
     -0.358  0.5591E+00  0.3018E+00
     -0.234  0.6093E+00  0.3772E+00
     -0.110  0.7175E+00  0.4660E+00
      0.013  0.2801E+00  0.5007E+00
      0.137  0.1102E+01  0.6371E+00
      0.261  0.5088E+00  0.7001E+00
      0.385  0.5143E+00  0.7638E+00
      0.508  0.1027E+01  0.8909E+00
      0.632  0.1369E+01  0.1060E+01
      0.756  0.1505E+01  0.1247E+01
      0.880  0.1771E+01  0.1466E+01
      1.004  0.2697E+01  0.1800E+01
      1.127  0.3899E+01  0.2282E+01
      1.251  0.4125E+01  0.2793E+01
      1.375  0.6950E+01  0.3653E+01
      1.499  0.8156E+01  0.4663E+01
      1.622  0.9754E+01  0.5870E+01
      1.746  0.9891E+01  0.7094E+01
      1.870  0.7364E+01  0.8006E+01
      1.994  0.9111E+01  0.9134E+01
      2.118  0.6388E+01  0.9924E+01
      2.241  0.6121E+01  0.1068E+02
      2.365  0.9954E+01  0.1191E+02
      2.489  0.1096E+02  0.1327E+02
      2.613  0.1030E+02  0.1454E+02
      2.736  0.1200E+02  0.1603E+02
      2.860  0.1113E+02  0.1741E+02
      2.984  0.1404E+02  0.1915E+02
      3.108  0.1894E+02  0.2149E+02
      3.232  0.1331E+02  0.2314E+02
      3.355  0.9345E+01  0.2430E+02
      3.479  0.9171E+01  0.2543E+02
      3.603  0.1048E+02  0.2673E+02
      3.727  0.1025E+02  0.2800E+02
      3.850  0.1103E+02  0.2936E+02
      3.974  0.1300E+02  0.3097E+02
      4.098  0.1075E+02  0.3230E+02
      4.222  0.8169E+01  0.3331E+02
      4.346  0.1053E+02  0.3462E+02
      4.469  0.9047E+01  0.3574E+02
      4.593  0.1121E+02  0.3713E+02
      4.717  0.1593E+02  0.3910E+02
      4.841  0.1245E+02  0.4064E+02
      4.965  0.8932E+01  0.4174E+02
      5.088  0.3777E+01  0.4221E+02
      5.212  0.5651E+00  0.4228E+02
      5.336  0.2811E+00  0.4232E+02
      5.460  0.6816E+00  0.4240E+02
      5.583  0.2170E+01  0.4267E+02
      5.707  0.2200E+01  0.4294E+02
      5.831  0.1160E+01  0.4308E+02
      5.955  0.7005E+00  0.4317E+02
      6.079  0.3335E+00  0.4321E+02
      6.202  0.1053E+01  0.4334E+02
      6.326  0.2159E+01  0.4361E+02
      6.450  0.1917E+01  0.4385E+02
      6.574  0.1465E+01  0.4403E+02
      6.697  0.3622E+00  0.4407E+02
      6.821  0.1505E+01  0.4426E+02
      6.945  0.6016E+00  0.4433E+02
      7.069  0.1540E+01  0.4452E+02
      7.193  0.1530E+01  0.4471E+02
      7.316  0.1423E+01  0.4489E+02
      7.440  0.7179E+00  0.4498E+02
      7.564  0.2026E+01  0.4523E+02
      7.688  0.6043E+00  0.4530E+02
      7.811  0.1657E+01  0.4551E+02
      7.935  0.1514E+01  0.4570E+02
      8.059  0.7851E+00  0.4579E+02
      8.183  0.1042E+01  0.4592E+02
      8.307  0.1253E+01  0.4608E+02
      8.430  0.2138E+01  0.4634E+02
      8.554  0.1112E+01  0.4648E+02
      8.678  0.2661E+00  0.4651E+02
      8.802  0.1312E+01  0.4668E+02
      8.926  0.1956E+01  0.4692E+02
      9.049  0.3103E+01  0.4730E+02
      9.173  0.1861E+01  0.4753E+02
      9.297  0.3105E+00  0.4757E+02
      9.421  0.1069E+01  0.4770E+02
      9.544  0.2697E+01  0.4804E+02
      9.668  0.1191E+01  0.4818E+02
      9.792  0.7376E+00  0.4828E+02
      9.916  0.1929E+01  0.4851E+02
     10.040  0.6008E+00  0.4859E+02
     10.163  0.5780E+00  0.4866E+02
     10.287  0.7703E+00  0.4876E+02
     10.411  0.1365E+01  0.4892E+02
     10.535  0.1120E+01  0.4906E+02
     10.658  0.1963E+01  0.4931E+02
     10.782  0.1866E+01  0.4954E+02
     10.906  0.1800E+01  0.4976E+02
     11.030  0.7653E+00  0.4985E+02
     11.154  0.7196E+00  0.4994E+02
     11.277  0.1706E+01  0.5015E+02
     11.401  0.2277E+01  0.5044E+02
     11.525  0.2906E+01  0.5080E+02
     11.649  0.2568E+00  0.5083E+02
     11.772  0.6404E+00  0.5091E+02
     11.896  0.1098E+01  0.5104E+02
     12.020  0.1808E+01  0.5127E+02
     12.144  0.2528E+01  0.5158E+02
     12.268  0.2029E+01  0.5183E+02
     12.391  0.9307E+00  0.5195E+02
     12.515  0.1144E+01  0.5209E+02
     12.639  0.5292E+00  0.5215E+02
     12.763  0.9304E+00  0.5227E+02
     12.886  0.2072E+01  0.5253E+02
     13.010  0.2396E+01  0.5282E+02
     13.134  0.1774E+01  0.5304E+02
     13.258  0.8147E+00  0.5314E+02
     13.382  0.5659E+00  0.5321E+02
     13.505  0.1717E+01  0.5342E+02
     13.629  0.8237E+00  0.5353E+02
     13.753  0.9259E+00  0.5364E+02
     13.877  0.1159E+01  0.5378E+02
     14.001  0.1936E+01  0.5402E+02
     14.124  0.1746E+01  0.5424E+02
     14.248  0.3810E+01  0.5471E+02
     14.372  0.2119E+01  0.5497E+02
     14.496  0.2160E+00  0.5500E+02
     14.619  0.1584E+01  0.5520E+02
     14.743  0.1915E+01  0.5543E+02
     14.867  0.2481E+00  0.5546E+02
     14.991  0.1205E+01  0.5561E+02
     15.115  0.1328E+01  0.5578E+02
     15.238  0.3488E+01  0.5621E+02
     15.362  0.2629E+01  0.5654E+02
     15.486  0.8670E+00  0.5664E+02
     15.610  0.8712E+00  0.5675E+02
     15.733  0.1878E+01  0.5698E+02
     15.857  0.1657E+01  0.5719E+02
     15.981  0.1583E+01  0.5738E+02
     16.105  0.2880E+01  0.5774E+02
     16.229  0.2297E+01  0.5803E+02
     16.352  0.3205E+01  0.5842E+02
     16.476  0.2088E+01  0.5868E+02
     16.600  0.2598E+01  0.5900E+02
     16.724  0.2019E+01  0.5925E+02
     16.847  0.3701E+01  0.5971E+02
     16.971  0.2569E+01  0.6003E+02
     17.095  0.1432E+01  0.6020E+02
     17.219  0.4672E+00  0.6026E+02
     17.343  0.2064E+01  0.6052E+02
     17.466  0.2765E+01  0.6086E+02
     17.590  0.3501E+00  0.6090E+02
     17.714  0.2291E+01  0.6119E+02
     17.838  0.2797E+01  0.6153E+02
     17.961  0.2447E+01  0.6184E+02
     18.085  0.4561E+01  0.6240E+02
     18.209  0.2246E+01  0.6268E+02
     18.333  0.1522E+01  0.6287E+02
     18.457  0.1912E+01  0.6310E+02
     18.580  0.2217E+01  0.6338E+02
     18.704  0.4166E+00  0.6343E+02
     18.828  0.1675E+01  0.6364E+02
     18.952  0.2144E+01  0.6390E+02
     19.076  0.2265E+01  0.6418E+02
     19.199  0.2855E+01  0.6454E+02
     19.323  0.3240E+01  0.6494E+02
     19.447  0.1901E+01  0.6517E+02
     19.571  0.1065E+01  0.6530E+02
     19.694  0.9238E+00  0.6542E+02
     19.818  0.2445E+01  0.6572E+02
     19.942  0.2198E+01  0.6599E+02
     20.066  0.4804E+00  0.6605E+02
     20.190  0.2795E+01  0.6640E+02
     20.313  0.2729E+01  0.6674E+02
     20.437  0.1538E+01  0.6693E+02
     20.561  0.2868E+01  0.6728E+02
     20.685  0.1551E+01  0.6747E+02
     20.808  0.3853E+01  0.6795E+02
     20.932  0.1016E+01  0.6808E+02
     21.056  0.1562E+01  0.6827E+02
     21.180  0.2846E+01  0.6862E+02
     21.304  0.2820E+01  0.6897E+02
     21.427  0.1389E+01  0.6914E+02
     21.551  0.1138E+01  0.6928E+02
     21.675  0.3082E+01  0.6967E+02
     21.799  0.2537E+01  0.6998E+02
     21.922  0.2869E+01  0.7034E+02
     22.046  0.3127E+01  0.7072E+02
     22.170  0.3530E+01  0.7116E+02
     22.294  0.3601E+01  0.7160E+02
     22.418  0.5352E+01  0.7227E+02
     22.541  0.5096E+01  0.7290E+02
     22.665  0.3701E+01  0.7336E+02
     22.789  0.2344E+01  0.7365E+02
     22.913  0.3962E+01  0.7414E+02
     23.037  0.5280E+01  0.7479E+02
     23.160  0.4282E+01  0.7532E+02
     23.284  0.2108E+01  0.7558E+02
     23.408  0.1042E+01  0.7571E+02
     23.532  0.3688E+01  0.7617E+02
     23.655  0.2295E+01  0.7645E+02
     23.779  0.2266E+01  0.7673E+02
     23.903  0.4793E+01  0.7732E+02
     24.027  0.3653E+01  0.7778E+02
     24.151  0.2588E+01  0.7810E+02
     24.274  0.1695E+01  0.7831E+02
     24.398  0.2789E+01  0.7865E+02
     24.522  0.2852E+01  0.7901E+02
     24.646  0.3202E+01  0.7940E+02
     24.769  0.2544E+01  0.7972E+02
     24.893  0.2385E+01  0.8001E+02
     25.017  0.1195E+01  0.8016E+02
     25.141  0.1379E+01  0.8033E+02
     25.265  0.8641E+00  0.8044E+02
     25.388  0.4858E+00  0.8050E+02
     25.512  0.2291E+01  0.8078E+02
     25.636  0.2768E+01  0.8112E+02
     25.760  0.9957E+00  0.8125E+02
     25.883  0.3240E+01  0.8165E+02
     26.007  0.3761E+01  0.8211E+02
     26.131  0.1809E+01  0.8234E+02
     26.255  0.1917E+01  0.8257E+02
     26.379  0.5863E+00  0.8265E+02
     26.502  0.1660E+01  0.8285E+02
     26.626  0.7027E+00  0.8294E+02
     26.750  0.6406E+00  0.8302E+02
     26.874  0.1081E+01  0.8315E+02
     26.997  0.1326E+01  0.8332E+02
     27.121  0.1728E+01  0.8353E+02
     27.245  0.1794E+01  0.8375E+02
     27.369  0.2102E+01  0.8401E+02
     27.493  0.3417E+01  0.8444E+02
     27.616  0.2011E+01  0.8468E+02
     27.740  0.2174E+01  0.8495E+02
     27.864  0.1866E+01  0.8518E+02
     27.988  0.9796E+00  0.8531E+02
     28.112  0.1874E+01  0.8554E+02
     28.235  0.2712E+01  0.8587E+02
     28.359  0.9828E+00  0.8600E+02
     28.483  0.3154E+01  0.8639E+02
     28.607  0.5131E+01  0.8702E+02
     28.730  0.3433E+01  0.8745E+02
     28.854  0.5000E+01  0.8806E+02
     28.978  0.4190E+01  0.8858E+02
     29.102  0.4336E+01  0.8912E+02
     29.226  0.2199E+01  0.8939E+02
     29.349  0.2391E+01  0.8969E+02
     29.473  0.3976E+01  0.9018E+02
     29.597  0.3735E+01  0.9064E+02
     29.721  0.3052E+01  0.9102E+02
     29.844  0.4300E+01  0.9155E+02
     29.968  0.4358E+01  0.9209E+02
     30.092  0.5499E+01  0.9277E+02
     30.216  0.3837E+01  0.9325E+02
     30.340  0.5170E+01  0.9389E+02
     30.463  0.2082E+01  0.9415E+02
     30.587  0.2462E+01  0.9445E+02
     30.711  0.3121E+01  0.9484E+02
     30.835  0.1070E+01  0.9497E+02
     30.958  0.9203E+00  0.9508E+02
     31.082  0.2027E+01  0.9533E+02
     31.206  0.1686E+01  0.9554E+02
     31.330  0.7197E+00  0.9563E+02
     31.454  0.1435E+01  0.9581E+02
     31.577  0.1342E+01  0.9598E+02
     31.701  0.9311E-02  0.9598E+02
     31.825 -0.1049E-01  0.9598E+02
     31.949 -0.5260E-04  0.9598E+02
     32.073 -0.6989E-04  0.9598E+02
     32.196 -0.5263E-02  0.9597E+02
     32.320  0.5974E-01  0.9598E+02
     32.444  0.1488E+00  0.9600E+02
     32.568 -0.2869E-02  0.9600E+02
     32.691 -0.8295E-03  0.9600E+02
     32.815 -0.1500E-05  0.9600E+02
     32.939 -0.1054E-09  0.9600E+02
     33.063 -0.3297E-15  0.9600E+02
     33.187  0.0000E+00  0.9600E+02
     33.310  0.0000E+00  0.9600E+02
     33.434  0.0000E+00  0.9600E+02
     33.558  0.0000E+00  0.9600E+02
     33.682  0.0000E+00  0.9600E+02
     33.805  0.0000E+00  0.9600E+02
     33.929  0.0000E+00  0.9600E+02
     34.053  0.0000E+00  0.9600E+02
