    4    4    1    1
  0.2060662E+02  0.4352000E-09  0.4352000E-09  0.4352000E-09  0.5000000E-15
  1.000000000000000E-004
  CAR 
 unknown system                          
     44     35     48
 
  0.0000000E+00  0.0000000E+00  0.0000000E+00  0.1371742E-02
    1       -1.393304   1.000000
    2        1.118604   1.000000
    3        1.118604   1.000000
    4        1.118604   1.000000
    5        1.340170   1.000000
    6        1.340170   1.000000
    7        1.340170   1.000000
    8        2.828096   1.000000
    9        2.828096   1.000000
   10        2.828096   1.000000
   11        3.907970   1.000000
   12        3.907970   1.000000
   13        4.729129   1.000000
   14        4.729129   1.000000
   15        4.729129   1.000000
   16        4.991251   1.000000
   17        4.991251   1.000000
   18        4.991251   1.000000
   19        4.991251   1.000000
   20        4.991251   1.000000
   21        4.991251   1.000000
   22        8.151756  -0.000000
   23        8.151756  -0.000000
   24        8.151756  -0.000000
   25       11.015825   0.000000
   26       11.015825   0.000000
   27       11.015825   0.000000
   28       16.067149   0.000000
   29       16.067149   0.000000
   30       16.067149   0.000000
   31       16.067149   0.000000
   32       16.067149   0.000000
   33       16.067149   0.000000
   34       21.236417   0.000000
   35       21.882411   0.000000
   36       21.882411   0.000000
   37       21.882411   0.000000
   38       24.044014   0.000000
   39       24.044014   0.000000
   40       24.044014   0.000000
   41       24.131768   0.000000
   42       24.131768   0.000000
   43       24.131768   0.000000
   44       28.500910   0.000000
   45       31.413900   0.000000
   46       31.413900   0.000000
   47       31.413900   0.000000
   48       32.365073   0.000000
 
  0.1111111E+00  0.0000000E+00  0.0000000E+00  0.8230453E-02
    1       -1.271684   1.000000
    2        1.153035   1.000000
    3        1.193029   1.000000
    4        1.193029   1.000000
    5        1.379446   1.000000
    6        1.400137   1.000000
    7        1.400137   1.000000
    8        2.776248   1.000000
    9        2.875973   1.000000
   10        2.875973   1.000000
   11        3.853789   1.000000
   12        3.931104   1.000000
   13        4.653187   1.000000
   14        4.653187   1.000000
   15        4.702554   1.000000
   16        4.703144   1.000000
   17        4.703144   1.000000
   18        4.897931   1.000000
   19        4.897931   1.000000
   20        4.991425   1.000000
   21        4.991425   1.000000
   22        7.134527  -0.000000
   23        8.534833  -0.000000
   24        8.534833  -0.000000
   25       10.936687   0.000000
   26       10.936687   0.000000
   27       12.250706   0.000000
   28       15.813338   0.000000
   29       15.813338   0.000000
   30       15.868226   0.000000
   31       15.868226   0.000000
   32       16.298853   0.000000
   33       16.298853   0.000000
   34       21.340694   0.000000
   35       21.832424   0.000000
   36       22.461776   0.000000
   37       22.461776   0.000000
   38       23.668532   0.000000
   39       23.924281   0.000000
   40       23.924281   0.000000
   41       23.977934   0.000000
   42       24.267142   0.000000
   43       24.267142   0.000000
   44       29.257825   0.000000
   45       30.413460   0.000000
   46       30.413460   0.000000
   47       31.166728   0.000000
   48       31.541521   0.000000
 
  0.2222222E+00  0.0000000E+00  0.0000000E+00  0.8230453E-02
    1       -0.913702   1.000000
    2        1.230772   1.000000
    3        1.401429   1.000000
    4        1.401429   1.000000
    5        1.494098   1.000000
    6        1.579627   1.000000
    7        1.579627   1.000000
    8        2.629995   1.000000
    9        3.017862   1.000000
   10        3.017862   1.000000
   11        3.704857   1.000000
   12        3.998239   1.000000
   13        4.088952   1.000000
   14        4.088952   1.000000
   15        4.437487   1.000000
   16        4.437487   1.000000
   17        4.626805   1.000000
   18        4.644929   1.000000
   19        4.644929   1.000000
   20        4.991777   1.000000
   21        4.991777   1.000000
   22        5.588770   1.000000
   23        9.429252   0.000000
   24        9.429252   0.000000
   25       10.740755   0.000000
   26       10.740755   0.000000
   27       14.467697   0.000000
   28       15.120411   0.000000
   29       15.120411   0.000000
   30       15.482328   0.000000
   31       15.482328   0.000000
   32       16.962186   0.000000
   33       16.962186   0.000000
   34       21.634089   0.000000
   35       21.713350   0.000000
   36       22.847151   0.000000
   37       23.232435   0.000000
   38       23.232435   0.000000
   39       23.781756   0.000000
   40       23.941164   0.000000
   41       23.941164   0.000000
   42       24.892209   0.000000
   43       24.892209   0.000000
   44       28.310552   0.000000
   45       29.703778   0.000000
   46       29.703778   0.000000
   47       31.423693   0.000000
   48       31.487516   0.000000
 
  0.3333333E+00  0.0000000E+00  0.0000000E+00  0.8230453E-02
    1       -0.346056   1.000000
    2        1.249510   1.000000
    3        1.674552   1.000000
    4        1.689598   1.000000
    5        1.689598   1.000000
    6        1.877291   1.000000
    7        1.877291   1.000000
    8        2.413948   1.000000
    9        3.247736   1.000000
   10        3.247736   1.000000
   11        3.422877   1.000000
   12        3.422877   1.000000
   13        3.506810   1.000000
   14        4.102631   1.000000
   15        4.134701   1.000000
   16        4.134701   1.000000
   17        4.282923   1.000000
   18        4.294898   1.000000
   19        4.294898   1.000000
   20        4.512551   1.000000
   21        4.992200   1.000000
   22        4.992200   1.000000
   23       10.527604   0.000000
   24       10.527604   0.000000
   25       10.546421   0.000000
   26       10.546421   0.000000
   27       14.130645   0.000000
   28       14.130645   0.000000
   29       15.166204   0.000000
   30       15.166204   0.000000
   31       16.978453   0.000000
   32       17.978774   0.000000
   33       17.978774   0.000000
   34       21.603946   0.000000
   35       22.063778   0.000000
   36       22.069759   0.000000
   37       22.069759   0.000000
   38       22.162646   0.000000
   39       23.463792   0.000000
   40       25.453461   0.000000
   41       25.837917   0.000000
   42       25.837917   0.000000
   43       25.922998   0.000000
   44       25.922998   0.000000
   45       29.762124   0.000000
   46       29.762124   0.000000
   47       30.006863   0.000000
   48       30.006863   0.000000
 
  0.4444444E+00  0.0000000E+00  0.0000000E+00  0.8230453E-02
    1        0.355601   1.000000
    2        0.983493   1.000000
    3        1.904558   1.000000
    4        1.930062   1.000000
    5        1.930062   1.000000
    6        2.160888   1.000000
    7        2.289890   1.000000
    8        2.289890   1.000000
    9        2.810407   1.000000
   10        2.810407   1.000000
   11        3.364145   1.000000
   12        3.517688   1.000000
   13        3.553486   1.000000
   14        3.553486   1.000000
   15        3.881074   1.000000
   16        3.881074   1.000000
   17        3.913989   1.000000
   18        3.913989   1.000000
   19        4.233175   1.000000
   20        4.375508   1.000000
   21        4.992421   1.000000
   22        4.992421   1.000000
   23       10.394917   0.000000
   24       10.394917   0.000000
   25       11.755002   0.000000
   26       11.755002   0.000000
   27       12.975765   0.000000
   28       12.975765   0.000000
   29       15.003332   0.000000
   30       15.003332   0.000000
   31       19.250782   0.000000
   32       19.250782   0.000000
   33       19.663029   0.000000
   34       20.665567   0.000000
   35       20.665567   0.000000
   36       21.606451   0.000000
   37       21.698173   0.000000
   38       22.557628   0.000000
   39       22.580687   0.000000
   40       23.043482   0.000000
   41       27.042539   0.000000
   42       27.042539   0.000000
   43       27.984905   0.000000
   44       27.984905   0.000000
   45       28.458061   0.000000
   46       28.458061   0.000000
   47       30.456327   0.000000
   48       30.456328   0.000000
 
  0.1111111E+00  0.1111111E+00  0.0000000E+00  0.1646091E-01
    1       -1.152158   1.000000
    2        1.228875   1.000000
    3        1.228875   1.000000
    4        1.248673   1.000000
    5        1.438023   1.000000
    6        1.438023   1.000000
    7        1.473283   1.000000
    8        2.757243   1.000000
    9        2.893492   1.000000
   10        2.916475   1.000000
   11        3.840715   1.000000
   12        3.922301   1.000000
   13        4.505859   1.000000
   14        4.505859   1.000000
   15        4.521898   1.000000
   16        4.584445   1.000000
   17        4.708796   1.000000
   18        4.708796   1.000000
   19        4.897551   1.000000
   20        4.897551   1.000000
   21        4.928130   1.000000
   22        7.495268  -0.000000
   23        7.495268  -0.000000
   24        8.875392  -0.000000
   25       10.837883   0.000000
   26       12.183003   0.000000
   27       12.183003   0.000000
   28       14.964793   0.000000
   29       16.038546   0.000000
   30       16.038546   0.000000
   31       16.110517   0.000000
   32       16.110517   0.000000
   33       16.501804   0.000000
   34       21.393585   0.000000
   35       22.425847   0.000000
   36       22.425847   0.000000
   37       22.561002   0.000000
   38       22.667356   0.000000
   39       23.765753   0.000000
   40       24.211583   0.000000
   41       24.211583   0.000000
   42       24.600003   0.000000
   43       24.746074   0.000000
   44       28.591807   0.000000
   45       30.248178   0.000000
   46       30.637798   0.000000
   47       31.278019   0.000000
   48       31.331547   0.000000
 
  0.2222222E+00  0.1111111E+00  0.0000000E+00  0.3292181E-01
    1       -0.800499   1.000000
    2        1.310967   1.000000
    3        1.411918   1.000000
    4        1.441830   1.000000
    5        1.548610   1.000000
    6        1.613265   1.000000
    7        1.680637   1.000000
    8        2.633012   1.000000
    9        3.020107   1.000000
   10        3.031785   1.000000
   11        3.719899   1.000000
   12        3.906863   1.000000
   13        3.992644   1.000000
   14        4.003538   1.000000
   15        4.168970   1.000000
   16        4.387178   1.000000
   17        4.480240   1.000000
   18        4.626083   1.000000
   19        4.643496   1.000000
   20        4.896120   1.000000
   21        4.896561   1.000000
   22        6.045870   1.000000
   23        8.231490  -0.000000
   24        9.708959   0.000000
   25       10.579157   0.000000
   26       12.044244   0.000000
   27       14.141568   0.000000
   28       14.256637   0.000000
   29       15.333222   0.000000
   30       15.783974   0.000000
   31       16.629993   0.000000
   32       16.680369   0.000000
   33       16.839979   0.000000
   34       21.459193   0.000000
   35       21.523837   0.000000
   36       22.356961   0.000000
   37       23.177571   0.000000
   38       23.320935   0.000000
   39       23.908281   0.000000
   40       24.047828   0.000000
   41       24.582841   0.000000
   42       24.860981   0.000000
   43       25.898540   0.000000
   44       27.459384   0.000000
   45       29.731154   0.000000
   46       29.882610   0.000000
   47       31.409970   0.000000
   48       31.509079   0.000000
 
  0.3333333E+00  0.1111111E+00  0.0000000E+00  0.3292181E-01
    1       -0.243358   1.000000
    2        1.335361   1.000000
    3        1.669163   1.000000
    4        1.722432   1.000000
    5        1.738650   1.000000
    6        1.903268   1.000000
    7        1.978218   1.000000
    8        2.430107   1.000000
    9        3.174388   1.000000
   10        3.246355   1.000000
   11        3.266795   1.000000
   12        3.388336   1.000000
   13        3.588820   1.000000
   14        3.666313   1.000000
   15        4.107989   1.000000
   16        4.123199   1.000000
   17        4.183464   1.000000
   18        4.292541   1.000000
   19        4.432319   1.000000
   20        4.890402   1.000000
   21        4.894862   1.000000
   22        4.990976   1.000000
   23        8.974354  -0.000000
   24       10.251572   0.000000
   25       10.785969   0.000000
   26       12.010350   0.000000
   27       13.425183   0.000000
   28       14.335438   0.000000
   29       15.597020   0.000000
   30       16.311193   0.000000
   31       16.313095   0.000000
   32       17.653674   0.000000
   33       18.152614   0.000000
   34       20.415057   0.000000
   35       21.119026   0.000000
   36       22.359317   0.000000
   37       22.974873   0.000000
   38       23.757722   0.000000
   39       23.786377   0.000000
   40       24.359890   0.000000
   41       25.545828   0.000000
   42       25.768846   0.000000
   43       25.833757   0.000000
   44       27.479211   0.000000
   45       29.205747   0.000000
   46       29.965178   0.000000
   47       29.973350   0.000000
   48       30.074274   0.000000
 
  0.4444444E+00  0.1111111E+00  0.0000000E+00  0.3292181E-01
    1        0.446136   1.000000
    2        1.069476   1.000000
    3        1.943485   1.000000
    4        1.950772   1.000000
    5        1.987718   1.000000
    6        2.189024   1.000000
    7        2.297504   1.000000
    8        2.303832   1.000000
    9        2.706935   1.000000
   10        2.805661   1.000000
   11        3.177727   1.000000
   12        3.244271   1.000000
   13        3.550916   1.000000
   14        3.709749   1.000000
   15        3.883307   1.000000
   16        3.911189   1.000000
   17        3.917410   1.000000
   18        4.063311   1.000000
   19        4.295440   1.000000
   20        4.520631   1.000000
   21        4.890749   1.000000
   22        4.892709   1.000000
   23        9.536841   0.000000
   24        9.920077   0.000000
   25       11.971508   0.000000
   26       12.260202   0.000000
   27       12.781549   0.000000
   28       13.181362   0.000000
   29       15.635432   0.000000
   30       15.900170   0.000000
   31       17.947402   0.000000
   32       18.845096   0.000000
   33       19.258957   0.000000
   34       20.099763   0.000000
   35       20.208916   0.000000
   36       22.502257   0.000000
   37       22.584013   0.000000
   38       23.119094   0.000000
   39       23.358490   0.000000
   40       23.454221   0.000000
   41       25.769594   0.000000
   42       26.810432   0.000000
   43       27.064256   0.000000
   44       28.504705   0.000000
   45       29.338429   0.000000
   46       29.512994   0.000000
   47       29.849944   0.000000
   48       30.607188   0.000000
 
  0.2222222E+00  0.2222222E+00  0.0000000E+00  0.1646091E-01
    1       -0.468356   1.000000
    2        1.496356   1.000000
    3        1.538095   1.000000
    4        1.538095   1.000000
    5        1.711138   1.000000
    6        1.711138   1.000000
    7        1.915058   1.000000
    8        2.591894   1.000000
    9        3.072928   1.000000
   10        3.082233   1.000000
   11        3.526453   1.000000
   12        3.526453   1.000000
   13        3.681702   1.000000
   14        3.716796   1.000000
   15        4.067415   1.000000
   16        4.237512   1.000000
   17        4.457217   1.000000
   18        4.457217   1.000000
   19        4.639653   1.000000
   20        4.639653   1.000000
   21        4.744746   1.000000
   22        6.795116  -0.000519
   23        6.795116  -0.000519
   24       10.130601   0.000000
   25       10.438438   0.000000
   26       13.351604   0.000000
   27       13.735212   0.000000
   28       13.735212   0.000000
   29       15.935260   0.000000
   30       15.935260   0.000000
   31       16.745146   0.000000
   32       16.745146   0.000000
   33       17.708188   0.000000
   34       20.138775   0.000000
   35       20.942614   0.000000
   36       22.614291   0.000000
   37       23.548762   0.000000
   38       23.862001   0.000000
   39       23.862001   0.000000
   40       24.768328   0.000000
   41       24.768328   0.000000
   42       25.943926   0.000000
   43       25.947649   0.000000
   44       27.400206   0.000000
   45       29.120332   0.000000
   46       30.346854   0.000000
   47       30.940641   0.000000
   48       31.094447   0.000000
 
  0.3333333E+00  0.2222222E+00  0.0000000E+00  0.3292181E-01
    1        0.055347   1.000000
    2        1.579680   1.000000
    3        1.683993   1.000000
    4        1.863865   1.000000
    5        1.863933   1.000000
    6        1.978088   1.000000
    7        2.193626   1.000000
    8        2.457050   1.000000
    9        2.935245   1.000000
   10        3.095926   1.000000
   11        3.107021   1.000000
   12        3.267261   1.000000
   13        3.269264   1.000000
   14        3.610485   1.000000
   15        4.017206   1.000000
   16        4.200440   1.000000
   17        4.274899   1.000000
   18        4.287094   1.000000
   19        4.289484   1.000000
   20        4.634803   1.000000
   21        4.665063   1.000000
   22        5.691819   1.000000
   23        7.546244  -0.000000
   24        9.524763   0.000000
   25       11.435225   0.000000
   26       12.906350   0.000000
   27       13.186339   0.000000
   28       14.911883   0.000000
   29       15.185711   0.000000
   30       16.836044   0.000000
   31       16.873473   0.000000
   32       18.015135   0.000000
   33       18.396392   0.000000
   34       18.863047   0.000000
   35       20.114169   0.000000
   36       23.052791   0.000000
   37       23.844636   0.000000
   38       23.938972   0.000000
   39       24.344850   0.000000
   40       24.616321   0.000000
   41       25.423792   0.000000
   42       25.816569   0.000000
   43       26.485449   0.000000
   44       28.053383   0.000000
   45       29.065046   0.000000
   46       29.864577   0.000000
   47       30.278233   0.000000
   48       30.482156   0.000000
 
  0.4444444E+00  0.2222222E+00  0.0000000E+00  0.3292181E-01
    1        0.703460   1.000000
    2        1.308624   1.000000
    3        1.969237   1.000000
    4        2.055820   1.000000
    5        2.152182   1.000000
    6        2.263951   1.000000
    7        2.341494   1.000000
    8        2.372655   1.000000
    9        2.467699   1.000000
   10        2.784216   1.000000
   11        2.906000   1.000000
   12        2.994337   1.000000
   13        3.554225   1.000000
   14        3.720678   1.000000
   15        3.855372   1.000000
   16        3.907416   1.000000
   17        3.940677   1.000000
   18        3.999889   1.000000
   19        4.572797   1.000000
   20        4.631976   1.000000
   21        4.637448   1.000000
   22        4.995085   1.000000
   23        8.242339  -0.000000
   24        8.889511  -0.000000
   25       12.570748   0.000000
   26       12.737778   0.000000
   27       12.829736   0.000000
   28       13.756716   0.000000
   29       16.446677   0.000000
   30       17.209680   0.000000
   31       17.650799   0.000000
   32       17.672477   0.000000
   33       17.920849   0.000000
   34       19.061085   0.000000
   35       20.471555   0.000000
   36       22.558664   0.000000
   37       24.144307   0.000000
   38       24.304391   0.000000
   39       24.327636   0.000000
   40       24.406913   0.000000
   41       25.248937   0.000000
   42       25.551514   0.000000
   43       27.117439   0.000000
   44       28.630622   0.000000
   45       28.693685   0.000000
   46       29.623550   0.000000
   47       30.337427   0.000000
   48       30.855797   0.000000
 
  0.3333333E+00  0.3333333E+00  0.0000000E+00  0.1646091E-01
    1        0.518094   1.000000
    2        1.775540   1.000000
    3        1.934313   1.000000
    4        1.934313   1.000000
    5        2.091744   1.000000
    6        2.091744   1.000000
    7        2.432800   1.000000
    8        2.441271   1.000000
    9        2.640329   1.000000
   10        2.640329   1.000000
   11        3.040912   1.000000
   12        3.048108   1.000000
   13        3.372303   1.000000
   14        3.528151   1.000000
   15        3.859926   1.000000
   16        4.070338   1.000000
   17        4.070338   1.000000
   18        4.284281   1.000000
   19        4.284281   1.000000
   20        4.460225   1.000000
   21        4.590665   1.000000
   22        6.394623   1.033911
   23        6.394623   1.033911
   24        8.647177  -0.000000
   25       12.359927   0.000000
   26       12.784523   0.000000
   27       14.168707   0.000000
   28       14.168707   0.000000
   29       15.769547   0.000000
   30       15.769547   0.000000
   31       17.483003   0.000000
   32       18.732307   0.000000
   33       18.732307   0.000000
   34       19.042474   0.000000
   35       19.484031   0.000000
   36       22.319061   0.000000
   37       23.847275   0.000000
   38       24.634580   0.000000
   39       25.119821   0.000000
   40       25.119821   0.000000
   41       25.762807   0.000000
   42       25.762807   0.000000
   43       26.581467   0.000000
   44       28.044145   0.000000
   45       29.677129   0.000000
   46       29.677130   0.000000
   47       30.428734   0.000000
   48       30.576981   0.000000
 
  0.4444444E+00  0.3333333E+00  0.0000000E+00  0.3292181E-01
    1        1.080091   1.000000
    2        1.627598   1.000000
    3        1.952838   1.000000
    4        2.179611   1.000000
    5        2.226632   1.000000
    6        2.355527   1.000000
    7        2.389735   1.000000
    8        2.396689   1.000000
    9        2.544771   1.000000
   10        2.688731   1.000000
   11        2.725311   1.000000
   12        2.909408   1.000000
   13        3.576367   1.000000
   14        3.597456   1.000000
   15        3.739987   1.000000
   16        3.812767   1.000000
   17        3.837763   1.000000
   18        3.918004   1.000000
   19        4.295775   1.000000
   20        4.343215   1.000000
   21        5.013073   1.000000
   22        5.575682   1.000000
   23        7.095895  -0.000000
   24        7.829856  -0.000000
   25       12.957025   0.000000
   26       13.414765   0.000000
   27       13.446059   0.000000
   28       14.608080   0.000000
   29       15.163449   0.000000
   30       16.257888   0.000000
   31       16.804804   0.000000
   32       17.921987   0.000000
   33       19.202668   0.000000
   34       19.703042   0.000000
   35       20.790282   0.000000
   36       22.651078   0.000000
   37       23.062135   0.000000
   38       24.522455   0.000000
   39       25.071013   0.000000
   40       25.248369   0.000000
   41       25.501734   0.000000
   42       25.608355   0.000000
   43       27.140905   0.000000
   44       28.725659   0.000000
   45       28.957007   0.000000
   46       29.406168   0.000000
   47       30.608032   0.000000
   48       30.838087   0.000000
 
  0.4444444E+00  0.4444444E+00  0.0000000E+00  0.1646091E-01
    1        1.492618   1.000000
    2        1.862168   1.000000
    3        1.862168   1.000000
    4        1.930676   1.000000
    5        2.418413   1.000000
    6        2.425270   1.000000
    7        2.425270   1.000000
    8        2.604939   1.000000
    9        2.668180   1.000000
   10        2.668180   1.000000
   11        2.694036   1.000000
   12        2.858612   1.000000
   13        3.476685   1.000000
   14        3.585867   1.000000
   15        3.617287   1.000000
   16        3.617287   1.000000
   17        3.728738   1.000000
   18        3.971730   1.000000
   19        3.971730   1.000000
   20        4.107193   1.000000
   21        5.546100   1.000000
   22        6.209696   1.000033
   23        6.209696   1.000033
   24        6.937708  -0.000000
   25       13.421991   0.000000
   26       14.152643   0.000000
   27       14.152643   0.000000
   28       14.495171   0.000000
   29       15.094264   0.000000
   30       15.637433   0.000000
   31       15.637433   0.000000
   32       16.763242   0.000000
   33       21.278304   0.000000
   34       21.278304   0.000000
   35       21.643929   0.000000
   36       22.227037   0.000000
   37       22.656285   0.000000
   38       23.823131   0.000000
   39       23.823131   0.000000
   40       24.048988   0.000000
   41       26.270942   0.000000
   42       26.942681   0.000000
   43       26.942681   0.000000
   44       28.213607   0.000000
   45       30.322985   0.000000
   46       30.353562   0.000000
   47       30.647286   0.000000
   48       30.661518   0.000000
 
  0.1111111E+00  0.1111111E+00  0.1111111E+00  0.1097394E-01
    1       -1.035224   1.000000
    2        1.283293   1.000000
    3        1.283293   1.000000
    4        1.283293   1.000000
    5        1.511900   1.000000
    6        1.511900   1.000000
    7        1.511900   1.000000
    8        2.745796   1.000000
    9        2.927900   1.000000
   10        2.927900   1.000000
   11        3.875221   1.000000
   12        3.875221   1.000000
   13        4.387910   1.000000
   14        4.387910   1.000000
   15        4.387910   1.000000
   16        4.503251   1.000000
   17        4.503251   1.000000
   18        4.503251   1.000000
   19        4.903878   1.000000
   20        4.903878   1.000000
   21        4.903878   1.000000
   22        7.793179  -0.000000
   23        7.793179  -0.000000
   24        7.793179  -0.000000
   25       12.069163   0.000000
   26       12.069163   0.000000
   27       12.069163   0.000000
   28       15.267259   0.000000
   29       15.267259   0.000000
   30       15.267259   0.000000
   31       16.715872   0.000000
   32       16.715872   0.000000
   33       16.715872   0.000000
   34       21.207402   0.000000
   35       22.128812   0.000000
   36       22.510616   0.000000
   37       22.510616   0.000000
   38       22.510616   0.000000
   39       24.369963   0.000000
   40       24.369963   0.000000
   41       24.714765   0.000000
   42       24.714765   0.000000
   43       24.714765   0.000000
   44       28.202769   0.000000
   45       29.936071   0.000000
   46       29.936071   0.000000
   47       31.240546   0.000000
   48       32.346193   0.000000
 
  0.2222222E+00  0.1111111E+00  0.1111111E+00  0.3292181E-01
    1       -0.691765   1.000000
    2        1.362274   1.000000
    3        1.443347   1.000000
    4        1.443347   1.000000
    5        1.624349   1.000000
    6        1.720589   1.000000
    7        1.720589   1.000000
    8        2.644512   1.000000
    9        3.025418   1.000000
   10        3.031040   1.000000
   11        3.757086   1.000000
   12        3.846595   1.000000
   13        3.846595   1.000000
   14        3.974266   1.000000
   15        4.010485   1.000000
   16        4.292543   1.000000
   17        4.347954   1.000000
   18        4.347954   1.000000
   19        4.822015   1.000000
   20        4.868576   1.000000
   21        4.868576   1.000000
   22        6.348429   1.014634
   23        8.447015  -0.000000
   24        8.447015  -0.000000
   25       11.778550   0.000000
   26       11.778550   0.000000
   27       13.885232   0.000000
   28       14.618964   0.000000
   29       14.618964   0.000000
   30       16.232258   0.000000
   31       16.825465   0.000000
   32       16.825465   0.000000
   33       17.334861   0.000000
   34       20.328104   0.000000
   35       21.979087   0.000000
   36       22.391541   0.000000
   37       23.117229   0.000000
   38       23.117229   0.000000
   39       23.604398   0.000000
   40       24.630201   0.000000
   41       24.848656   0.000000
   42       25.897266   0.000000
   43       25.897266   0.000000
   44       27.138367   0.000000
   45       29.264762   0.000000
   46       29.640976   0.000000
   47       31.450477   0.000000
   48       31.450870   0.000000
 
  0.3333333E+00  0.1111111E+00  0.1111111E+00  0.3292181E-01
    1       -0.149025   1.000000
    2        1.386213   1.000000
    3        1.698372   1.000000
    4        1.698372   1.000000
    5        1.796480   1.000000
    6        2.014063   1.000000
    7        2.014063   1.000000
    8        2.459453   1.000000
    9        3.144050   1.000000
   10        3.201454   1.000000
   11        3.255634   1.000000
   12        3.255634   1.000000
   13        3.490363   1.000000
   14        3.686814   1.000000
   15        4.011187   1.000000
   16        4.111345   1.000000
   17        4.111345   1.000000
   18        4.125249   1.000000
   19        4.682510   1.000000
   20        4.836719   1.000000
   21        4.836719   1.000000
   22        5.205621   1.000000
   23        9.118509  -0.000000
   24        9.118509  -0.000000
   25       11.468758   0.000000
   26       11.468758   0.000000
   27       14.199265   0.000000
   28       14.199265   0.000000
   29       15.459950   0.000000
   30       16.517466   0.000000
   31       16.517466   0.000000
   32       17.965402   0.000000
   33       18.299063   0.000000
   34       19.199341   0.000000
   35       22.086672   0.000000
   36       22.277404   0.000000
   37       22.363804   0.000000
   38       24.266501   0.000000
   39       24.266501   0.000000
   40       24.520410   0.000000
   41       24.526181   0.000000
   42       25.547585   0.000000
   43       27.429339   0.000000
   44       27.429339   0.000000
   45       29.362680   0.000000
   46       29.476494   0.000000
   47       30.040767   0.000000
   48       30.040767   0.000000
 
  0.4444444E+00  0.1111111E+00  0.1111111E+00  0.3292181E-01
    1        0.520641   1.000000
    2        1.126913   1.000000