       N       E                     dE             d eps       ncg     rms          rms(c)
DAV:   1     0.174879337982E+03    0.17488E+03   -0.18427E+04  3456   0.696E+02
DAV:   2    -0.109933129089E+02   -0.18587E+03   -0.17348E+03  4296   0.169E+02
DAV:   3    -0.133371725817E+02   -0.23439E+01   -0.23413E+01  4368   0.189E+01
DAV:   4    -0.133478634327E+02   -0.10691E-01   -0.10691E-01  4680   0.147E+00
DAV:   5    -0.133479767394E+02   -0.11331E-03   -0.11331E-03  4272   0.153E-01    0.105E+01
DAV:   6    -0.124277734458E+02    0.92020E+00   -0.20480E+00  4392   0.669E+00    0.759E+00
DAV:   7    -0.123986474848E+02    0.29126E-01   -0.74519E-02  4440   0.129E+00    0.437E+00
DAV:   8    -0.123948790839E+02    0.37684E-02   -0.32119E-03  4368   0.230E-01    0.313E-01
DAV:   9    -0.123948625828E+02    0.16501E-04   -0.56624E-05  3504   0.326E-02
   1 F= -.12394863E+02 E0= -.12394910E+02  d E =0.142143E-03
