 vasp.5.4.1 05Feb16 (build Feb 08 2018 09:21:51) complex                        
  
 executed on             LinuxIFC date 2019.11.21  15:55:57
 running on   24 total cores
 distrk:  each k-point on   24 cores,    1 groups
 distr:  one band on NCORES_PER_BAND=   1 cores,   24 groups


--------------------------------------------------------------------------------------------------------


 INCAR:
 POTCAR:    PAW_PBE Au 04Oct2007                  

 ----------------------------------------------------------------------------- 
|                                                                             |
|           W    W    AA    RRRRR   N    N  II  N    N   GGGG   !!!           |
|           W    W   A  A   R    R  NN   N  II  NN   N  G    G  !!!           |
|           W    W  A    A  R    R  N N  N  II  N N  N  G       !!!           |
|           W WW W  AAAAAA  RRRRR   N  N N  II  N  N N  G  GGG   !            |
|           WW  WW  A    A  R   R   N   NN  II  N   NN  G    G                |
|           W    W  A    A  R    R  N    N  II  N    N   GGGG   !!!           |
|                                                                             |
|      For optimal performance we recommend to set                            |
|        NCORE= 4 - approx SQRT( number of cores)                             |
|      NCORE specifies how many cores store one orbital (NPAR=cpu/NCORE).     |
|      This setting can  greatly improve the performance of VASP for DFT.     |
|      The default, NPAR=number of cores might be grossly inefficient         |
|      on modern multi-core architectures or massively parallel machines.     |
|      Do your own testing !!!!                                               |
|      Unfortunately you need to use the default for GW and RPA calculations. |
|      (for HF NCORE is supported but not extensively tested yet)             |
|                                                                             |
 ----------------------------------------------------------------------------- 

 POTCAR:    PAW_PBE Au 04Oct2007                  
   VRHFIN =Au: s1d10                                                            
   LEXCH  = PE                                                                  
   EATOM  =   926.0867 eV,   68.0654 Ry                                         
                                                                                
   TITEL  = PAW_PBE Au 04Oct2007                                                
   LULTRA =        F    use ultrasoft PP ?                                      
   IUNSCR =        1    unscreen: 0-lin 1-nonlin 2-no                           
   RPACOR =    2.330    partial core radius                                     
   POMASS =  196.966; ZVAL   =   11.000    mass and valenz                      
   RCORE  =    2.500    outmost cutoff radius                                   
   RWIGS  =    2.840; RWIGS  =    1.503    wigner-seitz radius (au A)           
   ENMAX  =  229.943; ENMIN  =  172.457 eV                                      
   ICORE  =        3    local potential                                         
   LCOR   =        T    correct aug charges                                     
   LPAW   =        T    paw PP                                                  
   EAUG   =  356.670                                                            
   DEXC   =    0.000                                                            
   RMAX   =    2.562    core radius for proj-oper                               
   RAUG   =    1.300    factor for augmentation sphere                          
   RDEP   =    2.598    radius for radial grids                                 
   RDEPT  =    2.193    core radius for aug-charge                              
                                                                                
   Atomic configuration                                                         
   16 entries                                                                   
     n  l   j            E        occ.                                          
     1  0  0.50    -80748.5001   2.0000                                         
     2  0  0.50    -14244.7466   2.0000                                         
     2  1  1.50    -12310.9591   6.0000                                         
     3  0  0.50     -3362.1768   2.0000                                         
     3  1  1.50     -2801.5463   6.0000                                         
     3  2  2.50     -2203.8206  10.0000                                         
     4  0  0.50      -729.8168   2.0000                                         
     4  1  1.50      -546.0527   6.0000                                         
     4  2  2.50      -325.7302  10.0000                                         
     4  3  3.50       -81.1472  14.0000                                         
     5  0  0.50      -108.3201   2.0000                                         
     5  1  1.50       -59.7479   6.0000                                         
     5  2  2.50        -6.8783  10.0000                                         
     6  0  0.50        -5.7602   1.0000                                         
     6  1  1.50        -6.8029   0.0000                                         
     5  3  2.50        -1.3606   0.0000                                         
   Description                                                                  
     l       E           TYP  RCUT    TYP  RCUT                                 
     2     -6.8782861     23  2.500                                             
     2     -8.2388687     23  2.500                                             
     0     -5.7601759     23  2.500                                             
     0     -0.8493231     23  2.500                                             
     1     -2.7211652     23  2.500                                             
     1     27.2116520     23  2.500                                             
     3     -1.3605826     23  2.500                                             
  local pseudopotential read in
  partial core-charges read in
  partial kinetic energy density read in
  atomic valenz-charges read in
  non local Contribution for L=           2  read in
    real space projection operators read in
  non local Contribution for L=           2  read in
    real space projection operators read in
  non local Contribution for L=           0  read in
    real space projection operators read in
  non local Contribution for L=           0  read in
    real space projection operators read in
  non local Contribution for L=           1  read in
    real space projection operators read in
  non local Contribution for L=           1  read in
    real space projection operators read in
    PAW grid and wavefunctions read in
 
   number of l-projection  operators is LMAX  =           6
   number of lm-projection operators is LMMAX =          18
 
  PAW_PBE Au 04Oct2007                  :
 energy of atom  1       EATOM= -926.0867
 kinetic energy error for atom=    0.0062 (will be added to EATOM!!)
 
 
 POSCAR: Au                                      
  positions in cartesian coordinates
  No initial velocities read in
 exchange correlation table for  LEXCH =        8
   RHO(1)=    0.500       N(1)  =     2000
   RHO(2)=  100.500       N(2)  =     4000
 


--------------------------------------------------------------------------------------------------------


 ion  position               nearest neighbor table
   1  0.000  0.000  0.000-   2 3.08   3 3.08   4 3.08   2 3.08   3 3.08   2 3.08   4 3.08   2 3.08
                             3 3.08   4 3.08   3 3.08   4 3.08
   2  0.000  0.500  0.500-   1 3.08   3 3.08   4 3.08   1 3.08   4 3.08   1 3.08   3 3.08   1 3.08
                             3 3.08   4 3.08   4 3.08   3 3.08
   3  0.500  0.000  0.500-   1 3.08   2 3.08   4 3.08   1 3.08   4 3.08   2 3.08   4 3.08   4 3.08
                             1 3.08   2 3.08   1 3.08   2 3.08
   4  0.500  0.500  0.000-   1 3.08   2 3.08   3 3.08   2 3.08   3 3.08   1 3.08   3 3.08   3 3.08
                             1 3.08   2 3.08   2 3.08   1 3.08
 
  LATTYP: Found a simple cubic cell.
 ALAT       =     4.3520000000
  
  Lattice vectors:
  
 A1 = (   4.3520000000,   0.0000000000,   0.0000000000)
 A2 = (   0.0000000000,   4.3520000000,   0.0000000000)
 A3 = (   0.0000000000,   0.0000000000,   4.3520000000)


Analysis of symmetry for initial positions (statically):
=====================================================================
 Subroutine PRICEL returns following result:
 
  LATTYP: Found a face centered cubic cell.
 ALAT       =     4.3520000000
  
  Lattice vectors:
  
 A1 = (   2.1760000000,   2.1760000000,   0.0000000000)
 A2 = (   2.1760000000,   0.0000000000,  -2.1760000000)
 A3 = (   0.0000000000,   2.1760000000,  -2.1760000000)
 
   4 primitive cells build up your supercell.
 

 Routine SETGRP: Setting up the symmetry group for a 
 simple cubic supercell.


 Subroutine GETGRP returns: Found 48 space group operations
 (whereof 48 operations were pure point group operations)
 out of a pool of 48 trial point group operations.


The static configuration has the point symmetry O_h .


Analysis of symmetry for dynamics (positions and initial velocities):
=====================================================================
 Subroutine PRICEL returns following result:
 
  LATTYP: Found a face centered cubic cell.
 ALAT       =     4.3520000000
  
  Lattice vectors:
  
 A1 = (   2.1760000000,   2.1760000000,   0.0000000000)
 A2 = (   2.1760000000,   0.0000000000,  -2.1760000000)
 A3 = (   0.0000000000,   2.1760000000,  -2.1760000000)
 
   4 primitive cells build up your supercell.
 

 Routine SETGRP: Setting up the symmetry group for a 
 simple cubic supercell.


 Subroutine GETGRP returns: Found 48 space group operations
 (whereof 48 operations were pure point group operations)
 out of a pool of 48 trial point group operations.


The dynamic configuration has the point symmetry O_h .


 Subroutine INISYM returns: Found 48 space group operations
 (whereof 48 operations are pure point group operations),
 and found     4 'primitive' translations

 
 
 KPOINTS: KPOINTS created by Atomic Simulation Env

Automatic generation of k-mesh.
Space group operators:
 irot       det(A)        alpha          n_x          n_y          n_z        tau_x        tau_y        tau_z
    1     1.000000     0.000000     1.000000     0.000000     0.000000     0.000000     0.000000     0.000000
    2    -1.000000     0.000000     1.000000     0.000000     0.000000     0.000000     0.000000     0.000000
    3     1.000000   120.000000    -0.577350    -0.577350    -0.577350     0.000000     0.000000     0.000000
    4    -1.000000   120.000000    -0.577350    -0.577350    -0.577350     0.000000     0.000000     0.000000
    5     1.000000   120.000000     0.577350     0.577350     0.577350     0.000000     0.000000     0.000000
    6    -1.000000   120.000000     0.577350     0.577350     0.577350     0.000000     0.000000     0.000000
    7     1.000000    90.000000     0.000000     0.000000    -1.000000     0.000000     0.000000     0.000000
    8    -1.000000    90.000000     0.000000     0.000000    -1.000000     0.000000     0.000000     0.000000
    9     1.000000   180.000000     0.000000     0.707107     0.707107     0.000000     0.000000     0.000000
   10    -1.000000   180.000000     0.000000     0.707107     0.707107     0.000000     0.000000     0.000000
   11     1.000000    90.000000     0.000000     1.000000     0.000000     0.000000     0.000000     0.000000
   12    -1.000000    90.000000     0.000000     1.000000     0.000000     0.000000     0.000000     0.000000
   13     1.000000   180.000000     0.000000     0.000000     1.000000     0.000000     0.000000     0.000000
   14    -1.000000   180.000000     0.000000     0.000000     1.000000     0.000000     0.000000     0.000000
   15     1.000000   120.000000    -0.577350     0.577350     0.577350     0.000000     0.000000     0.000000
   16    -1.000000   120.000000    -0.577350     0.577350     0.577350     0.000000     0.000000     0.000000
   17     1.000000   120.000000    -0.577350     0.577350    -0.577350     0.000000     0.000000     0.000000
   18    -1.000000   120.000000    -0.577350     0.577350    -0.577350     0.000000     0.000000     0.000000
   19     1.000000    90.000000     0.000000     0.000000     1.000000     0.000000     0.000000     0.000000
   20    -1.000000    90.000000     0.000000     0.000000     1.000000     0.000000     0.000000     0.000000
   21     1.000000    90.000000    -1.000000     0.000000     0.000000     0.000000     0.000000     0.000000
   22    -1.000000    90.000000    -1.000000     0.000000     0.000000     0.000000     0.000000     0.000000
   23     1.000000   180.000000     0.707107     0.000000     0.707107     0.000000     0.000000     0.000000
   24    -1.000000   180.000000     0.707107     0.000000     0.707107     0.000000     0.000000     0.000000
   25     1.000000   120.000000     0.577350    -0.577350     0.577350     0.000000     0.000000     0.000000
   26    -1.000000   120.000000     0.577350    -0.577350     0.577350     0.000000     0.000000     0.000000
   27     1.000000   120.000000    -0.577350    -0.577350     0.577350     0.000000     0.000000     0.000000
   28    -1.000000   120.000000    -0.577350    -0.577350     0.577350     0.000000     0.000000     0.000000
   29     1.000000   180.000000     1.000000     0.000000     0.000000     0.000000     0.000000     0.000000
   30    -1.000000   180.000000     1.000000     0.000000     0.000000     0.000000     0.000000     0.000000
   31     1.000000    90.000000     0.000000    -1.000000     0.000000     0.000000     0.000000     0.000000
   32    -1.000000    90.000000     0.000000    -1.000000     0.000000     0.000000     0.000000     0.000000
   33     1.000000   180.000000     0.707107     0.707107     0.000000     0.000000     0.000000     0.000000
   34    -1.000000   180.000000     0.707107     0.707107     0.000000     0.000000     0.000000     0.000000
   35     1.000000    90.000000     1.000000     0.000000     0.000000     0.000000     0.000000     0.000000
   36    -1.000000    90.000000     1.000000     0.000000     0.000000     0.000000     0.000000     0.000000
   37     1.000000   120.000000     0.577350    -0.577350    -0.577350     0.000000     0.000000     0.000000
   38    -1.000000   120.000000     0.577350    -0.577350    -0.577350     0.000000     0.000000     0.000000
   39     1.000000   180.000000     0.000000     1.000000     0.000000     0.000000     0.000000     0.000000
   40    -1.000000   180.000000     0.000000     1.000000     0.000000     0.000000     0.000000     0.000000
   41     1.000000   120.000000     0.577350     0.577350    -0.577350     0.000000     0.000000     0.000000
   42    -1.000000   120.000000     0.577350     0.577350    -0.577350     0.000000     0.000000     0.000000
   43     1.000000   180.000000     0.000000    -0.707107     0.707107     0.000000     0.000000     0.000000
   44    -1.000000   180.000000     0.000000    -0.707107     0.707107     0.000000     0.000000     0.000000
   45     1.000000   180.000000     0.707107    -0.707107     0.000000     0.000000     0.000000     0.000000
   46    -1.000000   180.000000     0.707107    -0.707107     0.000000     0.000000     0.000000     0.000000
   47     1.000000   180.000000     0.707107     0.000000    -0.707107     0.000000     0.000000     0.000000
   48    -1.000000   180.000000     0.707107     0.000000    -0.707107     0.000000     0.000000     0.000000
 
 Subroutine IBZKPT returns following result:
 ===========================================
 
 Found     35 irreducible k-points:
 
 Following reciprocal coordinates:
            Coordinates               Weight
  0.000000  0.000000  0.000000      1.000000
  0.111111  0.000000  0.000000      6.000000
  0.222222  0.000000  0.000000      6.000000
  0.333333  0.000000  0.000000      6.000000
  0.444444  0.000000  0.000000      6.000000
  0.111111  0.111111  0.000000     12.000000
  0.222222  0.111111  0.000000     24.000000
  0.333333  0.111111  0.000000     24.000000
  0.444444  0.111111  0.000000     24.000000
  0.222222  0.222222  0.000000     12.000000
  0.333333  0.222222  0.000000     24.000000
  0.444444  0.222222  0.000000     24.000000
  0.333333  0.333333  0.000000     12.000000
  0.444444  0.333333  0.000000     24.000000
  0.444444  0.444444  0.000000     12.000000
  0.111111  0.111111  0.111111      8.000000
  0.222222  0.111111  0.111111     24.000000
  0.333333  0.111111  0.111111     24.000000
  0.444444  0.111111  0.111111     24.000000
  0.222222  0.222222  0.111111     24.000000
  0.333333  0.222222  0.111111     48.000000
  0.444444  0.222222  0.111111     48.000000
  0.333333  0.333333  0.111111     24.000000
  0.444444  0.333333  0.111111     48.000000
  0.444444  0.444444  0.111111     24.000000
  0.222222  0.222222  0.222222      8.000000
  0.333333  0.222222  0.222222     24.000000
  0.444444  0.222222  0.222222     24.000000
  0.333333  0.333333  0.222222     24.000000
  0.444444  0.333333  0.222222     48.000000
  0.444444  0.444444  0.222222     24.000000
  0.333333  0.333333  0.333333      8.000000
  0.444444  0.333333  0.333333     24.000000
  0.444444  0.444444  0.333333     24.000000
  0.444444  0.444444  0.444444      8.000000
 
 Following cartesian coordinates:
            Coordinates               Weight
  0.000000  0.000000  0.000000      1.000000
  0.025531  0.000000  0.000000      6.000000
  0.051062  0.000000  0.000000      6.000000
  0.076593  0.000000  0.000000      6.000000
  0.102124  0.000000  0.000000      6.000000
  0.025531  0.025531  0.000000     12.000000
  0.051062  0.025531  0.000000     24.000000
  0.076593  0.025531  0.000000     24.000000
  0.102124  0.025531  0.000000     24.000000
  0.051062  0.051062  0.000000     12.000000
  0.076593  0.051062  0.000000     24.000000
  0.102124  0.051062  0.000000     24.000000
  0.076593  0.076593  0.000000     12.000000
  0.102124  0.076593  0.000000     24.000000
  0.102124  0.102124  0.000000     12.000000
  0.025531  0.025531  0.025531      8.000000
  0.051062  0.025531  0.025531     24.000000
  0.076593  0.025531  0.025531     24.000000
  0.102124  0.025531  0.025531     24.000000
  0.051062  0.051062  0.025531     24.000000
  0.076593  0.051062  0.025531     48.000000
  0.102124  0.051062  0.025531     48.000000
  0.076593  0.076593  0.025531     24.000000
  0.102124  0.076593  0.025531     48.000000
  0.102124  0.102124  0.025531     24.000000
  0.051062  0.051062  0.051062      8.000000
  0.076593  0.051062  0.051062     24.000000
  0.102124  0.051062  0.051062     24.000000
  0.076593  0.076593  0.051062     24.000000
  0.102124  0.076593  0.051062     48.000000
  0.102124  0.102124  0.051062     24.000000
  0.076593  0.076593  0.076593      8.000000
  0.102124  0.076593  0.076593     24.000000
  0.102124  0.102124  0.076593     24.000000
  0.102124  0.102124  0.102124      8.000000
 


--------------------------------------------------------------------------------------------------------




 Dimension of arrays:
   k-points           NKPTS =     35   k-points in BZ     NKDIM =     35   number of bands    NBANDS=     48
   number of dos      NEDOS =    301   number of ions     NIONS =      4
   non local maximal  LDIM  =      6   non local SUM 2l+1 LMDIM =     18
   total plane-waves  NPLWV =  13824
   max r-space proj   IRMAX =      1   max aug-charges    IRDMAX=  10454
   dimension x,y,z NGX =    24 NGY =   24 NGZ =   24
   dimension x,y,z NGXF=    48 NGYF=   48 NGZF=   48
   support grid    NGXF=    48 NGYF=   48 NGZF=   48
   ions per type =               4
 NGX,Y,Z   is equivalent  to a cutoff of   9.17,  9.17,  9.17 a.u.
 NGXF,Y,Z  is equivalent  to a cutoff of  18.34, 18.34, 18.34 a.u.


 I would recommend the setting:
   dimension x,y,z NGX =    21 NGY =   21 NGZ =   21
 SYSTEM =  unknown system                          
 POSCAR =  Au                                      

 Startparameter for this run:
   NWRITE =      2    write-flag & timer
   PREC   = normal    normal or accurate (medium, high low for compatibility)
   ISTART =      0    job   : 0-new  1-cont  2-samecut
   ICHARG =      2    charge: 1-file 2-atom 10-const
   ISPIN  =      1    spin polarized calculation?
   LNONCOLLINEAR =      F non collinear calculations
   LSORBIT =      F    spin-orbit coupling
   INIWAV =      1    electr: 0-lowe 1-rand  2-diag
   LASPH  =      F    aspherical Exc in radial PAW
   METAGGA=      F    non-selfconsistent MetaGGA calc.

 Electronic Relaxation 1
   ENCUT  =  400.0 eV  29.40 Ry    5.42 a.u.   7.10  7.10  7.10*2*pi/ulx,y,z
   ENINI  =  400.0     initial cutoff
   ENAUG  =  356.7 eV  augmentation charge cutoff
   NELM   =     60;   NELMIN=  2; NELMDL= -5     # of ELM steps 
   EDIFF  = 0.1E-03   stopping-criterion for ELM
   LREAL  =      F    real-space projection
   NLSPLINE    = F    spline interpolate recip. space projectors
   LCOMPAT=      F    compatible to vasp.4.4
   GGA_COMPAT  = T    GGA compatible to vasp.4.4-vasp.4.6
   LMAXPAW     = -100 max onsite density
   LMAXMIX     =    2 max onsite mixed and CHGCAR
   VOSKOWN=      0    Vosko Wilk Nusair interpolation
   ROPT   =    0.00000
 Ionic relaxation
   EDIFFG = 0.1E-02   stopping-criterion for IOM
   NSW    =      0    number of steps for IOM
   NBLOCK =      1;   KBLOCK =      1    inner block; outer block 
   IBRION =     -1    ionic relax: 0-MD 1-quasi-New 2-CG
   NFREE  =      0    steps in history (QN), initial steepest desc. (CG)
   ISIF   =      2    stress and relaxation
   IWAVPR =     10    prediction:  0-non 1-charg 2-wave 3-comb
   ISYM   =      2    0-nonsym 1-usesym 2-fastsym
   LCORR  =      T    Harris-Foulkes like correction to forces

   POTIM  = 0.5000    time-step for ionic-motion
   TEIN   =    0.0    initial temperature
   TEBEG  =    0.0;   TEEND  =   0.0 temperature during run
   SMASS  =  -3.00    Nose mass-parameter (am)
   estimated Nose-frequenzy (Omega)   =  0.10E-29 period in steps =****** mass=  -0.433E-27a.u.
   SCALEE = 1.0000    scale energy and forces
   NPACO  =    256;   APACO  = 16.0  distance and # of slots for P.C.
   PSTRESS=    0.0 pullay stress

  Mass of Ions in am
   POMASS = 196.97
  Ionic Valenz
   ZVAL   =  11.00
  Atomic Wigner-Seitz radii
   RWIGS  =  -1.00
  virtual crystal weights 
   VCA    =   1.00
   NELECT =      44.0000    total number of electrons
   NUPDOWN=      -1.0000    fix difference up-down

 DOS related values:
   EMIN   =  10.00;   EMAX   =-10.00  energy-range for DOS
   EFERMI =   0.00
   ISMEAR =     1;   SIGMA  =   0.10  broadening in eV -4-tet -1-fermi 0-gaus

 Electronic relaxation 2 (details)
   IALGO  =     38    algorithm
   LDIAG  =      T    sub-space diagonalisation (order eigenvalues)
   LSUBROT=      F    optimize rotation matrix (better conditioning)
   TURBO    =      0    0=normal 1=particle mesh
   IRESTART =      0    0=no restart 2=restart with 2 vectors
   NREBOOT  =      0    no. of reboots
   NMIN     =      0    reboot dimension
   EREF     =   0.00    reference energy to select bands
   IMIX   =      4    mixing-type and parameters
     AMIX     =   0.40;   BMIX     =  1.00
     AMIX_MAG =   1.60;   BMIX_MAG =  1.00
     AMIN     =   0.10
     WC   =   100.;   INIMIX=   1;  MIXPRE=   1;  MAXMIX= -45

 Intra band minimization:
   WEIMIN = 0.0000     energy-eigenvalue tresh-hold
   EBREAK =  0.52E-06  absolut break condition
   DEPER  =   0.30     relativ break condition  

   TIME   =   0.40     timestep for ELM

  volume/ion in A,a.u.               =      20.61       139.06
  Fermi-wavevector in a.u.,A,eV,Ry     =   1.328017  2.509587 23.995617  1.763628
  Thomas-Fermi vector in A             =   2.457286
 
 Write flags
   LWAVE  =      F    write WAVECAR
   LCHARG =      F    write CHGCAR
   LVTOT  =      F    write LOCPOT, total local potential
   LVHAR  =      F    write LOCPOT, Hartree potential only
   LELF   =      F    write electronic localiz. function (ELF)
   LORBIT =      0    0 simple, 1 ext, 2 COOP (PROOUT)


 Dipole corrections
   LMONO  =      F    monopole corrections only (constant potential shift)
   LDIPOL =      F    correct potential (dipole corrections)
   IDIPOL =      0    1-x, 2-y, 3-z, 4-all directions 
   EPSILON=  1.0000000 bulk dielectric constant

 Exchange correlation treatment:
   GGA     =    --    GGA type
   LEXCH   =     8    internal setting for exchange type
   VOSKOWN=      0    Vosko Wilk Nusair interpolation
   LHFCALC =     F    Hartree Fock is set to
   LHFONE  =     F    Hartree Fock one center treatment
   AEXX    =    0.0000 exact exchange contribution

 Linear response parameters
   LEPSILON=     F    determine dielectric tensor
   LRPA    =     F    only Hartree local field effects (RPA)
   LNABLA  =     F    use nabla operator in PAW spheres
   LVEL    =     F    velocity operator in full k-point grid
   LINTERFAST=   F  fast interpolation
   KINTER  =     0    interpolate to denser k-point grid
   CSHIFT  =0.1000    complex shift for real part using Kramers Kronig
   OMEGAMAX=  -1.0    maximum frequency
   DEG_THRESHOLD= 0.2000000E-02 threshold for treating states as degnerate
   RTIME   =    0.100 relaxation time in fs

 Orbital magnetization related:
   ORBITALMAG=     F  switch on orbital magnetization
   LCHIMAG   =     F  perturbation theory with respect to B field
   DQ        =  0.001000  dq finite difference perturbation B field



--------------------------------------------------------------------------------------------------------


 Static calculation
 charge density and potential will be updated during run
 non-spin polarized calculation
 Variant of blocked Davidson
 Davidson routine will perform the subspace rotation
 perform sub-space diagonalisation
    after iterative eigenvector-optimisation
 modified Broyden-mixing scheme, WC =      100.0
 initial mixing is a Kerker type mixing with AMIX =  0.4000 and BMIX =      1.0000
 Hartree-type preconditioning will be used
 using additional bands           26
 reciprocal scheme for non local part
 use partial core corrections
 calculate Harris-corrections to forces 
   (improved forces if not selfconsistent)
 use gradient corrections 
 use of overlap-Matrix (Vanderbilt PP)
 Methfessel and Paxton  Order N= 1 SIGMA  =   0.10


--------------------------------------------------------------------------------------------------------


  energy-cutoff  :      400.00
  volume of cell :       82.43
      direct lattice vectors                 reciprocal lattice vectors
     4.352000000  0.000000000  0.000000000     0.229779412  0.000000000  0.000000000
     0.000000000  4.352000000  0.000000000     0.000000000  0.229779412  0.000000000
     0.000000000  0.000000000  4.352000000     0.000000000  0.000000000  0.229779412

  length of vectors
     4.352000000  4.352000000  4.352000000     0.229779412  0.229779412  0.229779412


 
 k-points in units of 2pi/SCALE and weight: KPOINTS created by Atomic Simulation Env
   0.00000000  0.00000000  0.00000000       0.001
   0.02553105  0.00000000  0.00000000       0.008
   0.05106209  0.00000000  0.00000000       0.008
   0.07659314  0.00000000  0.00000000       0.008
   0.10212418  0.00000000  0.00000000       0.008
   0.02553105  0.02553105  0.00000000       0.016
   0.05106209  0.02553105  0.00000000       0.033
   0.07659314  0.02553105  0.00000000       0.033
   0.10212418  0.02553105  0.00000000       0.033
   0.05106209  0.05106209  0.00000000       0.016
   0.07659314  0.05106209  0.00000000       0.033
   0.10212418  0.05106209  0.00000000       0.033
   0.07659314  0.07659314  0.00000000       0.016
   0.10212418  0.07659314  0.00000000       0.033
   0.10212418  0.10212418  0.00000000       0.016
   0.02553105  0.02553105  0.02553105       0.011
   0.05106209  0.02553105  0.02553105       0.033
   0.07659314  0.02553105  0.02553105       0.033
   0.10212418  0.02553105  0.02553105       0.033
   0.05106209  0.05106209  0.02553105       0.033
   0.07659314  0.05106209  0.02553105       0.066
   0.10212418  0.05106209  0.02553105       0.066
   0.07659314  0.07659314  0.02553105       0.033
   0.10212418  0.07659314  0.02553105       0.066
   0.10212418  0.10212418  0.02553105       0.033
   0.05106209  0.05106209  0.05106209       0.011
   0.07659314  0.05106209  0.05106209       0.033
   0.10212418  0.05106209  0.05106209       0.033
   0.07659314  0.07659314  0.05106209       0.033
   0.10212418  0.07659314  0.05106209       0.066
   0.10212418  0.10212418  0.05106209       0.033
   0.07659314  0.07659314  0.07659314       0.011
   0.10212418  0.07659314  0.07659314       0.033
   0.10212418  0.10212418  0.07659314       0.033
   0.10212418  0.10212418  0.10212418       0.011
 
 k-points in reciprocal lattice and weights: KPOINTS created by Atomic Simulation Env
   0.00000000  0.00000000  0.00000000       0.001
   0.11111111  0.00000000  0.00000000       0.008
   0.22222222  0.00000000  0.00000000       0.008
   0.33333333  0.00000000  0.00000000       0.008
   0.44444444  0.00000000  0.00000000       0.008
   0.11111111  0.11111111  0.00000000       0.016
   0.22222222  0.11111111  0.00000000       0.033
   0.33333333  0.11111111  0.00000000       0.033
   0.44444444  0.11111111  0.00000000       0.033
   0.22222222  0.22222222  0.00000000       0.016
   0.33333333  0.22222222  0.00000000       0.033
   0.44444444  0.22222222  0.00000000       0.033
   0.33333333  0.33333333  0.00000000       0.016
   0.44444444  0.33333333  0.00000000       0.033
   0.44444444  0.44444444  0.00000000       0.016
   0.11111111  0.11111111  0.11111111       0.011
   0.22222222  0.11111111  0.11111111       0.033
   0.33333333  0.11111111  0.11111111       0.033
   0.44444444  0.11111111  0.11111111       0.033
   0.22222222  0.22222222  0.11111111       0.033
   0.33333333  0.22222222  0.11111111       0.066
   0.44444444  0.22222222  0.11111111       0.066
   0.33333333  0.33333333  0.11111111       0.033
   0.44444444  0.33333333  0.11111111       0.066
   0.44444444  0.44444444  0.11111111       0.033
   0.22222222  0.22222222  0.22222222       0.011
   0.33333333  0.22222222  0.22222222       0.033
   0.44444444  0.22222222  0.22222222       0.033
   0.33333333  0.33333333  0.22222222       0.033
   0.44444444  0.33333333  0.22222222       0.066
   0.44444444  0.44444444  0.22222222       0.033
   0.33333333  0.33333333  0.33333333       0.011
   0.44444444  0.33333333  0.33333333       0.033
   0.44444444  0.44444444  0.33333333       0.033
   0.44444444  0.44444444  0.44444444       0.011
 
 position of ions in fractional coordinates (direct lattice) 
   0.00000000  0.00000000  0.00000000
   0.00000000  0.50000000  0.50000000
   0.50000000  0.00000000  0.50000000
   0.50000000  0.50000000  0.00000000
 
 position of ions in cartesian coordinates  (Angst):
   0.00000000  0.00000000  0.00000000
   0.00000000  2.17600000  2.17600000
   2.17600000  0.00000000  2.17600000
   2.17600000  2.17600000  0.00000000
 


--------------------------------------------------------------------------------------------------------


 k-point  1 :   0.0000 0.0000 0.0000  plane waves:    1503
 k-point  2 :   0.1111 0.0000 0.0000  plane waves:    1482
 k-point  3 :   0.2222 0.0000 0.0000  plane waves:    1474
 k-point  4 :   0.3333 0.0000 0.0000  plane waves:    1482
 k-point  5 :   0.4444 0.0000 0.0000  plane waves:    1498
 k-point  6 :   0.1111 0.1111 0.0000  plane waves:    1484
 k-point  7 :   0.2222 0.1111 0.0000  plane waves:    1479
 k-point  8 :   0.3333 0.1111 0.0000  plane waves:    1497
 k-point  9 :   0.4444 0.1111 0.0000  plane waves:    1489
 k-point 10 :   0.2222 0.2222 0.0000  plane waves:    1492
 k-point 11 :   0.3333 0.2222 0.0000  plane waves:    1498
 k-point 12 :   0.4444 0.2222 0.0000  plane waves:    1507
 k-point 13 :   0.3333 0.3333 0.0000  plane waves:    1506
 k-point 14 :   0.4444 0.3333 0.0000  plane waves:    1504
 k-point 15 :   0.4444 0.4444 0.0000  plane waves:    1496
 k-point 16 :   0.1111 0.1111 0.1111  plane waves:    1472
 k-point 17 :   0.2222 0.1111 0.1111  plane waves:    1489
 k-point 18 :   0.3333 0.1111 0.1111  plane waves:    1503
 k-point 19 :   0.4444 0.1111 0.1111  plane waves:    1497
 k-point 20 :   0.2222 0.2222 0.1111  plane waves:    1499
 k-point 21 :   0.3333 0.2222 0.1111  plane waves:    1495
 k-point 22 :   0.4444 0.2222 0.1111  plane waves:    1496
 k-point 23 :   0.3333 0.3333 0.1111  plane waves:    1503
 k-point 24 :   0.4444 0.3333 0.1111  plane waves:    1503
 k-point 25 :   0.4444 0.4444 0.1111  plane waves:    1511
 k-point 26 :   0.2222 0.2222 0.2222  plane waves:    1490
 k-point 27 :   0.3333 0.2222 0.2222  plane waves:    1493
 k-point 28 :   0.4444 0.2222 0.2222  plane waves:    1506
 k-point 29 :   0.3333 0.3333 0.2222  plane waves:    1493
 k-point 30 :   0.4444 0.3333 0.2222  plane waves:    1501
 k-point 31 :   0.4444 0.4444 0.2222  plane waves:    1494
 k-point 32 :   0.3333 0.3333 0.3333  plane waves:    1502
 k-point 33 :   0.4444 0.3333 0.3333  plane waves:    1502
 k-point 34 :   0.4444 0.4444 0.3333  plane waves:    1492
 k-point 35 :   0.4444 0.4444 0.4444  plane waves:    1502

 maximum and minimum number of plane-waves per node :      1511     1472

 maximum number of plane-waves:      1511
 maximum index in each direction: 
   IXMAX=    7   IYMAX=    7   IZMAX=    7
   IXMIN=   -7   IYMIN=   -7   IZMIN=   -7

 WARNING: aliasing errors must be expected set NGX to  30 to avoid them
 WARNING: aliasing errors must be expected set NGY to  30 to avoid them
 WARNING: aliasing errors must be expected set NGZ to  30 to avoid them
 aliasing errors are usually negligible using standard VASP settings
 and one can safely disregard these warnings

 serial   3D FFT for wavefunctions
 parallel 3D FFT for charge:
    minimum data exchange during FFTs selected (reduces bandwidth)


 total amount of memory used by VASP on root node    40563. kBytes
========================================================================

   base      :      30000. kBytes
   nonl-proj :       7717. kBytes
   fftplans  :        221. kBytes
   grid      :        789. kBytes
   one-center:         62. kBytes
   wavefun   :       1774. kBytes
 
     INWAV:  cpu time    0.0000: real time    0.0000
 Broyden mixing: mesh for mixing (old mesh)
   NGX = 15   NGY = 15   NGZ = 15
  (NGX  = 48   NGY  = 48   NGZ  = 48)
  gives a total of   3375 points

 initial charge density was supplied:
 charge density of overlapping atoms calculated
 number of electron      44.0000000 magnetization 
 keeping initial charge density in first step


--------------------------------------------------------------------------------------------------------


 Maximum index for augmentation-charges          561 (set IRDMAX)


--------------------------------------------------------------------------------------------------------


 First call to EWALD:  gamma=   0.407
 Maximum number of real-space cells 3x 3x 3
 Maximum number of reciprocal cells 3x 3x 3

 FEWALD executed in parallel
    FEWALD:  cpu time    0.0016: real time    0.0016


----------------------------------------- Iteration    1(   1)  ---------------------------------------


    POTLOK:  cpu time    0.2835: real time    0.3448
    SETDIJ:  cpu time    0.0034: real time    0.0034
     EDDAV:  cpu time    0.5656: real time    0.5671
       DOS:  cpu time    0.0009: real time    0.0009
    --------------------------------------------
      LOOP:  cpu time    0.8561: real time    0.9200

 eigenvalue-minimisations  :  3456
 total energy-change (2. order) : 0.1748793E+03  (-0.1842711E+04)
 number of electron      44.0000000 magnetization 
 augmentation part       44.0000000 magnetization 

 Free energy of the ion-electron system (eV)
  ---------------------------------------------------
  alpha Z        PSCENC =       226.10137935
  Ewald energy   TEWEN  =     -3671.20665883
  -Hartree energ DENC   =      -597.10020238
  -exchange      EXHF   =         0.00000000
  -V(xc)+E(xc)   XCENC  =        60.23246439
  PAW double counting   =      3496.39001341    -3404.04053930
  entropy T*S    EENTRO =        -0.00153207
  eigenvalues    EBANDS =       360.18233834
  atomic energy  EATOM  =      3704.32207507
  Solvation  Ediel_sol  =         0.00000000
  ---------------------------------------------------
  free energy    TOTEN  =       174.87933798 eV

  energy without entropy =      174.88087005  energy(sigma->0) =      174.87984867


--------------------------------------------------------------------------------------------------------




----------------------------------------- Iteration    1(   2)  ---------------------------------------


     EDDAV:  cpu time    0.7110: real time    0.7131
       DOS:  cpu time    0.0008: real time    0.0008
    --------------------------------------------
      LOOP:  cpu time    0.7129: real time    0.7164

 eigenvalue-minimisations  :  4296
 total energy-change (2. order) :-0.1858727E+03  (-0.1734809E+03)
 number of electron      44.0000000 magnetization 
 augmentation part       44.0000000 magnetization 

 Free energy of the ion-electron system (eV)
  ---------------------------------------------------
  alpha Z        PSCENC =       226.10137935
  Ewald energy   TEWEN  =     -3671.20665883
  -Hartree energ DENC   =      -597.10020238
  -exchange      EXHF   =         0.00000000
  -V(xc)+E(xc)   XCENC  =        60.23246439
  PAW double counting   =      3496.39001341    -3404.04053930
  entropy T*S    EENTRO =         0.00022112
  eigenvalues    EBANDS =       174.30793426
  atomic energy  EATOM  =      3704.32207507
  Solvation  Ediel_sol  =         0.00000000
  ---------------------------------------------------
  free energy    TOTEN  =       -10.99331291 eV

  energy without entropy =      -10.99353403  energy(sigma->0) =      -10.99338662


--------------------------------------------------------------------------------------------------------




----------------------------------------- Iteration    1(   3)  ---------------------------------------


     EDDAV:  cpu time    0.7289: real time    0.7301
       DOS:  cpu time    0.0008: real time    0.0008
    --------------------------------------------
      LOOP:  cpu time    0.7307: real time    0.7376

 eigenvalue-minimisations  :  4368
 total energy-change (2. order) :-0.2343860E+01  (-0.2341342E+01)
 number of electron      44.0000000 magnetization 
 augmentation part       44.0000000 magnetization 

 Free energy of the ion-electron system (eV)
  ---------------------------------------------------
  alpha Z        PSCENC =       226.10137935
  Ewald energy   TEWEN  =     -3671.20665883
  -Hartree energ DENC   =      -597.10020238
  -exchange      EXHF   =         0.00000000
  -V(xc)+E(xc)   XCENC  =        60.23246439
  PAW double counting   =      3496.39001341    -3404.04053930
  entropy T*S    EENTRO =         0.00016367
  eigenvalues    EBANDS =       171.96413203
  atomic energy  EATOM  =      3704.32207507
  Solvation  Ediel_sol  =         0.00000000
  ---------------------------------------------------
  free energy    TOTEN  =       -13.33717258 eV

  energy without entropy =      -13.33733625  energy(sigma->0) =      -13.33722714


--------------------------------------------------------------------------------------------------------




----------------------------------------- Iteration    1(   4)  ---------------------------------------


     EDDAV:  cpu time    0.8601: real time    0.8626
       DOS:  cpu time    0.0014: real time    0.0014
    --------------------------------------------
      LOOP:  cpu time    0.8625: real time    0.8685

 eigenvalue-minimisations  :  4680
 total energy-change (2. order) :-0.1069085E-01  (-0.1069062E-01)
 number of electron      44.0000000 magnetization 
 augmentation part       44.0000000 magnetization 

 Free energy of the ion-electron system (eV)
  ---------------------------------------------------
  alpha Z        PSCENC =       226.10137935
  Ewald energy   TEWEN  =     -3671.20665883
  -Hartree energ DENC   =      -597.10020238
  -exchange      EXHF   =         0.00000000
  -V(xc)+E(xc)   XCENC  =        60.23246439
  PAW double counting   =      3496.39001341    -3404.04053930
  entropy T*S    EENTRO =         0.00016331
  eigenvalues    EBANDS =       171.95344154
  atomic energy  EATOM  =      3704.32207507
  Solvation  Ediel_sol  =         0.00000000
  ---------------------------------------------------
  free energy    TOTEN  =       -13.34786343 eV

  energy without entropy =      -13.34802674  energy(sigma->0) =      -13.34791787


--------------------------------------------------------------------------------------------------------




----------------------------------------- Iteration    1(   5)  ---------------------------------------


     EDDAV:  cpu time    0.7263: real time    0.7282
       DOS:  cpu time    0.0008: real time    0.0008
    CHARGE:  cpu time    0.0209: real time    0.0216
    MIXING:  cpu time    0.0010: real time    0.0010
    --------------------------------------------
      LOOP:  cpu time    0.7502: real time    0.7543

 eigenvalue-minimisations  :  4272
 total energy-change (2. order) :-0.1133067E-03  (-0.1133071E-03)
 number of electron      44.0000050 magnetization 
 augmentation part       15.5686773 magnetization 

 Broyden mixing:
  rms(total) = 0.10530E+01    rms(broyden)= 0.10530E+01
  rms(prec ) = 0.16485E+01
  weight for this iteration     100.00

 Free energy of the ion-electron system (eV)
  ---------------------------------------------------
  alpha Z        PSCENC =       226.10137935
  Ewald energy   TEWEN  =     -3671.20665883
  -Hartree energ DENC   =      -597.10020238
  -exchange      EXHF   =         0.00000000
  -V(xc)+E(xc)   XCENC  =        60.23246439
  PAW double counting   =      3496.39001341    -3404.04053930
  entropy T*S    EENTRO =         0.00016331
  eigenvalues    EBANDS =       171.95332824
  atomic energy  EATOM  =      3704.32207507
  Solvation  Ediel_sol  =         0.00000000
  ---------------------------------------------------
  free energy    TOTEN  =       -13.34797674 eV

  energy without entropy =      -13.34814004  energy(sigma->0) =      -13.34803117


--------------------------------------------------------------------------------------------------------




----------------------------------------- Iteration    1(   6)  ---------------------------------------


    POTLOK:  cpu time    0.0079: real time    0.0087
    SETDIJ:  cpu time    0.0025: real time    0.0025
     EDDAV:  cpu time    0.7589: real time    0.7608
       DOS:  cpu time    0.0012: real time    0.0012
    CHARGE:  cpu time    0.0133: real time    0.0133
    MIXING:  cpu time    0.0004: real time    0.0005
    --------------------------------------------
      LOOP:  cpu time    0.7853: real time    0.7935

 eigenvalue-minimisations  :  4392
 total energy-change (2. order) : 0.9202033E+00  (-0.2048012E+00)
 number of electron      44.0000051 magnetization 
 augmentation part       16.1219299 magnetization 

 Broyden mixing:
  rms(total) = 0.75936E+00    rms(broyden)= 0.75936E+00
  rms(prec ) = 0.80068E+00
  weight for this iteration     100.00

 eigenvalues of (default mixing * dielectric matrix)
  average eigenvalue GAMMA=   1.3948
  1.3948

 Free energy of the ion-electron system (eV)
  ---------------------------------------------------
  alpha Z        PSCENC =       226.10137935
  Ewald energy   TEWEN  =     -3671.20665883
  -Hartree energ DENC   =      -564.90311425
  -exchange      EXHF   =         0.00000000
  -V(xc)+E(xc)   XCENC  =        58.79806017
  PAW double counting   =      3612.52669238    -3523.80764732
  entropy T*S    EENTRO =         0.00050269
  eigenvalues    EBANDS =       145.74093729
  atomic energy  EATOM  =      3704.32207507
  Solvation  Ediel_sol  =         0.00000000
  ---------------------------------------------------
  free energy    TOTEN  =       -12.42777345 eV

  energy without entropy =      -12.42827614  energy(sigma->0) =      -12.42794101


--------------------------------------------------------------------------------------------------------




----------------------------------------- Iteration    1(   7)  ---------------------------------------


    POTLOK:  cpu time    0.0221: real time    0.0221
    SETDIJ:  cpu time    0.0024: real time    0.0024
     EDDAV:  cpu time    0.7644: real time    0.7644
       DOS:  cpu time    0.0014: real time    0.0014
    CHARGE:  cpu time    0.0213: real time    0.0217
    MIXING:  cpu time    0.0010: real time    0.0010
    --------------------------------------------
      LOOP:  cpu time    0.8138: real time    0.8274

 eigenvalue-minimisations  :  4440
 total energy-change (2. order) : 0.2912596E-01  (-0.7451927E-02)
 number of electron      44.0000051 magnetization 
 augmentation part       16.2189072 magnetization 

 Broyden mixing:
  rms(total) = 0.43722E+00    rms(broyden)= 0.43722E+00
  rms(prec ) = 0.44277E+00
  weight for this iteration     100.00

 eigenvalues of (default mixing * dielectric matrix)
  average eigenvalue GAMMA=   1.9176
  1.1534  2.6817

 Free energy of the ion-electron system (eV)
  ---------------------------------------------------
  alpha Z        PSCENC =       226.10137935
  Ewald energy   TEWEN  =     -3671.20665883
  -Hartree energ DENC   =      -557.38758976
  -exchange      EXHF   =         0.00000000
  -V(xc)+E(xc)   XCENC  =        58.44403576
  PAW double counting   =      3724.91865109    -3638.09353815
  entropy T*S    EENTRO =         0.00014495
  eigenvalues    EBANDS =       140.50285304
  atomic energy  EATOM  =      3704.32207507
  Solvation  Ediel_sol  =         0.00000000
  ---------------------------------------------------
  free energy    TOTEN  =       -12.39864748 eV

  energy without entropy =      -12.39879243  energy(sigma->0) =      -12.39869580


--------------------------------------------------------------------------------------------------------




----------------------------------------- Iteration    1(   8)  ---------------------------------------


    POTLOK:  cpu time    0.0078: real time    0.0078
    SETDIJ:  cpu time    0.0022: real time    0.0022
     EDDAV:  cpu time    0.7563: real time    0.7562
       DOS:  cpu time    0.0008: real time    0.0008
    CHARGE:  cpu time    0.0136: real time    0.0136
    MIXING:  cpu time    0.0003: real time    0.0003
    --------------------------------------------
      LOOP:  cpu time    0.7822: real time    0.7837

 eigenvalue-minimisations  :  4368
 total energy-change (2. order) : 0.3768401E-02  (-0.3211894E-03)
 number of electron      44.0000051 magnetization 
 augmentation part       16.2239235 magnetization 

 Broyden mixing:
  rms(total) = 0.31290E-01    rms(broyden)= 0.31290E-01
  rms(prec ) = 0.31800E-01
  weight for this iteration     100.00

 eigenvalues of (default mixing * dielectric matrix)
  average eigenvalue GAMMA=   1.5470
  2.5241  0.9463  1.1705

 Free energy of the ion-electron system (eV)
  ---------------------------------------------------
  alpha Z        PSCENC =       226.10137935
  Ewald energy   TEWEN  =     -3671.20665883
  -Hartree energ DENC   =      -554.47507864
  -exchange      EXHF   =         0.00000000
  -V(xc)+E(xc)   XCENC  =        58.28327848
  PAW double counting   =      3855.52205978    -3770.46641475
  entropy T*S    EENTRO =         0.00013000
  eigenvalues    EBANDS =       139.52435045
  atomic energy  EATOM  =      3704.32207507
  Solvation  Ediel_sol  =         0.00000000
  ---------------------------------------------------
  free energy    TOTEN  =       -12.39487908 eV

  energy without entropy =      -12.39500909  energy(sigma->0) =      -12.39492242


--------------------------------------------------------------------------------------------------------




----------------------------------------- Iteration    1(   9)  ---------------------------------------


    POTLOK:  cpu time    0.0065: real time    0.0065
    SETDIJ:  cpu time    0.0023: real time    0.0023
     EDDAV:  cpu time    0.6496: real time    0.6497
       DOS:  cpu time    0.0013: real time    0.0013
    --------------------------------------------
      LOOP:  cpu time    0.6607: real time    0.6622

 eigenvalue-minimisations  :  3504
 total energy-change (2. order) : 0.1650111E-04  (-0.5662426E-05)
 number of electron      44.0000051 magnetization 
 augmentation part       16.2239235 magnetization 

 Free energy of the ion-electron system (eV)
  ---------------------------------------------------
  alpha Z        PSCENC =       226.10137935
  Ewald energy   TEWEN  =     -3671.20665883
  -Hartree energ DENC   =      -554.79112018
  -exchange      EXHF   =         0.00000000
  -V(xc)+E(xc)   XCENC  =        58.29799739
  PAW double counting   =      3847.20206544    -3761.96480409
  entropy T*S    EENTRO =         0.00014214
  eigenvalues    EBANDS =       139.64406113
  atomic energy  EATOM  =      3704.32207507
  Solvation  Ediel_sol  =         0.00000000
  ---------------------------------------------------
  free energy    TOTEN  =       -12.39486258 eV

  energy without entropy =      -12.39500473  energy(sigma->0) =      -12.39490996


--------------------------------------------------------------------------------------------------------




 average (electrostatic) potential at core
  the test charge radii are     1.2098
  (the norm of the test charge is              1.0000)
       1 -66.3693       2 -66.3693       3 -66.3693       4 -66.3693
 
 
 
 E-fermi :   6.5279     XC(G=0): -11.6017     alpha+bet :-11.5230


 k-point     1 :       0.0000    0.0000    0.0000
  band No.  band energies     occupation 
      1      -1.3933      2.00000
      2       1.1186      2.00000
      3       1.1186      2.00000
      4       1.1186      2.00000
      5       1.3402      2.00000
      6       1.3402      2.00000
      7       1.3402      2.00000
      8       2.8281      2.00000
      9       2.8281      2.00000
     10       2.8281      2.00000
     11       3.9080      2.00000
     12       3.9080      2.00000
     13       4.7291      2.00000
     14       4.7291      2.00000
     15       4.7291      2.00000
     16       4.9913      2.00000
     17       4.9913      2.00000
     18       4.9913      2.00000
     19       4.9913      2.00000
     20       4.9913      2.00000
     21       4.9913      2.00000
     22       8.1518     -0.00000
     23       8.1518     -0.00000
     24       8.1518     -0.00000
     25      11.0158      0.00000
     26      11.0158      0.00000
     27      11.0158      0.00000
     28      16.0671      0.00000
     29      16.0671      0.00000
     30      16.0671      0.00000
     31      16.0671      0.00000
     32      16.0671      0.00000
     33      16.0671      0.00000
     34      21.2364      0.00000
     35      21.8824      0.00000
     36      21.8824      0.00000
     37      21.8824      0.00000
     38      24.0440      0.00000
     39      24.0440      0.00000
     40      24.0440      0.00000
     41      24.1318      0.00000
     42      24.1318      0.00000
     43      24.1318      0.00000
     44      28.5009      0.00000
     45      31.4139      0.00000
     46      31.4139      0.00000
     47      31.4139      0.00000
     48      32.3651      0.00000

 k-point     2 :       0.1111    0.0000    0.0000
  band No.  band energies     occupation 
      1      -1.2717      2.00000
      2       1.1530      2.00000
      3       1.1930      2.00000
      4       1.1930      2.00000
      5       1.3794      2.00000
      6       1.4001      2.00000
      7       1.4001      2.00000
      8       2.7762      2.00000
      9       2.8760      2.00000
     10       2.8760      2.00000
     11       3.8538      2.00000
     12       3.9311      2.00000
     13       4.6532      2.00000
     14       4.6532      2.00000
     15       4.7026      2.00000
     16       4.7031      2.00000
     17       4.7031      2.00000
     18       4.8979      2.00000
     19       4.8979      2.00000
     20       4.9914      2.00000
     21       4.9914      2.00000
     22       7.1345     -0.00000
     23       8.5348     -0.00000
     24       8.5348     -0.00000
     25      10.9367      0.00000
     26      10.9367      0.00000
     27      12.2507      0.00000
     28      15.8133      0.00000
     29      15.8133      0.00000
     30      15.8682      0.00000
     31      15.8682      0.00000
     32      16.2989      0.00000
     33      16.2989      0.00000
     34      21.3407      0.00000
     35      21.8324      0.00000
     36      22.4618      0.00000
     37      22.4618      0.00000
     38      23.6685      0.00000
     39      23.9243      0.00000
     40      23.9243      0.00000
     41      23.9779      0.00000
     42      24.2671      0.00000
     43      24.2671      0.00000
     44      29.2578      0.00000
     45      30.4135      0.00000
     46      30.4135      0.00000
     47      31.1667      0.00000
     48      31.5415      0.00000

 k-point     3 :       0.2222    0.0000    0.0000
  band No.  band energies     occupation 
      1      -0.9137      2.00000
      2       1.2308      2.00000
      3       1.4014      2.00000
      4       1.4014      2.00000
      5       1.4941      2.00000
      6       1.5796      2.00000
      7       1.5796      2.00000
      8       2.6300      2.00000
      9       3.0179      2.00000
     10       3.0179      2.00000
     11       3.7049      2.00000
     12       3.9982      2.00000
     13       4.0890      2.00000
     14       4.0890      2.00000
     15       4.4375      2.00000
     16       4.4375      2.00000
     17       4.6268      2.00000
     18       4.6449      2.00000
     19       4.6449      2.00000
     20       4.9918      2.00000
     21       4.9918      2.00000
     22       5.5888      2.00000
     23       9.4293      0.00000
     24       9.4293      0.00000
     25      10.7408      0.00000
     26      10.7408      0.00000
     27      14.4677      0.00000
     28      15.1204      0.00000
     29      15.1204      0.00000
     30      15.4823      0.00000
     31      15.4823      0.00000
     32      16.9622      0.00000
     33      16.9622      0.00000
     34      21.6341      0.00000
     35      21.7134      0.00000
     36      22.8472      0.00000
     37      23.2324      0.00000
     38      23.2324      0.00000
     39      23.7818      0.00000
     40      23.9412      0.00000
     41      23.9412      0.00000
     42      24.8922      0.00000
     43      24.8922      0.00000
     44      28.3106      0.00000
     45      29.7038      0.00000
     46      29.7038      0.00000
     47      31.4237      0.00000
     48      31.4875      0.00000

 k-point     4 :       0.3333    0.0000    0.0000
  band No.  band energies     occupation 
      1      -0.3461      2.00000
      2       1.2495      2.00000
      3       1.6746      2.00000
      4       1.6896      2.00000
      5       1.6896      2.00000
      6       1.8773      2.00000
      7       1.8773      2.00000
      8       2.4139      2.00000
      9       3.2477      2.00000
     10       3.2477      2.00000
     11       3.4229      2.00000
     12       3.4229      2.00000
     13       3.5068      2.00000
     14       4.1026      2.00000
     15       4.1347      2.00000
     16       4.1347      2.00000
     17       4.2829      2.00000
     18       4.2949      2.00000
     19       4.2949      2.00000
     20       4.5126      2.00000
     21       4.9922      2.00000
     22       4.9922      2.00000
     23      10.5276      0.00000
     24      10.5276      0.00000
     25      10.5464      0.00000
     26      10.5464      0.00000
     27      14.1306      0.00000
     28      14.1306      0.00000
     29      15.1662      0.00000
     30      15.1662      0.00000
     31      16.9785      0.00000
     32      17.9788      0.00000
     33      17.9788      0.00000
     34      21.6039      0.00000
     35      22.0638      0.00000
     36      22.0698      0.00000
     37      22.0698      0.00000
     38      22.1626      0.00000
     39      23.4638      0.00000
     40      25.4535      0.00000
     41      25.8379      0.00000
     42      25.8379      0.00000
     43      25.9230      0.00000
     44      25.9230      0.00000
     45      29.7621      0.00000
     46      29.7621      0.00000
     47      30.0069      0.00000
     48      30.0069      0.00000

 k-point     5 :       0.4444    0.0000    0.0000
  band No.  band energies     occupation 
      1       0.3556      2.00000
      2       0.9835      2.00000
      3       1.9046      2.00000
      4       1.9301      2.00000
      5       1.9301      2.00000
      6       2.1609      2.00000
      7       2.2899      2.00000
      8       2.2899      2.00000
      9       2.8104      2.00000
     10       2.8104      2.00000
     11       3.3641      2.00000
     12       3.5177      2.00000
     13       3.5535      2.00000
     14       3.5535      2.00000
     15       3.8811      2.00000
     16       3.8811      2.00000
     17       3.9140      2.00000
     18       3.9140      2.00000
     19       4.2332      2.00000
     20       4.3755      2.00000
     21       4.9924      2.00000
     22       4.9924      2.00000
     23      10.3949      0.00000
     24      10.3949      0.00000
     25      11.7550      0.00000
     26      11.7550      0.00000
     27      12.9758      0.00000
     28      12.9758      0.00000
     29      15.0033      0.00000
     30      15.0033      0.00000
     31      19.2508      0.00000
     32      19.2508      0.00000
     33      19.6630      0.00000
     34      20.6656      0.00000
     35      20.6656      0.00000
     36      21.6065      0.00000
     37      21.6982      0.00000
     38      22.5576      0.00000
     39      22.5807      0.00000
     40      23.0435      0.00000
     41      27.0425      0.00000
     42      27.0425      0.00000
     43      27.9849      0.00000
     44      27.9849      0.00000
     45      28.4581      0.00000
     46      28.4581      0.00000
     47      30.4563      0.00000
     48      30.4563      0.00000

 k-point     6 :       0.1111    0.1111    0.0000
  band No.  band energies     occupation 
      1      -1.1522      2.00000
      2       1.2289      2.00000
      3       1.2289      2.00000
      4       1.2487      2.00000
      5       1.4380      2.00000
      6       1.4380      2.00000
      7       1.4733      2.00000
      8       2.7572      2.00000
      9       2.8935      2.00000
     10       2.9165      2.00000
     11       3.8407      2.00000
     12       3.9223      2.00000
     13       4.5059      2.00000
     14       4.5059      2.00000
     15       4.5219      2.00000
     16       4.5844      2.00000
     17       4.7088      2.00000
     18       4.7088      2.00000
     19       4.8976      2.00000
     20       4.8976      2.00000
     21       4.9281      2.00000
     22       7.4953     -0.00000
     23       7.4953     -0.00000
     24       8.8754     -0.00000
     25      10.8379      0.00000
     26      12.1830      0.00000
     27      12.1830      0.00000
     28      14.9648      0.00000
     29      16.0385      0.00000
     30      16.0385      0.00000
     31      16.1105      0.00000
     32      16.1105      0.00000
     33      16.5018      0.00000
     34      21.3936      0.00000
     35      22.4258      0.00000
     36      22.4258      0.00000
     37      22.5610      0.00000
     38      22.6674      0.00000
     39      23.7658      0.00000
     40      24.2116      0.00000
     41      24.2116      0.00000
     42      24.6000      0.00000
     43      24.7461      0.00000
     44      28.5918      0.00000
     45      30.2482      0.00000
     46      30.6378      0.00000
     47      31.2780      0.00000
     48      31.3315      0.00000

 k-point     7 :       0.2222    0.1111    0.0000
  band No.  band energies     occupation 
      1      -0.8005      2.00000
      2       1.3110      2.00000
      3       1.4119      2.00000
      4       1.4418      2.00000
      5       1.5486      2.00000
      6       1.6133      2.00000
      7       1.6806      2.00000
      8       2.6330      2.00000
      9       3.0201      2.00000
     10       3.0318      2.00000
     11       3.7199      2.00000
     12       3.9069      2.00000
     13       3.9926      2.00000
     14       4.0035      2.00000
     15       4.1690      2.00000
     16       4.3872      2.00000
     17       4.4802      2.00000
     18       4.6261      2.00000
     19       4.6435      2.00000
     20       4.8961      2.00000
     21       4.8966      2.00000
     22       6.0459      2.00000
     23       8.2315     -0.00000
     24       9.7090      0.00000
     25      10.5792      0.00000
     26      12.0442      0.00000
     27      14.1416      0.00000
     28      14.2566      0.00000
     29      15.3332      0.00000
     30      15.7840      0.00000
     31      16.6300      0.00000
     32      16.6804      0.00000
     33      16.8400      0.00000
     34      21.4592      0.00000
     35      21.5238      0.00000
     36      22.3570      0.00000
     37      23.1776      0.00000
     38      23.3209      0.00000
     39      23.9083      0.00000
     40      24.0478      0.00000
     41      24.5828      0.00000
     42      24.8610      0.00000
     43      25.8985      0.00000
     44      27.4594      0.00000
     45      29.7312      0.00000
     46      29.8826      0.00000
     47      31.4100      0.00000
     48      31.5091      0.00000

 k-point     8 :       0.3333    0.1111    0.0000
  band No.  band energies     occupation 
      1      -0.2434      2.00000
      2       1.3354      2.00000
      3       1.6692      2.00000
      4       1.7224      2.00000
      5       1.7386      2.00000
      6       1.9033      2.00000
      7       1.9782      2.00000
      8       2.4301      2.00000
      9       3.1744      2.00000
     10       3.2464      2.00000
     11       3.2668      2.00000
     12       3.3883      2.00000
     13       3.5888      2.00000
     14       3.6663      2.00000
     15       4.1080      2.00000
     16       4.1232      2.00000
     17       4.1835      2.00000
     18       4.2925      2.00000
     19       4.4323      2.00000
     20       4.8904      2.00000
     21       4.8949      2.00000
     22       4.9910      2.00000
     23       8.9744     -0.00000
     24      10.2516      0.00000
     25      10.7860      0.00000
     26      12.0103      0.00000
     27      13.4252      0.00000
     28      14.3354      0.00000
     29      15.5970      0.00000
     30      16.3112      0.00000
     31      16.3131      0.00000
     32      17.6537      0.00000
     33      18.1526      0.00000
     34      20.4151      0.00000
     35      21.1190      0.00000
     36      22.3593      0.00000
     37      22.9749      0.00000
     38      23.7577      0.00000
     39      23.7864      0.00000
     40      24.3599      0.00000
     41      25.5458      0.00000
     42      25.7688      0.00000
     43      25.8338      0.00000
     44      27.4792      0.00000
     45      29.2057      0.00000
     46      29.9652      0.00000
     47      29.9733      0.00000
     48      30.0743      0.00000

 k-point     9 :       0.4444    0.1111    0.0000
  band No.  band energies     occupation 
      1       0.4461      2.00000
      2       1.0695      2.00000
      3       1.9435      2.00000
      4       1.9508      2.00000
      5       1.9877      2.00000
      6       2.1890      2.00000
      7       2.2975      2.00000
      8       2.3038      2.00000
      9       2.7069      2.00000
     10       2.8057      2.00000
     11       3.1777      2.00000
     12       3.2443      2.00000
     13       3.5509      2.00000
     14       3.7097      2.00000
     15       3.8833      2.00000
     16       3.9112      2.00000
     17       3.9174      2.00000
     18       4.0633      2.00000
     19       4.2954      2.00000
     20       4.5206      2.00000
     21       4.8907      2.00000
     22       4.8927      2.00000
     23       9.5368      0.00000
     24       9.9201      0.00000
     25      11.9715      0.00000
     26      12.2602      0.00000
     27      12.7815      0.00000
     28      13.1814      0.00000
     29      15.6354      0.00000
     30      15.9002      0.00000
     31      17.9474      0.00000
     32      18.8451      0.00000
     33      19.2590      0.00000
     34      20.0998      0.00000
     35      20.2089      0.00000
     36      22.5023      0.00000
     37      22.5840      0.00000
     38      23.1191      0.00000
     39      23.3585      0.00000
     40      23.4542      0.00000
     41      25.7696      0.00000
     42      26.8104      0.00000
     43      27.0643      0.00000
     44      28.5047      0.00000
     45      29.3384      0.00000
     46      29.5130      0.00000
     47      29.8499      0.00000
     48      30.6072      0.00000

 k-point    10 :       0.2222    0.2222    0.0000
  band No.  band energies     occupation 
      1      -0.4684      2.00000
      2       1.4964      2.00000
      3       1.5381      2.00000
      4       1.5381      2.00000
      5       1.7111      2.00000
      6       1.7111      2.00000
      7       1.9151      2.00000
      8       2.5919      2.00000
      9       3.0729      2.00000
     10       3.0822      2.00000
     11       3.5265      2.00000
     12       3.5265      2.00000
     13       3.6817      2.00000
     14       3.7168      2.00000
     15       4.0674      2.00000
     16       4.2375      2.00000
     17       4.4572      2.00000
     18       4.4572      2.00000
     19       4.6397      2.00000
     20       4.6397      2.00000
     21       4.7447      2.00000
     22       6.7951     -0.00104
     23       6.7951     -0.00104
     24      10.1306      0.00000
     25      10.4384      0.00000
     26      13.3516      0.00000
     27      13.7352      0.00000
     28      13.7352      0.00000
     29      15.9353      0.00000
     30      15.9353      0.00000
     31      16.7451      0.00000
     32      16.7451      0.00000
     33      17.7082      0.00000
     34      20.1388      0.00000
     35      20.9426      0.00000
     36      22.6143      0.00000
     37      23.5488      0.00000
     38      23.8620      0.00000
     39      23.8620      0.00000
     40      24.7683      0.00000
     41      24.7683      0.00000
     42      25.9439      0.00000
     43      25.9476      0.00000
     44      27.4002      0.00000
     45      29.1203      0.00000
     46      30.3469      0.00000
     47      30.9406      0.00000
     48      31.0944      0.00000

 k-point    11 :       0.3333    0.2222    0.0000
  band No.  band energies     occupation 
      1       0.0553      2.00000
      2       1.5797      2.00000
      3       1.6840      2.00000
      4       1.8639      2.00000
      5       1.8639      2.00000
      6       1.9781      2.00000
      7       2.1936      2.00000
      8       2.4571      2.00000
      9       2.9352      2.00000
     10       3.0959      2.00000
     11       3.1070      2.00000
     12       3.2673      2.00000
     13       3.2693      2.00000
     14       3.6105      2.00000
     15       4.0172      2.00000
     16       4.2004      2.00000
     17       4.2749      2.00000
     18       4.2871      2.00000
     19       4.2895      2.00000
     20       4.6348      2.00000
     21       4.6651      2.00000
     22       5.6918      2.00000
     23       7.5462     -0.00000
     24       9.5248      0.00000
     25      11.4352      0.00000
     26      12.9064      0.00000
     27      13.1863      0.00000
     28      14.9119      0.00000
     29      15.1857      0.00000
     30      16.8360      0.00000
     31      16.8735      0.00000
     32      18.0151      0.00000
     33      18.3964      0.00000
     34      18.8630      0.00000
     35      20.1142      0.00000
     36      23.0528      0.00000
     37      23.8446      0.00000
     38      23.9390      0.00000
     39      24.3448      0.00000
     40      24.6163      0.00000
     41      25.4238      0.00000
     42      25.8166      0.00000
     43      26.4854      0.00000
     44      28.0534      0.00000
     45      29.0650      0.00000
     46      29.8646      0.00000
     47      30.2782      0.00000
     48      30.4822      0.00000

 k-point    12 :       0.4444    0.2222    0.0000
  band No.  band energies     occupation 
      1       0.7035      2.00000
      2       1.3086      2.00000
      3       1.9692      2.00000
      4       2.0558      2.00000
      5       2.1522      2.00000
      6       2.2640      2.00000
      7       2.3415      2.00000
      8       2.3727      2.00000
      9       2.4677      2.00000
     10       2.7842      2.00000
     11       2.9060      2.00000
     12       2.9943      2.00000
     13       3.5542      2.00000
     14       3.7207      2.00000
     15       3.8554      2.00000
     16       3.9074      2.00000
     17       3.9407      2.00000
     18       3.9999      2.00000
     19       4.5728      2.00000
     20       4.6320      2.00000
     21       4.6374      2.00000
     22       4.9951      2.00000
     23       8.2423     -0.00000
     24       8.8895     -0.00000
     25      12.5707      0.00000
     26      12.7378      0.00000
     27      12.8297      0.00000
     28      13.7567      0.00000
     29      16.4467      0.00000
     30      17.2097      0.00000
     31      17.6508      0.00000
     32      17.6725      0.00000
     33      17.9208      0.00000
     34      19.0611      0.00000
     35      20.4716      0.00000
     36      22.5587      0.00000
     37      24.1443      0.00000
     38      24.3044      0.00000
     39      24.3276      0.00000
     40      24.4069      0.00000
     41      25.2489      0.00000
     42      25.5515      0.00000
     43      27.1174      0.00000
     44      28.6306      0.00000
     45      28.6937      0.00000
     46      29.6235      0.00000
     47      30.3374      0.00000
     48      30.8558      0.00000

 k-point    13 :       0.3333    0.3333    0.0000
  band No.  band energies     occupation 
      1       0.5181      2.00000
      2       1.7755      2.00000
      3       1.9343      2.00000
      4       1.9343      2.00000
      5       2.0917      2.00000
      6       2.0917      2.00000
      7       2.4328      2.00000
      8       2.4413      2.00000
      9       2.6403      2.00000
     10       2.6403      2.00000
     11       3.0409      2.00000
     12       3.0481      2.00000
     13       3.3723      2.00000
     14       3.5282      2.00000
     15       3.8599      2.00000
     16       4.0703      2.00000
     17       4.0703      2.00000
     18       4.2843      2.00000
     19       4.2843      2.00000
     20       4.4602      2.00000
     21       4.5907      2.00000
     22       6.3946      2.06782
     23       6.3946      2.06782
     24       8.6472     -0.00000
     25      12.3599      0.00000
     26      12.7845      0.00000
     27      14.1687      0.00000
     28      14.1687      0.00000
     29      15.7695      0.00000
     30      15.7695      0.00000
     31      17.4830      0.00000
     32      18.7323      0.00000
     33      18.7323      0.00000
     34      19.0425      0.00000
     35      19.4840      0.00000
     36      22.3191      0.00000
     37      23.8473      0.00000
     38      24.6346      0.00000
     39      25.1198      0.00000
     40      25.1198      0.00000
     41      25.7628      0.00000
     42      25.7628      0.00000
     43      26.5815      0.00000
     44      28.0441      0.00000
     45      29.6771      0.00000
     46      29.6771      0.00000
     47      30.4287      0.00000
     48      30.5770      0.00000

 k-point    14 :       0.4444    0.3333    0.0000
  band No.  band energies     occupation 
      1       1.0801      2.00000
      2       1.6276      2.00000
      3       1.9528      2.00000
      4       2.1796      2.00000
      5       2.2266      2.00000
      6       2.3555      2.00000
      7       2.3897      2.00000
      8       2.3967      2.00000
      9       2.5448      2.00000
     10       2.6887      2.00000
     11       2.7253      2.00000
     12       2.9094      2.00000
     13       3.5764      2.00000
     14       3.5975      2.00000
     15       3.7400      2.00000
     16       3.8128      2.00000
     17       3.8378      2.00000
     18       3.9180      2.00000
     19       4.2958      2.00000
     20       4.3432      2.00000
     21       5.0131      2.00000
     22       5.5757      2.00000
     23       7.0959     -0.00000
     24       7.8299     -0.00000
     25      12.9570      0.00000
     26      13.4148      0.00000
     27      13.4461      0.00000
     28      14.6081      0.00000
     29      15.1634      0.00000
     30      16.2579      0.00000
     31      16.8048      0.00000
     32      17.9220      0.00000
     33      19.2027      0.00000
     34      19.7030      0.00000
     35      20.7903      0.00000
     36      22.6511      0.00000
     37      23.0621      0.00000
     38      24.5225      0.00000
     39      25.0710      0.00000
     40      25.2484      0.00000
     41      25.5017      0.00000
     42      25.6084      0.00000
     43      27.1409      0.00000
     44      28.7257      0.00000
     45      28.9570      0.00000
     46      29.4062      0.00000
     47      30.6080      0.00000
     48      30.8381      0.00000

 k-point    15 :       0.4444    0.4444    0.0000
  band No.  band energies     occupation 
      1       1.4926      2.00000
      2       1.8622      2.00000
      3       1.8622      2.00000
      4       1.9307      2.00000
      5       2.4184      2.00000
      6       2.4253      2.00000
      7       2.4253      2.00000
      8       2.6049      2.00000
      9       2.6682      2.00000
     10       2.6682      2.00000
     11       2.6940      2.00000
     12       2.8586      2.00000
     13       3.4767      2.00000
     14       3.5859      2.00000
     15       3.6173      2.00000
     16       3.6173      2.00000
     17       3.7287      2.00000
     18       3.9717      2.00000
     19       3.9717      2.00000
     20       4.1072      2.00000
     21       5.5461      2.00000
     22       6.2097      2.00007
     23       6.2097      2.00007
     24       6.9377     -0.00000
     25      13.4220      0.00000
     26      14.1526      0.00000
     27      14.1526      0.00000
     28      14.4952      0.00000
     29      15.0943      0.00000
     30      15.6374      0.00000
     31      15.6374      0.00000
     32      16.7632      0.00000
     33      21.2783      0.00000
     34      21.2783      0.00000
     35      21.6439      0.00000
     36      22.2270      0.00000
     37      22.6563      0.00000
     38      23.8231      0.00000
     39      23.8231      0.00000
     40      24.0490      0.00000
     41      26.2709      0.00000
     42      26.9427      0.00000
     43      26.9427      0.00000
     44      28.2136      0.00000
     45      30.3230      0.00000
     46      30.3536      0.00000
     47      30.6473      0.00000
     48      30.6615      0.00000

 k-point    16 :       0.1111    0.1111    0.1111
  band No.  band energies     occupation 
      1      -1.0352      2.00000
      2       1.2833      2.00000
      3       1.2833      2.00000
      4       1.2833      2.00000
      5       1.5119      2.00000
      6       1.5119      2.00000
      7       1.5119      2.00000
      8       2.7458      2.00000
      9       2.9279      2.00000
     10       2.9279      2.00000
     11       3.8752      2.00000
     12       3.8752      2.00000
     13       4.3879      2.00000
     14       4.3879      2.00000
     15       4.3879      2.00000
     16       4.5033      2.00000
     17       4.5033      2.00000
     18       4.5033      2.00000
     19       4.9039      2.00000
     20       4.9039      2.00000
     21       4.9039      2.00000
     22       7.7932     -0.00000
     23       7.7932     -0.00000
     24       7.7932     -0.00000
     25      12.0692      0.00000
     26      12.0692      0.00000
     27      12.0692      0.00000
     28      15.2673      0.00000
     29      15.2673      0.00000
     30      15.2673      0.00000
     31      16.7159      0.00000
     32      16.7159      0.00000
     33      16.7159      0.00000
     34      21.2074      0.00000
     35      22.1288      0.00000
     36      22.5106      0.00000
     37      22.5106      0.00000
     38      22.5106      0.00000
     39      24.3700      0.00000
     40      24.3700      0.00000
     41      24.7148      0.00000
     42      24.7148      0.00000
     43      24.7148      0.00000
     44      28.2028      0.00000
     45      29.9361      0.00000
     46      29.9361      0.00000
     47      31.2405      0.00000
     48      32.3462      0.00000

 k-point    17 :       0.2222    0.1111    0.1111
  band No.  band energies     occupation 
      1      -0.6918      2.00000
      2       1.3623      2.00000
      3       1.4433      2.00000
      4       1.4433      2.00000
      5       1.6243      2.00000
      6       1.7206      2.00000
      7       1.7206      2.00000
      8       2.6445      2.00000
      9       3.0254      2.00000
     10       3.0310      2.00000
     11       3.7571      2.00000
     12       3.8466      2.00000
     13       3.8466      2.00000
     14       3.9743      2.00000
     15       4.0105      2.00000
     16       4.2925      2.00000
     17       4.3480      2.00000
     18       4.3480      2.00000
     19       4.8220      2.00000
     20       4.8686      2.00000
     21       4.8686      2.00000
     22       6.3484      2.02927
     23       8.4470     -0.00000
     24       8.4470     -0.00000
     25      11.7785      0.00000
     26      11.7785      0.00000
     27      13.8852      0.00000
     28      14.6190      0.00000
     29      14.6190      0.00000
     30      16.2323      0.00000
     31      16.8255      0.00000
     32      16.8255      0.00000
     33      17.3349      0.00000
     34      20.3281      0.00000
     35      21.9791      0.00000
     36      22.3915      0.00000
     37      23.1172      0.00000
     38      23.1172      0.00000
     39      23.6044      0.00000
     40      24.6302      0.00000
     41      24.8487      0.00000
     42      25.8973      0.00000
     43      25.8973      0.00000
     44      27.1384      0.00000
     45      29.2648      0.00000
     46      29.6410      0.00000
     47      31.4505      0.00000
     48      31.4509      0.00000

 k-point    18 :       0.3333    0.1111    0.1111
  band No.  band energies     occupation 
      1      -0.1490      2.00000
      2       1.3862      2.00000
      3       1.6984      2.00000
      4       1.6984      2.00000
      5       1.7965      2.00000
      6       2.0141      2.00000
      7       2.0141      2.00000
      8       2.4595      2.00000
      9       3.1440      2.00000
     10       3.2015      2.00000
     11       3.2556      2.00000
     12       3.2556      2.00000
     13       3.4904      2.00000
     14       3.6868      2.00000
     15       4.0112      2.00000
     16       4.1113      2.00000
     17       4.1113      2.00000
[...]
  band No.  band energies     occupation 
      1       0.9124      2.00000
      2       1.2301      2.00000
      3       1.5249      2.00000
      4       1.5529      2.00000
      5       2.4742      2.00000
      6       2.4897      2.00000
      7       2.7148      2.00000
      8       2.8586      2.00000
      9       3.0174      2.00000
     10       3.0582      2.00000
     11       3.1511      2.00000
     12       3.2180      2.00000
     13       3.2547      2.00000
     14       3.3508      2.00000
     15       3.3690      2.00000
     16       3.4110      2.00000
     17       4.2876      2.00000
     18       4.5954      2.00000
     19       4.6325      2.00000
     20       4.6435      2.00000
     21       4.8721      2.00000
     22       5.6230      2.00000
     23       7.4736     -0.00000
     24       8.3422     -0.00000
     25       9.4956      0.00000
     26      10.3946      0.00000
     27      12.4651      0.00000
     28      13.6026      0.00000
     29      17.3582      0.00000
     30      18.0178      0.00000
     31      19.3917      0.00000
     32      19.8013      0.00000
     33      19.8973      0.00000
     34      20.6913      0.00000
     35      20.7269      0.00000
     36      21.9617      0.00000
     37      22.4778      0.00000
     38      22.5943      0.00000
     39      23.0085      0.00000
     40      23.6707      0.00000
     41      27.6242      0.00000
     42      28.4142      0.00000
     43      28.5285      0.00000
     44      28.5774      0.00000
     45      28.9184      0.00000
     46      29.5855      0.00000
     47      30.3029      0.00000
     48      30.7189      0.00000

 k-point    31 :       0.4444    0.4444    0.2222
  band No.  band energies     occupation 
      1       1.0740      2.00000
      2       1.2810      2.00000
      3       1.2810      2.00000
      4       1.3876      2.00000
      5       2.5936      2.00000
      6       2.6641      2.00000
      7       2.6641      2.00000
      8       2.7971      2.00000
      9       3.0499      2.00000
     10       3.1385      2.00000
     11       3.1385      2.00000
     12       3.1868      2.00000
     13       3.4720      2.00000
     14       3.4720      2.00000
     15       3.4776      2.00000
     16       3.5643      2.00000
     17       4.2664      2.00000
     18       4.4770      2.00000
     19       4.4770      2.00000
     20       4.5090      2.00000
     21       5.4572      2.00000
     22       6.3049      2.00710
     23       6.3049      2.00710
     24       7.1951     -0.00000
     25      10.2964      0.00000
     26      11.2861      0.00000
     27      11.2861      0.00000
     28      12.3611      0.00000
     29      18.0449      0.00000
     30      18.8713      0.00000
     31      18.8713      0.00000
     32      19.7434      0.00000
     33      21.0684      0.00000
     34      21.0684      0.00000
     35      21.6332      0.00000
     36      21.6746      0.00000
     37      21.8242      0.00000
     38      22.8030      0.00000
     39      22.8030      0.00000
     40      23.4912      0.00000
     41      27.5817      0.00000
     42      28.1634      0.00000
     43      28.1634      0.00000
     44      28.8190      0.00000
     45      28.9701      0.00000
     46      29.7381      0.00000
     47      29.7851      0.00000
     48      29.7851      0.00000

 k-point    32 :       0.3333    0.3333    0.3333
  band No.  band energies     occupation 
      1       0.6983      2.00000
      2       1.3411      2.00000
      3       1.3411      2.00000
      4       1.3411      2.00000
      5       2.5763      2.00000
      6       2.5763      2.00000
      7       2.5763      2.00000
      8       2.9461      2.00000
      9       2.9461      2.00000
     10       3.2314      2.00000
     11       3.2314      2.00000
     12       3.2314      2.00000
     13       3.4094      2.00000
     14       3.4094      2.00000
     15       3.4094      2.00000
     16       3.5506      2.00000
     17       4.3566      2.00000
     18       4.3566      2.00000
     19       4.7943      2.00000
     20       4.7943      2.00000
     21       4.7943      2.00000
     22       7.2248     -0.00000
     23       7.2248     -0.00000
     24       7.2248     -0.00000
     25      10.1155      0.00000
     26      10.1155      0.00000
     27      10.1155      0.00000
     28      13.4539      0.00000
     29      18.9597      0.00000
     30      18.9597      0.00000
     31      18.9597      0.00000
     32      20.4271      0.00000
     33      20.4271      0.00000
     34      20.4271      0.00000
     35      21.3545      0.00000
     36      21.5960      0.00000
     37      21.5960      0.00000
     38      21.5960      0.00000
     39      23.4738      0.00000
     40      23.4738      0.00000
     41      27.9031      0.00000
     42      28.2534      0.00000
     43      28.2534      0.00000
     44      29.8338      0.00000
     45      29.8338      0.00000
     46      29.8351      0.00000
     47      30.0083      0.00000
     48      30.0083      0.00000

 k-point    33 :       0.4444    0.3333    0.3333
  band No.  band energies     occupation 
      1       0.8649      2.00000
      2       1.0863      2.00000
      3       1.2667      2.00000
      4       1.2667      2.00000
      5       2.5964      2.00000
      6       2.5964      2.00000
      7       2.7303      2.00000
      8       2.8610      2.00000
      9       2.9532      2.00000
     10       3.0516      2.00000
     11       3.1238      2.00000
     12       3.1238      2.00000
     13       3.6112      2.00000
     14       3.7282      2.00000
     15       3.7282      2.00000
     16       3.7803      2.00000
     17       4.6001      2.00000
     18       4.7314      2.00000
     19       4.7314      2.00000
     20       4.7542      2.00000
     21       4.7991      2.00000
     22       5.8731      2.00000
     23       7.8242     -0.00000
     24       7.8242     -0.00000
     25       9.0521     -0.00000
     26       9.0521     -0.00000
     27      11.0619      0.00000
     28      12.1809      0.00000
     29      19.3942      0.00000
     30      19.3942      0.00000
     31      20.1582      0.00000
     32      20.1582      0.00000
     33      20.7246      0.00000
     34      21.1147      0.00000
     35      21.2105      0.00000
     36      21.7147      0.00000
     37      22.1338      0.00000
     38      22.1338      0.00000
     39      22.2371      0.00000
     40      23.0340      0.00000
     41      28.4126      0.00000
     42      28.7348      0.00000
     43      28.9218      0.00000
     44      28.9218      0.00000
     45      29.1120      0.00000
     46      29.2857      0.00000
     47      29.4828      0.00000
     48      30.2250      0.00000

 k-point    34 :       0.4444    0.4444    0.3333
  band No.  band energies     occupation 
      1       0.9065      2.00000
      2       1.0430      2.00000
      3       1.0430      2.00000
      4       1.1038      2.00000
      5       2.6892      2.00000
      6       2.7309      2.00000
      7       2.7309      2.00000
      8       2.8340      2.00000
      9       2.8936      2.00000
     10       2.9627      2.00000
     11       2.9627      2.00000
     12       2.9840      2.00000
     13       4.0554      2.00000
     14       4.0554      2.00000
     15       4.0734      2.00000
     16       4.2521      2.00000
     17       4.5339      2.00000
     18       4.6944      2.00000
     19       4.6971      2.00000
     20       4.6971      2.00000
     21       5.3850      2.00000
     22       6.4614      1.89420
     23       6.4614      1.89420
     24       7.3347     -0.00000
     25       9.0094     -0.00000
     26       9.8861      0.00000
     27       9.8861      0.00000
     28      10.9366      0.00000
     29      19.9019      0.00000
     30      20.4909      0.00000
     31      20.4909      0.00000
     32      20.8113      0.00000
     33      21.0380      0.00000
     34      21.0380      0.00000
     35      21.3013      0.00000
     36      21.7826      0.00000
     37      21.8445      0.00000
     38      22.2450      0.00000
     39      22.2450      0.00000
     40      22.9500      0.00000
     41      28.4374      0.00000
     42      28.7458      0.00000
     43      28.7746      0.00000
     44      28.7746      0.00000
     45      29.1212      0.00000
     46      29.3210      0.00000
     47      29.4328      0.00000
     48      29.4328      0.00000

 k-point    35 :       0.4444    0.4444    0.4444
  band No.  band energies     occupation 
      1       0.8535      2.00000
      2       0.9207      2.00000
      3       0.9207      2.00000
      4       0.9207      2.00000
      5       2.7769      2.00000
      6       2.7769      2.00000
      7       2.7769      2.00000
      8       2.8283      2.00000
      9       2.8283      2.00000
     10       2.8596      2.00000
     11       2.8596      2.00000
     12       2.8596      2.00000
     13       4.4975      2.00000
     14       4.4975      2.00000
     15       4.4975      2.00000
     16       4.7116      2.00000
     17       4.7116      2.00000
     18       4.7682      2.00000
     19       4.7682      2.00000
     20       4.7682      2.00000
     21       5.7121      2.00000
     22       6.6891     -0.04502
     23       6.6891     -0.04502
     24       6.6891     -0.04502
     25       8.9402     -0.00000
     26       8.9402     -0.00000
     27       8.9402     -0.00000
     28       9.7577      0.00000
     29      20.6744      0.00000
     30      20.6744      0.00000
     31      20.6744      0.00000
     32      20.7382      0.00000
     33      21.8672      0.00000
     34      21.8672      0.00000
     35      21.8672      0.00000
     36      22.0255      0.00000
     37      22.0255      0.00000
     38      22.0255      0.00000
     39      22.4264      0.00000
     40      22.4264      0.00000
     41      28.7786      0.00000
     42      28.7786      0.00000
     43      28.9874      0.00000
     44      28.9874      0.00000
     45      28.9874      0.00000
     46      29.0578      0.00000
     47      29.0578      0.00000
     48      29.0579      0.00000


--------------------------------------------------------------------------------------------------------


 soft charge-density along one line, spin component           1
         0         1         2         3         4         5         6         7         8         9
 total charge-density along one line
 
 pseudopotential strength for first ion, spin component:           1
 -4.727   0.000  -0.000   0.000   0.000  -4.947   0.000  -0.000
  0.000  -4.727   0.000   0.000  -0.000   0.000  -4.947   0.000
 -0.000   0.000  -4.715   0.000  -0.000  -0.000   0.000  -4.935
  0.000   0.000   0.000  -4.727  -0.000   0.000   0.000   0.000
  0.000  -0.000  -0.000  -0.000  -4.715   0.000  -0.000  -0.000
 -4.947   0.000  -0.000   0.000   0.000  -5.150   0.000  -0.000
  0.000  -4.947   0.000   0.000  -0.000   0.000  -5.150   0.000
 -0.000   0.000  -4.935   0.000  -0.000  -0.000   0.000  -5.139
  0.000   0.000   0.000  -4.947  -0.000   0.000   0.000   0.000
  0.000  -0.000  -0.000  -0.000  -4.935   0.000  -0.000  -0.000
 -0.000  -0.000   0.000  -0.000  -0.000  -0.000  -0.000   0.000
 -0.000  -0.000   0.000  -0.000  -0.000  -0.000  -0.000   0.000
  0.000  -0.000   0.000  -0.000   0.000  -0.000  -0.000   0.000
 -0.000  -0.000  -0.000  -0.000  -0.000  -0.000  -0.000  -0.000
 -0.000  -0.000   0.000  -0.000   0.000  -0.000  -0.000   0.000
 -0.000  -0.000   0.000  -0.000   0.000  -0.000  -0.000   0.000
 -0.000  -0.000  -0.000   0.000  -0.000  -0.000  -0.000  -0.000
 -0.000  -0.000  -0.000  -0.000   0.000  -0.000  -0.000  -0.000
 total augmentation occupancy for first ion, spin component:           1
  3.886  -0.000  -0.000  -0.000   0.000  -1.773   0.000   0.000  -0.000  -0.000   0.000   0.000   0.000  -0.000   0.000  -0.000
  0.000   3.886  -0.000  -0.000   0.000   0.000  -1.773   0.000   0.000  -0.000   0.000  -0.000   0.000   0.000  -0.000  -0.000
 -0.000  -0.000   3.797   0.000   0.000   0.000  -0.000  -1.527  -0.000   0.000  -0.000  -0.000   0.000   0.000   0.000  -0.000
  0.000  -0.000  -0.000   3.886  -0.000  -0.000   0.000   0.000  -1.773   0.000   0.000  -0.000   0.000   0.000  -0.000   0.000
  0.000   0.000   0.000  -0.000   3.797  -0.000   0.000  -0.000  -0.000  -1.527  -0.000  -0.000   0.000   0.000  -0.000  -0.000
 -1.773   0.000  -0.000   0.000  -0.000   1.583   0.000  -0.000  -0.000  -0.000   0.000   0.000   0.000   0.000   0.000   0.000
 -0.000  -1.773   0.000  -0.000  -0.000   0.000   1.583  -0.000   0.000  -0.000   0.000   0.000   0.000   0.000  -0.000   0.000
  0.000  -0.000  -1.527   0.000   0.000  -0.000  -0.000   1.227  -0.000   0.000   0.000   0.000  -0.000  -0.000  -0.000   0.000
 -0.000   0.000  -0.000  -1.773  -0.000  -0.000  -0.000  -0.000   1.583   0.000  -0.000   0.000   0.000   0.000  -0.000   0.000
 -0.000   0.000   0.000   0.000  -1.527   0.000  -0.000   0.000  -0.000   1.227   0.000   0.000  -0.000   0.000   0.000   0.000
  0.000   0.000  -0.000   0.000  -0.000  -0.000  -0.000   0.000  -0.000   0.000   2.038  -0.452   0.000   0.000   0.000  -0.000
  0.000  -0.000  -0.000  -0.000  -0.000   0.000   0.000  -0.000   0.000  -0.000  -0.452   0.139   0.000   0.000   0.000   0.000
  0.000  -0.000   0.000   0.000  -0.000   0.000   0.000   0.000   0.000   0.000   0.000   0.000   0.120  -0.000  -0.000  -0.004
 -0.000   0.000   0.000   0.000   0.000   0.000   0.000  -0.000   0.000   0.000   0.000   0.000  -0.000   0.120   0.000   0.000
  0.000  -0.000  -0.000  -0.000   0.000   0.000  -0.000  -0.000  -0.000   0.000   0.000   0.000   0.000  -0.000   0.120  -0.000
  0.000  -0.000  -0.000   0.000   0.000   0.000   0.000   0.000   0.000  -0.000   0.000   0.000  -0.004  -0.000  -0.000   0.000
 -0.000  -0.000  -0.000   0.000   0.000  -0.000   0.000   0.000  -0.000  -0.000   0.000   0.000  -0.000  -0.004   0.000  -0.000
  0.000  -0.000  -0.000   0.000   0.000   0.000  -0.000   0.000   0.000   0.000  -0.000   0.000  -0.000   0.000  -0.004  -0.000


------------------------ aborting loop because EDIFF is reached ----------------------------------------


    CHARGE:  cpu time    0.0163: real time    0.0164
    FORLOC:  cpu time    0.0002: real time    0.0002
    FORNL :  cpu time    0.0990: real time    0.0990
    STRESS:  cpu time    0.3250: real time    0.3253
    FORCOR:  cpu time    0.0110: real time    0.0115
    FORHAR:  cpu time    0.0010: real time    0.0010
    MIXING:  cpu time    0.0003: real time    0.0003
    OFIELD:  cpu time    0.0001: real time    0.0001

  FORCE on cell =-STRESS in cart. coord.  units (eV):
  Direction    XX          YY          ZZ          XY          YZ          ZX
  --------------------------------------------------------------------------------------
  Alpha Z   226.10138   226.10138   226.10138
  Ewald   -1223.73609 -1223.73609 -1223.73609    -0.00000    -0.00000     0.00000
  Hartree   184.89987   184.89987   184.89987    -0.00000    -0.00000    -0.00000
  E(xc)    -196.79723  -196.79723  -196.79723    -0.00000     0.00000     0.00000
  Local     134.23259   134.23259   134.23259    -0.00000     0.00000    -0.00000
  n-local     1.08809   -20.82222   -25.25175     0.89167     7.14297     3.04870
  augment   272.27897   272.27897   272.27897     0.00000    -0.00000    -0.00000
  Kinetic   615.40117   611.60875   607.39316    -4.48150    -1.25748    -2.16488
  Fock        0.00000     0.00000     0.00000     0.00000     0.00000     0.00000
  -------------------------------------------------------------------------------------
  Total      -6.54811    -6.54811    -6.54811     0.00000    -0.00000    -0.00000
  in kB    -127.27985  -127.27985  -127.27985     0.00000    -0.00000    -0.00000
  external pressure =     -127.28 kB  Pullay stress =        0.00 kB


 VOLUME and BASIS-vectors are now :
 -----------------------------------------------------------------------------
  energy-cutoff  :      400.00
  volume of cell :       82.43
      direct lattice vectors                 reciprocal lattice vectors
     4.352000000  0.000000000  0.000000000     0.229779412  0.000000000  0.000000000
     0.000000000  4.352000000  0.000000000     0.000000000  0.229779412  0.000000000
     0.000000000  0.000000000  4.352000000     0.000000000  0.000000000  0.229779412

  length of vectors
     4.352000000  4.352000000  4.352000000     0.229779412  0.229779412  0.229779412


 FORCES acting on ions
    electron-ion (+dipol)            ewald-force                    non-local-force                 convergence-correction
 -----------------------------------------------------------------------------------------------
   -.221E-13 -.195E-13 -.328E-13   -.276E-14 0.511E-14 -.102E-13   -.662E-23 0.831E-23 0.496E-23   0.292E-13 -.386E-13 -.775E-13
   -.220E-13 0.243E-12 0.235E-12   -.348E-14 -.183E-15 0.346E-14   0.993E-23 -.414E-22 0.287E-22   0.298E-13 0.480E-13 0.977E-14
   0.235E-12 -.191E-13 -.297E-11   0.187E-14 0.755E-15 0.354E-14   -.199E-22 0.165E-22 0.662E-23   0.815E-15 -.419E-13 0.146E-12
   0.237E-12 -.171E-11 -.242E-11   0.114E-14 -.454E-14 0.169E-14   -.199E-22 -.662E-23 0.993E-23   0.146E-14 0.107E-12 -.626E-14
 -----------------------------------------------------------------------------------------------
   0.428E-12 -.150E-11 -.519E-11   -.322E-14 0.114E-14 -.153E-14   -.364E-22 -.231E-22 0.503E-22   0.613E-13 0.740E-13 0.716E-13
 
 
 POSITION                                       TOTAL-FORCE (eV/Angst)
 -----------------------------------------------------------------------------------
      0.00000      0.00000      0.00000         0.000000      0.000000      0.000000
      0.00000      2.17600      2.17600         0.000000     -0.000000      0.000000
      2.17600      0.00000      2.17600        -0.000000      0.000000     -0.000000
      2.17600      2.17600      0.00000         0.000000     -0.000000     -0.000000
 -----------------------------------------------------------------------------------
    total drift:                                0.000000     -0.000000     -0.000000


--------------------------------------------------------------------------------------------------------



  FREE ENERGIE OF THE ION-ELECTRON SYSTEM (eV)
  ---------------------------------------------------
  free  energy   TOTEN  =       -12.39486258 eV

  energy  without entropy=      -12.39500473  energy(sigma->0) =      -12.39490996
 


--------------------------------------------------------------------------------------------------------


    POTLOK:  cpu time    0.0065: real time    0.0065


--------------------------------------------------------------------------------------------------------


     LOOP+:  cpu time    7.4303: real time    7.5541
    4ORBIT:  cpu time    0.0000: real time    0.0000

 total amount of memory used by VASP on root node    40563. kBytes
========================================================================

   base      :      30000. kBytes
   nonl-proj :       7717. kBytes
   fftplans  :        221. kBytes
   grid      :        789. kBytes
   one-center:         62. kBytes
   wavefun   :       1774. kBytes
 
  
  
 General timing and accounting informations for this job:
 ========================================================
  
                  Total CPU time used (sec):       23.606
                            User time (sec):       23.463
                          System time (sec):        0.143
                         Elapsed time (sec):       26.377
  
                   Maximum memory used (kb):       71424.
                   Average memory used (kb):           0.
  
                          Minor page faults:        15744
                          Major page faults:           10
                 Voluntary context switches:         1566
