<?xml version="1.0" encoding="ISO-8859-1"?>
<modeling>
 <generator>
  <i name="program" type="string">vasp </i>
  <i name="version" type="string">5.4.1  </i>
  <i name="subversion" type="string">05Feb16 (build Feb 08 2018 09:21:51) complex                          parallel </i>
  <i name="platform" type="string">LinuxIFC </i>
  <i name="date" type="string">2019 11 21 </i>
  <i name="time" type="string">15:55:57 </i>
 </generator>
 <incar>
  <i type="string" name="PREC">normal</i>
  <i name="ENCUT">    400.00000000</i>
  <i type="int" name="ISMEAR">     1</i>
  <i name="SIGMA">      0.10000000</i>
  <i type="logical" name="LWAVE"> F  </i>
  <i type="logical" name="LCHARG"> F  </i>
  <v type="int" name="KPOINT_BSE">    -1     0     0     0</v>
 </incar>
 <kpoints>
  <generation param="Monkhorst-Pack">
   <v type="int" name="divisions">       9        9        9 </v>
   <v name="usershift">      0.00000000       0.00000000       0.00000000 </v>
   <v name="genvec1">      0.11111111       0.00000000       0.00000000 </v>
   <v name="genvec2">      0.00000000       0.11111111       0.00000000 </v>
   <v name="genvec3">      0.00000000       0.00000000       0.11111111 </v>
   <v name="shift">      0.00000000       0.00000000       0.00000000 </v>
  </generation>
  <varray name="kpointlist" >
   <v>       0.00000000       0.00000000       0.00000000 </v>
   <v>       0.11111111       0.00000000       0.00000000 </v>
   <v>       0.22222222       0.00000000       0.00000000 </v>
   <v>       0.33333333       0.00000000       0.00000000 </v>
   <v>       0.44444444       0.00000000       0.00000000 </v>
   <v>       0.11111111       0.11111111       0.00000000 </v>
   <v>       0.22222222       0.11111111       0.00000000 </v>
   <v>       0.33333333       0.11111111       0.00000000 </v>
   <v>       0.44444444       0.11111111       0.00000000 </v>
   <v>       0.22222222       0.22222222       0.00000000 </v>
   <v>       0.33333333       0.22222222       0.00000000 </v>
   <v>       0.44444444       0.22222222       0.00000000 </v>
   <v>       0.33333333       0.33333333       0.00000000 </v>
   <v>       0.44444444       0.33333333       0.00000000 </v>
   <v>       0.44444444       0.44444444       0.00000000 </v>
   <v>       0.11111111       0.11111111       0.11111111 </v>
   <v>       0.22222222       0.11111111       0.11111111 </v>
   <v>       0.33333333       0.11111111       0.11111111 </v>
   <v>       0.44444444       0.11111111       0.11111111 </v>
   <v>       0.22222222       0.22222222       0.11111111 </v>
   <v>       0.33333333       0.22222222       0.11111111 </v>
   <v>       0.44444444       0.22222222       0.11111111 </v>
   <v>       0.33333333       0.33333333       0.11111111 </v>
   <v>       0.44444444       0.33333333       0.11111111 </v>
   <v>       0.44444444       0.44444444       0.11111111 </v>
   <v>       0.22222222       0.22222222       0.22222222 </v>
   <v>       0.33333333       0.22222222       0.22222222 </v>
   <v>       0.44444444       0.22222222       0.22222222 </v>
   <v>       0.33333333       0.33333333       0.22222222 </v>
   <v>       0.44444444       0.33333333       0.22222222 </v>
   <v>       0.44444444       0.44444444       0.22222222 </v>
   <v>       0.33333333       0.33333333       0.33333333 </v>
   <v>       0.44444444       0.33333333       0.33333333 </v>
   <v>       0.44444444       0.44444444       0.33333333 </v>
   <v>       0.44444444       0.44444444       0.44444444 </v>
  </varray>
  <varray name="weights" >
   <v>       0.00137174 </v>
   <v>       0.00823045 </v>
   <v>       0.00823045 </v>
   <v>       0.00823045 </v>
   <v>       0.00823045 </v>
   <v>       0.01646091 </v>
   <v>       0.03292181 </v>
   <v>       0.03292181 </v>
   <v>       0.03292181 </v>
   <v>       0.01646091 </v>
   <v>       0.03292181 </v>
   <v>       0.03292181 </v>
   <v>       0.01646091 </v>
   <v>       0.03292181 </v>
   <v>       0.01646091 </v>
   <v>       0.01097394 </v>
   <v>       0.03292181 </v>
   <v>       0.03292181 </v>
   <v>       0.03292181 </v>
   <v>       0.03292181 </v>
   <v>       0.06584362 </v>
   <v>       0.06584362 </v>
   <v>       0.03292181 </v>
   <v>       0.06584362 </v>
   <v>       0.03292181 </v>
   <v>       0.01097394 </v>
   <v>       0.03292181 </v>
   <v>       0.03292181 </v>
   <v>       0.03292181 </v>
   <v>       0.06584362 </v>
   <v>       0.03292181 </v>
   <v>       0.01097394 </v>
   <v>       0.03292181 </v>
   <v>       0.03292181 </v>
   <v>       0.01097394 </v>
  </varray>
 </kpoints>
 <parameters>
  <separator name="general" >
   <i type="string" name="SYSTEM">unknown system</i>
   <i type="logical" name="LCOMPAT"> F  </i>
  </separator>
  <separator name="electronic" >
   <i type="string" name="PREC">normal</i>
   <i name="ENMAX">    400.00000000</i>
   <i name="ENAUG">    356.67000000</i>
   <i name="EDIFF">      0.00010000</i>
   <i type="int" name="IALGO">    38</i>
   <i type="int" name="IWAVPR">    10</i>
   <i type="int" name="NBANDS">    48</i>
   <i name="NELECT">     44.00000000</i>
   <i type="int" name="TURBO">     0</i>
   <i type="int" name="IRESTART">     0</i>
   <i type="int" name="NREBOOT">     0</i>
   <i type="int" name="NMIN">     0</i>
   <i name="EREF">      0.00000000</i>
   <separator name="electronic smearing" >
    <i type="int" name="ISMEAR">     1</i>
    <i name="SIGMA">      0.10000000</i>
    <i name="KSPACING">      0.50000000</i>
    <i type="logical" name="KGAMMA"> T  </i>
   </separator>
   <separator name="electronic projectors" >
    <i type="logical" name="LREAL"> F  </i>
    <v name="ROPT">      0.00000000</v>
    <i type="int" name="LMAXPAW">  -100</i>
    <i type="int" name="LMAXMIX">     2</i>
    <i type="logical" name="NLSPLINE"> F  </i>
   </separator>
   <separator name="electronic startup" >
    <i type="int" name="ISTART">     0</i>
    <i type="int" name="ICHARG">     2</i>
    <i type="int" name="INIWAV">     1</i>
   </separator>
   <separator name="electronic spin" >
    <i type="int" name="ISPIN">     1</i>
    <i type="logical" name="LNONCOLLINEAR"> F  </i>
    <v name="MAGMOM">      1.00000000      1.00000000      1.00000000      1.00000000</v>
    <i name="NUPDOWN">     -1.00000000</i>
    <i type="logical" name="LSORBIT"> F  </i>
    <v name="SAXIS">      0.00000000      0.00000000      1.00000000</v>
    <i type="logical" name="LSPIRAL"> F  </i>
    <v name="QSPIRAL">      0.00000000      0.00000000      0.00000000</v>
    <i type="logical" name="LZEROZ"> F  </i>
   </separator>
   <separator name="electronic exchange-correlation" >
    <i type="logical" name="LASPH"> F  </i>
    <i type="logical" name="LMETAGGA"> F  </i>
   </separator>
   <separator name="electronic convergence" >
    <i type="int" name="NELM">    60</i>
    <i type="int" name="NELMDL">    -5</i>
    <i type="int" name="NELMIN">     2</i>
    <i name="ENINI">    400.00000000</i>
    <separator name="electronic convergence detail" >
     <i type="logical" name="LDIAG"> T  </i>
     <i type="logical" name="LSUBROT"> F  </i>
     <i name="WEIMIN">      0.00000000</i>
     <i name="EBREAK">      0.00000052</i>
     <i name="DEPER">      0.30000000</i>
     <i type="int" name="NRMM">     4</i>
     <i name="TIME">      0.40000000</i>
    </separator>
   </separator>
   <separator name="electronic mixer" >
    <i name="AMIX">      0.40000000</i>
    <i name="BMIX">      1.00000000</i>
    <i name="AMIN">      0.10000000</i>
    <i name="AMIX_MAG">      1.60000000</i>
    <i name="BMIX_MAG">      1.00000000</i>
    <separator name="electronic mixer details" >
     <i type="int" name="IMIX">     4</i>
     <i type="logical" name="MIXFIRST"> F  </i>
     <i type="int" name="MAXMIX">   -45</i>
     <i name="WC">    100.00000000</i>
     <i type="int" name="INIMIX">     1</i>
     <i type="int" name="MIXPRE">     1</i>
     <i type="int" name="MREMOVE">     5</i>
    </separator>
   </separator>
   <separator name="electronic dipolcorrection" >
    <i type="logical" name="LDIPOL"> F  </i>
    <i type="logical" name="LMONO"> F  </i>
    <i type="int" name="IDIPOL">     0</i>
    <i name="EPSILON">      1.00000000</i>
    <v name="DIPOL">   -100.00000000   -100.00000000   -100.00000000</v>
    <i name="EFIELD">      0.00000000</i>
   </separator>
  </separator>
  <separator name="grids" >
   <i type="int" name="NGX">    24</i>
   <i type="int" name="NGY">    24</i>
   <i type="int" name="NGZ">    24</i>
   <i type="int" name="NGXF">    48</i>
   <i type="int" name="NGYF">    48</i>
   <i type="int" name="NGZF">    48</i>
   <i type="logical" name="ADDGRID"> F  </i>
  </separator>
  <separator name="ionic" >
   <i type="int" name="NSW">     0</i>
   <i type="int" name="IBRION">    -1</i>
   <i type="int" name="ISIF">     2</i>
   <i name="PSTRESS">      0.00000000</i>
   <i name="EDIFFG">      0.00100000</i>
   <i type="int" name="NFREE">     0</i>
   <i name="POTIM">      0.50000000</i>
   <i name="SMASS">     -3.00000000</i>
   <i name="SCALEE">      1.00000000</i>
  </separator>
  <separator name="ionic md" >
   <i name="TEBEG">      0.00010000</i>
   <i name="TEEND">      0.00010000</i>
   <i type="int" name="NBLOCK">     1</i>
   <i type="int" name="KBLOCK">     1</i>
   <i type="int" name="NPACO">   256</i>
   <i name="APACO">     16.00000000</i>
  </separator>
  <separator name="symmetry" >
   <i type="int" name="ISYM">     2</i>
   <i name="SYMPREC">      0.00001000</i>
  </separator>
  <separator name="dos" >
   <i type="logical" name="LORBIT"> F  </i>
   <v name="RWIGS">     -1.00000000</v>
   <i type="int" name="NEDOS">   301</i>
   <i name="EMIN">     10.00000000</i>
   <i name="EMAX">    -10.00000000</i>
   <i name="EFERMI">      0.00000000</i>
  </separator>
  <separator name="writing" >
   <i type="int" name="NWRITE">     2</i>
   <i type="logical" name="LWAVE"> F  </i>
   <i type="logical" name="LCHARG"> F  </i>
   <i type="logical" name="LPARD"> F  </i>
   <i type="logical" name="LVTOT"> F  </i>
   <i type="logical" name="LVHAR"> F  </i>
   <i type="logical" name="LELF"> F  </i>
   <i type="logical" name="LOPTICS"> F  </i>
   <v name="STM">      0.00000000      0.00000000      0.00000000      0.00000000      0.00000000      0.00000000      0.00000000</v>
  </separator>
  <separator name="performance" >
   <i type="int" name="NPAR">    24</i>
   <i type="int" name="NSIM">     4</i>
   <i type="int" name="NBLK">    -1</i>
   <i type="logical" name="LPLANE"> T  </i>
   <i type="logical" name="LSCALAPACK"> F  </i>
   <i type="logical" name="LSCAAWARE"> F  </i>
   <i type="logical" name="LSCALU"> F  </i>
   <i type="logical" name="LASYNC"> F  </i>
   <i type="logical" name="LORBITALREAL"> F  </i>
  </separator>
  <separator name="miscellaneous" >
   <i type="int" name="IDIOT">     3</i>
   <i type="logical" name="LMUSIC"> F  </i>
   <v name="POMASS">    196.96600000</v>
   <v name="DARWINR">      0.00000000</v>
   <v name="DARWINV">      1.00000000</v>
   <i type="logical" name="LCORR"> T  </i>
  </separator>
  <i type="logical" name="GGA_COMPAT"> T  </i>
  <i type="logical" name="LBERRY"> F  </i>
  <i type="int" name="ICORELEVEL">     0</i>
  <i type="logical" name="LDAU"> F  </i>
  <i type="int" name="I_CONSTRAINED_M">     0</i>
  <separator name="electronic exchange-correlation" >
   <i type="string" name="GGA">--</i>
   <i type="int" name="VOSKOWN">     0</i>
   <i type="logical" name="LHFCALC"> F  </i>
   <i type="string" name="PRECFOCK"></i>
   <i type="logical" name="LSYMGRAD"> F  </i>
   <i type="logical" name="LHFONE"> F  </i>
   <i type="logical" name="LRHFCALC"> F  </i>
   <i type="logical" name="LTHOMAS"> F  </i>
   <i type="logical" name="LMODELHF"> F  </i>
   <i name="ENCUT4O">     -1.00000000</i>
   <i type="int" name="EXXOEP">     0</i>
   <i type="int" name="FOURORBIT">     0</i>
   <i name="AEXX">      0.00000000</i>
   <i name="HFALPHA">      0.00000000</i>
   <i name="MCALPHA">      0.00000000</i>
   <i name="ALDAX">      1.00000000</i>
   <i name="AGGAX">      1.00000000</i>
   <i name="ALDAC">      1.00000000</i>
   <i name="AGGAC">      1.00000000</i>
   <i type="int" name="NKREDX">     1</i>
   <i type="int" name="NKREDY">     1</i>
   <i type="int" name="NKREDZ">     1</i>
   <i type="logical" name="SHIFTRED"> F  </i>
   <i type="logical" name="ODDONLY"> F  </i>
   <i type="logical" name="EVENONLY"> F  </i>
   <i type="int" name="LMAXFOCK">     0</i>
   <i type="int" name="NMAXFOCKAE">     0</i>
   <i type="logical" name="LFOCKAEDFT"> F  </i>
   <i name="HFSCREEN">      0.00000000</i>
   <i name="HFSCREENC">      0.00000000</i>
   <i type="int" name="NBANDSGWLOW">     0</i>
  </separator>
  <separator name="vdW DFT" >
   <i type="logical" name="LUSE_VDW"> F  </i>
   <i name="Zab_VDW">     -0.84910000</i>
   <i name="PARAM1">      0.12340000</i>
   <i name="PARAM2">      1.00000000</i>
   <i name="PARAM3">      0.00000000</i>
  </separator>
  <separator name="model GW" >
   <i type="int" name="MODEL_GW">     0</i>
   <i name="MODEL_EPS0">     12.36396933</i>
   <i name="MODEL_ALPHA">      1.00000000</i>
  </separator>
  <separator name="linear response parameters" >
   <i type="logical" name="LEPSILON"> F  </i>
   <i type="logical" name="LRPA"> F  </i>
   <i type="logical" name="LNABLA"> F  </i>
   <i type="logical" name="LVEL"> F  </i>
   <i type="int" name="KINTER">     0</i>
   <i name="CSHIFT">      0.10000000</i>
   <i name="OMEGAMAX">     -1.00000000</i>
   <i name="DEG_THRESHOLD">      0.00200000</i>
  </separator>
  <separator name="orbital magnetization" >
   <i type="logical" name="NUCIND"> F  </i>
   <v name="MAGPOS">      0.00000000      0.00000000      0.00000000</v>
   <i type="logical" name="LNICSALL"> T  </i>
   <i type="logical" name="ORBITALMAG"> F  </i>
   <i type="logical" name="LMAGBLOCH"> F  </i>
   <i type="logical" name="LCHIMAG"> F  </i>
   <i type="logical" name="LGAUGE"> T  </i>
   <i type="int" name="MAGATOM">     0</i>
   <v name="MAGDIPOL">      0.00000000      0.00000000      0.00000000</v>
   <v name="AVECCONST">      0.00000000      0.00000000      0.00000000</v>
  </separator>
  <separator name="response functions" >
   <i type="logical" name="LADDER"> F  </i>
   <i type="logical" name="LFXC"> F  </i>
   <i type="logical" name="LHARTREE"> T  </i>
   <i type="int" name="IBSE">     0</i>
   <v type="int" name="KPOINT">    -1     0     0     0</v>
   <i type="logical" name="LTCTE"> F  </i>
   <i type="logical" name="LTETE"> F  </i>
   <i type="logical" name="LTRIPLET"> F  </i>
   <i type="logical" name="LFXCEPS"> F  </i>
   <i type="logical" name="LFXHEG"> F  </i>
   <i type="int" name="NATURALO">     0</i>
   <i type="logical" name="L2ORDER"> F  </i>
   <i type="logical" name="LUSEW"> F  </i>
   <i name="ENCUTGW">     -2.00000000</i>
   <i name="ENCUTGWSOFT">     -2.00000000</i>
   <i name="ENCUTLF">     -1.00000000</i>
   <i type="int" name="LMAXMP2">    -1</i>
   <i name="SCISSOR">      0.00000000</i>
   <i type="int" name="NOMEGA">     0</i>
   <i type="int" name="NOMEGAR">     0</i>
   <i type="int" name="NBANDSGW">    -1</i>
   <i type="int" name="NBANDSO">    -1</i>
   <i type="int" name="NBANDSV">    -1</i>
   <i type="int" name="NELM">     1</i>
   <i type="int" name="NELMHF">     1</i>
   <i type="int" name="DIM">     3</i>
   <i type="int" name="ANTIRES">     0</i>
   <i name="OMEGAMAX">    -30.00000000</i>
   <i name="OMEGAMIN">    -30.00000000</i>
   <i name="OMEGATL">   -200.00000000</i>
   <i type="int" name="OMEGAGRID">     0</i>
   <i name="CSHIFT">     -0.10000000</i>
   <i type="logical" name="SELFENERGY"> F  </i>
   <i type="logical" name="LSPECTRAL"> F  </i>
   <i type="logical" name="LSPECTRALGW"> F  </i>
   <i type="logical" name="LSINGLES"> F  </i>
   <i type="logical" name="LFERMIGW"> F  </i>
   <i type="logical" name="ODDONLYGW"> F  </i>
   <i type="logical" name="EVENONLYGW"> F  </i>
   <i type="int" name="NKREDLFX">     1</i>
   <i type="int" name="NKREDLFY">     1</i>
   <i type="int" name="NKREDLFZ">     1</i>
   <i type="int" name="MAXMEM">  1800</i>
   <i type="int" name="TELESCOPE">     0</i>
   <i type="int" name="TAUPAR">     1</i>
   <i type="int" name="OMEGAPAR">    -1</i>
   <i name="LAMBDA">      1.00000000</i>
  </separator>
  <separator name="External order field" >
   <i name="OFIELD_KAPPA">      0.00000000</i>
   <v name="OFIELD_K">      0.00000000      0.00000000      0.00000000</v>
   <i name="OFIELD_Q6_NEAR">      0.00000000</i>
   <i name="OFIELD_Q6_FAR">      0.00000000</i>
   <i name="OFIELD_A">      0.00000000</i>
  </separator>
 </parameters>
 <atominfo>
  <atoms>       4 </atoms>
  <types>       1 </types>
  <array name="atoms" >
   <dimension dim="1">ion</dimension>
   <field type="string">element</field>
   <field type="int">atomtype</field>
   <set>
    <rc><c>Au</c><c>   1</c></rc>
    <rc><c>Au</c><c>   1</c></rc>
    <rc><c>Au</c><c>   1</c></rc>
    <rc><c>Au</c><c>   1</c></rc>
   </set>
  </array>
  <array name="atomtypes" >
   <dimension dim="1">type</dimension>
   <field type="int">atomspertype</field>
   <field type="string">element</field>
   <field>mass</field>
   <field>valence</field>
   <field type="string">pseudopotential</field>
   <set>
    <rc><c>   4</c><c>Au</c><c>    196.96600000</c><c>     11.00000000</c><c>  PAW_PBE Au 04Oct2007                  </c></rc>
   </set>
  </array>
 </atominfo>
 <structure name="initialpos" >
  <crystal>
   <varray name="basis" >
    <v>       4.35200000       0.00000000       0.00000000 </v>
    <v>       0.00000000       4.35200000       0.00000000 </v>
    <v>       0.00000000       0.00000000       4.35200000 </v>
   </varray>
   <i name="volume">     82.42646221 </i>
   <varray name="rec_basis" >
    <v>       0.22977941       0.00000000       0.00000000 </v>
    <v>       0.00000000       0.22977941       0.00000000 </v>
    <v>       0.00000000       0.00000000       0.22977941 </v>
   </varray>
  </crystal>
  <varray name="positions" >
   <v>       0.00000000       0.00000000       0.00000000 </v>
   <v>       0.00000000       0.50000000       0.50000000 </v>
   <v>       0.50000000       0.00000000       0.50000000 </v>
   <v>       0.50000000       0.50000000       0.00000000 </v>
  </varray>
 </structure>
 <calculation>
  <scstep>
   <time name="dav">    0.57    0.57</time>
   <time name="total">    0.86    0.92</time>
   <energy>
    <i name="alphaZ">    226.10137935 </i>
    <i name="ewald">  -3671.20665883 </i>
    <i name="hartreedc">   -597.10020238 </i>
    <i name="XCdc">     60.23246439 </i>
    <i name="pawpsdc">   3496.39001341 </i>
    <i name="pawaedc">  -3404.04053930 </i>
    <i name="eentropy">     -0.00153207 </i>
    <i name="bandstr">    360.18233834 </i>
    <i name="atom">   3704.32207507 </i>
    <i name="e_fr_energy">    174.87933798 </i>
    <i name="e_wo_entrp">    174.88087005 </i>
    <i name="e_0_energy">    174.87984867 </i>
   </energy>
  </scstep>
  <scstep>
   <time name="dav">    0.71    0.71</time>
   <time name="total">    0.71    0.72</time>
   <energy>
    <i name="e_fr_energy">    -10.99331291 </i>
    <i name="e_wo_entrp">    -10.99353403 </i>
    <i name="e_0_energy">    -10.99338662 </i>
   </energy>
  </scstep>
  <scstep>
   <time name="dav">    0.73    0.73</time>
   <time name="total">    0.73    0.74</time>
   <energy>
    <i name="e_fr_energy">    -13.33717258 </i>
    <i name="e_wo_entrp">    -13.33733625 </i>
    <i name="e_0_energy">    -13.33722714 </i>
   </energy>
  </scstep>
  <scstep>
   <time name="dav">    0.86    0.86</time>
   <time name="total">    0.86    0.87</time>
   <energy>
    <i name="e_fr_energy">    -13.34786343 </i>
    <i name="e_wo_entrp">    -13.34802674 </i>
    <i name="e_0_energy">    -13.34791787 </i>
   </energy>
  </scstep>
  <scstep>
   <time name="dav">    0.73    0.73</time>
   <time name="total">    0.75    0.75</time>
   <energy>
    <i name="e_fr_energy">    -13.34797674 </i>
    <i name="e_wo_entrp">    -13.34814004 </i>
    <i name="e_0_energy">    -13.34803117 </i>
   </energy>
  </scstep>
  <scstep>
   <time name="dav">    0.76    0.76</time>
   <time name="total">    0.79    0.79</time>
   <energy>
    <i name="e_fr_energy">    -12.42777345 </i>
    <i name="e_wo_entrp">    -12.42827614 </i>
    <i name="e_0_energy">    -12.42794101 </i>
   </energy>
  </scstep>
  <scstep>
   <time name="dav">    0.76    0.76</time>
   <time name="total">    0.81    0.83</time>
   <energy>
    <i name="e_fr_energy">    -12.39864748 </i>
    <i name="e_wo_entrp">    -12.39879243 </i>
    <i name="e_0_energy">    -12.39869580 </i>
   </energy>
  </scstep>
  <scstep>
   <time name="dav">    0.76    0.76</time>
   <time name="total">    0.78    0.78</time>
   <energy>
    <i name="e_fr_energy">    -12.39487908 </i>
    <i name="e_wo_entrp">    -12.39500909 </i>
    <i name="e_0_energy">    -12.39492242 </i>
   </energy>
  </scstep>
  <scstep>
   <time name="dav">    0.65    0.65</time>
   <time name="total">    0.66    0.66</time>
   <energy>
    <i name="alphaZ">    226.10137935 </i>
    <i name="ewald">  -3671.20665883 </i>
    <i name="hartreedc">   -554.79112018 </i>
    <i name="XCdc">     58.29799739 </i>
    <i name="pawpsdc">   3847.20206544 </i>
    <i name="pawaedc">  -3761.96480409 </i>
    <i name="eentropy">      0.00014214 </i>
    <i name="bandstr">    139.64406113 </i>
    <i name="atom">   3704.32207507 </i>
    <i name="e_fr_energy">    -12.39486258 </i>
    <i name="e_wo_entrp">    -12.39500473 </i>
    <i name="e_0_energy">    -12.39490996 </i>
   </energy>
  </scstep>
  <structure>
   <crystal>
    <varray name="basis" >
     <v>       4.35200000       0.00000000       0.00000000 </v>
     <v>       0.00000000       4.35200000       0.00000000 </v>
     <v>       0.00000000       0.00000000       4.35200000 </v>
    </varray>
    <i name="volume">     82.42646221 </i>
    <varray name="rec_basis" >
     <v>       0.22977941       0.00000000       0.00000000 </v>
     <v>       0.00000000       0.22977941       0.00000000 </v>
     <v>       0.00000000       0.00000000       0.22977941 </v>
    </varray>
   </crystal>
   <varray name="positions" >
    <v>       0.00000000       0.00000000       0.00000000 </v>
    <v>       0.00000000       0.50000000       0.50000000 </v>
    <v>       0.50000000       0.00000000       0.50000000 </v>
    <v>       0.50000000       0.50000000       0.00000000 </v>
   </varray>
  </structure>
  <varray name="forces" >
   <v>       0.00000000       0.00000000       0.00000000 </v>
   <v>       0.00000000      -0.00000000       0.00000000 </v>
   <v>      -0.00000000       0.00000000      -0.00000000 </v>
   <v>       0.00000000      -0.00000000      -0.00000000 </v>
  </varray>
  <varray name="stress" >
   <v>    -127.27984603      -0.00000000      -0.00000000 </v>
   <v>       0.00000000    -127.27984603      -0.00000000 </v>
   <v>       0.00000000      -0.00000000    -127.27984603 </v>
  </varray>
  <energy>
   <i name="e_fr_energy">    -12.39486258 </i>
   <i name="e_wo_entrp">    -12.39490996 </i>
   <i name="e_0_energy">      0.00014214 </i>
  </energy>
  <time name="totalsc">    7.43    7.55</time>
  <eigenvalues>
   <array>
    <dimension dim="1">band</dimension>
    <dimension dim="2">kpoint</dimension>
    <dimension dim="3">spin</dimension>
    <field>eigene</field>
    <field>occ</field>
    <set>
     <set comment="spin 1">
      <set comment="kpoint 1">
       <r>   -1.3933    1.0000 </r>
       <r>    1.1186    1.0000 </r>
       <r>    1.1186    1.0000 </r>
       <r>    1.1186    1.0000 </r>
       <r>    1.3402    1.0000 </r>
       <r>    1.3402    1.0000 </r>
       <r>    1.3402    1.0000 </r>
       <r>    2.8281    1.0000 </r>
       <r>    2.8281    1.0000 </r>
       <r>    2.8281    1.0000 </r>
       <r>    3.9080    1.0000 </r>
       <r>    3.9080    1.0000 </r>
       <r>    4.7291    1.0000 </r>
       <r>    4.7291    1.0000 </r>
       <r>    4.7291    1.0000 </r>
       <r>    4.9913    1.0000 </r>
       <r>    4.9913    1.0000 </r>
       <r>    4.9913    1.0000 </r>
       <r>    4.9913    1.0000 </r>
       <r>    4.9913    1.0000 </r>
       <r>    4.9913    1.0000 </r>
       <r>    8.1518   -0.0000 </r>
       <r>    8.1518   -0.0000 </r>
       <r>    8.1518   -0.0000 </r>
       <r>   11.0158    0.0000 </r>
       <r>   11.0158    0.0000 </r>
       <r>   11.0158    0.0000 </r>
       <r>   16.0671    0.0000 </r>
       <r>   16.0671    0.0000 </r>
       <r>   16.0671    0.0000 </r>
       <r>   16.0671    0.0000 </r>
       <r>   16.0671    0.0000 </r>
       <r>   16.0671    0.0000 </r>
       <r>   21.2364    0.0000 </r>
       <r>   21.8824    0.0000 </r>
       <r>   21.8824    0.0000 </r>
       <r>   21.8824    0.0000 </r>
       <r>   24.0440    0.0000 </r>
       <r>   24.0440    0.0000 </r>
       <r>   24.0440    0.0000 </r>
       <r>   24.1318    0.0000 </r>
       <r>   24.1318    0.0000 </r>
       <r>   24.1318    0.0000 </r>
       <r>   28.5009    0.0000 </r>
       <r>   31.4139    0.0000 </r>
       <r>   31.4139    0.0000 </r>
       <r>   31.4139    0.0000 </r>
       <r>   32.3651    0.0000 </r>
      </set>
      <set comment="kpoint 2">
       <r>   -1.2717    1.0000 </r>
       <r>    1.1530    1.0000 </r>
       <r>    1.1930    1.0000 </r>
       <r>    1.1930    1.0000 </r>
       <r>    1.3794    1.0000 </r>
       <r>    1.4001    1.0000 </r>
       <r>    1.4001    1.0000 </r>
       <r>    2.7762    1.0000 </r>
       <r>    2.8760    1.0000 </r>
       <r>    2.8760    1.0000 </r>
       <r>    3.8538    1.0000 </r>
       <r>    3.9311    1.0000 </r>
       <r>    4.6532    1.0000 </r>
       <r>    4.6532    1.0000 </r>
       <r>    4.7026    1.0000 </r>
       <r>    4.7031    1.0000 </r>
       <r>    4.7031    1.0000 </r>
       <r>    4.8979    1.0000 </r>
       <r>    4.8979    1.0000 </r>
       <r>    4.9914    1.0000 </r>
       <r>    4.9914    1.0000 </r>
       <r>    7.1345   -0.0000 </r>
       <r>    8.5348   -0.0000 </r>
       <r>    8.5348   -0.0000 </r>
       <r>   10.9367    0.0000 </r>
       <r>   10.9367    0.0000 </r>
       <r>   12.2507    0.0000 </r>
       <r>   15.8133    0.0000 </r>
       <r>   15.8133    0.0000 </r>
       <r>   15.8682    0.0000 </r>
       <r>   15.8682    0.0000 </r>
       <r>   16.2989    0.0000 </r>
       <r>   16.2989    0.0000 </r>
       <r>   21.3407    0.0000 </r>
       <r>   21.8324    0.0000 </r>
       <r>   22.4618    0.0000 </r>
       <r>   22.4618    0.0000 </r>
       <r>   23.6685    0.0000 </r>
       <r>   23.9243    0.0000 </r>
       <r>   23.9243    0.0000 </r>
       <r>   23.9779    0.0000 </r>
       <r>   24.2671    0.0000 </r>
       <r>   24.2671    0.0000 </r>
       <r>   29.2578    0.0000 </r>
       <r>   30.4135    0.0000 </r>
       <r>   30.4135    0.0000 </r>
       <r>   31.1667    0.0000 </r>
       <r>   31.5415    0.0000 </r>
      </set>
      <set comment="kpoint 3">
       <r>   -0.9137    1.0000 </r>
       <r>    1.2308    1.0000 </r>
       <r>    1.4014    1.0000 </r>
       <r>    1.4014    1.0000 </r>
       <r>    1.4941    1.0000 </r>
       <r>    1.5796    1.0000 </r>
       <r>    1.5796    1.0000 </r>
       <r>    2.6300    1.0000 </r>
       <r>    3.0179    1.0000 </r>
       <r>    3.0179    1.0000 </r>
       <r>    3.7049    1.0000 </r>
       <r>    3.9982    1.0000 </r>
       <r>    4.0890    1.0000 </r>
       <r>    4.0890    1.0000 </r>
       <r>    4.4375    1.0000 </r>
       <r>    4.4375    1.0000 </r>
       <r>    4.6268    1.0000 </r>
       <r>    4.6449    1.0000 </r>
       <r>    4.6449    1.0000 </r>
       <r>    4.9918    1.0000 </r>
       <r>    4.9918    1.0000 </r>
       <r>    5.5888    1.0000 </r>
       <r>    9.4293    0.0000 </r>
       <r>    9.4293    0.0000 </r>
       <r>   10.7408    0.0000 </r>
       <r>   10.7408    0.0000 </r>
       <r>   14.4677    0.0000 </r>
       <r>   15.1204    0.0000 </r>
       <r>   15.1204    0.0000 </r>
       <r>   15.4823    0.0000 </r>
       <r>   15.4823    0.0000 </r>
       <r>   16.9622    0.0000 </r>
       <r>   16.9622    0.0000 </r>
       <r>   21.6341    0.0000 </r>
       <r>   21.7134    0.0000 </r>
       <r>   22.8472    0.0000 </r>
       <r>   23.2324    0.0000 </r>
       <r>   23.2324    0.0000 </r>
       <r>   23.7818    0.0000 </r>
       <r>   23.9412    0.0000 </r>
       <r>   23.9412    0.0000 </r>
       <r>   24.8922    0.0000 </r>
       <r>   24.8922    0.0000 </r>
       <r>   28.3106    0.0000 </r>
       <r>   29.7038    0.0000 </r>
       <r>   29.7038    0.0000 </r>
       <r>   31.4237    0.0000 </r>
       <r>   31.4875    0.0000 </r>
      </set>
      <set comment="kpoint 4">
       <r>   -0.3461    1.0000 </r>
       <r>    1.2495    1.0000 </r>
       <r>    1.6746    1.0000 </r>
       <r>    1.6896    1.0000 </r>
       <r>    1.6896    1.0000 </r>
       <r>    1.8773    1.0000 </r>
       <r>    1.8773    1.0000 </r>
       <r>    2.4139    1.0000 </r>
       <r>    3.2477    1.0000 </r>
       <r>    3.2477    1.0000 </r>
       <r>    3.4229    1.0000 </r>
       <r>    3.4229    1.0000 </r>
       <r>    3.5068    1.0000 </r>
       <r>    4.1026    1.0000 </r>
       <r>    4.1347    1.0000 </r>
       <r>    4.1347    1.0000 </r>
       <r>    4.2829    1.0000 </r>
       <r>    4.2949    1.0000 </r>
       <r>    4.2949    1.0000 </r>
       <r>    4.5126    1.0000 </r>
       <r>    4.9922    1.0000 </r>
       <r>    4.9922    1.0000 </r>
       <r>   10.5276    0.0000 </r>
       <r>   10.5276    0.0000 </r>
       <r>   10.5464    0.0000 </r>
       <r>   10.5464    0.0000 </r>
       <r>   14.1306    0.0000 </r>
       <r>   14.1306    0.0000 </r>
       <r>   15.1662    0.0000 </r>
       <r>   15.1662    0.0000 </r>
       <r>   16.9785    0.0000 </r>
       <r>   17.9788    0.0000 </r>
       <r>   17.9788    0.0000 </r>
       <r>   21.6039    0.0000 </r>
       <r>   22.0638    0.0000 </r>
       <r>   22.0698    0.0000 </r>
       <r>   22.0698    0.0000 </r>
       <r>   22.1626    0.0000 </r>
       <r>   23.4638    0.0000 </r>
       <r>   25.4535    0.0000 </r>
       <r>   25.8379    0.0000 </r>
       <r>   25.8379    0.0000 </r>
       <r>   25.9230    0.0000 </r>
       <r>   25.9230    0.0000 </r>
       <r>   29.7621    0.0000 </r>
       <r>   29.7621    0.0000 </r>
       <r>   30.0069    0.0000 </r>
       <r>   30.0069    0.0000 </r>
      </set>
      <set comment="kpoint 5">
       <r>    0.3556    1.0000 </r>
       <r>    0.9835    1.0000 </r>
       <r>    1.9046    1.0000 </r>
       <r>    1.9301    1.0000 </r>
       <r>    1.9301    1.0000 </r>
       <r>    2.1609    1.0000 </r>
       <r>    2.2899    1.0000 </r>
       <r>    2.2899    1.0000 </r>
       <r>    2.8104    1.0000 </r>
       <r>    2.8104    1.0000 </r>
       <r>    3.3641    1.0000 </r>
       <r>    3.5177    1.0000 </r>
       <r>    3.5535    1.0000 </r>
       <r>    3.5535    1.0000 </r>
       <r>    3.8811    1.0000 </r>
       <r>    3.8811    1.0000 </r>
       <r>    3.9140    1.0000 </r>
       <r>    3.9140    1.0000 </r>
       <r>    4.2332    1.0000 </r>
       <r>    4.3755    1.0000 </r>
       <r>    4.9924    1.0000 </r>
       <r>    4.9924    1.0000 </r>
       <r>   10.3949    0.0000 </r>
       <r>   10.3949    0.0000 </r>
       <r>   11.7550    0.0000 </r>
       <r>   11.7550    0.0000 </r>
       <r>   12.9758    0.0000 </r>
       <r>   12.9758    0.0000 </r>
       <r>   15.0033    0.0000 </r>
       <r>   15.0033    0.0000 </r>
       <r>   19.2508    0.0000 </r>
       <r>   19.2508    0.0000 </r>
       <r>   19.6630    0.0000 </r>
       <r>   20.6656    0.0000 </r>
       <r>   20.6656    0.0000 </r>
       <r>   21.6065    0.0000 </r>
       <r>   21.6982    0.0000 </r>
       <r>   22.5576    0.0000 </r>
       <r>   22.5807    0.0000 </r>
       <r>   23.0435    0.0000 </r>
       <r>   27.0425    0.0000 </r>
       <r>   27.0425    0.0000 </r>
       <r>   27.9849    0.0000 </r>
       <r>   27.9849    0.0000 </r>
       <r>   28.4581    0.0000 </r>
       <r>   28.4581    0.0000 </r>
       <r>   30.4563    0.0000 </r>
       <r>   30.4563    0.0000 </r>
      </set>
      <set comment="kpoint 6">
       <r>   -1.1522    1.0000 </r>
       <r>    1.2289    1.0000 </r>
       <r>    1.2289    1.0000 </r>
       <r>    1.2487    1.0000 </r>
       <r>    1.4380    1.0000 </r>
       <r>    1.4380    1.0000 </r>
       <r>    1.4733    1.0000 </r>
       <r>    2.7572    1.0000 </r>
       <r>    2.8935    1.0000 </r>
       <r>    2.9165    1.0000 </r>
       <r>    3.8407    1.0000 </r>
       <r>    3.9223    1.0000 </r>
       <r>    4.5059    1.0000 </r>
       <r>    4.5059    1.0000 </r>
       <r>    4.5219    1.0000 </r>
       <r>    4.5844    1.0000 </r>
       <r>    4.7088    1.0000 </r>
       <r>    4.7088    1.0000 </r>
       <r>    4.8976    1.0000 </r>
       <r>    4.8976    1.0000 </r>
       <r>    4.9281    1.0000 </r>
       <r>    7.4953   -0.0000 </r>
       <r>    7.4953   -0.0000 </r>
       <r>    8.8754   -0.0000 </r>
       <r>   10.8379    0.0000 </r>
       <r>   12.1830    0.0000 </r>
       <r>   12.1830    0.0000 </r>
       <r>   14.9648    0.0000 </r>
       <r>   16.0385    0.0000 </r>
       <r>   16.0385    0.0000 </r>
       <r>   16.1105    0.0000 </r>
       <r>   16.1105    0.0000 </r>
       <r>   16.5018    0.0000 </r>
       <r>   21.3936    0.0000 </r>
       <r>   22.4258    0.0000 </r>
       <r>   22.4258    0.0000 </r>
       <r>   22.5610    0.0000 </r>
       <r>   22.6674    0.0000 </r>
       <r>   23.7658    0.0000 </r>
       <r>   24.2116    0.0000 </r>
       <r>   24.2116    0.0000 </r>
       <r>   24.6000    0.0000 </r>
       <r>   24.7461    0.0000 </r>
       <r>   28.5918    0.0000 </r>
       <r>   30.2482    0.0000 </r>
       <r>   30.6378    0.0000 </r>
       <r>   31.2780    0.0000 </r>
       <r>   31.3315    0.0000 </r>
      </set>
      <set comment="kpoint 7">
       <r>   -0.8005    1.0000 </r>
       <r>    1.3110    1.0000 </r>
       <r>    1.4119    1.0000 </r>
       <r>    1.4418    1.0000 </r>
       <r>    1.5486    1.0000 </r>
       <r>    1.6133    1.0000 </r>
       <r>    1.6806    1.0000 </r>
       <r>    2.6330    1.0000 </r>
       <r>    3.0201    1.0000 </r>
       <r>    3.0318    1.0000 </r>
       <r>    3.7199    1.0000 </r>
       <r>    3.9069    1.0000 </r>
       <r>    3.9926    1.0000 </r>
       <r>    4.0035    1.0000 </r>
       <r>    4.1690    1.0000 </r>
       <r>    4.3872    1.0000 </r>
       <r>    4.4802    1.0000 </r>
       <r>    4.6261    1.0000 </r>
       <r>    4.6435    1.0000 </r>
       <r>    4.8961    1.0000 </r>
       <r>    4.8966    1.0000 </r>
       <r>    6.0459    1.0000 </r>
       <r>    8.2315   -0.0000 </r>
       <r>    9.7090    0.0000 </r>
       <r>   10.5792    0.0000 </r>
       <r>   12.0442    0.0000 </r>
       <r>   14.1416    0.0000 </r>
       <r>   14.2566    0.0000 </r>
       <r>   15.3332    0.0000 </r>
       <r>   15.7840    0.0000 </r>
       <r>   16.6300    0.0000 </r>
       <r>   16.6804    0.0000 </r>
       <r>   16.8400    0.0000 </r>
       <r>   21.4592    0.0000 </r>
       <r>   21.5238    0.0000 </r>
       <r>   22.3570    0.0000 </r>
       <r>   23.1776    0.0000 </r>
       <r>   23.3209    0.0000 </r>
       <r>   23.9083    0.0000 </r>
       <r>   24.0478    0.0000 </r>
       <r>   24.5828    0.0000 </r>
       <r>   24.8610    0.0000 </r>
       <r>   25.8985    0.0000 </r>
       <r>   27.4594    0.0000 </r>
       <r>   29.7312    0.0000 </r>
       <r>   29.8826    0.0000 </r>
       <r>   31.4100    0.0000 </r>
       <r>   31.5091    0.0000 </r>
      </set>
      <set comment="kpoint 8">
       <r>   -0.2434    1.0000 </r>
       <r>    1.3354    1.0000 </r>
       <r>    1.6692    1.0000 </r>
       <r>    1.7224    1.0000 </r>
       <r>    1.7386    1.0000 </r>
       <r>    1.9033    1.0000 </r>
       <r>    1.9782    1.0000 </r>
       <r>    2.4301    1.0000 </r>
       <r>    3.1744    1.0000 </r>
       <r>    3.2464    1.0000 </r>
       <r>    3.2668    1.0000 </r>
       <r>    3.3883    1.0000 </r>
       <r>    3.5888    1.0000 </r>
       <r>    3.6663    1.0000 </r>
       <r>    4.1080    1.0000 </r>
       <r>    4.1232    1.0000 </r>
       <r>    4.1835    1.0000 </r>
       <r>    4.2925    1.0000 </r>
       <r>    4.4323    1.0000 </r>
       <r>    4.8904    1.0000 </r>
       <r>    4.8949    1.0000 </r>
       <r>    4.9910    1.0000 </r>
       <r>    8.9744   -0.0000 </r>
       <r>   10.2516    0.0000 </r>
       <r>   10.7860    0.0000 </r>
       <r>   12.0103    0.0000 </r>
       <r>   13.4252    0.0000 </r>
       <r>   14.3354    0.0000 </r>
       <r>   15.5970    0.0000 </r>
       <r>   16.3112    0.0000 </r>
       <r>   16.3131    0.0000 </r>
       <r>   17.6537    0.0000 </r>
       <r>   18.1526    0.0000 </r>
       <r>   20.4151    0.0000 </r>
       <r>   21.1190    0.0000 </r>
       <r>   22.3593    0.0000 </r>
       <r>   22.9749    0.0000 </r>
       <r>   23.7577    0.0000 </r>
       <r>   23.7864    0.0000 </r>
       <r>   24.3599    0.0000 </r>
       <r>   25.5458    0.0000 </r>
       <r>   25.7688    0.0000 </r>
       <r>   25.8338    0.0000 </r>
       <r>   27.4792    0.0000 </r>
       <r>   29.2057    0.0000 </r>
       <r>   29.9652    0.0000 </r>
       <r>   29.9733    0.0000 </r>
       <r>   30.0743    0.0000 </r>
      </set>
      <set comment="kpoint 9">
       <r>    0.4461    1.0000 </r>
       <r>    1.0695    1.0000 </r>
       <r>    1.9435    1.0000 </r>
       <r>    1.9508    1.0000 </r>
       <r>    1.9877    1.0000 </r>
       <r>    2.1890    1.0000 </r>
       <r>    2.2975    1.0000 </r>
       <r>    2.3038    1.0000 </r>
       <r>    2.7069    1.0000 </r>
       <r>    2.8057    1.0000 </r>
       <r>    3.1777    1.0000 </r>
       <r>    3.2443    1.0000 </r>
       <r>    3.5509    1.0000 </r>
       <r>    3.7097    1.0000 </r>
       <r>    3.8833    1.0000 </r>
       <r>    3.9112    1.0000 </r>
       <r>    3.9174    1.0000 </r>
       <r>    4.0633    1.0000 </r>
       <r>    4.2954    1.0000 </r>
       <r>    4.5206    1.0000 </r>
       <r>    4.8907    1.0000 </r>
       <r>    4.8927    1.0000 </r>
       <r>    9.5368    0.0000 </r>
       <r>    9.9201    0.0000 </r>
       <r>   11.9715    0.0000 </r>
       <r>   12.2602    0.0000 </r>
       <r>   12.7815    0.0000 </r>
       <r>   13.1814    0.0000 </r>
       <r>   15.6354    0.0000 </r>
       <r>   15.9002    0.0000 </r>
       <r>   17.9474    0.0000 </r>
       <r>   18.8451    0.0000 </r>
       <r>   19.2590    0.0000 </r>
       <r>   20.0998    0.0000 </r>
       <r>   20.2089    0.0000 </r>
       <r>   22.5023    0.0000 </r>
       <r>   22.5840    0.0000 </r>
       <r>   23.1191    0.0000 </r>
       <r>   23.3585    0.0000 </r>
       <r>   23.4542    0.0000 </r>
       <r>   25.7696    0.0000 </r>
       <r>   26.8104    0.0000 </r>
       <r>   27.0643    0.0000 </r>
       <r>   28.5047    0.0000 </r>
       <r>   29.3384    0.0000 </r>
       <r>   29.5130    0.0000 </r>
       <r>   29.8499    0.0000 </r>
       <r>   30.6072    0.0000 </r>
      </set>
      <set comment="kpoint 10">
       <r>   -0.4684    1.0000 </r>
       <r>    1.4964    1.0000 </r>
       <r>    1.5381    1.0000 </r>
       <r>    1.5381    1.0000 </r>
       <r>    1.7111    1.0000 </r>
       <r>    1.7111    1.0000 </r>
       <r>    1.9151    1.0000 </r>
       <r>    2.5919    1.0000 </r>
       <r>    3.0729    1.0000 </r>
       <r>    3.0822    1.0000 </r>
       <r>    3.5265    1.0000 </r>
       <r>    3.5265    1.0000 </r>
       <r>    3.6817    1.0000 </r>
       <r>    3.7168    1.0000 </r>
       <r>    4.0674    1.0000 </r>
       <r>    4.2375    1.0000 </r>
       <r>    4.4572    1.0000 </r>
       <r>    4.4572    1.0000 </r>
       <r>    4.6397    1.0000 </r>
       <r>    4.6397    1.0000 </r>
       <r>    4.7447    1.0000 </r>
       <r>    6.7951   -0.0005 </r>
       <r>    6.7951   -0.0005 </r>
       <r>   10.1306    0.0000 </r>
       <r>   10.4384    0.0000 </r>
       <r>   13.3516    0.0000 </r>
       <r>   13.7352    0.0000 </r>
       <r>   13.7352    0.0000 </r>
       <r>   15.9353    0.0000 </r>
       <r>   15.9353    0.0000 </r>
       <r>   16.7451    0.0000 </r>
       <r>   16.7451    0.0000 </r>
       <r>   17.7082    0.0000 </r>
       <r>   20.1388    0.0000 </r>
       <r>   20.9426    0.0000 </r>
       <r>   22.6143    0.0000 </r>
       <r>   23.5488    0.0000 </r>
       <r>   23.8620    0.0000 </r>
       <r>   23.8620    0.0000 </r>
       <r>   24.7683    0.0000 </r>
       <r>   24.7683    0.0000 </r>
       <r>   25.9439    0.0000 </r>
       <r>   25.9476    0.0000 </r>
       <r>   27.4002    0.0000 </r>
       <r>   29.1203    0.0000 </r>
       <r>   30.3469    0.0000 </r>
       <r>   30.9406    0.0000 </r>
       <r>   31.0944    0.0000 </r>
      </set>
      <set comment="kpoint 11">
       <r>    0.0553    1.0000 </r>
       <r>    1.5797    1.0000 </r>
       <r>    1.6840    1.0000 </r>
       <r>    1.8639    1.0000 </r>
       <r>    1.8639    1.0000 </r>
       <r>    1.9781    1.0000 </r>
       <r>    2.1936    1.0000 </r>
       <r>    2.4571    1.0000 </r>
       <r>    2.9352    1.0000 </r>
       <r>    3.0959    1.0000 </r>
       <r>    3.1070    1.0000 </r>
       <r>    3.2673    1.0000 </r>
       <r>    3.2693    1.0000 </r>
       <r>    3.6105    1.0000 </r>
       <r>    4.0172    1.0000 </r>
       <r>    4.2004    1.0000 </r>
       <r>    4.2749    1.0000 </r>
       <r>    4.2871    1.0000 </r>
       <r>    4.2895    1.0000 </r>
       <r>    4.6348    1.0000 </r>
       <r>    4.6651    1.0000 </r>
       <r>    5.6918    1.0000 </r>
       <r>    7.5462   -0.0000 </r>
       <r>    9.5248    0.0000 </r>
       <r>   11.4352    0.0000 </r>
       <r>   12.9064    0.0000 </r>
       <r>   13.1863    0.0000 </r>
       <r>   14.9119    0.0000 </r>
       <r>   15.1857    0.0000 </r>
       <r>   16.8360    0.0000 </r>
       <r>   16.8735    0.0000 </r>
       <r>   18.0151    0.0000 </r>
       <r>   18.3964    0.0000 </r>
       <r>   18.8630    0.0000 </r>
       <r>   20.1142    0.0000 </r>
       <r>   23.0528    0.0000 </r>
       <r>   23.8446    0.0000 </r>
       <r>   23.9390    0.0000 </r>
       <r>   24.3448    0.0000 </r>
       <r>   24.6163    0.0000 </r>
       <r>   25.4238    0.0000 </r>
       <r>   25.8166    0.0000 </r>
       <r>   26.4854    0.0000 </r>
       <r>   28.0534    0.0000 </r>
       <r>   29.0650    0.0000 </r>
       <r>   29.8646    0.0000 </r>
       <r>   30.2782    0.0000 </r>
       <r>   30.4822    0.0000 </r>
      </set>
      <set comment="kpoint 12">
       <r>    0.7035    1.0000 </r>
       <r>    1.3086    1.0000 </r>
       <r>    1.9692    1.0000 </r>
       <r>    2.0558    1.0000 </r>
       <r>    2.1522    1.0000 </r>
       <r>    2.2640    1.0000 </r>
       <r>    2.3415    1.0000 </r>
       <r>    2.3727    1.0000 </r>
       <r>    2.4677    1.0000 </r>
       <r>    2.7842    1.0000 </r>
       <r>    2.9060    1.0000 </r>
       <r>    2.9943    1.0000 </r>
       <r>    3.5542    1.0000 </r>
       <r>    3.7207    1.0000 </r>
       <r>    3.8554    1.0000 </r>
       <r>    3.9074    1.0000 </r>
       <r>    3.9407    1.0000 </r>
       <r>    3.9999    1.0000 </r>
       <r>    4.5728    1.0000 </r>
       <r>    4.6320    1.0000 </r>
       <r>    4.6374    1.0000 </r>
       <r>    4.9951    1.0000 </r>
       <r>    8.2423   -0.0000 </r>
       <r>    8.8895   -0.0000 </r>
       <r>   12.5707    0.0000 </r>
       <r>   12.7378    0.0000 </r>
       <r>   12.8297    0.0000 </r>
       <r>   13.7567    0.0000 </r>
       <r>   16.4467    0.0000 </r>
       <r>   17.2097    0.0000 </r>
       <r>   17.6508    0.0000 </r>
       <r>   17.6725    0.0000 </r>
       <r>   17.9208    0.0000 </r>
       <r>   19.0611    0.0000 </r>
       <r>   20.4716    0.0000 </r>
       <r>   22.5587    0.0000 </r>
       <r>   24.1443    0.0000 </r>
       <r>   24.3044    0.0000 </r>
       <r>   24.3276    0.0000 </r>
       <r>   24.4069    0.0000 </r>
       <r>   25.2489    0.0000 </r>
       <r>   25.5515    0.0000 </r>
       <r>   27.1174    0.0000 </r>
       <r>   28.6306    0.0000 </r>
       <r>   28.6937    0.0000 </r>
       <r>   29.6235    0.0000 </r>
       <r>   30.3374    0.0000 </r>
       <r>   30.8558    0.0000 </r>
      </set>
      <set comment="kpoint 13">
       <r>    0.5181    1.0000 </r>
       <r>    1.7755    1.0000 </r>
       <r>    1.9343    1.0000 </r>
       <r>    1.9343    1.0000 </r>
       <r>    2.0917    1.0000 </r>
       <r>    2.0917    1.0000 </r>
       <r>    2.4328    1.0000 </r>
       <r>    2.4413    1.0000 </r>
       <r>    2.6403    1.0000 </r>
       <r>    2.6403    1.0000 </r>
       <r>    3.0409    1.0000 </r>
       <r>    3.0481    1.0000 </r>
       <r>    3.3723    1.0000 </r>
       <r>    3.5282    1.0000 </r>
       <r>    3.8599    1.0000 </r>
       <r>    4.0703    1.0000 </r>
       <r>    4.0703    1.0000 </r>
       <r>    4.2843    1.0000 </r>
       <r>    4.2843    1.0000 </r>
       <r>    4.4602    1.0000 </r>
       <r>    4.5907    1.0000 </r>
       <r>    6.3946    1.0339 </r>
       <r>    6.3946    1.0339 </r>
       <r>    8.6472   -0.0000 </r>
       <r>   12.3599    0.0000 </r>
       <r>   12.7845    0.0000 </r>
       <r>   14.1687    0.0000 </r>
       <r>   14.1687    0.0000 </r>
       <r>   15.7695    0.0000 </r>
       <r>   15.7695    0.0000 </r>
       <r>   17.4830    0.0000 </r>
       <r>   18.7323    0.0000 </r>
       <r>   18.7323    0.0000 </r>
       <r>   19.0425    0.0000 </r>
       <r>   19.4840    0.0000 </r>
       <r>   22.3191    0.0000 </r>
       <r>   23.8473    0.0000 </r>
       <r>   24.6346    0.0000 </r>
       <r>   25.1198    0.0000 </r>
       <r>   25.1198    0.0000 </r>
       <r>   25.7628    0.0000 </r>
       <r>   25.7628    0.0000 </r>
       <r>   26.5815    0.0000 </r>
       <r>   28.0441    0.0000 </r>
       <r>   29.6771    0.0000 </r>
       <r>   29.6771    0.0000 </r>
       <r>   30.4287    0.0000 </r>
       <r>   30.5770    0.0000 </r>
      </set>
      <set comment="kpoint 14">
       <r>    1.0801    1.0000 </r>
       <r>    1.6276    1.0000 </r>
       <r>    1.9528    1.0000 </r>
       <r>    2.1796    1.0000 </r>
       <r>    2.2266    1.0000 </r>
       <r>    2.3555    1.0000 </r>
       <r>    2.3897    1.0000 </r>
       <r>    2.3967    1.0000 </r>
       <r>    2.5448    1.0000 </r>
       <r>    2.6887    1.0000 </r>
       <r>    2.7253    1.0000 </r>
       <r>    2.9094    1.0000 </r>
       <r>    3.5764    1.0000 </r>
       <r>    3.5975    1.0000 </r>
       <r>    3.7400    1.0000 </r>
       <r>    3.8128    1.0000 </r>
       <r>    3.8378    1.0000 </r>
       <r>    3.9180    1.0000 </r>
       <r>    4.2958    1.0000 </r>
       <r>    4.3432    1.0000 </r>
       <r>    5.0131    1.0000 </r>
       <r>    5.5757    1.0000 </r>
       <r>    7.0959   -0.0000 </r>
       <r>    7.8299   -0.0000 </r>
       <r>   12.9570    0.0000 </r>
       <r>   13.4148    0.0000 </r>
       <r>   13.4461    0.0000 </r>
       <r>   14.6081    0.0000 </r>
       <r>   15.1634    0.0000 </r>
       <r>   16.2579    0.0000 </r>
       <r>   16.8048    0.0000 </r>
       <r>   17.9220    0.0000 </r>
       <r>   19.2027    0.0000 </r>
       <r>   19.7030    0.0000 </r>
       <r>   20.7903    0.0000 </r>
       <r>   22.6511    0.0000 </r>
       <r>   23.0621    0.0000 </r>
       <r>   24.5225    0.0000 </r>
       <r>   25.0710    0.0000 </r>
       <r>   25.2484    0.0000 </r>
       <r>   25.5017    0.0000 </r>
       <r>   25.6084    0.0000 </r>
       <r>   27.1409    0.0000 </r>
       <r>   28.7257    0.0000 </r>
       <r>   28.9570    0.0000 </r>
       <r>   29.4062    0.0000 </r>
       <r>   30.6080    0.0000 </r>
       <r>   30.8381    0.0000 </r>
      </set>
      <set comment="kpoint 15">
       <r>    1.4926    1.0000 </r>
       <r>    1.8622    1.0000 </r>
       <r>    1.8622    1.0000 </r>
       <r>    1.9307    1.0000 </r>
       <r>    2.4184    1.0000 </r>
       <r>    2.4253    1.0000 </r>
       <r>    2.4253    1.0000 </r>
       <r>    2.6049    1.0000 </r>
       <r>    2.6682    1.0000 </r>
       <r>    2.6682    1.0000 </r>
       <r>    2.6940    1.0000 </r>
       <r>    2.8586    1.0000 </r>
       <r>    3.4767    1.0000 </r>
       <r>    3.5859    1.0000 </r>
       <r>    3.6173    1.0000 </r>
       <r>    3.6173    1.0000 </r>
       <r>    3.7287    1.0000 </r>
       <r>    3.9717    1.0000 </r>
       <r>    3.9717    1.0000 </r>
       <r>    4.1072    1.0000 </r>
       <r>    5.5461    1.0000 </r>
       <r>    6.2097    1.0000 </r>
       <r>    6.2097    1.0000 </r>
       <r>    6.9377   -0.0000 </r>
       <r>   13.4220    0.0000 </r>
       <r>   14.1526    0.0000 </r>
       <r>   14.1526    0.0000 </r>
       <r>   14.4952    0.0000 </r>
       <r>   15.0943    0.0000 </r>
       <r>   15.6374    0.0000 </r>
       <r>   15.6374    0.0000 </r>
       <r>   16.7632    0.0000 </r>
       <r>   21.2783    0.0000 </r>
       <r>   21.2783    0.0000 </r>
       <r>   21.6439    0.0000 </r>
       <r>   22.2270    0.0000 </r>
       <r>   22.6563    0.0000 </r>
       <r>   23.8231    0.0000 </r>
       <r>   23.8231    0.0000 </r>
       <r>   24.0490    0.0000 </r>
       <r>   26.2709    0.0000 </r>
       <r>   26.9427    0.0000 </r>
       <r>   26.9427    0.0000 </r>
       <r>   28.2136    0.0000 </r>
       <r>   30.3230    0.0000 </r>
       <r>   30.3536    0.0000 </r>
       <r>   30.6473    0.0000 </r>
       <r>   30.6615    0.0000 </r>
      </set>
      <set comment="kpoint 16">
       <r>   -1.0352    1.0000 </r>
       <r>    1.2833    1.0000 </r>
       <r>    1.2833    1.0000 </r>
       <r>    1.2833    1.0000 </r>
       <r>    1.5119    1.0000 </r>
       <r>    1.5119    1.0000 </r>
       <r>    1.5119    1.0000 </r>
       <r>    2.7458    1.0000 </r>
       <r>    2.9279    1.0000 </r>
       <r>    2.9279    1.0000 </r>
       <r>    3.8752    1.0000 </r>
       <r>    3.8752    1.0000 </r>
       <r>    4.3879    1.0000 </r>
       <r>    4.3879    1.0000 </r>
       <r>    4.3879    1.0000 </r>
       <r>    4.5033    1.0000 </r>
       <r>    4.5033    1.0000 </r>
       <r>    4.5033    1.0000 </r>
       <r>    4.9039    1.0000 </r>
       <r>    4.9039    1.0000 </r>
       <r>    4.9039    1.0000 </r>
       <r>    7.7932   -0.0000 </r>
       <r>    7.7932   -0.0000 </r>
       <r>    7.7932   -0.0000 </r>
       <r>   12.0692    0.0000 </r>
       <r>   12.0692    0.0000 </r>
       <r>   12.0692    0.0000 </r>
       <r>   15.2673    0.0000 </r>
       <r>   15.2673    0.0000 </r>
       <r>   15.2673    0.0000 </r>
       <r>   16.7159    0.0000 </r>
       <r>   16.7159    0.0000 </r>
       <r>   16.7159    0.0000 </r>
       <r>   21.2074    0.0000 </r>
       <r>   22.1288    0.0000 </r>
       <r>   22.5106    0.0000 </r>
       <r>   22.5106    0.0000 </r>
       <r>   22.5106    0.0000 </r>
       <r>   24.3700    0.0000 </r>
       <r>   24.3700    0.0000 </r>
       <r>   24.7148    0.0000 </r>
       <r>   24.7148    0.0000 </r>
       <r>   24.7148    0.0000 </r>
       <r>   28.2028    0.0000 </r>
       <r>   29.9361    0.0000 </r>
       <r>   29.9361    0.0000 </r>
       <r>   31.2405    0.0000 </r>
       <r>   32.3462    0.0000 </r>
      </set>
      <set comment="kpoint 17">
       <r>   -0.6918    1.0000 </r>
       <r>    1.3623    1.0000 </r>
       <r>    1.4433    1.0000 </r>
       <r>    1.4433    1.0000 </r>
       <r>    1.6243    1.0000 </r>
       <r>    1.7206    1.0000 </r>
       <r>    1.7206    1.0000 </r>
       <r>    2.6445    1.0000 </r>
       <r>    3.0254    1.0000 </r>
       <r>    3.0310    1.0000 </r>
       <r>    3.7571    1.0000 </r>
       <r>    3.8466    1.0000 </r>
       <r>    3.8466    1.0000 </r>
       <r>    3.9743    1.0000 </r>
       <r>    4.0105    1.0000 </r>
       <r>    4.2925    1.0000 </r>
       <r>    4.3480    1.0000 </r>
       <r>    4.3480    1.0000 </r>
       <r>    4.8220    1.0000 </r>
       <r>    4.8686    1.0000 </r>
       <r>    4.8686    1.0000 </r>
       <r>    6.3484    1.0146 </r>
       <r>    8.4470   -0.0000 </r>
       <r>    8.4470   -0.0000 </r>
       <r>   11.7785    0.0000 </r>
       <r>   11.7785    0.0000 </r>
       <r>   13.8852    0.0000 </r>
       <r>   14.6190    0.0000 </r>
       <r>   14.6190    0.0000 </r>
       <r>   16.2323    0.0000 </r>
       <r>   16.8255    0.0000 </r>
       <r>   16.8255    0.0000 </r>
       <r>   17.3349    0.0000 </r>
       <r>   20.3281    0.0000 </r>
       <r>   21.9791    0.0000 </r>
       <r>   22.3915    0.0000 </r>
       <r>   23.1172    0.0000 </r>
       <r>   23.1172    0.0000 </r>
       <r>   23.6044    0.0000 </r>
       <r>   24.6302    0.0000 </r>
       <r>   24.8487    0.0000 </r>
       <r>   25.8973    0.0000 </r>
       <r>   25.8973    0.0000 </r>
       <r>   27.1384    0.0000 </r>
       <r>   29.2648    0.0000 </r>
       <r>   29.6410    0.0000 </r>
       <r>   31.4505    0.0000 </r>
       <r>   31.4509    0.0000 </r>
      </set>
      <set comment="kpoint 18">
       <r>   -0.1490    1.0000 </r>
       <r>    1.3862    1.0000 </r>
       <r>    1.6984    1.0000 </r>
       <r>    1.6984    1.0000 </r>
       <r>    1.7965    1.0000 </r>
       <r>    2.0141    1.0000 </r>
       <r>    2.0141    1.0000 </r>
       <r>    2.4595    1.0000 </r>
       <r>    3.1440    1.0000 </r>
       <r>    3.2015    1.0000 </r>
       <r>    3.2556    1.0000 </r>
       <r>    3.2556    1.0000 </r>
       <r>    3.4904    1.0000 </r>
       <r>    3.6868    1.0000 </r>
       <r>    4.0112    1.0000 </r>
       <r>    4.1113    1.0000 </r>
       <r>    4.1113    1.0000 </r>
       <r>    4.1252    1.0000 </r>
       <r>    4.6825    1.0000 </r>
       <r>    4.8367    1.0000 </r>
       <r>    4.8367    1.0000 </r>
       <r>    5.2056    1.0000 </r>
       <r>    9.1185   -0.0000 </r>
       <r>    9.1185   -0.0000 </r>
       <r>   11.4688    0.0000 </r>
       <r>   11.4688    0.0000 </r>
       <r>   14.1993    0.0000 </r>
       <r>   14.1993    0.0000 </r>
       <r>   15.4599    0.0000 </r>
       <r>   16.5175    0.0000 </r>
       <r>   16.5175    0.0000 </r>
       <r>   17.9654    0.0000 </r>
       <r>   18.2991    0.0000 </r>
       <r>   19.1993    0.0000 </r>
       <r>   22.0867    0.0000 </r>
       <r>   22.2774    0.0000 </r>
       <r>   22.3638    0.0000 </r>
       <r>   24.2665    0.0000 </r>
       <r>   24.2665    0.0000 </r>
       <r>   24.5204    0.0000 </r>
       <r>   24.5262    0.0000 </r>
       <r>   25.5476    0.0000 </r>
       <r>   27.4293    0.0000 </r>
       <r>   27.4293    0.0000 </r>
       <r>   29.3627    0.0000 </r>
       <r>   29.4765    0.0000 </r>
       <r>   30.0408    0.0000 </r>
       <r>   30.0408    0.0000 </r>
      </set>
      <set comment="kpoint 19">
       <r>    0.5206    1.0000 </r>
       <r>    1.1269    1.0000 </r>
       <r>    1.9955    1.0000 </r>
       <r>    1.9955    1.0000 </r>
       <r>    2.0062    1.0000 </r>
       <r>    2.2353    1.0000 </r>
       <r>    2.2681    1.0000 </r>
       <r>    2.2681    1.0000 </r>
       <r>    2.7723    1.0000 </r>
       <r>    2.7723    1.0000 </r>
       <r>    3.1056    1.0000 </r>
       <r>    3.1256    1.0000 </r>
       <r>    3.4330    1.0000 </r>
       <r>    3.7115    1.0000 </r>
       <r>    3.8867    1.0000 </r>
       <r>    3.8867    1.0000 </r>
       <r>    3.9146    1.0000 </r>
       <r>    4.3093    1.0000 </r>
       <r>    4.4231    1.0000 </r>
       <r>    4.5034    1.0000 </r>
       <r>    4.8227    1.0000 </r>
       <r>    4.8227    1.0000 </r>
       <r>    9.5401    0.0000 </r>
       <r>    9.5401    0.0000 </r>
       <r>   11.3026    0.0000 </r>
       <r>   11.3026    0.0000 </r>
       <r>   13.9769    0.0000 </r>
       <r>   13.9769    0.0000 </r>
       <r>   16.2185    0.0000 </r>
       <r>   16.2185    0.0000 </r>
       <r>   16.7896    0.0000 </r>
       <r>   18.0226    0.0000 </r>
       <r>   19.5292    0.0000 </r>
       <r>   20.2348    0.0000 </r>
       <r>   20.9294    0.0000 </r>
       <r>   22.1207    0.0000 </r>
       <r>   22.2286    0.0000 </r>
       <r>   22.7495    0.0000 </r>
       <r>   24.4824    0.0000 </r>
       <r>   24.6592    0.0000 </r>
       <r>   25.4677    0.0000 </r>
       <r>   25.4677    0.0000 </r>
       <r>   28.0812    0.0000 </r>
       <r>   28.0812    0.0000 </r>
       <r>   29.9532    0.0000 </r>
       <r>   29.9532    0.0000 </r>
       <r>   30.0034    0.0000 </r>
       <r>   30.0518    0.0000 </r>
      </set>
      <set comment="kpoint 20">
       <r>   -0.3740    1.0000 </r>
       <r>    1.5118    1.0000 </r>
       <r>    1.5118    1.0000 </r>
       <r>    1.5138    1.0000 </r>
       <r>    1.8388    1.0000 </r>
       <r>    1.8388    1.0000 </r>
       <r>    1.9589    1.0000 </r>
       <r>    2.6302    1.0000 </r>
       <r>    3.0605    1.0000 </r>
       <r>    3.0621    1.0000 </r>
       <r>    3.4851    1.0000 </r>
       <r>    3.4851    1.0000 </r>
       <r>    3.6020    1.0000 </r>
       <r>    3.7640    1.0000 </r>
       <r>    4.0332    1.0000 </r>
       <r>    4.1167    1.0000 </r>
       <r>    4.1674    1.0000 </r>
       <r>    4.1674    1.0000 </r>
       <r>    4.7942    1.0000 </r>
       <r>    4.7966    1.0000 </r>
       <r>    4.7966    1.0000 </r>
       <r>    6.9900   -0.0000 </r>
       <r>    6.9900   -0.0000 </r>
       <r>    8.9446   -0.0000 </r>
       <r>   11.1280    0.0000 </r>
       <r>   13.0519    0.0000 </r>
       <r>   13.0519    0.0000 </r>
       <r>   14.2490    0.0000 </r>
       <r>   15.9924    0.0000 </r>
       <r>   15.9924    0.0000 </r>
       <r>   17.4124    0.0000 </r>
       <r>   17.4124    0.0000 </r>
       <r>   17.8758    0.0000 </r>
       <r>   19.0197    0.0000 </r>
       <r>   21.7856    0.0000 </r>
       <r>   22.5294    0.0000 </r>
       <r>   22.9769    0.0000 </r>
       <r>   22.9769    0.0000 </r>
       <r>   23.6752    0.0000 </r>
       <r>   25.6098    0.0000 </r>
       <r>   25.9043    0.0000 </r>
       <r>   25.9043    0.0000 </r>
       <r>   26.2852    0.0000 </r>
       <r>   27.4297    0.0000 </r>
       <r>   28.5146    0.0000 </r>
       <r>   29.5390    0.0000 </r>
       <r>   31.1603    0.0000 </r>
       <r>   31.1765    0.0000 </r>
      </set>
      <set comment="kpoint 21">
       <r>    0.1227    1.0000 </r>
       <r>    1.5237    1.0000 </r>
       <r>    1.6836    1.0000 </r>
       <r>    1.7490    1.0000 </r>
       <r>    2.0148    1.0000 </r>
       <r>    2.1315    1.0000 </r>
       <r>    2.2238    1.0000 </r>
       <r>    2.5276    1.0000 </r>
       <r>    2.9715    1.0000 </r>
       <r>    3.0790    1.0000 </r>
       <r>    3.0809    1.0000 </r>
       <r>    3.1778    1.0000 </r>
       <r>    3.2049    1.0000 </r>
       <r>    3.7603    1.0000 </r>
       <r>    3.8868    1.0000 </r>
       <r>    3.9252    1.0000 </r>
       <r>    4.0181    1.0000 </r>
       <r>    4.2438    1.0000 </r>
       <r>    4.6511    1.0000 </r>
       <r>    4.7085    1.0000 </r>
       <r>    4.7149    1.0000 </r>
       <r>    5.8012    1.0000 </r>
       <r>    7.7025   -0.0000 </r>
       <r>    9.3270    0.0000 </r>
       <r>   10.5989    0.0000 </r>
       <r>   12.1790    0.0000 </r>
       <r>   14.1849    0.0000 </r>
       <r>   14.2922    0.0000 </r>
       <r>   15.7178    0.0000 </r>
       <r>   17.2483    0.0000 </r>
       <r>   17.7347    0.0000 </r>
       <r>   17.7434    0.0000 </r>
       <r>   18.1452    0.0000 </r>
       <r>   18.5289    0.0000 </r>
       <r>   21.1908    0.0000 </r>
       <r>   22.8601    0.0000 </r>
       <r>   22.9490    0.0000 </r>
       <r>   23.1943    0.0000 </r>
       <r>   24.0410    0.0000 </r>
       <r>   25.0254    0.0000 </r>
       <r>   25.9439    0.0000 </r>
       <r>   26.1708    0.0000 </r>
       <r>   27.3279    0.0000 </r>
       <r>   28.1635    0.0000 </r>
       <r>   29.0578    0.0000 </r>
       <r>   29.9353    0.0000 </r>
       <r>   30.0551    0.0000 </r>
       <r>   30.2461    0.0000 </r>
      </set>
      <set comment="kpoint 22">
       <r>    0.7271    1.0000 </r>
       <r>    1.2756    1.0000 </r>
       <r>    1.9429    1.0000 </r>
       <r>    2.0401    1.0000 </r>
       <r>    2.1974    1.0000 </r>
       <r>    2.2401    1.0000 </r>
       <r>    2.3059    1.0000 </r>
       <r>    2.3692    1.0000 </r>
       <r>    2.7402    1.0000 </r>
       <r>    2.8854    1.0000 </r>
       <r>    2.8899    1.0000 </r>
       <r>    2.9766    1.0000 </r>
       <r>    3.3562    1.0000 </r>
       <r>    3.5987    1.0000 </r>
       <r>    3.7796    1.0000 </r>
       <r>    3.8323    1.0000 </r>
       <r>    3.9977    1.0000 </r>
       <r>    4.3778    1.0000 </r>
       <r>    4.5353    1.0000 </r>
       <r>    4.6576    1.0000 </r>
       <r>    4.6603    1.0000 </r>
       <r>    4.9859    1.0000 </r>
       <r>    8.3930   -0.0000 </r>
       <r>    9.0199   -0.0000 </r>
       <r>   10.8247    0.0000 </r>
       <r>   11.4298    0.0000 </r>
       <r>   14.6399    0.0000 </r>
       <r>   15.1922    0.0000 </r>
       <r>   15.3300    0.0000 </r>
       <r>   16.5163    0.0000 </r>
       <r>   17.3819    0.0000 </r>
       <r>   17.7877    0.0000 </r>
       <r>   19.0583    0.0000 </r>
       <r>   20.2253    0.0000 </r>
       <r>   20.4813    0.0000 </r>
       <r>   22.3424    0.0000 </r>
       <r>   22.9084    0.0000 </r>
       <r>   23.4861    0.0000 </r>
       <r>   24.0739    0.0000 </r>
       <r>   24.7425    0.0000 </r>
       <r>   26.0354    0.0000 </r>
       <r>   26.1584    0.0000 </r>
       <r>   27.7842    0.0000 </r>
       <r>   28.5867    0.0000 </r>
       <r>   28.8332    0.0000 </r>
       <r>   29.7366    0.0000 </r>
       <r>   30.5041    0.0000 </r>
       <r>   30.6042    0.0000 </r>
      </set>
      <set comment="kpoint 23">
       <r>    0.5346    1.0000 </r>
       <r>    1.7116    1.0000 </r>
       <r>    1.7116    1.0000 </r>
       <r>    1.7340    1.0000 </r>
       <r>    2.3321    1.0000 </r>
       <r>    2.3321    1.0000 </r>
       <r>    2.4168    1.0000 </r>
       <r>    2.5725    1.0000 </r>
       <r>    2.7114    1.0000 </r>
       <r>    2.7114    1.0000 </r>
       <r>    3.0448    1.0000 </r>
       <r>    3.0994    1.0000 </r>
       <r>    3.1965    1.0000 </r>
       <r>    3.7231    1.0000 </r>
       <r>    3.7533    1.0000 </r>
       <r>    3.7865    1.0000 </r>
       <r>    3.7865    1.0000 </r>
       <r>    4.5361    1.0000 </r>
       <r>    4.5361    1.0000 </r>
       <r>    4.5520    1.0000 </r>
       <r>    4.5647    1.0000 </r>
       <r>    6.4811    0.8519 </r>
       <r>    6.4811    0.8519 </r>
       <r>    8.8074   -0.0000 </r>
       <r>   10.6362    0.0000 </r>
       <r>   13.0217    0.0000 </r>
       <r>   13.0217    0.0000 </r>
       <r>   14.6540    0.0000 </r>
       <r>   16.3849    0.0000 </r>
       <r>   16.9837    0.0000 </r>
       <r>   16.9837    0.0000 </r>
       <r>   18.7980    0.0000 </r>
       <r>   18.7980    0.0000 </r>
       <r>   19.5832    0.0000 </r>
       <r>   20.1619    0.0000 </r>
       <r>   22.1950    0.0000 </r>
       <r>   23.1758    0.0000 </r>
       <r>   23.8313    0.0000 </r>
       <r>   23.8313    0.0000 </r>
       <r>   25.5260    0.0000 </r>
       <r>   26.0784    0.0000 </r>
       <r>   27.2078    0.0000 </r>
       <r>   27.2078    0.0000 </r>
       <r>   27.8376    0.0000 </r>
       <r>   29.7613    0.0000 </r>
       <r>   29.7613    0.0000 </r>
       <r>   30.3354    0.0000 </r>
       <r>   30.6282    0.0000 </r>
      </set>
      <set comment="kpoint 24">
       <r>    1.0161    1.0000 </r>
       <r>    1.4558    1.0000 </r>
       <r>    1.8334    1.0000 </r>
       <r>    1.8643    1.0000 </r>
       <r>    2.4068    1.0000 </r>
       <r>    2.4378    1.0000 </r>
       <r>    2.5017    1.0000 </r>
       <r>    2.5520    1.0000 </r>
       <r>    2.6977    1.0000 </r>
       <r>    2.7729    1.0000 </r>
       <r>    2.9164    1.0000 </r>
       <r>    2.9961    1.0000 </r>
       <r>    3.3016    1.0000 </r>
       <r>    3.5163    1.0000 </r>
       <r>    3.6013    1.0000 </r>
       <r>    3.6592    1.0000 </r>
       <r>    3.9243    1.0000 </r>
       <r>    4.2516    1.0000 </r>
       <r>    4.4487    1.0000 </r>
       <r>    4.4575    1.0000 </r>
       <r>    4.9769    1.0000 </r>
       <r>    5.5771    1.0000 </r>
       <r>    7.1927   -0.0000 </r>
       <r>    7.9640   -0.0000 </r>
       <r>   11.2525    0.0000 </r>
       <r>   12.0482    0.0000 </r>
       <r>   14.0179    0.0000 </r>
       <r>   15.1430    0.0000 </r>
       <r>   15.2647    0.0000 </r>
       <r>   16.0801    0.0000 </r>
       <r>   18.0371    0.0000 </r>
       <r>   19.0997    0.0000 </r>
       <r>   19.2401    0.0000 </r>
       <r>   19.7493    0.0000 </r>
       <r>   20.7669    0.0000 </r>
       <r>   22.4012    0.0000 </r>
       <r>   22.8816    0.0000 </r>
       <r>   23.8528    0.0000 </r>
       <r>   23.9754    0.0000 </r>
       <r>   24.4907    0.0000 </r>
       <r>   26.4515    0.0000 </r>
       <r>   26.9677    0.0000 </r>
       <r>   27.6479    0.0000 </r>
       <r>   28.7575    0.0000 </r>
       <r>   28.8023    0.0000 </r>
       <r>   29.4558    0.0000 </r>
       <r>   31.0176    0.0000 </r>
       <r>   31.0324    0.0000 </r>
      </set>
      <set comment="kpoint 25">
       <r>    1.3240    1.0000 </r>
       <r>    1.6103    1.0000 </r>
       <r>    1.6103    1.0000 </r>
       <r>    1.7264    1.0000 </r>
       <r>    2.5381    1.0000 </r>
       <r>    2.5837    1.0000 </r>
       <r>    2.5837    1.0000 </r>
       <r>    2.6458    1.0000 </r>
       <r>    2.8703    1.0000 </r>
       <r>    2.8703    1.0000 </r>
       <r>    2.9479    1.0000 </r>
       <r>    3.0494    1.0000 </r>
       <r>    3.2789    1.0000 </r>
       <r>    3.4298    1.0000 </r>
       <r>    3.4298    1.0000 </r>
       <r>    3.4319    1.0000 </r>
       <r>    3.9562    1.0000 </r>
       <r>    4.1818    1.0000 </r>
       <r>    4.1818    1.0000 </r>
       <r>    4.2634    1.0000 </r>
       <r>    5.5233    1.0000 </r>
       <r>    6.2311    1.0001 </r>
       <r>    6.2311    1.0001 </r>
       <r>    7.0054   -0.0000 </r>
       <r>   11.9812    0.0000 </r>
       <r>   12.9019    0.0000 </r>
       <r>   12.9019    0.0000 </r>
       <r>   13.9366    0.0000 </r>
       <r>   16.0435    0.0000 </r>
       <r>   16.9873    0.0000 </r>
       <r>   16.9873    0.0000 </r>
       <r>   18.0011    0.0000 </r>
       <r>   21.2169    0.0000 </r>
       <r>   21.2169    0.0000 </r>
       <r>   21.6461    0.0000 </r>
       <r>   22.0433    0.0000 </r>
       <r>   22.3591    0.0000 </r>
       <r>   23.4658    0.0000 </r>
       <r>   23.4658    0.0000 </r>
       <r>   23.8990    0.0000 </r>
       <r>   26.6917    0.0000 </r>
       <r>   27.3677    0.0000 </r>
       <r>   27.3677    0.0000 </r>
       <r>   28.4089    0.0000 </r>
       <r>   29.5377    0.0000 </r>
       <r>   30.1538    0.0000 </r>
       <r>   30.2438    0.0000 </r>
       <r>   30.2438    0.0000 </r>
      </set>
      <set comment="kpoint 26">
       <r>   -0.1018    1.0000 </r>
       <r>    1.5369    1.0000 </r>
       <r>    1.5369    1.0000 </r>
       <r>    1.5369    1.0000 </r>
       <r>    2.0925    1.0000 </r>
       <r>    2.0925    1.0000 </r>
       <r>    2.0925    1.0000 </r>
       <r>    2.7099    1.0000 </r>
       <r>    3.0441    1.0000 </r>
       <r>    3.0441    1.0000 </r>
       <r>    3.3133    1.0000 </r>
       <r>    3.3133    1.0000 </r>
       <r>    3.3133    1.0000 </r>
       <r>    3.8681    1.0000 </r>
       <r>    3.8681    1.0000 </r>
       <r>    3.8681    1.0000 </r>
       <r>    3.9625    1.0000 </r>
       <r>    3.9625    1.0000 </r>
       <r>    4.8391    1.0000 </r>
       <r>    4.8391    1.0000 </r>
       <r>    4.8391    1.0000 </r>
       <r>    7.4846   -0.0000 </r>
       <r>    7.4846   -0.0000 </r>
       <r>    7.4846   -0.0000 </r>
       <r>   11.8597    0.0000 </r>
       <r>   11.8597    0.0000 </r>
       <r>   11.8597    0.0000 </r>
       <r>   16.1294    0.0000 </r>
       <r>   16.1294    0.0000 </r>
       <r>   16.1294    0.0000 </r>
       <r>   17.6062    0.0000 </r>
       <r>   18.3730    0.0000 </r>
       <r>   18.3730    0.0000 </r>
       <r>   18.3730    0.0000 </r>
       <r>   22.0458    0.0000 </r>
       <r>   22.3176    0.0000 </r>
       <r>   22.3176    0.0000 </r>
       <r>   22.3176    0.0000 </r>
       <r>   24.5216    0.0000 </r>
       <r>   24.5216    0.0000 </r>
       <r>   26.8034    0.0000 </r>
       <r>   27.5287    0.0000 </r>
       <r>   27.5287    0.0000 </r>
       <r>   27.5287    0.0000 </r>
       <r>   28.2552    0.0000 </r>
       <r>   28.2552    0.0000 </r>
       <r>   31.1393    0.0000 </r>
       <r>   31.1393    0.0000 </r>
      </set>
      <set comment="kpoint 27">
       <r>    0.3123    1.0000 </r>
       <r>    1.4806    1.0000 </r>
       <r>    1.6415    1.0000 </r>
       <r>    1.6415    1.0000 </r>
       <r>    2.3060    1.0000 </r>
       <r>    2.3280    1.0000 </r>
       <r>    2.3280    1.0000 </r>
       <r>    2.7259    1.0000 </r>
       <r>    2.9940    1.0000 </r>
       <r>    3.0412    1.0000 </r>
       <r>    3.0766    1.0000 </r>
       <r>    3.0766    1.0000 </r>
       <r>    3.0788    1.0000 </r>
       <r>    3.6004    1.0000 </r>
       <r>    3.7108    1.0000 </r>
       <r>    3.7108    1.0000 </r>
       <r>    3.9987    1.0000 </r>
       <r>    4.2091    1.0000 </r>
       <r>    4.7675    1.0000 </r>
       <r>    4.7675    1.0000 </r>
       <r>    4.7981    1.0000 </r>
       <r>    6.1732    1.0000 </r>
       <r>    8.1254   -0.0000 </r>
       <r>    8.1254   -0.0000 </r>
       <r>   10.7351    0.0000 </r>
       <r>   10.7351    0.0000 </r>
       <r>   12.7675    0.0000 </r>
       <r>   16.2612    0.0000 </r>
       <r>   16.3578    0.0000 </r>
       <r>   16.3578    0.0000 </r>
       <r>   18.3162    0.0000 </r>
       <r>   18.5398    0.0000 </r>
       <r>   18.5398    0.0000 </r>
       <r>   19.1813    0.0000 </r>
       <r>   21.8671    0.0000 </r>
       <r>   22.0851    0.0000 </r>
       <r>   22.7031    0.0000 </r>
       <r>   22.7031    0.0000 </r>
       <r>   23.0539    0.0000 </r>
       <r>   24.8922    0.0000 </r>
       <r>   26.4624    0.0000 </r>
       <r>   27.6989    0.0000 </r>
       <r>   28.5824    0.0000 </r>
       <r>   28.6207    0.0000 </r>
       <r>   29.0487    0.0000 </r>
       <r>   29.0487    0.0000 </r>
       <r>   30.1598    0.0000 </r>
       <r>   30.1598    0.0000 </r>
      </set>
      <set comment="kpoint 28">
       <r>    0.7970    1.0000 </r>
       <r>    1.2322    1.0000 </r>
       <r>    1.7762    1.0000 </r>
       <r>    1.7762    1.0000 </r>
       <r>    2.3367    1.0000 </r>
       <r>    2.3367    1.0000 </r>
       <r>    2.5412    1.0000 </r>
       <r>    2.6677    1.0000 </r>
       <r>    2.8330    1.0000 </r>
       <r>    2.9319    1.0000 </r>
       <r>    3.0693    1.0000 </r>
       <r>    3.0693    1.0000 </r>
       <r>    3.1853    1.0000 </r>
       <r>    3.3637    1.0000 </r>
       <r>    3.5945    1.0000 </r>
       <r>    3.5945    1.0000 </r>
       <r>    4.3744    1.0000 </r>
       <r>    4.4559    1.0000 </r>
       <r>    4.6633    1.0000 </r>
       <r>    4.6839    1.0000 </r>
       <r>    4.6839    1.0000 </r>
       <r>    5.1184    1.0000 </r>
       <r>    8.7999   -0.0000 </r>
       <r>    8.7999   -0.0000 </r>
       <r>    9.8235    0.0000 </r>
       <r>    9.8235    0.0000 </r>
       <r>   13.8302    0.0000 </r>
       <r>   15.0020    0.0000 </r>
       <r>   16.6084    0.0000 </r>
       <r>   16.6084    0.0000 </r>
       <r>   18.2087    0.0000 </r>
       <r>   18.2087    0.0000 </r>
       <r>   20.2681    0.0000 </r>
       <r>   20.5361    0.0000 </r>
       <r>   21.5845    0.0000 </r>
       <r>   21.6674    0.0000 </r>
       <r>   21.9978    0.0000 </r>
       <r>   23.1015    0.0000 </r>
       <r>   23.5427    0.0000 </r>
       <r>   23.5427    0.0000 </r>
       <r>   27.3681    0.0000 </r>
       <r>   27.8073    0.0000 </r>
       <r>   28.5110    0.0000 </r>
       <r>   28.5110    0.0000 </r>
       <r>   29.2024    0.0000 </r>
       <r>   29.4882    0.0000 </r>
       <r>   29.9427    0.0000 </r>
       <r>   30.2343    0.0000 </r>
      </set>
      <set comment="kpoint 29">
       <r>    0.5906    1.0000 </r>
       <r>    1.4905    1.0000 </r>
       <r>    1.4905    1.0000 </r>
       <r>    1.5816    1.0000 </r>
       <r>    2.4519    1.0000 </r>
       <r>    2.5105    1.0000 </r>
       <r>    2.5105    1.0000 </r>
       <r>    2.9110    1.0000 </r>
       <r>    2.9968    1.0000 </r>
       <r>    2.9968    1.0000 </r>
       <r>    3.0303    1.0000 </r>
       <r>    3.0721    1.0000 </r>
       <r>    3.2345    1.0000 </r>
       <r>    3.4651    1.0000 </r>
       <r>    3.4651    1.0000 </r>
       <r>    3.4708    1.0000 </r>
       <r>    4.0606    1.0000 </r>
       <r>    4.4474    1.0000 </r>
       <r>    4.7189    1.0000 </r>
       <r>    4.7479    1.0000 </r>
       <r>    4.7479    1.0000 </r>
       <r>    6.7560   -0.0029 </r>
       <r>    6.7560   -0.0029 </r>
       <r>    8.7260   -0.0000 </r>
       <r>    9.4418    0.0000 </r>
       <r>   11.4827    0.0000 </r>
       <r>   11.4827    0.0000 </r>
       <r>   14.8704    0.0000 </r>
       <r>   16.8060    0.0000 </r>
       <r>   18.4435    0.0000 </r>
       <r>   18.4435    0.0000 </r>
       <r>   19.2498    0.0000 </r>
       <r>   19.2498    0.0000 </r>
       <r>   19.8903    0.0000 </r>
       <r>   21.3833    0.0000 </r>
       <r>   21.8956    0.0000 </r>
       <r>   22.4848    0.0000 </r>
       <r>   22.4848    0.0000 </r>
       <r>   22.8115    0.0000 </r>
       <r>   24.8363    0.0000 </r>
       <r>   26.7872    0.0000 </r>
       <r>   27.9128    0.0000 </r>
       <r>   28.9481    0.0000 </r>
       <r>   28.9481    0.0000 </r>
       <r>   29.3645    0.0000 </r>
       <r>   30.0899    0.0000 </r>
       <r>   30.0912    0.0000 </r>
       <r>   30.2303    0.0000 </r>
      </set>
      <set comment="kpoint 30">
       <r>    0.9124    1.0000 </r>
       <r>    1.2301    1.0000 </r>
       <r>    1.5249    1.0000 </r>
       <r>    1.5529    1.0000 </r>
       <r>    2.4742    1.0000 </r>
       <r>    2.4897    1.0000 </r>
       <r>    2.7148    1.0000 </r>
       <r>    2.8586    1.0000 </r>
       <r>    3.0174    1.0000 </r>
       <r>    3.0582    1.0000 </r>
       <r>    3.1511    1.0000 </r>
       <r>    3.2180    1.0000 </r>
       <r>    3.2547    1.0000 </r>
       <r>    3.3508    1.0000 </r>
       <r>    3.3690    1.0000 </r>
       <r>    3.4110    1.0000 </r>
       <r>    4.2876    1.0000 </r>
       <r>    4.5954    1.0000 </r>
       <r>    4.6325    1.0000 </r>
       <r>    4.6435    1.0000 </r>
       <r>    4.8721    1.0000 </r>
       <r>    5.6230    1.0000 </r>
       <r>    7.4736   -0.0000 </r>
       <r>    8.3422   -0.0000 </r>
       <r>    9.4956    0.0000 </r>
       <r>   10.3946    0.0000 </r>
       <r>   12.4651    0.0000 </r>
       <r>   13.6026    0.0000 </r>
       <r>   17.3582    0.0000 </r>
       <r>   18.0178    0.0000 </r>
       <r>   19.3917    0.0000 </r>
       <r>   19.8013    0.0000 </r>
       <r>   19.8973    0.0000 </r>
       <r>   20.6913    0.0000 </r>
       <r>   20.7269    0.0000 </r>
       <r>   21.9617    0.0000 </r>
       <r>   22.4778    0.0000 </r>
       <r>   22.5943    0.0000 </r>
       <r>   23.0085    0.0000 </r>
       <r>   23.6707    0.0000 </r>
       <r>   27.6242    0.0000 </r>
       <r>   28.4142    0.0000 </r>
       <r>   28.5285    0.0000 </r>
       <r>   28.5774    0.0000 </r>
       <r>   28.9184    0.0000 </r>
       <r>   29.5855    0.0000 </r>
       <r>   30.3029    0.0000 </r>
       <r>   30.7189    0.0000 </r>
      </set>
      <set comment="kpoint 31">
       <r>    1.0740    1.0000 </r>
       <r>    1.2810    1.0000 </r>
       <r>    1.2810    1.0000 </r>
       <r>    1.3876    1.0000 </r>
       <r>    2.5936    1.0000 </r>
       <r>    2.6641    1.0000 </r>
       <r>    2.6641    1.0000 </r>
       <r>    2.7971    1.0000 </r>
       <r>    3.0499    1.0000 </r>
       <r>    3.1385    1.0000 </r>
       <r>    3.1385    1.0000 </r>
       <r>    3.1868    1.0000 </r>
       <r>    3.4720    1.0000 </r>
       <r>    3.4720    1.0000 </r>
       <r>    3.4776    1.0000 </r>
       <r>    3.5643    1.0000 </r>
       <r>    4.2664    1.0000 </r>
       <r>    4.4770    1.0000 </r>
       <r>    4.4770    1.0000 </r>
       <r>    4.5090    1.0000 </r>
       <r>    5.4572    1.0000 </r>
       <r>    6.3049    1.0036 </r>
       <r>    6.3049    1.0036 </r>
       <r>    7.1951   -0.0000 </r>
       <r>   10.2964    0.0000 </r>
       <r>   11.2861    0.0000 </r>
       <r>   11.2861    0.0000 </r>
       <r>   12.3611    0.0000 </r>
       <r>   18.0449    0.0000 </r>
       <r>   18.8713    0.0000 </r>
       <r>   18.8713    0.0000 </r>
       <r>   19.7434    0.0000 </r>
       <r>   21.0684    0.0000 </r>
       <r>   21.0684    0.0000 </r>
       <r>   21.6332    0.0000 </r>
       <r>   21.6746    0.0000 </r>
       <r>   21.8242    0.0000 </r>
       <r>   22.8030    0.0000 </r>
       <r>   22.8030    0.0000 </r>
       <r>   23.4912    0.0000 </r>
       <r>   27.5817    0.0000 </r>
       <r>   28.1634    0.0000 </r>
       <r>   28.1634    0.0000 </r>
       <r>   28.8190    0.0000 </r>
       <r>   28.9701    0.0000 </r>
       <r>   29.7381    0.0000 </r>
       <r>   29.7851    0.0000 </r>
       <r>   29.7851    0.0000 </r>
      </set>
      <set comment="kpoint 32">
       <r>    0.6983    1.0000 </r>
       <r>    1.3411    1.0000 </r>
       <r>    1.3411    1.0000 </r>
       <r>    1.3411    1.0000 </r>
       <r>    2.5763    1.0000 </r>
       <r>    2.5763    1.0000 </r>
       <r>    2.5763    1.0000 </r>
       <r>    2.9461    1.0000 </r>
       <r>    2.9461    1.0000 </r>
       <r>    3.2314    1.0000 </r>
       <r>    3.2314    1.0000 </r>
       <r>    3.2314    1.0000 </r>
       <r>    3.4094    1.0000 </r>
       <r>    3.4094    1.0000 </r>
       <r>    3.4094    1.0000 </r>
       <r>    3.5506    1.0000 </r>
       <r>    4.3566    1.0000 </r>
       <r>    4.3566    1.0000 </r>
       <r>    4.7943    1.0000 </r>
       <r>    4.7943    1.0000 </r>
       <r>    4.7943    1.0000 </r>
       <r>    7.2248   -0.0000 </r>
       <r>    7.2248   -0.0000 </r>
       <r>    7.2248   -0.0000 </r>
       <r>   10.1155    0.0000 </r>
       <r>   10.1155    0.0000 </r>
       <r>   10.1155    0.0000 </r>
       <r>   13.4539    0.0000 </r>
       <r>   18.9597    0.0000 </r>
       <r>   18.9597    0.0000 </r>
       <r>   18.9597    0.0000 </r>
       <r>   20.4271    0.0000 </r>
       <r>   20.4271    0.0000 </r>
       <r>   20.4271    0.0000 </r>
       <r>   21.3545    0.0000 </r>
       <r>   21.5960    0.0000 </r>
       <r>   21.5960    0.0000 </r>
       <r>   21.5960    0.0000 </r>
       <r>   23.4738    0.0000 </r>
       <r>   23.4738    0.0000 </r>
       <r>   27.9031    0.0000 </r>
       <r>   28.2534    0.0000 </r>
       <r>   28.2534    0.0000 </r>
       <r>   29.8338    0.0000 </r>
[...]
       <r>   28.7348    0.0000 </r>
       <r>   28.9218    0.0000 </r>
       <r>   28.9218    0.0000 </r>
       <r>   29.1120    0.0000 </r>
       <r>   29.2857    0.0000 </r>
       <r>   29.4828    0.0000 </r>
       <r>   30.2250    0.0000 </r>
      </set>
      <set comment="kpoint 34">
       <r>    0.9065    1.0000 </r>
       <r>    1.0430    1.0000 </r>
       <r>    1.0430    1.0000 </r>
       <r>    1.1038    1.0000 </r>
       <r>    2.6892    1.0000 </r>
       <r>    2.7309    1.0000 </r>
       <r>    2.7309    1.0000 </r>
       <r>    2.8340    1.0000 </r>
       <r>    2.8936    1.0000 </r>
       <r>    2.9627    1.0000 </r>
       <r>    2.9627    1.0000 </r>
       <r>    2.9840    1.0000 </r>
       <r>    4.0554    1.0000 </r>
       <r>    4.0554    1.0000 </r>
       <r>    4.0734    1.0000 </r>
       <r>    4.2521    1.0000 </r>
       <r>    4.5339    1.0000 </r>
       <r>    4.6944    1.0000 </r>
       <r>    4.6971    1.0000 </r>
       <r>    4.6971    1.0000 </r>
       <r>    5.3850    1.0000 </r>
       <r>    6.4614    0.9471 </r>
       <r>    6.4614    0.9471 </r>
       <r>    7.3347   -0.0000 </r>
       <r>    9.0094   -0.0000 </r>
       <r>    9.8861    0.0000 </r>
       <r>    9.8861    0.0000 </r>
       <r>   10.9366    0.0000 </r>
       <r>   19.9019    0.0000 </r>
       <r>   20.4909    0.0000 </r>
       <r>   20.4909    0.0000 </r>
       <r>   20.8113    0.0000 </r>
       <r>   21.0380    0.0000 </r>
       <r>   21.0380    0.0000 </r>
       <r>   21.3013    0.0000 </r>
       <r>   21.7826    0.0000 </r>
       <r>   21.8445    0.0000 </r>
       <r>   22.2450    0.0000 </r>
       <r>   22.2450    0.0000 </r>
       <r>   22.9500    0.0000 </r>
       <r>   28.4374    0.0000 </r>
       <r>   28.7458    0.0000 </r>
       <r>   28.7746    0.0000 </r>
       <r>   28.7746    0.0000 </r>
       <r>   29.1212    0.0000 </r>
       <r>   29.3210    0.0000 </r>
       <r>   29.4328    0.0000 </r>
       <r>   29.4328    0.0000 </r>
      </set>
      <set comment="kpoint 35">
       <r>    0.8535    1.0000 </r>
       <r>    0.9207    1.0000 </r>
       <r>    0.9207    1.0000 </r>
       <r>    0.9207    1.0000 </r>
       <r>    2.7769    1.0000 </r>
       <r>    2.7769    1.0000 </r>
       <r>    2.7769    1.0000 </r>
       <r>    2.8283    1.0000 </r>
       <r>    2.8283    1.0000 </r>
       <r>    2.8596    1.0000 </r>
       <r>    2.8596    1.0000 </r>
       <r>    2.8596    1.0000 </r>
       <r>    4.4975    1.0000 </r>
       <r>    4.4975    1.0000 </r>
       <r>    4.4975    1.0000 </r>
       <r>    4.7116    1.0000 </r>
       <r>    4.7116    1.0000 </r>
       <r>    4.7682    1.0000 </r>
       <r>    4.7682    1.0000 </r>
       <r>    4.7682    1.0000 </r>
       <r>    5.7121    1.0000 </r>
       <r>    6.6891   -0.0225 </r>
       <r>    6.6891   -0.0225 </r>
       <r>    6.6891   -0.0225 </r>
       <r>    8.9402   -0.0000 </r>
       <r>    8.9402   -0.0000 </r>
       <r>    8.9402   -0.0000 </r>
       <r>    9.7577    0.0000 </r>
       <r>   20.6744    0.0000 </r>
       <r>   20.6744    0.0000 </r>
       <r>   20.6744    0.0000 </r>
       <r>   20.7382    0.0000 </r>
       <r>   21.8672    0.0000 </r>
       <r>   21.8672    0.0000 </r>
       <r>   21.8672    0.0000 </r>
       <r>   22.0255    0.0000 </r>
       <r>   22.0255    0.0000 </r>
       <r>   22.0255    0.0000 </r>
       <r>   22.4264    0.0000 </r>
       <r>   22.4264    0.0000 </r>
       <r>   28.7786    0.0000 </r>
       <r>   28.7786    0.0000 </r>
       <r>   28.9874    0.0000 </r>
       <r>   28.9874    0.0000 </r>
       <r>   28.9874    0.0000 </r>
       <r>   29.0578    0.0000 </r>
       <r>   29.0578    0.0000 </r>
       <r>   29.0579    0.0000 </r>
      </set>
     </set>
    </set>
   </array>
  </eigenvalues>
  <separator name="orbital magnetization" >
   <v name="MAGDIPOLOUT">      0.00000000      0.00000000      0.00000000</v>
  </separator>
  <dos>
   <i name="efermi">      6.52790393 </i>
   <total>
    <array>
     <dimension dim="1">gridpoints</dimension>
     <dimension dim="2">spin</dimension>
     <field>energy</field>
     <field>total</field>
     <field>integrated</field>
     <set>
      <set comment="spin 1">
       <r>    -3.0812     0.0000     0.0000 </r>
       <r>    -2.9574     0.0000     0.0000 </r>
       <r>    -2.8337     0.0000     0.0000 </r>
       <r>    -2.7099     0.0000     0.0000 </r>
       <r>    -2.5861     0.0000     0.0000 </r>
       <r>    -2.4623     0.0000     0.0000 </r>
       <r>    -2.3385     0.0000     0.0000 </r>
       <r>    -2.2148    -0.0000    -0.0000 </r>
       <r>    -2.0910    -0.0000    -0.0000 </r>
       <r>    -1.9672    -0.0000    -0.0000 </r>
       <r>    -1.8434    -0.0000    -0.0000 </r>
       <r>    -1.7196    -0.0000    -0.0000 </r>
       <r>    -1.5959    -0.0002    -0.0000 </r>
       <r>    -1.4721    -0.0006    -0.0001 </r>
       <r>    -1.3483     0.0196     0.0023 </r>
       <r>    -1.2245     0.1240     0.0177 </r>
       <r>    -1.1007     0.2567     0.0494 </r>
       <r>    -0.9770     0.1880     0.0727 </r>
       <r>    -0.8532     0.1857     0.0957 </r>
       <r>    -0.7294     0.5816     0.1677 </r>
       <r>    -0.6056     0.4376     0.2219 </r>
       <r>    -0.4818     0.0868     0.2326 </r>
       <r>    -0.3580     0.5591     0.3018 </r>
       <r>    -0.2343     0.6093     0.3772 </r>
       <r>    -0.1105     0.7175     0.4660 </r>
       <r>     0.0133     0.2801     0.5007 </r>
       <r>     0.1371     1.1022     0.6371 </r>
       <r>     0.2609     0.5088     0.7001 </r>
       <r>     0.3846     0.5143     0.7638 </r>
       <r>     0.5084     1.0268     0.8909 </r>
       <r>     0.6322     1.3693     1.0604 </r>
       <r>     0.7560     1.5046     1.2466 </r>
       <r>     0.8798     1.7709     1.4658 </r>
       <r>     1.0035     2.6971     1.7997 </r>
       <r>     1.1273     3.8991     2.2823 </r>
       <r>     1.2511     4.1250     2.7929 </r>
       <r>     1.3749     6.9497     3.6531 </r>
       <r>     1.4987     8.1558     4.6627 </r>
       <r>     1.6224     9.7536     5.8700 </r>
       <r>     1.7462     9.8906     7.0942 </r>
       <r>     1.8700     7.3641     8.0058 </r>
       <r>     1.9938     9.1113     9.1336 </r>
       <r>     2.1176     6.3881     9.9243 </r>
       <r>     2.2413     6.1206    10.6819 </r>
       <r>     2.3651     9.9543    11.9141 </r>
       <r>     2.4889    10.9570    13.2703 </r>
       <r>     2.6127    10.2975    14.5450 </r>
       <r>     2.7365    12.0011    16.0305 </r>
       <r>     2.8603    11.1328    17.4085 </r>
       <r>     2.9840    14.0410    19.1465 </r>
       <r>     3.1078    18.9445    21.4915 </r>
       <r>     3.2316    13.3142    23.1395 </r>
       <r>     3.3554     9.3449    24.2962 </r>
       <r>     3.4792     9.1712    25.4314 </r>
       <r>     3.6029    10.4761    26.7282 </r>
       <r>     3.7267    10.2549    27.9975 </r>
       <r>     3.8505    11.0323    29.3631 </r>
       <r>     3.9743    13.0012    30.9724 </r>
       <r>     4.0981    10.7511    32.3032 </r>
       <r>     4.2218     8.1688    33.3144 </r>
       <r>     4.3456    10.5300    34.6178 </r>
       <r>     4.4694     9.0473    35.7377 </r>
       <r>     4.5932    11.2093    37.1252 </r>
       <r>     4.7170    15.9274    39.0967 </r>
       <r>     4.8407    12.4450    40.6371 </r>
       <r>     4.9645     8.9320    41.7427 </r>
       <r>     5.0883     3.7774    42.2103 </r>
       <r>     5.2121     0.5651    42.2802 </r>
       <r>     5.3359     0.2811    42.3150 </r>
       <r>     5.4596     0.6816    42.3994 </r>
       <r>     5.5834     2.1700    42.6680 </r>
       <r>     5.7072     2.1996    42.9403 </r>
       <r>     5.8310     1.1603    43.0839 </r>
       <r>     5.9548     0.7005    43.1706 </r>
       <r>     6.0786     0.3335    43.2119 </r>
       <r>     6.2023     1.0531    43.3422 </r>
       <r>     6.3261     2.1590    43.6095 </r>
       <r>     6.4499     1.9171    43.8468 </r>
       <r>     6.5737     1.4650    44.0281 </r>
       <r>     6.6975     0.3622    44.0729 </r>
       <r>     6.8212     1.5051    44.2592 </r>
       <r>     6.9450     0.6016    44.3337 </r>
       <r>     7.0688     1.5399    44.5243 </r>
       <r>     7.1926     1.5300    44.7137 </r>
       <r>     7.3164     1.4231    44.8898 </r>
       <r>     7.4401     0.7179    44.9787 </r>
       <r>     7.5639     2.0260    45.2295 </r>
       <r>     7.6877     0.6043    45.3043 </r>
       <r>     7.8115     1.6566    45.5093 </r>
       <r>     7.9353     1.5141    45.6967 </r>
       <r>     8.0590     0.7851    45.7939 </r>
       <r>     8.1828     1.0419    45.9229 </r>
       <r>     8.3066     1.2528    46.0780 </r>
       <r>     8.4304     2.1380    46.3426 </r>
       <r>     8.5542     1.1118    46.4802 </r>
       <r>     8.6779     0.2661    46.5132 </r>
       <r>     8.8017     1.3118    46.6755 </r>
       <r>     8.9255     1.9559    46.9176 </r>
       <r>     9.0493     3.1028    47.3017 </r>
       <r>     9.1731     1.8614    47.5321 </r>
       <r>     9.2968     0.3105    47.5705 </r>
       <r>     9.4206     1.0686    47.7028 </r>
       <r>     9.5444     2.6970    48.0366 </r>
       <r>     9.6682     1.1907    48.1840 </r>
       <r>     9.7920     0.7376    48.2753 </r>
       <r>     9.9158     1.9295    48.5142 </r>
       <r>    10.0395     0.6008    48.5885 </r>
       <r>    10.1633     0.5780    48.6601 </r>
       <r>    10.2871     0.7703    48.7554 </r>
       <r>    10.4109     1.3647    48.9243 </r>
       <r>    10.5347     1.1199    49.0630 </r>
       <r>    10.6584     1.9635    49.3060 </r>
       <r>    10.7822     1.8659    49.5370 </r>
       <r>    10.9060     1.8002    49.7598 </r>
       <r>    11.0298     0.7653    49.8545 </r>
       <r>    11.1536     0.7196    49.9436 </r>
       <r>    11.2773     1.7060    50.1548 </r>
       <r>    11.4011     2.2768    50.4366 </r>
       <r>    11.5249     2.9058    50.7963 </r>
       <r>    11.6487     0.2568    50.8281 </r>
       <r>    11.7725     0.6404    50.9073 </r>
       <r>    11.8962     1.0977    51.0432 </r>
       <r>    12.0200     1.8076    51.2670 </r>
       <r>    12.1438     2.5277    51.5798 </r>
       <r>    12.2676     2.0293    51.8310 </r>
       <r>    12.3914     0.9307    51.9462 </r>
       <r>    12.5151     1.1442    52.0879 </r>
       <r>    12.6389     0.5292    52.1534 </r>
       <r>    12.7627     0.9304    52.2685 </r>
       <r>    12.8865     2.0721    52.5250 </r>
       <r>    13.0103     2.3958    52.8216 </r>
       <r>    13.1341     1.7736    53.0411 </r>
       <r>    13.2578     0.8147    53.1419 </r>
       <r>    13.3816     0.5659    53.2120 </r>
       <r>    13.5054     1.7172    53.4246 </r>
       <r>    13.6292     0.8237    53.5265 </r>
       <r>    13.7530     0.9259    53.6411 </r>
       <r>    13.8767     1.1589    53.7846 </r>
       <r>    14.0005     1.9359    54.0242 </r>
       <r>    14.1243     1.7457    54.2403 </r>
       <r>    14.2481     3.8103    54.7119 </r>
       <r>    14.3719     2.1192    54.9743 </r>
       <r>    14.4956     0.2160    55.0010 </r>
       <r>    14.6194     1.5840    55.1971 </r>
       <r>    14.7432     1.9152    55.4341 </r>
       <r>    14.8670     0.2481    55.4648 </r>
       <r>    14.9908     1.2047    55.6139 </r>
       <r>    15.1145     1.3281    55.7783 </r>
       <r>    15.2383     3.4883    56.2101 </r>
       <r>    15.3621     2.6290    56.5355 </r>
       <r>    15.4859     0.8670    56.6429 </r>
       <r>    15.6097     0.8712    56.7507 </r>
       <r>    15.7334     1.8778    56.9831 </r>
       <r>    15.8572     1.6570    57.1882 </r>
       <r>    15.9810     1.5833    57.3842 </r>
       <r>    16.1048     2.8797    57.7407 </r>
       <r>    16.2286     2.2973    58.0250 </r>
       <r>    16.3523     3.2048    58.4217 </r>
       <r>    16.4761     2.0883    58.6802 </r>
       <r>    16.5999     2.5977    59.0018 </r>
       <r>    16.7237     2.0190    59.2517 </r>
       <r>    16.8475     3.7011    59.7098 </r>
       <r>    16.9713     2.5688    60.0278 </r>
       <r>    17.0950     1.4316    60.2050 </r>
       <r>    17.2188     0.4672    60.2628 </r>
       <r>    17.3426     2.0637    60.5183 </r>
       <r>    17.4664     2.7647    60.8605 </r>
       <r>    17.5902     0.3501    60.9038 </r>
       <r>    17.7139     2.2907    61.1874 </r>
       <r>    17.8377     2.7968    61.5336 </r>
       <r>    17.9615     2.4470    61.8365 </r>
       <r>    18.0853     4.5607    62.4010 </r>
       <r>    18.2091     2.2458    62.6790 </r>
       <r>    18.3328     1.5220    62.8674 </r>
       <r>    18.4566     1.9120    63.1040 </r>
       <r>    18.5804     2.2167    63.3784 </r>
       <r>    18.7042     0.4166    63.4300 </r>
       <r>    18.8280     1.6746    63.6373 </r>
       <r>    18.9517     2.1438    63.9026 </r>
       <r>    19.0755     2.2652    64.1830 </r>
       <r>    19.1993     2.8548    64.5364 </r>
       <r>    19.3231     3.2405    64.9375 </r>
       <r>    19.4469     1.9007    65.1728 </r>
       <r>    19.5706     1.0649    65.3046 </r>
       <r>    19.6944     0.9238    65.4189 </r>
       <r>    19.8182     2.4449    65.7215 </r>
       <r>    19.9420     2.1976    65.9936 </r>
       <r>    20.0658     0.4804    66.0530 </r>
       <r>    20.1896     2.7952    66.3990 </r>
       <r>    20.3133     2.7294    66.7369 </r>
       <r>    20.4371     1.5380    66.9272 </r>
       <r>    20.5609     2.8683    67.2823 </r>
       <r>    20.6847     1.5513    67.4743 </r>
       <r>    20.8085     3.8532    67.9512 </r>
       <r>    20.9322     1.0158    68.0770 </r>
       <r>    21.0560     1.5621    68.2703 </r>
       <r>    21.1798     2.8458    68.6226 </r>
       <r>    21.3036     2.8198    68.9716 </r>
       <r>    21.4274     1.3889    69.1436 </r>
       <r>    21.5511     1.1379    69.2844 </r>
       <r>    21.6749     3.0823    69.6659 </r>
       <r>    21.7987     2.5373    69.9800 </r>
       <r>    21.9225     2.8688    70.3351 </r>
       <r>    22.0463     3.1270    70.7222 </r>
       <r>    22.1700     3.5297    71.1591 </r>
       <r>    22.2938     3.6015    71.6049 </r>
       <r>    22.4176     5.3517    72.2673 </r>
       <r>    22.5414     5.0957    72.8981 </r>
       <r>    22.6652     3.7011    73.3562 </r>
       <r>    22.7889     2.3437    73.6463 </r>
       <r>    22.9127     3.9622    74.1367 </r>
       <r>    23.0365     5.2805    74.7904 </r>
       <r>    23.1603     4.2817    75.3204 </r>
       <r>    23.2841     2.1076    75.5812 </r>
       <r>    23.4079     1.0424    75.7103 </r>
       <r>    23.5316     3.6878    76.1667 </r>
       <r>    23.6554     2.2953    76.4508 </r>
       <r>    23.7792     2.2659    76.7313 </r>
       <r>    23.9030     4.7929    77.3246 </r>
       <r>    24.0268     3.6534    77.7768 </r>
       <r>    24.1505     2.5881    78.0972 </r>
       <r>    24.2743     1.6954    78.3070 </r>
       <r>    24.3981     2.7888    78.6522 </r>
       <r>    24.5219     2.8515    79.0052 </r>
       <r>    24.6457     3.2019    79.4015 </r>
       <r>    24.7694     2.5438    79.7164 </r>
       <r>    24.8932     2.3852    80.0116 </r>
       <r>    25.0170     1.1947    80.1595 </r>
       <r>    25.1408     1.3792    80.3302 </r>
       <r>    25.2646     0.8641    80.4372 </r>
       <r>    25.3883     0.4858    80.4973 </r>
       <r>    25.5121     2.2905    80.7809 </r>
       <r>    25.6359     2.7677    81.1234 </r>
       <r>    25.7597     0.9957    81.2467 </r>
       <r>    25.8835     3.2404    81.6478 </r>
       <r>    26.0072     3.7615    82.1134 </r>
       <r>    26.1310     1.8090    82.3373 </r>
       <r>    26.2548     1.9173    82.5746 </r>
       <r>    26.3786     0.5863    82.6472 </r>
       <r>    26.5024     1.6602    82.8527 </r>
       <r>    26.6261     0.7027    82.9397 </r>
       <r>    26.7499     0.6406    83.0190 </r>
       <r>    26.8737     1.0811    83.1528 </r>
       <r>    26.9975     1.3262    83.3170 </r>
       <r>    27.1213     1.7282    83.5309 </r>
       <r>    27.2451     1.7940    83.7530 </r>
       <r>    27.3688     2.1019    84.0131 </r>
       <r>    27.4926     3.4166    84.4360 </r>
       <r>    27.6164     2.0110    84.6850 </r>
       <r>    27.7402     2.1737    84.9540 </r>
       <r>    27.8640     1.8660    85.1850 </r>
       <r>    27.9877     0.9796    85.3062 </r>
       <r>    28.1115     1.8738    85.5382 </r>
       <r>    28.2353     2.7119    85.8739 </r>
       <r>    28.3591     0.9828    85.9955 </r>
       <r>    28.4829     3.1535    86.3859 </r>
       <r>    28.6066     5.1309    87.0210 </r>
       <r>    28.7304     3.4333    87.4459 </r>
       <r>    28.8542     5.0000    88.0648 </r>
       <r>    28.9780     4.1902    88.5835 </r>
       <r>    29.1018     4.3360    89.1202 </r>
       <r>    29.2255     2.1989    89.3924 </r>
       <r>    29.3493     2.3915    89.6884 </r>
       <r>    29.4731     3.9760    90.1806 </r>
       <r>    29.5969     3.7353    90.6429 </r>
       <r>    29.7207     3.0519    91.0207 </r>
       <r>    29.8444     4.3005    91.5530 </r>
       <r>    29.9682     4.3584    92.0925 </r>
       <r>    30.0920     5.4991    92.7732 </r>
       <r>    30.2158     3.8367    93.2481 </r>
       <r>    30.3396     5.1696    93.8880 </r>
       <r>    30.4634     2.0818    94.1457 </r>
       <r>    30.5871     2.4618    94.4504 </r>
       <r>    30.7109     3.1208    94.8367 </r>
       <r>    30.8347     1.0702    94.9692 </r>
       <r>    30.9585     0.9203    95.0831 </r>
       <r>    31.0823     2.0266    95.3339 </r>
       <r>    31.2060     1.6863    95.5427 </r>
       <r>    31.3298     0.7197    95.6317 </r>
       <r>    31.4536     1.4345    95.8093 </r>
       <r>    31.5774     1.3423    95.9755 </r>
       <r>    31.7012     0.0093    95.9766 </r>
       <r>    31.8249    -0.0105    95.9753 </r>
       <r>    31.9487    -0.0001    95.9753 </r>
       <r>    32.0725    -0.0001    95.9753 </r>
       <r>    32.1963    -0.0053    95.9746 </r>
       <r>    32.3201     0.0597    95.9820 </r>
       <r>    32.4438     0.1488    96.0005 </r>
       <r>    32.5676    -0.0029    96.0001 </r>
       <r>    32.6914    -0.0008    96.0000 </r>
       <r>    32.8152    -0.0000    96.0000 </r>
       <r>    32.9390    -0.0000    96.0000 </r>
       <r>    33.0627    -0.0000    96.0000 </r>
       <r>    33.1865     0.0000    96.0000 </r>
       <r>    33.3103     0.0000    96.0000 </r>
       <r>    33.4341     0.0000    96.0000 </r>
       <r>    33.5579     0.0000    96.0000 </r>
       <r>    33.6816     0.0000    96.0000 </r>
       <r>    33.8054     0.0000    96.0000 </r>
       <r>    33.9292     0.0000    96.0000 </r>
       <r>    34.0530     0.0000    96.0000 </r>
      </set>
     </set>
    </array>
   </total>
  </dos>
 </calculation>
 <structure name="finalpos" >
  <crystal>
   <varray name="basis" >
    <v>       4.35200000       0.00000000       0.00000000 </v>
    <v>       0.00000000       4.35200000       0.00000000 </v>
    <v>       0.00000000       0.00000000       4.35200000 </v>
   </varray>
   <i name="volume">     82.42646221 </i>
   <varray name="rec_basis" >
    <v>       0.22977941       0.00000000       0.00000000 </v>
    <v>       0.00000000       0.22977941       0.00000000 </v>
    <v>       0.00000000       0.00000000       0.22977941 </v>
   </varray>
  </crystal>
  <varray name="positions" >
   <v>       0.00000000       0.00000000       0.00000000 </v>
   <v>       0.00000000       0.50000000       0.50000000 </v>
   <v>       0.50000000       0.00000000       0.50000000 </v>
   <v>       0.50000000       0.50000000       0.00000000 </v>
  </varray>
 </structure>
</modeling>
