----- GAMESS execution script 'rungms' -----
This job is running on host crcfe02.crc.nd.edu
under operating system Linux at Sun Sep 29 10:53:41 EDT 2019
Available scratch disk space (Kbyte units) at beginning of the job is
Filesystem      1K-blocks  Used  Available Use% Mounted on
AFS            2147483647     0 2147483647   0% /afs
GAMESS temporary binary files will be written to /afs/crc.nd.edu/user/c/cdrisko
GAMESS supplementary output files will be written to /afs/crc.nd.edu/user/c/cdrisko/scr
Copying input file SO2.inp to your run's scratch directory...

 Distributed Data Interface kickoff program.
 Initiating 1 compute processes on 1 nodes to run the following command:
 /afs/crc.nd.edu/x86_64_linux/g/gamess/nov-2017/gamess/gamess.00.x SO2 

          ******************************************************
          *         GAMESS VERSION = 11 NOV 2017 (R3)         *
          *             FROM IOWA STATE UNIVERSITY             *
          * M.W.SCHMIDT, K.K.BALDRIDGE, J.A.BOATZ, S.T.ELBERT, *
          *   M.S.GORDON, J.H.JENSEN, S.KOSEKI, N.MATSUNAGA,   *
          *          K.A.NGUYEN, S.J.SU, T.L.WINDUS,           *
          *       TOGETHER WITH M.DUPUIS, J.A.MONTGOMERY       *
          *         J.COMPUT.CHEM.  14, 1347-1363(1993)        *
          **************** 64 BIT INTEL VERSION ****************

  SINCE 1993, STUDENTS AND POSTDOCS WORKING AT IOWA STATE UNIVERSITY
  AND ALSO IN THEIR VARIOUS JOBS AFTER LEAVING ISU HAVE MADE IMPORTANT
  CONTRIBUTIONS TO THE CODE:
     IVANA ADAMOVIC, CHRISTINE AIKENS, YURI ALEXEEV, POOJA ARORA,
     ANDREY ASADCHEV, ROB BELL, PRADIPTA BANDYOPADHYAY, JONATHAN BENTZ,
     BRETT BODE, KURT BRORSEN, CALEB CARLIN, GALINA CHABAN, WEI CHEN,
     CHEOL HO CHOI, PAUL DAY, ALBERT DEFUSCO, NUWAN DESILVA, TIM DUDLEY,
     DMITRI FEDOROV, ALEX FINDLATER, GRAHAM FLETCHER, MARK FREITAG,
     KURT GLAESEMANN, ANASTASIA GUININA,
     DAN KEMP, GRANT MERRILL, NORIYUKI MINEZAWA, JONATHAN MULLIN,
     TAKESHI NAGATA, SEAN NEDD, HEATHER NETZLOFF, BOSILJKA NJEGIC, RYAN OLSON,
     MIKE PAK, BUU PHAM,
     SPENCER PRUITT, LUKE ROSKOP, JIM SHOEMAKER, LYUDMILA SLIPCHENKO,
     TONY SMITH, SAROM SOK LEANG, JIE SONG, TETSUYA TAKETSUGU, SIMON WEBB,
     PENG XU, SOOHAENG YOO, FEDERICO ZAHARIEV

  ADDITIONAL CODE HAS BEEN PROVIDED BY COLLABORATORS IN OTHER GROUPS:
     IOWA STATE UNIVERSITY:
          JOE IVANIC, AARON WEST, LAIMUTIS BYTAUTAS, KLAUS RUEDENBERG
     UNIVERSITY OF TOKYO: KIMIHIKO HIRAO, TAKAHITO NAKAJIMA,
          TAKAO TSUNEDA, MUNEAKI KAMIYA, SUSUMU YANAGISAWA,
          KIYOSHI YAGI, MAHITO CHIBA, SEIKEN TOKURA, NAOAKI KAWAKAMI
     UNIVERSITY OF AARHUS: FRANK JENSEN
     UNIVERSITY OF IOWA: VISVALDAS KAIRYS, HUI LI
     NATIONAL INST. OF STANDARDS AND TECHNOLOGY: WALT STEVENS, DAVID GARMER
     UNIVERSITY OF PISA: BENEDETTA MENNUCCI, JACOPO TOMASI
     UNIVERSITY OF MEMPHIS: HENRY KURTZ, PRAKASHAN KORAMBATH
     UNIVERSITY OF ALBERTA: TOBY ZENG, MARIUSZ KLOBUKOWSKI
     UNIVERSITY OF NEW ENGLAND: MARK SPACKMAN
     MIE UNIVERSITY: HIROAKI UMEDA
     NAT. INST. OF ADVANCED INDUSTRIAL SCIENCE AND TECHNOLOGY: KAZUO KITAURA
     MICHIGAN STATE UNIVERSITY:
          KAROL KOWALSKI, MARTA WLOCH, JEFFREY GOUR, JESSE LUTZ,
          WEI LI, PIOTR PIECUCH
     UNIVERSITY OF SILESIA: MONIKA MUSIAL, STANISLAW KUCHARSKI
     FACULTES UNIVERSITAIRES NOTRE-DAME DE LA PAIX:
          OLIVIER QUINET, BENOIT CHAMPAGNE
     UNIVERSITY OF CALIFORNIA - SANTA BARBARA: BERNARD KIRTMAN
     INSTITUTE FOR MOLECULAR SCIENCE:
          KAZUYA ISHIMURA, MICHIO KATOUDA, AND SHIGERU NAGASE
     UNIVERSITY OF NOTRE DAME: ANNA POMOGAEVA, DAN CHIPMAN
     KYUSHU UNIVERSITY:
          HARUYUKI NAKANO,
          FENG LONG GU, JACEK KORCHOWIEC, MARCIN MAKOWSKI, AND YURIKO AOKI,
          HIROTOSHI MORI AND EISAKU MIYOSHI
     PENNSYLVANIA STATE UNIVERSITY:
          TZVETELIN IORDANOV, CHET SWALINA, JONATHAN SKONE,
          SHARON HAMMES-SCHIFFER
     WASEDA UNIVERSITY:
          MASATO KOBAYASHI, TOMOKO AKAMA, TSUGUKI TOUMA,
          TAKESHI YOSHIKAWA, YASUHIRO IKABATA, JUNJI SEINO,
          YUYA NAKAJIMA, HIROMI NAKAI
     NANJING UNIVERSITY: SHUHUA LI
     UNIVERSITY OF NEBRASKA:
          PEIFENG SU, DEJUN SI, NANDUN THELLAMUREGE, YALI WANG, HUI LI
     UNIVERSITY OF ZURICH: ROBERTO PEVERATI, KIM BALDRIDGE
     N. COPERNICUS UNIVERSITY AND JACKSON STATE UNIVERSITY:
          MARIA BARYSZ
     UNIVERSITY OF COPENHAGEN: Jimmy Kromann, CASPER STEINMANN
     TOKYO INSTITUTE OF TECHNOLOGY: HIROYA NAKATA
     NAGOYA UNIVERSITY: YOSHIO NISHIMOTO, STEPHAN IRLE
     MOSCOW STATE UNIVERSITY: VLADIMIR MIRONOV

 EXECUTION OF GAMESS BEGUN Sun Sep 29 10:53:41 2019

            ECHO OF THE FIRST FEW INPUT CARDS -
 INPUT CARD> $BASIS GBASIS=PCSEG-1 $END                                                     
 INPUT CARD> $CONTRL COORD=ZMT ISPHER=1 RUNTYP=ENERGY DFTTYP=PBE MULT=1 $END                
 INPUT CARD>                                                                                
 INPUT CARD> $DATA                                                                          
 INPUT CARD>Title SO2 single-point calculation template with Z-Matrix                       
 INPUT CARD>C1                                                                              
 INPUT CARD>S                                                                               
 INPUT CARD>O 1 1.70                                                                        
 INPUT CARD>O 1 1.70 2 95                                                                   
 INPUT CARD> $END                                                                           
    1000000 WORDS OF MEMORY AVAILABLE

     BASIS OPTIONS
     -------------
     GBASIS=PCSEG-1      IGAUSS=       0      POLAR=NONE    
     NDFUNC=       0     NFFUNC=       0     DIFFSP=       F
     NPFUNC=       0      DIFFS=       F     BASNAM=        


     RUN TITLE
     ---------
 Title SO2 single-point calculation template with Z-Matrix                       

 THE POINT GROUP OF THE MOLECULE IS C1      
 THE ORDER OF THE PRINCIPAL AXIS IS     0

 YOUR FULLY SUBSTITUTED Z-MATRIX IS
 S   
 O      1   1.7000000
 O      1   1.7000000  2   95.0000

 THE MOMENTS OF INERTIA ARE (AMU-ANGSTROM**2)
 IXX=    21.092   IYY=    50.254   IZZ=    71.346

 ATOM      ATOMIC                      COORDINATES (BOHR)
           CHARGE         X                   Y                   Z
 S          16.0     0.0000000000       -1.0854794633        0.0000000000
 O           8.0     2.3685286440        1.0848771698        0.0000000000
 O           8.0    -2.3685286440        1.0848771698        0.0000000000

          INTERNUCLEAR DISTANCES (ANGS.)
          ------------------------------

                1 S          2 O          3 O     

   1 S       0.0000000    1.7000000 *  1.7000000 *
   2 O       1.7000000 *  0.0000000    2.5067429 *
   3 O       1.7000000 *  2.5067429 *  0.0000000  

  * ... LESS THAN  3.000


     ATOMIC BASIS SET
     ----------------
 THE CONTRACTED PRIMITIVE FUNCTIONS HAVE BEEN UNNORMALIZED
 THE CONTRACTED BASIS FUNCTIONS ARE NOW NORMALIZED TO UNITY

  SHELL TYPE  PRIMITIVE        EXPONENT          CONTRACTION COEFFICIENT(S)

 S         

      1   S       1         49299.4000000    0.000677492991
      1   S       2          7395.8400000    0.005232317766
      1   S       3          1683.3000000    0.026769459077
      1   S       4           476.1440000    0.102869580705
      1   S       5           154.3290000    0.286438127414
      1   S       6            55.0288000    0.454278639081
      1   S       7            20.5029000    0.271743121997

      2   S       8            45.9596000   -0.088421914560
      2   S       9             4.9274000    0.564350486135
      2   S      10             1.9179900    0.505415953466

      3   S      11             0.3684980    1.000000000000

      4   S      12             0.1291650    1.000000000000

      5   P      13           451.6620000    0.003707705453
      5   P      14           106.0980000    0.029219352245
      5   P      15            33.6996000    0.124444551509
      5   P      16            12.3054000    0.321808587656
      5   P      17             4.7141200    0.462822172957
      5   P      18             1.7810500    0.266513371364

      6   P      19             0.8722350    0.349265132972
      6   P      20             0.3102780    0.717115018770

      7   P      21             0.1001940    1.000000000000

      8   D      22             0.5500000    1.000000000000

 O         

      9   S      23          2288.6400000    0.005451138222
      9   S      24           344.4160000    0.040718922842
      9   S      25            78.2538000    0.181369420873
      9   S      26            21.7195000    0.465536820246
      9   S      27             6.5590700    0.451211321214

     10   S      28            10.4656000   -0.150211201174
     10   S      29             0.9643510    1.052867983385

     11   S      30             0.2851270    1.000000000000

     12   P      31            17.0590000    0.068749256972
     12   P      32             3.6899900    0.351671941499
     12   P      33             0.9929960    0.724532099722

     13   P      34             0.2449240    1.000000000000

     14   D      35             1.0000000    1.000000000000

 O         

     15   S      36          2288.6400000    0.005451138222
     15   S      37           344.4160000    0.040718922842
     15   S      38            78.2538000    0.181369420873
     15   S      39            21.7195000    0.465536820246
     15   S      40             6.5590700    0.451211321214

     16   S      41            10.4656000   -0.150211201174
     16   S      42             0.9643510    1.052867983385

     17   S      43             0.2851270    1.000000000000

     18   P      44            17.0590000    0.068749256972
     18   P      45             3.6899900    0.351671941499
     18   P      46             0.9929960    0.724532099722

     19   P      47             0.2449240    1.000000000000

     20   D      48             1.0000000    1.000000000000

 TOTAL NUMBER OF BASIS SET SHELLS             =   20
 NUMBER OF CARTESIAN GAUSSIAN BASIS FUNCTIONS =   49
 NOTE: THIS RUN WILL RESTRICT THE MO VARIATION SPACE TO SPHERICAL HARMONICS.
 THE NUMBER OF ORBITALS KEPT IN THE VARIATIONAL SPACE WILL BE PRINTED LATER.
 NUMBER OF ELECTRONS                          =   32
 CHARGE OF MOLECULE                           =    0
 SPIN MULTIPLICITY                            =    1
 NUMBER OF OCCUPIED ORBITALS (ALPHA)          =   16
 NUMBER OF OCCUPIED ORBITALS (BETA )          =   16
 TOTAL NUMBER OF ATOMS                        =    3
 THE NUCLEAR REPULSION ENERGY IS       93.1983654843

     LEBEDEV GRID-BASED DFT OPTIONS
     ------------------------------
     DFTTYP=PBE     
     NRAD  =      96     NLEB  =     302
     NRAD0 =      24     NLEB0 =     110
     SWOFF =    5.00E-03 (PURE SCF -> DFT)
     SWITCH=    3.00E-04 (COARSE -> TIGHT GRID)
     THRESH=    0.00E+00 GTHRE=    1.00E+00

 GRIMME'S EMPIRICAL DISPERSION CORRECTION= F

     $CONTRL OPTIONS
     ---------------
 SCFTYP=RHF          RUNTYP=ENERGY       EXETYP=RUN     
 MPLEVL=       0     CITYP =NONE         CCTYP =NONE         VBTYP =NONE    
 DFTTYP=PBE          TDDFT =NONE    
 MULT  =       1     ICHARG=       0     NZVAR =       0     COORD =ZMT     
 PP    =NONE         RELWFN=NONE         LOCAL =NONE         NUMGRD=       F
 ISPHER=       1     NOSYM =       0     MAXIT =      30     UNITS =ANGS    
 PLTORB=       F     MOLPLT=       F     AIMPAC=       F     FRIEND=        
 NPRINT=       7     IREST =       0     GEOM  =INPUT   
 NORMF =       0     NORMP =       0     ITOL  =      20     ICUT  =       9
 INTTYP=BEST         GRDTYP=BEST         QMTTOL= 1.0E-06

     $SYSTEM OPTIONS
     ---------------
  REPLICATED MEMORY=     1000000 WORDS (ON EVERY NODE).
 DISTRIBUTED MEMDDI=           0 MILLION WORDS IN AGGREGATE,
 MEMDDI DISTRIBUTED OVER   1 PROCESSORS IS           0 WORDS/PROCESSOR.
 TOTAL MEMORY REQUESTED ON EACH PROCESSOR=     1000000 WORDS.
 TIMLIM=      525600.00 MINUTES, OR     365.0 DAYS.
 PARALL= F  BALTYP=  DLB     KDIAG=    0  COREFL= F
 MXSEQ2=     300 MXSEQ3=     150  mem10=         0

          ----------------
          PROPERTIES INPUT
          ----------------

     MOMENTS            FIELD           POTENTIAL          DENSITY
 IEMOM =       1   IEFLD =       0   IEPOT =       0   IEDEN =       0
 WHERE =COMASS     WHERE =NUCLEI     WHERE =NUCLEI     WHERE =NUCLEI  
 OUTPUT=BOTH       OUTPUT=BOTH       OUTPUT=BOTH       OUTPUT=BOTH    
 IEMINT=       0   IEFINT=       0                     IEDINT=       0
                                                       MORB  =       0
          EXTRAPOLATION IN EFFECT
          DIIS IN EFFECT
 ORBITAL PRINTING OPTION: NPREO=     1    49     2     1

     -------------------------------
     INTEGRAL TRANSFORMATION OPTIONS
     -------------------------------
     NWORD  =            0
     CUTOFF = 1.0E-09     MPTRAN =       0
     DIRTRF =       F     AOINTS =DUP     

          ----------------------
          INTEGRAL INPUT OPTIONS
          ----------------------
 NOPK  =       1 NORDER=       0 SCHWRZ=       F

   --- ENCODED Z MATRIX ---
 COORD  TYPE   I   J   K   L   M   N
    1      1    2   1
    2      1    3   1
    3      2    3   1   2

 THE DETERMINANT OF THE G MATRIX IS 10**(    -4)

 THE DETERMINANT OF THE G MATRIX IS 10**(    -4)
 * * * WARNING * * *
 YOUR B MATRIX HAS A SMALL DETERMINANT.
 THIS SUGGESTS YOU MAY HAVE BADLY CHOSEN COORDINATES.

     ------------------------------------------
     THE POINT GROUP IS C1 , NAXIS= 0, ORDER= 1
     ------------------------------------------

 -- VARIATIONAL SPACE WILL BE RESTRICTED TO PURE SPHERICAL HARMONICS ONLY --
 AFTER EXCLUDING CONTAMINANT COMBINATIONS FROM THE CARTESIAN GAUSSIAN BASIS
 SET, THE NUMBER OF SPHERICAL HARMONICS KEPT IN THE VARIATION SPACE IS   46

     DIMENSIONS OF THE SYMMETRY SUBSPACES ARE
 A   =   46

 ..... DONE SETTING UP THE RUN .....
 STEP CPU TIME =     0.03 TOTAL CPU TIME =          0.0 (      0.0 MIN)
 TOTAL WALL CLOCK TIME=          0.0 SECONDS, CPU UTILIZATION IS    75.00%

          ********************
          1 ELECTRON INTEGRALS
          ********************
 ...... END OF ONE-ELECTRON INTEGRALS ......
 STEP CPU TIME =     0.01 TOTAL CPU TIME =          0.0 (      0.0 MIN)
 TOTAL WALL CLOCK TIME=          0.0 SECONDS, CPU UTILIZATION IS   100.00%

          -------------
          GUESS OPTIONS
          -------------
          GUESS =HUCKEL            NORB  =       0          NORDER=       0
          MIX   =       F          PRTMO =       F          PUNMO =       F
          TOLZ  = 1.0E-08          TOLE  = 1.0E-05
          SYMDEN=       F          PURIFY=       F

 INITIAL GUESS ORBITALS GENERATED BY HUCKEL   ROUTINE.
 HUCKEL GUESS REQUIRES     21634 WORDS.

 STATISTICS FOR GENERATION OF SYMMETRY ORBITAL -Q- MATRIX
 NUMBER OF CARTESIAN ATOMIC ORBITALS=         49
 NUMBER OF SPHERICAL CONTAMINANTS DROPPED=     3
 NUMBER OF LINEARLY DEPENDENT MOS DROPPED=     0
 TOTAL NUMBER OF MOS IN VARIATION SPACE=      46

 SYMMETRIES FOR INITIAL GUESS ORBITALS FOLLOW.   BOTH SET(S).
    16 ORBITALS ARE OCCUPIED (    7 CORE ORBITALS).
     8=A        9=A       10=A       11=A       12=A       13=A       14=A   
    15=A       16=A       17=A       18=A       19=A       20=A       21=A   
    22=A       23=A       24=A       25=A       26=A   
 ...... END OF INITIAL ORBITAL SELECTION ......
 STEP CPU TIME =     0.00 TOTAL CPU TIME =          0.0 (      0.0 MIN)
 TOTAL WALL CLOCK TIME=          0.0 SECONDS, CPU UTILIZATION IS    80.00%

                    ----------------------
                    AO INTEGRAL TECHNOLOGY
                    ----------------------
     S,P,L SHELL ROTATED AXIS INTEGRALS, REPROGRAMMED BY
        KAZUYA ISHIMURA (IMS) AND JOSE SIERRA (SYNSTAR).
     S,P,D,L SHELL ROTATED AXIS INTEGRALS PROGRAMMED BY
        KAZUYA ISHIMURA (INSTITUTE FOR MOLECULAR SCIENCE).
     S,P,D,F,G SHELL TO TOTAL QUARTET ANGULAR MOMENTUM SUM 5,
        ERIC PROGRAM BY GRAHAM FLETCHER (ELORET AND NASA ADVANCED
        SUPERCOMPUTING DIVISION, AMES RESEARCH CENTER).
     S,P,D,F,G,L SHELL GENERAL RYS QUADRATURE PROGRAMMED BY
        MICHEL DUPUIS (PACIFIC NORTHWEST NATIONAL LABORATORY).

          --------------------
          2 ELECTRON INTEGRALS
          --------------------

 THE -PK- OPTION IS OFF, THE INTEGRALS ARE NOT IN SUPERMATRIX FORM.
 STORING   15000 INTEGRALS/RECORD ON DISK, USING 12 BYTES/INTEGRAL.
 TWO ELECTRON INTEGRAL EVALUATION REQUIRES   90606 WORDS OF MEMORY.
 II,JST,KST,LST =  1  1  1  1 NREC =         1 INTLOC =    1
 II,JST,KST,LST =  2  1  1  1 NREC =         1 INTLOC =    2
 II,JST,KST,LST =  3  1  1  1 NREC =         1 INTLOC =    7
 II,JST,KST,LST =  4  1  1  1 NREC =         1 INTLOC =   22
 II,JST,KST,LST =  5  1  1  1 NREC =         1 INTLOC =   56
 II,JST,KST,LST =  6  1  1  1 NREC =         1 INTLOC =  125
 II,JST,KST,LST =  7  1  1  1 NREC =         1 INTLOC =  329
 II,JST,KST,LST =  8  1  1  1 NREC =         1 INTLOC =  776
 II,JST,KST,LST =  9  1  1  1 NREC =         1 INTLOC = 2864
 II,JST,KST,LST = 10  1  1  1 NREC =         1 INTLOC = 4844
 II,JST,KST,LST = 11  1  1  1 NREC =         1 INTLOC = 7494
 II,JST,KST,LST = 12  1  1  1 NREC =         1 INTLOC =10601
 II,JST,KST,LST = 13  1  1  1 NREC =         2 INTLOC = 6444
 II,JST,KST,LST = 14  1  1  1 NREC =         3 INTLOC = 6666
 II,JST,KST,LST = 15  1  1  1 NREC =         6 INTLOC = 8482
 II,JST,KST,LST = 16  1  1  1 NREC =         7 INTLOC =  618
 II,JST,KST,LST = 17  1  1  1 NREC =         7 INTLOC =12279
 II,JST,KST,LST = 18  1  1  1 NREC =         8 INTLOC =10664
 II,JST,KST,LST = 19  1  1  1 NREC =        11 INTLOC = 5938
 II,JST,KST,LST = 20  1  1  1 NREC =        14 INTLOC =13003
 TOTAL NUMBER OF NONZERO TWO-ELECTRON INTEGRALS =              340689
         23 INTEGRAL RECORDS WERE STORED ON DISK FILE  8.
  ...... END OF TWO-ELECTRON INTEGRALS .....
 STEP CPU TIME =     0.10 TOTAL CPU TIME =          0.1 (      0.0 MIN)
 TOTAL WALL CLOCK TIME=          0.1 SECONDS, CPU UTILIZATION IS    93.33%

          --------------------------
               R-PBE SCF CALCULATION
          --------------------------

     NUCLEAR ENERGY =        93.1983654843
     MAXIT =   30     NPUNCH=    2
     EXTRAP=T  DAMP=F  SHIFT=F  RSTRCT=F  DIIS=T  DEM=F  SOSCF=F
         DENSITY MATRIX CONVERGENCE THRESHOLD=  1.00E-05
     COARSE -> FINE DFT GRID SWITCH THRESHOLD=  3.00E-04 (SWITCH IN $DFT)
                   HF -> DFT SWITCH THRESHOLD=  5.00E-03 (SWOFF IN $DFT)
     MEMORY REQUIRED FOR RHF ITERS=    183108 WORDS.

 DFT CODE IS SWITCHING FROM THE FINE GRID NRAD= 96,  NLEB=  302
                      TO THE COARSE GRID NRAD0= 24, NLEB0=  110

     EXCHANGE FUNCTIONAL   =PBE       
     CORRELATION FUNCTIONAL=PBE       
     DFT THRESHOLD         =.460E-07
     GRID CHANGE THRESHOLD =.300E-03
 FOR AN EULER-MACLAURIN QUADRATURE USING  96 RADIAL POINTS:
 SMALLEST GAUSSIAN PRIMITIVE EXPONENT=        0.1001940000 OF TYPE -P-
 ON ATOM NUMBER   1 HAS RADIAL NORMALIZATION=  1.000000
  LARGEST GAUSSIAN PRIMITIVE EXPONENT=    49299.4000000000 OF TYPE -S-
 ON ATOM NUMBER   1 HAS RADIAL NORMALIZATION=  1.000000
 DFT IS SWITCHED OFF, PERFORMING PURE SCF UNTIL SWOFF THRESHOLD IS REACHED.

 ITER EX DEM     TOTAL ENERGY        E CHANGE  DENSITY CHANGE    DIIS ERROR
   1  0  0     -545.9384984266  -545.9384984266   0.780504285   0.935113954
          * * *   INITIATING DIIS PROCEDURE   * * *
   2  1  0     -546.3457036961    -0.4072052695   0.876961235   0.386767697
   3  2  0     -546.2588168505     0.0868868457   0.361089593   0.440472286
   4  3  0     -546.9541015280    -0.6952846775   0.034598261   0.010858299
   5  4  0     -546.9556884203    -0.0015868923   0.010883602   0.009712500
   6  5  0     -546.9560802586    -0.0003918383   0.005890849   0.003580279
   7  6  0     -546.9561830353    -0.0001027767   0.003068513   0.001094444
 CONVERGED TO SWOFF, SO DFT CALCULATION IS NOW SWITCHED ON.
          * * *   INITIATING DIIS PROCEDURE   * * *
   8  7  0     -548.1167880335    -1.1606049982   0.505664245   0.097877401
   9  8  0     -548.0811373841     0.0356506495   0.455310374   0.166531088
  10  9  0     -548.0994107904    -0.0182734064   0.139257305   0.153871263
  11 10  0     -548.1612084039    -0.0617976135   0.030339477   0.014623663
  12 11  0     -548.1620430932    -0.0008346893   0.002712998   0.001490374
  13 12  0     -548.1620503010    -0.0000072078   0.001561505   0.000651997
  14 13  0     -548.1620460843     0.0000042168   0.001248116   0.001853297
  15 14  0     -548.1620514799    -0.0000053956   0.000068529   0.000062283
 DFT CODE IS SWITCHING BACK TO THE FINE GRID
          * * *   INITIATING DIIS PROCEDURE   * * *
  16 15  0     -548.1760167357    -0.0139652559   0.023682154   0.015493575
  17 16  0     -548.1760345277    -0.0000177920   0.034591191   0.010762292
  18 17  0     -548.1756495740     0.0003849537   0.022039863   0.016982795
  19 18  0     -548.1763769752    -0.0007274012   0.000849777   0.000620109
  20 19  0     -548.1763779758    -0.0000010006   0.000337333   0.000125047
  21 20  0     -548.1763779081     0.0000000677   0.000242630   0.000301645
  22 21  0     -548.1763780411    -0.0000001330   0.000057189   0.000076782
  23 22  0     -548.1763780509    -0.0000000098   0.000007854   0.000005163
  24 23  0     -548.1763780509    -0.0000000000   0.000000199   0.000000111

          -----------------
          DENSITY CONVERGED
          -----------------
     TIME TO FORM FOCK OPERATORS=       2.5 SECONDS (       0.1 SEC/ITER)
     TIME TO SOLVE SCF EQUATIONS=       0.0 SECONDS (       0.0 SEC/ITER)

 FINAL R-PBE ENERGY IS     -548.1763780509 AFTER  24 ITERATIONS
 DFT EXCHANGE + CORRELATION ENERGY =       -42.2635105851
 TOTAL ELECTRON NUMBER             =        32.0000072721

          ------------
          EIGENVECTORS
          ------------

                      1          2          3          4          5
                  -88.2283   -18.8100   -18.8100    -7.8444    -5.8701
                     A          A          A          A          A   
    1  S  1  S    0.997763  -0.000006  -0.000000  -0.308401  -0.000000
    2  S  1  S    0.008206  -0.000007  -0.000000   1.031798   0.000000
    3  S  1  S   -0.002856  -0.001338  -0.000011   0.027732   0.000000
    4  S  1  S    0.001125   0.007623   0.000062  -0.006162  -0.000000
    5  S  1  X   -0.000000   0.000001  -0.000143  -0.000000   0.994740
    6  S  1  Y    0.000109  -0.000197  -0.000002   0.007327  -0.000002
    7  S  1  Z    0.000000   0.000000   0.000000   0.000000   0.000000
    8  S  1  X    0.000000  -0.000012   0.001445  -0.000000   0.016867
    9  S  1  Y   -0.000256   0.001583   0.000013   0.000793  -0.000000
   10  S  1  Z    0.000000   0.000000   0.000000   0.000000   0.000000
   11  S  1  X    0.000000  -0.000021   0.002582  -0.000000  -0.002817
   12  S  1  Y    0.000078   0.003742   0.000031  -0.000202   0.000000
   13  S  1  Z    0.000000   0.000000   0.000000   0.000000   0.000000
   14  S  1 XX   -0.000061   0.000506   0.000004   0.000294  -0.000000
   15  S  1 YY   -0.000024   0.000437   0.000004   0.000021  -0.000000
   16  S  1 ZZ    0.000084  -0.000943  -0.000008  -0.000315   0.000000
   17  S  1 XY    0.000000  -0.000007   0.000886  -0.000000   0.001011
   18  S  1 XZ    0.000000   0.000000   0.000000   0.000000   0.000000
   19  S  1 YZ    0.000000   0.000000   0.000000   0.000000   0.000000
   20  O  2  S   -0.000006   0.696601   0.708020   0.000022  -0.000055
   21  O  2  S   -0.000074   0.023494   0.023486  -0.000045  -0.000049
   22  O  2  S    0.000068  -0.011598  -0.009870  -0.000023  -0.000557
   23  O  2  X    0.000004  -0.000549  -0.000693   0.000158   0.000024
   24  O  2  Y    0.000012  -0.000598  -0.000641   0.000123   0.000085
   25  O  2  Z    0.000000   0.000000   0.000000   0.000000   0.000000
   26  O  2  X   -0.000173   0.002125   0.001600   0.000492   0.000734
   27  O  2  Y   -0.000188   0.001644   0.001579   0.000534   0.000723
   28  O  2  Z    0.000000   0.000000   0.000000   0.000000   0.000000
   29  O  2 XX    0.000057  -0.000105  -0.000141  -0.000119   0.000137
   30  O  2 YY    0.000034  -0.000017  -0.000079  -0.000080  -0.000097
   31  O  2 ZZ   -0.000091   0.000122   0.000219   0.000199  -0.000040
   32  O  2 XY    0.000159  -0.000291  -0.000230  -0.000345   0.000062
   33  O  2 XZ    0.000000   0.000000   0.000000   0.000000   0.000000
   34  O  2 YZ    0.000000   0.000000   0.000000   0.000000   0.000000
   35  O  3  S   -0.000006   0.708040  -0.696581   0.000022   0.000055
   36  O  3  S   -0.000074   0.023873  -0.023101  -0.000045   0.000049
   37  O  3  S    0.000068  -0.011757   0.009679  -0.000023   0.000557
   38  O  3  X   -0.000004   0.000560  -0.000684  -0.000158   0.000024
   39  O  3  Y    0.000012  -0.000608   0.000632   0.000123  -0.000085
   40  O  3  Z    0.000000   0.000000   0.000000   0.000000   0.000000
   41  O  3  X    0.000173  -0.002151   0.001565  -0.000492   0.000734
   42  O  3  Y   -0.000188   0.001669  -0.001552   0.000534  -0.000723
   43  O  3  Z    0.000000   0.000000   0.000000   0.000000   0.000000
   44  O  3 XX    0.000057  -0.000108   0.000139  -0.000119  -0.000137
   45  O  3 YY    0.000034  -0.000018   0.000078  -0.000080   0.000097
   46  O  3 ZZ   -0.000091   0.000126  -0.000217   0.000199   0.000040
   47  O  3 XY   -0.000159   0.000295  -0.000225   0.000345   0.000062
   48  O  3 XZ    0.000000   0.000000   0.000000   0.000000   0.000000
   49  O  3 YZ    0.000000   0.000000   0.000000   0.000000   0.000000

                      6          7          8          9         10
                   -5.8684    -5.8662    -0.9544    -0.8779    -0.6391
                     A          A          A          A          A   
    1  S  1  S    0.000000   0.002253   0.044731  -0.000000   0.073909
    2  S  1  S    0.000000  -0.007697  -0.277005   0.000001  -0.471424
    3  S  1  S    0.000000  -0.000730   0.394184  -0.000002   0.716266
    4  S  1  S    0.000000   0.001901   0.087124   0.000005   0.275178
    5  S  1  X    0.000000   0.000002   0.000000   0.081548   0.000000
    6  S  1  Y    0.000000   0.994803  -0.056779  -0.000000   0.045776
    7  S  1  Z    0.994961   0.000000   0.000000   0.000000   0.000000
    8  S  1  X    0.000000   0.000000  -0.000000  -0.186710  -0.000000
    9  S  1  Y    0.000000   0.016512   0.126563   0.000000  -0.110570
   10  S  1  Z    0.015932   0.000000   0.000000   0.000000   0.000000
   11  S  1  X    0.000000  -0.000000   0.000002  -0.000727  -0.000001
   12  S  1  Y    0.000000  -0.002494  -0.011490   0.000003  -0.040831
   13  S  1  Z   -0.003173   0.000000   0.000000   0.000000   0.000000
   14  S  1 XX    0.000000   0.000017   0.017358   0.000000  -0.004551
   15  S  1 YY    0.000000   0.000570   0.009712   0.000000  -0.008063
   16  S  1 ZZ    0.000000  -0.000587  -0.027070  -0.000000   0.012614
   17  S  1 XY    0.000000   0.000000   0.000000  -0.059286  -0.000000
   18  S  1 XZ   -0.000000   0.000000   0.000000   0.000000   0.000000
   19  S  1 YZ    0.000325   0.000000   0.000000   0.000000   0.000000
   20  O  2  S    0.000000  -0.000053  -0.140124   0.169606   0.103527
   21  O  2  S    0.000000   0.000046   0.286884  -0.352949  -0.220157
   22  O  2  S    0.000000  -0.000872   0.277553  -0.351090  -0.266905
   23  O  2  X    0.000000   0.000065  -0.069896   0.047107  -0.063097
   24  O  2  Y    0.000000   0.000001  -0.059875   0.057990  -0.073050
   25  O  2  Z   -0.000062   0.000000   0.000000   0.000000   0.000000
   26  O  2  X    0.000000   0.000775  -0.028849   0.019444  -0.028159
   27  O  2  Y    0.000000   0.000544  -0.026563   0.025129  -0.032437
   28  O  2  Z   -0.000048   0.000000   0.000000   0.000000   0.000000
   29  O  2 XX    0.000000  -0.000100   0.002576   0.000143   0.001058
   30  O  2 YY    0.000000   0.000189   0.001597  -0.001835   0.002443
   31  O  2 ZZ    0.000000  -0.000089  -0.004173   0.001693  -0.003500
   32  O  2 XY    0.000000   0.000164   0.010832  -0.008610   0.003891
   33  O  2 XZ    0.000152   0.000000   0.000000   0.000000   0.000000
   34  O  2 YZ    0.000135   0.000000   0.000000   0.000000   0.000000
   35  O  3  S    0.000000  -0.000053  -0.140125  -0.169605   0.103528
   36  O  3  S    0.000000   0.000046   0.286885   0.352950  -0.220157
   37  O  3  S    0.000000  -0.000872   0.277557   0.351083  -0.266906
   38  O  3  X    0.000000  -0.000065   0.069896   0.047107   0.063097
   39  O  3  Y    0.000000   0.000001  -0.059875  -0.057990  -0.073050
   40  O  3  Z   -0.000062   0.000000   0.000000   0.000000   0.000000
   41  O  3  X    0.000000  -0.000775   0.028850   0.019442   0.028159
   42  O  3  Y    0.000000   0.000544  -0.026565  -0.025128  -0.032437
   43  O  3  Z   -0.000048   0.000000   0.000000   0.000000   0.000000
   44  O  3 XX    0.000000  -0.000100   0.002576  -0.000143   0.001058
   45  O  3 YY    0.000000   0.000189   0.001598   0.001836   0.002443
   46  O  3 ZZ    0.000000  -0.000089  -0.004174  -0.001693  -0.003500
   47  O  3 XY    0.000000  -0.000164  -0.010832  -0.008610  -0.003891
   48  O  3 XZ   -0.000152   0.000000   0.000000   0.000000   0.000000
   49  O  3 YZ    0.000135   0.000000   0.000000   0.000000   0.000000

                     11         12         13         14         15
                   -0.4202    -0.4096    -0.3968    -0.2935    -0.2932
                     A          A          A          A          A   
    1  S  1  S    0.000000  -0.010124   0.000000   0.011768   0.000000
    2  S  1  S   -0.000000   0.063830   0.000000  -0.076561   0.000000
    3  S  1  S    0.000000  -0.062954   0.000000   0.102990   0.000000
    4  S  1  S    0.000001  -0.212440   0.000000   0.184526   0.000000
    5  S  1  X   -0.197509  -0.000001   0.000000   0.000000   0.000000
    6  S  1  Y    0.000001  -0.215555   0.000000   0.060419   0.000000
    7  S  1  Z    0.000000   0.000000  -0.225876   0.000000   0.000000
    8  S  1  X    0.534202   0.000002   0.000000  -0.000000   0.000000
    9  S  1  Y   -0.000002   0.582198   0.000000  -0.166206   0.000000
   10  S  1  Z    0.000000   0.000000   0.616002   0.000000  -0.000001
   11  S  1  X    0.068544   0.000001   0.000000   0.000001   0.000000
   12  S  1  Y   -0.000000   0.097525   0.000000  -0.008743   0.000000
   13  S  1  Z    0.000000   0.000000   0.188573   0.000000  -0.000000
   14  S  1 XX   -0.000000  -0.012706   0.000000  -0.098915   0.000000
   15  S  1 YY   -0.000000   0.035439   0.000000   0.070072   0.000000
   16  S  1 ZZ    0.000000  -0.022733   0.000000   0.028843   0.000000
   17  S  1 XY    0.048018   0.000000   0.000000  -0.000000   0.000000
   18  S  1 XZ    0.000000   0.000000  -0.000000   0.000000  -0.080086
   19  S  1 YZ    0.000000   0.000000   0.038109   0.000000   0.000000
   20  O  2  S    0.059918   0.042586   0.000000  -0.001268   0.000000
   21  O  2  S   -0.127197  -0.091792   0.000000   0.004025   0.000000
   22  O  2  S   -0.197017  -0.130136   0.000000  -0.014875   0.000000
   23  O  2  X   -0.185077  -0.302128   0.000000  -0.152960   0.000000
   24  O  2  Y   -0.290948  -0.067506   0.000000   0.426605   0.000000
   25  O  2  Z    0.000000   0.000000   0.277235   0.000000  -0.476783
   26  O  2  X   -0.102890  -0.182878   0.000000  -0.114838   0.000000
   27  O  2  Y   -0.163429  -0.036803   0.000000   0.311547   0.000000
   28  O  2  Z    0.000000   0.000000   0.172371   0.000000  -0.338953
   29  O  2 XX   -0.001021   0.012014   0.000000   0.010638   0.000000
   30  O  2 YY    0.008157  -0.005962   0.000000  -0.013805   0.000000
   31  O  2 ZZ   -0.007136  -0.006052   0.000000   0.003167   0.000000
   32  O  2 XY    0.009932   0.008339   0.000000  -0.006814   0.000000
   33  O  2 XZ    0.000000   0.000000  -0.011967   0.000000   0.009852
   34  O  2 YZ    0.000000   0.000000  -0.010834   0.000000   0.011824
   35  O  3  S   -0.059918   0.042586   0.000000  -0.001267   0.000000
   36  O  3  S    0.127196  -0.091792   0.000000   0.004024   0.000000
   37  O  3  S    0.197018  -0.130134   0.000000  -0.014874   0.000000
   38  O  3  X   -0.185078   0.302127   0.000000   0.152964   0.000000
   39  O  3  Y    0.290949  -0.067504   0.000000   0.426606   0.000000
   40  O  3  Z    0.000000   0.000000   0.277236   0.000000   0.476784
   41  O  3  X   -0.102890   0.182879   0.000000   0.114841   0.000000
   42  O  3  Y    0.163430  -0.036803   0.000000   0.311547   0.000000
   43  O  3  Z    0.000000   0.000000   0.172371   0.000000   0.338953
   44  O  3 XX    0.001021   0.012014   0.000000   0.010638   0.000000
   45  O  3 YY   -0.008157  -0.005962   0.000000  -0.013805   0.000000
   46  O  3 ZZ    0.007136  -0.006052   0.000000   0.003167   0.000000
   47  O  3 XY    0.009932  -0.008339   0.000000   0.006814   0.000000
   48  O  3 XZ    0.000000   0.000000   0.011967   0.000000   0.009852
   49  O  3 YZ    0.000000   0.000000  -0.010834   0.000000  -0.011824

                     16         17         18         19         20
                   -0.2592    -0.2195    -0.1058    -0.0510     0.2126
                     A          A          A          A          A   
    1  S  1  S   -0.000000   0.000000  -0.000000   0.033419   0.000000
    2  S  1  S    0.000001   0.000000   0.000001  -0.226007   0.000000
    3  S  1  S   -0.000002   0.000000  -0.000002   0.390879   0.000000
    4  S  1  S    0.000004   0.000000  -0.000004   0.432819   0.000000
    5  S  1  X   -0.017451   0.000000  -0.218396  -0.000002   0.000000
    6  S  1  Y   -0.000000   0.000000   0.000001  -0.191183   0.000000
    7  S  1  Z    0.000000  -0.209928   0.000000   0.000000   0.252018
    8  S  1  X    0.047352   0.000000   0.658453   0.000007   0.000000
    9  S  1  Y    0.000000   0.000000  -0.000004   0.589159   0.000000
   10  S  1  Z    0.000000   0.611183   0.000000   0.000000  -0.996494
   11  S  1  X    0.140300   0.000000   0.558879  -0.000000   0.000000
   12  S  1  Y    0.000003   0.000000  -0.000004   0.636577   0.000000
   13  S  1  Z    0.000000   0.247549   0.000000   0.000000   1.303160
   14  S  1 XX    0.000001   0.000000   0.000000  -0.061362   0.000000
   15  S  1 YY   -0.000000   0.000000   0.000000  -0.095567   0.000000
   16  S  1 ZZ   -0.000000   0.000000  -0.000000   0.156928   0.000000
   17  S  1 XY   -0.072835   0.000000  -0.173170  -0.000000   0.000000
   18  S  1 XZ    0.000000  -0.000000   0.000000   0.000000   0.000000
   19  S  1 YZ    0.000000  -0.066549   0.000000   0.000000  -0.101243
   20  O  2  S    0.006327   0.000000   0.034172   0.049133   0.000000
   21  O  2  S   -0.013369   0.000000  -0.067175  -0.092445   0.000000
   22  O  2  S   -0.053460   0.000000  -0.269699  -0.383525   0.000000
   23  O  2  X    0.439378   0.000000   0.068578   0.321526   0.000000
   24  O  2  Y   -0.210453   0.000000   0.339432   0.162278   0.000000
   25  O  2  Z    0.000000  -0.392957   0.000000   0.000000  -0.043977
   26  O  2  X    0.302087   0.000000   0.060391   0.335692   0.000000
   27  O  2  Y   -0.139868   0.000000   0.291234   0.136790   0.000000
   28  O  2  Z    0.000000  -0.307214   0.000000   0.000000  -0.134071
   29  O  2 XX   -0.011386   0.000000  -0.001373   0.001528   0.000000
   30  O  2 YY    0.010666   0.000000   0.003017  -0.003894   0.000000
   31  O  2 ZZ    0.000720   0.000000  -0.001645   0.002366   0.000000
   32  O  2 XY   -0.005264   0.000000   0.000488   0.002425   0.000000
   33  O  2 XZ    0.000000   0.003524   0.000000   0.000000   0.011813
   34  O  2 YZ    0.000000   0.002047   0.000000   0.000000   0.008303
   35  O  3  S   -0.006327   0.000000  -0.034173   0.049133   0.000000
   36  O  3  S    0.013369   0.000000   0.067173  -0.092448   0.000000
   37  O  3  S    0.053455   0.000000   0.269707  -0.383521   0.000000
   38  O  3  X    0.439375   0.000000   0.068580  -0.321527   0.000000
   39  O  3  Y    0.210449   0.000000  -0.339434   0.162273   0.000000
   40  O  3  Z    0.000000  -0.392957   0.000000   0.000000  -0.043977
   41  O  3  X    0.302083   0.000000   0.060396  -0.335690   0.000000
   42  O  3  Y    0.139867   0.000000  -0.291237   0.136787   0.000000
   43  O  3  Z    0.000000  -0.307213   0.000000   0.000000  -0.134071
   44  O  3 XX    0.011386   0.000000   0.001373   0.001528   0.000000
   45  O  3 YY   -0.010666   0.000000  -0.003017  -0.003894   0.000000
   46  O  3 ZZ   -0.000720   0.000000   0.001645   0.002366   0.000000
   47  O  3 XY   -0.005264   0.000000   0.000488  -0.002425   0.000000
   48  O  3 XZ    0.000000  -0.003524   0.000000   0.000000  -0.011813
   49  O  3 YZ    0.000000   0.002047   0.000000   0.000000   0.008303

                     21         22         23         24         25
                    0.2162     0.2298     0.2473     0.4832     0.4879
                     A          A          A          A          A   
    1  S  1  S    0.012821   0.000002  -0.062810   0.000000   0.000000
    2  S  1  S   -0.094394  -0.000014   0.465510   0.000000   0.000000
    3  S  1  S    0.306578   0.000057  -1.883311   0.000000   0.000000
    4  S  1  S   -0.219200  -0.000071   2.301242   0.000000   0.000000
    5  S  1  X   -0.000004   0.262579   0.000007   0.000000   0.000000
    6  S  1  Y    0.264960   0.000004   0.008625   0.000000   0.000000
    7  S  1  Z    0.000000   0.000000   0.000000  -0.000000   0.027096
    8  S  1  X    0.000016  -1.026777  -0.000025   0.000000   0.000000
    9  S  1  Y   -1.028375  -0.000015  -0.030848   0.000000   0.000000
   10  S  1  Z    0.000000   0.000000   0.000000   0.000001  -0.113291
   11  S  1  X   -0.000020   1.427109   0.000040   0.000000   0.000000
   12  S  1  Y    1.331772   0.000001   0.611889   0.000000   0.000000
   13  S  1  Z    0.000000   0.000000   0.000000  -0.000000   0.082451
   14  S  1 XX    0.104569   0.000002  -0.053792   0.000000   0.000000
   15  S  1 YY   -0.068352   0.000000  -0.101721   0.000000   0.000000
   16  S  1 ZZ   -0.036217  -0.000003   0.155514   0.000000   0.000000
   17  S  1 XY    0.000001   0.031146   0.000003   0.000000   0.000000
   18  S  1 XZ    0.000000   0.000000   0.000000   0.908524   0.000006
   19  S  1 YZ    0.000000   0.000000   0.000000  -0.000006   0.898181
   20  O  2  S    0.001008   0.008193   0.031622   0.000000   0.000000
   21  O  2  S    0.053057   0.029507  -0.035850   0.000000   0.000000
   22  O  2  S   -0.287649  -0.359797  -0.537453   0.000000   0.000000
   23  O  2  X   -0.125721  -0.180252  -0.093180   0.000000   0.000000
   24  O  2  Y   -0.098726  -0.082108  -0.092146   0.000000   0.000000
   25  O  2  Z    0.000000   0.000000   0.000000  -0.277166  -0.286386
   26  O  2  X    0.046520  -0.080873   0.201506   0.000000   0.000000
   27  O  2  Y   -0.099340   0.061853   0.104616   0.000000   0.000000
   28  O  2  Z    0.000000   0.000000   0.000000   0.131582   0.143635
   29  O  2 XX   -0.019256  -0.001045  -0.017215   0.000000   0.000000
   30  O  2 YY    0.009735  -0.011840  -0.006759   0.000000   0.000000
   31  O  2 ZZ    0.009521   0.012885   0.023974   0.000000   0.000000
   32  O  2 XY   -0.011315  -0.022766  -0.029226   0.000000   0.000000
   33  O  2 XZ    0.000000   0.000000   0.000000  -0.026672  -0.042057
   34  O  2 YZ    0.000000   0.000000   0.000000  -0.042880  -0.018588
   35  O  3  S    0.001009  -0.008194   0.031622   0.000000   0.000000
   36  O  3  S    0.053053  -0.029511  -0.035860   0.000000   0.000000
   37  O  3  S   -0.287654   0.359827  -0.537424   0.000000   0.000000
   38  O  3  X    0.125724  -0.180258   0.093166   0.000000   0.000000
   39  O  3  Y   -0.098729   0.082111  -0.092142   0.000000   0.000000
   40  O  3  Z    0.000000   0.000000   0.000000   0.277170  -0.286383
   41  O  3  X   -0.046515  -0.080858  -0.201504   0.000000   0.000000
   42  O  3  Y   -0.099339  -0.061864   0.104609   0.000000   0.000000
   43  O  3  Z    0.000000   0.000000   0.000000  -0.131584   0.143633
   44  O  3 XX   -0.019256   0.001045  -0.017215   0.000000   0.000000
   45  O  3 YY    0.009734   0.011841  -0.006758   0.000000   0.000000
   46  O  3 ZZ    0.009521  -0.012886   0.023973   0.000000   0.000000
   47  O  3 XY    0.011316  -0.022768   0.029224   0.000000   0.000000
   48  O  3 XZ    0.000000   0.000000   0.000000  -0.026673   0.042056
   49  O  3 YZ    0.000000   0.000000   0.000000   0.042881  -0.018587

                     26         27         28         29         30
                    0.4887     0.6085     0.6839     0.7765     0.8191
                     A          A          A          A          A   
    1  S  1  S   -0.000508   0.002545   0.000000   0.008152   0.000000
    2  S  1  S    0.003782  -0.022501  -0.000000  -0.067460   0.000000
    3  S  1  S   -0.014022   0.265510   0.000002   0.254508   0.000000
    4  S  1  S    0.007963  -0.870949  -0.000005   0.161879   0.000000
    5  S  1  X   -0.000000   0.000000  -0.083070   0.000000   0.000000
    6  S  1  Y    0.033350   0.059105   0.000000  -0.029485   0.000000
    7  S  1  Z    0.000000   0.000000   0.000000   0.000000  -0.000000
    8  S  1  X    0.000001  -0.000002   0.397793  -0.000000   0.000000
    9  S  1  Y   -0.139139  -0.252343  -0.000001   0.201400   0.000000
   10  S  1  Z    0.000000   0.000000   0.000000   0.000000   0.000000
   11  S  1  X   -0.000001  -0.000002   0.227898   0.000001   0.000000
   12  S  1  Y    0.122871  -0.301517  -0.000002   0.257106   0.000000
   13  S  1  Z    0.000000   0.000000   0.000000   0.000000  -0.000001
   14  S  1 XX   -0.694568  -0.551428  -0.000001  -0.450516   0.000000
   15  S  1 YY    0.736314  -0.411939  -0.000001   0.401598   0.000000
   16  S  1 ZZ   -0.041746   0.963367   0.000002   0.048918   0.000000
   17  S  1 XY    0.000000  -0.000003   0.922051   0.000000   0.000000
   18  S  1 XZ    0.000000   0.000000   0.000000   0.000000   0.432134
   19  S  1 YZ    0.000000   0.000000   0.000000   0.000000  -0.000001
   20  O  2  S    0.001562  -0.065302   0.075423   0.008824   0.000000
   21  O  2  S   -0.014443   0.274414  -0.325069  -0.021893   0.000000
   22  O  2  S   -0.002748   0.185798  -0.085581  -0.103524   0.000000
   23  O  2  X    0.229503   0.002253  -0.092087  -0.548917   0.000000
   24  O  2  Y   -0.293660   0.029099  -0.076990   0.130787   0.000000
   25  O  2  Z    0.000000   0.000000   0.000000   0.000000   0.588258
   26  O  2  X   -0.114801  -0.334302   0.498294   0.742894   0.000000
   27  O  2  Y    0.114378  -0.302437   0.455714  -0.150534   0.000000
   28  O  2  Z    0.000000   0.000000   0.000000   0.000000  -0.771505
   29  O  2 XX    0.052261  -0.007618   0.016933   0.033862   0.000000
   30  O  2 YY   -0.052452  -0.012282   0.001253  -0.038371   0.000000
   31  O  2 ZZ    0.000191   0.019900  -0.018186   0.004509   0.000000
   32  O  2 XY   -0.012423  -0.002389   0.039574   0.022050   0.000000
   33  O  2 XZ    0.000000   0.000000   0.000000   0.000000  -0.034125
   34  O  2 YZ    0.000000   0.000000   0.000000   0.000000  -0.030584
   35  O  3  S    0.001562  -0.065302  -0.075423   0.008824   0.000000
   36  O  3  S   -0.014444   0.274419   0.325069  -0.021892   0.000000
   37  O  3  S   -0.002747   0.185791   0.085585  -0.103524   0.000000
   38  O  3  X   -0.229503  -0.002249  -0.092090   0.548912   0.000000
   39  O  3  Y   -0.293660   0.029099   0.076991   0.130786   0.000000
   40  O  3  Z    0.000000   0.000000   0.000000   0.000000  -0.588261
   41  O  3  X    0.114801   0.334296   0.498299  -0.742887   0.000000
   42  O  3  Y    0.114378  -0.302435  -0.455718  -0.150534   0.000000
   43  O  3  Z    0.000000   0.000000   0.000000   0.000000   0.771509
   44  O  3 XX    0.052261  -0.007618  -0.016933   0.033862   0.000000
   45  O  3 YY   -0.052453  -0.012282  -0.001253  -0.038371   0.000000
   46  O  3 ZZ    0.000191   0.019900   0.018186   0.004509   0.000000
   47  O  3 XY    0.012423   0.002389   0.039574  -0.022050   0.000000
   48  O  3 XZ    0.000000   0.000000   0.000000   0.000000  -0.034125
   49  O  3 YZ    0.000000   0.000000   0.000000   0.000000   0.030584

                     31         32         33         34         35
                    0.8327     0.8368     0.8427     0.9300     1.3949
                     A          A          A          A          A   
    1  S  1  S    0.015511   0.000000   0.000000   0.000000  -0.000000
    2  S  1  S   -0.129324   0.000000  -0.000001  -0.000000   0.000001
    3  S  1  S    0.581832   0.000000   0.000003   0.000000   0.000008
    4  S  1  S   -0.069516   0.000000   0.000000   0.000004  -0.000048
    5  S  1  X    0.000000   0.000000  -0.032044  -0.015229   0.063261
    6  S  1  Y   -0.045221   0.000000  -0.000000  -0.000000   0.000002
    7  S  1  Z    0.000000  -0.002705   0.000000   0.000000   0.000000
    8  S  1  X   -0.000002   0.000000   0.268162   0.147438  -0.389955
    9  S  1  Y    0.331826   0.000000   0.000002   0.000002  -0.000013
   10  S  1  Z    0.000000   0.019045   0.000000   0.000000   0.000000
   11  S  1  X    0.000000   0.000000  -0.009399  -0.589315  -0.584575
   12  S  1  Y   -0.355278   0.000000  -0.000002   0.000000  -0.000021
   13  S  1  Z    0.000000  -0.497081   0.000000   0.000000   0.000000
   14  S  1 XX    0.133919   0.000000   0.000001   0.000002  -0.000006
   15  S  1 YY   -0.360974   0.000000  -0.000002  -0.000001  -0.000005
   16  S  1 ZZ    0.227055   0.000000   0.000001  -0.000001   0.000010
   17  S  1 XY    0.000003   0.000000  -0.430999  -0.283704  -0.372290
   18  S  1 XZ    0.000000  -0.000001   0.000000   0.000000   0.000000
   19  S  1 YZ    0.000000  -0.446677   0.000000   0.000000   0.000000
   20  O  2  S    0.009224   0.000000   0.003180   0.003782   0.078981
   21  O  2  S   -0.063522   0.000000  -0.062998  -0.117262  -1.157550
   22  O  2  S    0.105915   0.000000   0.086674   0.301547   1.571664
   23  O  2  X   -0.199751   0.000000  -0.182033  -0.595446   0.126519
   24  O  2  Y   -0.553211   0.000000  -0.599314   0.207782   0.068423
   25  O  2  Z    0.000000  -0.581055   0.000000   0.000000   0.000000
   26  O  2  X    0.243170   0.000000   0.158893   0.777740  -0.442371
   27  O  2  Y    0.784953   0.000000   0.692012  -0.407544  -0.388082
   28  O  2  Z    0.000000   0.838636   0.000000   0.000000   0.000000
   29  O  2 XX   -0.019997   0.000000  -0.006305   0.046555  -0.087015
   30  O  2 YY    0.038801   0.000000   0.011346  -0.024105  -0.029022
   31  O  2 ZZ   -0.018804   0.000000  -0.005041  -0.022451   0.116037
   32  O  2 XY    0.042341   0.000000   0.003295  -0.015677  -0.125922
   33  O  2 XZ    0.000000   0.035000   0.000000   0.000000   0.000000
   34  O  2 YZ    0.000000   0.032062   0.000000   0.000000   0.000000
   35  O  3  S    0.009224   0.000000  -0.003180  -0.003784  -0.078976
   36  O  3  S   -0.063519   0.000000   0.062997   0.117277   1.157472
   37  O  3  S    0.105912   0.000000  -0.086673  -0.301565  -1.571546
   38  O  3  X    0.199755   0.000000  -0.182031  -0.595449   0.126517
   39  O  3  Y   -0.553217   0.000000   0.599308  -0.207784  -0.068419
   40  O  3  Z    0.000000  -0.581052   0.000000   0.000000   0.000000
   41  O  3  X   -0.243174   0.000000   0.158890   0.777742  -0.442344
   42  O  3  Y    0.784960   0.000000  -0.692003   0.407549   0.388059
   43  O  3  Z    0.000000   0.838632   0.000000   0.000000   0.000000
   44  O  3 XX   -0.019997   0.000000   0.006305  -0.046556   0.087014
   45  O  3 YY    0.038801   0.000000  -0.011346   0.024105   0.029021
   46  O  3 ZZ   -0.018804   0.000000   0.005041   0.022450  -0.116034
   47  O  3 XY   -0.042341   0.000000   0.003295  -0.015677  -0.125914
   48  O  3 XZ    0.000000  -0.035000   0.000000   0.000000   0.000000
   49  O  3 YZ    0.000000   0.032062   0.000000   0.000000   0.000000

                     36         37         38         39         40
                    1.4741     2.0909     2.0959     2.0980     2.1034
                     A          A          A          A          A   
    1  S  1  S    0.001348  -0.000000   0.000000   0.000000   0.001089
    2  S  1  S   -0.009766   0.000000   0.000000   0.000000  -0.007860
    3  S  1  S    0.466477  -0.000001   0.000000   0.000000   0.044811
    4  S  1  S   -1.866840   0.000001   0.000000   0.000000  -0.117951
    5  S  1  X   -0.000002  -0.017844   0.000000   0.000000  -0.000000
    6  S  1  Y    0.070645  -0.000000   0.000000   0.000000  -0.001581
    7  S  1  Z    0.000000   0.000000  -0.007523   0.000000   0.000000
    8  S  1  X    0.000013   0.053373   0.000000   0.000000   0.000000
    9  S  1  Y   -0.387510   0.000000   0.000000   0.000000  -0.001577
   10  S  1  Z    0.000000   0.000000   0.022877  -0.000001   0.000000
   11  S  1  X    0.000010   0.065105   0.000000   0.000000   0.000000
   12  S  1  Y   -0.876629   0.000001   0.000000   0.000000  -0.073541
   13  S  1  Z    0.000000   0.000000   0.023599  -0.000001   0.000000
   14  S  1 XX   -0.206459  -0.000000   0.000000   0.000000   0.017136
   15  S  1 YY   -0.181984   0.000000   0.000000   0.000000   0.024423
   16  S  1 ZZ    0.388442   0.000000   0.000000   0.000000  -0.041559
   17  S  1 XY    0.000009  -0.031405   0.000000   0.000000  -0.000000
   18  S  1 XZ    0.000000   0.000000   0.000001   0.030466   0.000000
   19  S  1 YZ    0.000000   0.000000   0.007523  -0.000001   0.000000
   20  O  2  S    0.072902  -0.000323   0.000000   0.000000   0.004886
   21  O  2  S   -1.238738   0.018984   0.000000   0.000000  -0.069695
   22  O  2  S    2.015565  -0.045623   0.000000   0.000000   0.111028
   23  O  2  X    0.032302   0.027127   0.000000   0.000000   0.023976
   24  O  2  Y    0.051025  -0.022289   0.000000   0.000000  -0.001419
   25  O  2  Z    0.000000   0.000000   0.017437   0.017904   0.000000
   26  O  2  X   -0.491854  -0.035052   0.000000   0.000000  -0.052071
   27  O  2  Y   -0.371737   0.040099   0.000000   0.000000  -0.003625
   28  O  2  Z    0.000000   0.000000  -0.029566  -0.027686   0.000000
   29  O  2 XX   -0.033613   0.271381   0.000000   0.000000  -0.324538
   30  O  2 YY   -0.011000  -0.673117   0.000000   0.000000  -0.306559
   31  O  2 ZZ    0.044613   0.401736   0.000000   0.000000   0.631096
   32  O  2 XY   -0.148881   0.208401   0.000000   0.000000   0.317836
   33  O  2 XZ    0.000000   0.000000  -0.364041   0.599855   0.000000
   34  O  2 YZ    0.000000   0.000000   0.606376  -0.374808   0.000000
   35  O  3  S    0.072907   0.000323   0.000000   0.000000   0.004886
   36  O  3  S   -1.238806  -0.018983   0.000000   0.000000  -0.069695
   37  O  3  S    2.015654   0.045620   0.000000   0.000000   0.111027
   38  O  3  X   -0.032315   0.027127   0.000000   0.000000  -0.023974
   39  O  3  Y    0.051028   0.022289   0.000000   0.000000  -0.001418
   40  O  3  Z    0.000000   0.000000   0.017435  -0.017906   0.000000
   41  O  3  X    0.491888  -0.035053   0.000000   0.000000   0.052070
   42  O  3  Y   -0.371755  -0.040099   0.000000   0.000000  -0.003626
   43  O  3  Z    0.000000   0.000000  -0.029564   0.027689   0.000000
   44  O  3 XX   -0.033621  -0.271379   0.000000   0.000000  -0.324547
   45  O  3 YY   -0.011001   0.673120   0.000000   0.000000  -0.306552
   46  O  3 ZZ    0.044622  -0.401741   0.000000   0.000000   0.631099
   47  O  3 XY    0.148890   0.208403   0.000000   0.000000  -0.317838
   48  O  3 XZ    0.000000   0.000000   0.364098   0.599821   0.000000
   49  O  3 YZ    0.000000   0.000000   0.606413   0.374750   0.000000

                     41         42         43         44         45
                    2.1245     2.1387     2.1689     2.2315     2.4583
                     A          A          A          A          A   
    1  S  1  S   -0.000000   0.000000   0.000000  -0.002769  -0.024732
    2  S  1  S    0.000000   0.000000   0.000000   0.021649   0.184741
    3  S  1  S   -0.000002   0.000000   0.000000  -0.081316  -0.335366
    4  S  1  S    0.000003   0.000000   0.000000   0.044561  -0.675825
    5  S  1  X   -0.010388   0.000000   0.000000  -0.000000   0.000000
    6  S  1  Y    0.000000   0.000000   0.000000  -0.018280   0.134417
    7  S  1  Z    0.000000  -0.000000  -0.037069   0.000000   0.000000
    8  S  1  X    0.006865   0.000000   0.000000   0.000000  -0.000001
    9  S  1  Y   -0.000000   0.000000   0.000000   0.036701  -0.615350
   10  S  1  Z    0.000000   0.000000   0.113462   0.000000   0.000000
   11  S  1  X    0.057698   0.000000   0.000000  -0.000000  -0.000002
   12  S  1  Y    0.000002   0.000000   0.000000   0.100879  -0.176485
   13  S  1  Z    0.000000   0.000000   0.088239   0.000000   0.000000
   14  S  1 XX   -0.000000   0.000000   0.000000  -0.298655  -0.197307
   15  S  1 YY    0.000000   0.000000   0.000000   0.290905  -0.159009
   16  S  1 ZZ    0.000000   0.000000   0.000000   0.007751   0.356316
   17  S  1 XY   -0.008260   0.000000   0.000000   0.000000  -0.000001
   18  S  1 XZ    0.000000  -0.251203   0.000001   0.000000   0.000000
   19  S  1 YZ    0.000000   0.000001   0.244102   0.000000   0.000000
   20  O  2  S    0.005060   0.000000   0.000000   0.002221   0.012645
   21  O  2  S   -0.069369   0.000000   0.000000  -0.014051  -0.437829
   22  O  2  S    0.067336   0.000000   0.000000  -0.017941   0.816099
   23  O  2  X    0.078023   0.000000   0.000000   0.004080   0.054933
   24  O  2  Y   -0.025140   0.000000   0.000000   0.037603   0.058846
   25  O  2  Z    0.000000  -0.037328   0.043805   0.000000   0.000000
   26  O  2  X   -0.135593   0.000000   0.000000   0.024758  -0.374812
   27  O  2  Y    0.040765   0.000000   0.000000  -0.088680  -0.327867
   28  O  2  Z    0.000000   0.067571  -0.100155   0.000000   0.000000
   29  O  2 XX    0.616063   0.000000   0.000000  -0.584257   0.274529
   30  O  2 YY   -0.167101   0.000000   0.000000   0.645354   0.064057
   31  O  2 ZZ   -0.448962   0.000000   0.000000  -0.061098  -0.338586
   32  O  2 XY   -0.307157   0.000000   0.000000   0.097874   0.650564
   33  O  2 XZ    0.000000  -0.378798   0.612532   0.000000   0.000000
   34  O  2 YZ    0.000000  -0.603005   0.370970   0.000000   0.000000
   35  O  3  S   -0.005060   0.000000   0.000000   0.002221   0.012645
   36  O  3  S    0.069371   0.000000   0.000000  -0.014051  -0.437829
   37  O  3  S   -0.067341   0.000000   0.000000  -0.017941   0.816097
   38  O  3  X    0.078024   0.000000   0.000000  -0.004080  -0.054934
   39  O  3  Y    0.025141   0.000000   0.000000   0.037602   0.058846
   40  O  3  Z    0.000000   0.037328   0.043805   0.000000   0.000000
   41  O  3  X   -0.135595   0.000000   0.000000  -0.024758   0.374813
   42  O  3  Y   -0.040765   0.000000   0.000000  -0.088680  -0.327865
   43  O  3  Z    0.000000  -0.067572  -0.100154   0.000000   0.000000
   44  O  3 XX   -0.616059   0.000000   0.000000  -0.584255   0.274529
   45  O  3 YY    0.167106   0.000000   0.000000   0.645353   0.064056
   46  O  3 ZZ    0.448953   0.000000   0.000000  -0.061098  -0.338585
   47  O  3 XY   -0.307155   0.000000   0.000000  -0.097874  -0.650561
   48  O  3 XZ    0.000000  -0.378802  -0.612529   0.000000   0.000000
   49  O  3 YZ    0.000000   0.603005   0.370967   0.000000   0.000000

                     46
                    2.5988
                     A   
    1  S  1  S   -0.000000
    2  S  1  S    0.000000
    3  S  1  S    0.000002
    4  S  1  S   -0.000007
    5  S  1  X   -0.155829
    6  S  1  Y    0.000000
    7  S  1  Z    0.000000
    8  S  1  X    0.720935
    9  S  1  Y   -0.000002
   10  S  1  Z    0.000000
   11  S  1  X    0.151935
   12  S  1  Y   -0.000003
   13  S  1  Z    0.000000
   14  S  1 XX   -0.000001
   15  S  1 YY   -0.000001
   16  S  1 ZZ    0.000002
   17  S  1 XY    0.635169
   18  S  1 XZ    0.000000
   19  S  1 YZ    0.000000
   20  O  2  S   -0.008957
   21  O  2  S    0.449066
   22  O  2  S   -0.802724
   23  O  2  X   -0.058662
   24  O  2  Y   -0.037652
   25  O  2  Z    0.000000
   26  O  2  X    0.412969
   27  O  2  Y    0.371721
   28  O  2  Z    0.000000
   29  O  2 XX   -0.228053
   30  O  2 YY   -0.163601
   31  O  2 ZZ    0.391653
   32  O  2 XY   -0.657548
   33  O  2 XZ    0.000000
   34  O  2 YZ    0.000000
   35  O  3  S    0.008957
   36  O  3  S   -0.449071
   37  O  3  S    0.802735
   38  O  3  X   -0.058662
   39  O  3  Y    0.037652
   40  O  3  Z    0.000000
   41  O  3  X    0.412973
   42  O  3  Y   -0.371723
   43  O  3  Z    0.000000
   44  O  3 XX    0.228054
   45  O  3 YY    0.163601
   46  O  3 ZZ   -0.391655
   47  O  3 XY   -0.657550
   48  O  3 XZ    0.000000
   49  O  3 YZ    0.000000
 ...... END OF RHF CALCULATION ......
 STEP CPU TIME =     2.54 TOTAL CPU TIME =          2.7 (      0.0 MIN)
 TOTAL WALL CLOCK TIME=          2.7 SECONDS, CPU UTILIZATION IS    98.17%

     ---------------------------------------------------------------------
     PROPERTIES FOR THE PBE      DFT FUNCTIONAL (RHF  TYPE) DENSITY MATRIX
     ---------------------------------------------------------------------

          -----------------
          ENERGY COMPONENTS
          -----------------

         WAVEFUNCTION NORMALIZATION =       1.0000000000

                ONE ELECTRON ENERGY =    -941.0442653807
                TWO ELECTRON ENERGY =     299.6695218455
           NUCLEAR REPULSION ENERGY =      93.1983654843
                                      ------------------
                       TOTAL ENERGY =    -548.1763780509

 ELECTRON-ELECTRON POTENTIAL ENERGY =     299.6695218455
  NUCLEUS-ELECTRON POTENTIAL ENERGY =   -1487.8679505376
   NUCLEUS-NUCLEUS POTENTIAL ENERGY =      93.1983654843
                                      ------------------
             TOTAL POTENTIAL ENERGY =   -1095.0000632078
               TOTAL KINETIC ENERGY =     546.8236851569
                 VIRIAL RATIO (V/T) =       2.0024737277

          ---------------------------------------
          MULLIKEN AND LOWDIN POPULATION ANALYSES
          ---------------------------------------

     ATOMIC MULLIKEN POPULATION IN EACH MOLECULAR ORBITAL

                      1          2          3          4          5

                  2.000000   2.000000   2.000000   2.000000   2.000000

    1             1.999984   0.001147   0.000451   2.000382   2.000238
    2             0.000008   0.983146   1.016055  -0.000191  -0.000119
    3             0.000008   1.015707   0.983494  -0.000191  -0.000119

                      6          7          8          9         10

                  2.000000   2.000000   2.000000   2.000000   2.000000

    1             2.000006   2.000221   0.601697   0.198880   1.294000
    2            -0.000003  -0.000110   0.699146   0.900567   0.352999
    3            -0.000003  -0.000110   0.699156   0.900553   0.353001

                     11         12         13         14         15

                  2.000000   2.000000   2.000000   2.000000   2.000000

    1             0.691596   0.974597   1.201424   0.162832   0.036361
    2             0.654200   0.512702   0.399287   0.918579   0.981820
    3             0.654204   0.512701   0.399289   0.918589   0.981820

                     16

                  2.000000

    1             0.114141
    2             0.942938
    3             0.942921

               ----- POPULATIONS IN EACH AO -----
                             MULLIKEN      LOWDIN
              1  S  1  S      1.99984     1.99927
              2  S  1  S      1.99249     1.88797
              3  S  1  S      1.35993     0.69894
              4  S  1  S      0.52384     0.46541
              5  S  1  X      1.99353     1.95804
              6  S  1  Y      1.99442     1.96385
              7  S  1  Z      1.99407     1.96256
              8  S  1  X      0.82236     0.71827
              9  S  1  Y      0.98226     0.88971
             10  S  1  Z      0.92976     0.84190
             11  S  1  X      0.11313     0.23806
             12  S  1  Y      0.10420     0.26992
             13  S  1  Z      0.26916     0.37435
             14  S  1 XX      0.01758     0.28500
             15  S  1 YY      0.06030     0.28714
             16  S  1 ZZ      0.07628     0.28058
             17  S  1 XY      0.03636     0.09290
             18  S  1 XZ      0.00844     0.04217
             19  S  1 YZ      0.00000     0.00822
             20  O  2  S      1.99571     1.97302
             21  O  2  S      0.96695     0.71169
             22  O  2  S      0.98717     0.56045
             23  O  2  X      0.97422     0.93942
             24  O  2  Y      0.91127     0.87713
             25  O  2  Z      0.82801     0.79825
             26  O  2  X      0.56808     0.63947
             27  O  2  Y      0.56810     0.64730
             28  O  2  Z      0.54999     0.58291
             29  O  2 XX      0.00146     0.20689
             30  O  2 YY      0.00245     0.20765
             31  O  2 ZZ      0.00453     0.21121
             32  O  2 XY      0.00159     0.00823
             33  O  2 XZ      0.00151     0.00225
             34  O  2 YZ      0.00000     0.00199
             35  O  3  S      1.99571     1.97302
             36  O  3  S      0.96695     0.71169
             37  O  3  S      0.98716     0.56045
             38  O  3  X      0.97422     0.93942
             39  O  3  Y      0.91127     0.87713
             40  O  3  Z      0.82802     0.79825
             41  O  3  X      0.56807     0.63947
             42  O  3  Y      0.56810     0.64730
             43  O  3  Z      0.54999     0.58291
             44  O  3 XX      0.00146     0.20689
             45  O  3 YY      0.00245     0.20765
             46  O  3 ZZ      0.00453     0.21121
             47  O  3 XY      0.00159     0.00823
             48  O  3 XZ      0.00151     0.00225
             49  O  3 YZ      0.00000     0.00199

          ----- MULLIKEN ATOMIC OVERLAP POPULATIONS -----
          (OFF-DIAGONAL ELEMENTS NEED TO BE MULTIPLIED BY 2)

             1           2           3

    1   14.6971968
    2    0.2903755   8.1373634
    3    0.2903835  -0.0667150   8.1373518

          TOTAL MULLIKEN AND LOWDIN ATOMIC POPULATIONS
       ATOM         MULL.POP.    CHARGE          LOW.POP.     CHARGE
    1 S            15.277956    0.722044        15.264265    0.735735
    2 O             8.361024   -0.361024         8.367868   -0.367868
    3 O             8.361020   -0.361020         8.367867   -0.367867

          MULLIKEN SPHERICAL HARMONIC POPULATIONS
       ATOM           S       P       D      F      G      H      I    TOTAL
    1 S             5.88    9.20    0.20   0.00   0.00   0.00   0.00   15.28
    2 O             3.95    4.40    0.01   0.00   0.00   0.00   0.00    8.36
    3 O             3.95    4.40    0.01   0.00   0.00   0.00   0.00    8.36

          -------------------------------
          BOND ORDER AND VALENCE ANALYSIS     BOND ORDER THRESHOLD=0.050
          -------------------------------

                   BOND                       BOND                       BOND
  ATOM PAIR DIST  ORDER      ATOM PAIR DIST  ORDER      ATOM PAIR DIST  ORDER
    1   2  1.700  1.647        1   3  1.700  1.647        2   3  2.507  0.446

                       TOTAL       BONDED        FREE
      ATOM            VALENCE     VALENCE     VALENCE
    1 S                 3.293       3.293       0.000
    2 O                 2.093       2.093       0.000
    3 O                 2.093       2.093      -0.000

          ---------------------
          ELECTROSTATIC MOMENTS
          ---------------------

 POINT   1           X           Y           Z (BOHR)    CHARGE
                -0.000000   -0.000000    0.000000        0.00 (A.U.)
         DX          DY          DZ         /D/  (DEBYE)
    -0.000004   -3.034960    0.000000    3.034960
 ...... END OF PROPERTY EVALUATION ......
 STEP CPU TIME =     0.00 TOTAL CPU TIME =          2.7 (      0.0 MIN)
 TOTAL WALL CLOCK TIME=          2.7 SECONDS, CPU UTILIZATION IS    98.17%
                580000  WORDS OF DYNAMIC MEMORY USED
 EXECUTION OF GAMESS TERMINATED NORMALLY Sun Sep 29 10:53:44 2019
 DDI: 263640 bytes (0.3 MB / 0 MWords) used by master data server.

 ----------------------------------------
 CPU timing information for all processes
 ========================================
 0: 2.618 + 0.78 = 2.697
 ----------------------------------------
 ddikick.x: exited gracefully.
----- accounting info -----
Files used on the master node crcfe02.crc.nd.edu were:
-rw-r--r-- 1 cdrisko campus     207 Sep 29 10:53 /afs/crc.nd.edu/user/c/cdrisko/SO2.F05
-rw-r--r-- 1 cdrisko campus   37566 Sep 29 10:53 /afs/crc.nd.edu/user/c/cdrisko/SO2.F07
-rw-r--r-- 1 cdrisko campus 4140368 Sep 29 10:53 /afs/crc.nd.edu/user/c/cdrisko/SO2.F08
-rw-r--r-- 1 cdrisko campus 1766880 Sep 29 10:53 /afs/crc.nd.edu/user/c/cdrisko/SO2.F10
Sun Sep 29 10:53:47 EDT 2019
0.442u 0.247s 0:06.39 10.6%	0+0k 0+24io 0pf+0w
