   1   1   0   0
  0.7200000E+03  0.8000000E-09  0.9000000E-09  0.1000000E-08  0.5000000E-15
  1.000000000000000E-004
  CAR 
 unknown system                          
      4.76500805     -7.54979344  301     -5.43775699      1.00000000
     -7.550  0.0000E+00  0.0000E+00
     -7.509  0.0000E+00  0.0000E+00
     -7.468  0.0000E+00  0.0000E+00
     -7.427  0.0000E+00  0.0000E+00
     -7.386 -0.2413E-27 -0.9906E-29
     -7.345 -0.1857E-24 -0.7635E-26
     -7.303 -0.1019E-21 -0.4189E-23
     -7.262 -0.3976E-19 -0.1636E-20
     -7.221 -0.1104E-16 -0.4548E-18
     -7.180 -0.2179E-14 -0.8989E-16
     -7.139 -0.2920E-12 -0.1208E-13
     -7.098 -0.2942E-10 -0.1220E-11
     -7.057 -0.2065E-08 -0.8597E-10
     -7.016 -0.1024E-06 -0.4291E-08
     -6.975 -0.3583E-05 -0.1514E-06
     -6.934 -0.8803E-04 -0.3765E-05
     -6.893 -0.1511E-02 -0.6578E-04
     -6.852 -0.1795E-01 -0.8026E-03
     -6.811 -0.1455E+00 -0.6774E-02
     -6.770 -0.7819E+00 -0.3887E-01
     -6.729 -0.2611E+01 -0.1460E+00
     -6.688 -0.4312E+01 -0.3231E+00
     -6.647  0.2443E+01 -0.2227E+00
     -6.606  0.2900E+02  0.9678E+00
     -6.565  0.6698E+02  0.3717E+01
     -6.524  0.8233E+02  0.7097E+01
     -6.483  0.5805E+02  0.9480E+01
     -6.441  0.2033E+02  0.1031E+02
     -6.400 -0.7973E+00  0.1028E+02
     -6.359 -0.4198E+01  0.1011E+02
     -6.318 -0.2029E+01  0.1003E+02
     -6.277 -0.5334E+00  0.1000E+02
     -6.236 -0.8914E-01  0.1000E+02
     -6.195 -0.9968E-02  0.1000E+02
     -6.154 -0.7639E-03  0.1000E+02
     -6.113 -0.4064E-04  0.1000E+02
     -6.072 -0.1513E-05  0.1000E+02
     -6.031 -0.3959E-07  0.1000E+02
     -5.990 -0.7352E-09  0.1000E+02
     -5.949 -0.3106E-09  0.1000E+02
     -5.908 -0.1534E-07  0.1000E+02
     -5.867 -0.5514E-06  0.1000E+02
     -5.826 -0.1393E-04  0.1000E+02
     -5.785 -0.2458E-03  0.1000E+02
     -5.744 -0.3005E-02  0.1000E+02
     -5.703 -0.2511E-01  0.9999E+01
     -5.662 -0.1395E+00  0.9993E+01
     -5.620 -0.4854E+00  0.9973E+01
     -5.579 -0.8642E+00  0.9938E+01
     -5.538  0.2625E+00  0.9948E+01
     -5.497  0.5247E+01  0.1016E+02
     -5.456  0.1288E+02  0.1069E+02
     -5.415  0.1653E+02  0.1137E+02
     -5.374  0.1218E+02  0.1187E+02
     -5.333  0.4573E+01  0.1206E+02
     -5.292  0.1177E-01  0.1206E+02
     -5.251 -0.8549E+00  0.1202E+02
     -5.210 -0.4402E+00  0.1201E+02
     -5.169 -0.1203E+00  0.1200E+02
     -5.128 -0.2077E-01  0.1200E+02
     -5.087 -0.2393E-02  0.1200E+02
     -5.046 -0.1887E-03  0.1200E+02
     -5.005 -0.1032E-04  0.1200E+02
     -4.964 -0.3947E-06  0.1200E+02
     -4.923 -0.1061E-07  0.1200E+02
     -4.882 -0.2013E-09  0.1200E+02
     -4.841 -0.2705E-11  0.1200E+02
     -4.799 -0.2164E-13  0.1200E+02
     -4.758  0.0000E+00  0.1200E+02
     -4.717  0.0000E+00  0.1200E+02
     -4.676  0.0000E+00  0.1200E+02
     -4.635  0.0000E+00  0.1200E+02
     -4.594  0.0000E+00  0.1200E+02
     -4.553  0.0000E+00  0.1200E+02
     -4.512  0.0000E+00  0.1200E+02
     -4.471  0.0000E+00  0.1200E+02
     -4.430  0.0000E+00  0.1200E+02
     -4.389  0.0000E+00  0.1200E+02
     -4.348  0.0000E+00  0.1200E+02
     -4.307  0.0000E+00  0.1200E+02
     -4.266  0.0000E+00  0.1200E+02
     -4.225  0.0000E+00  0.1200E+02
     -4.184  0.0000E+00  0.1200E+02
     -4.143  0.0000E+00  0.1200E+02
     -4.102  0.0000E+00  0.1200E+02
     -4.061  0.0000E+00  0.1200E+02
     -4.020  0.0000E+00  0.1200E+02
     -3.979  0.0000E+00  0.1200E+02
     -3.937  0.0000E+00  0.1200E+02
     -3.896  0.0000E+00  0.1200E+02
     -3.855  0.0000E+00  0.1200E+02
     -3.814  0.0000E+00  0.1200E+02
     -3.773  0.0000E+00  0.1200E+02
     -3.732  0.0000E+00  0.1200E+02
     -3.691  0.0000E+00  0.1200E+02
     -3.650  0.0000E+00  0.1200E+02
     -3.609  0.0000E+00  0.1200E+02
     -3.568  0.0000E+00  0.1200E+02
     -3.527  0.0000E+00  0.1200E+02
     -3.486  0.0000E+00  0.1200E+02
     -3.445  0.0000E+00  0.1200E+02
     -3.404  0.0000E+00  0.1200E+02
     -3.363  0.0000E+00  0.1200E+02
     -3.322  0.0000E+00  0.1200E+02
     -3.281  0.0000E+00  0.1200E+02
     -3.240  0.0000E+00  0.1200E+02
     -3.199  0.0000E+00  0.1200E+02
     -3.158  0.0000E+00  0.1200E+02
     -3.116  0.0000E+00  0.1200E+02
     -3.075  0.0000E+00  0.1200E+02
     -3.034  0.0000E+00  0.1200E+02
     -2.993  0.0000E+00  0.1200E+02
     -2.952  0.0000E+00  0.1200E+02
     -2.911  0.0000E+00  0.1200E+02
     -2.870  0.0000E+00  0.1200E+02
     -2.829  0.0000E+00  0.1200E+02
     -2.788  0.0000E+00  0.1200E+02
     -2.747  0.0000E+00  0.1200E+02
     -2.706  0.0000E+00  0.1200E+02
     -2.665  0.0000E+00  0.1200E+02
     -2.624  0.0000E+00  0.1200E+02
     -2.583  0.0000E+00  0.1200E+02
     -2.542  0.0000E+00  0.1200E+02
     -2.501  0.0000E+00  0.1200E+02
     -2.460  0.0000E+00  0.1200E+02
     -2.419  0.0000E+00  0.1200E+02
     -2.378  0.0000E+00  0.1200E+02
     -2.337  0.0000E+00  0.1200E+02
     -2.295  0.0000E+00  0.1200E+02
     -2.254  0.0000E+00  0.1200E+02
     -2.213  0.0000E+00  0.1200E+02
     -2.172  0.0000E+00  0.1200E+02
     -2.131  0.0000E+00  0.1200E+02
     -2.090  0.0000E+00  0.1200E+02
     -2.049  0.0000E+00  0.1200E+02
     -2.008  0.0000E+00  0.1200E+02
     -1.967  0.0000E+00  0.1200E+02
     -1.926  0.0000E+00  0.1200E+02
     -1.885  0.0000E+00  0.1200E+02
     -1.844  0.0000E+00  0.1200E+02
     -1.803  0.0000E+00  0.1200E+02
     -1.762  0.0000E+00  0.1200E+02
     -1.721  0.0000E+00  0.1200E+02
     -1.680  0.0000E+00  0.1200E+02
     -1.639  0.0000E+00  0.1200E+02
     -1.598  0.0000E+00  0.1200E+02
     -1.557  0.0000E+00  0.1200E+02
     -1.516  0.0000E+00  0.1200E+02
     -1.474  0.0000E+00  0.1200E+02
     -1.433  0.0000E+00  0.1200E+02
     -1.392  0.0000E+00  0.1200E+02
     -1.351  0.0000E+00  0.1200E+02
     -1.310  0.0000E+00  0.1200E+02
     -1.269  0.0000E+00  0.1200E+02
     -1.228 -0.1300E-26  0.1200E+02
     -1.187 -0.8475E-24  0.1200E+02
     -1.146 -0.3936E-21  0.1200E+02
     -1.105 -0.1301E-18  0.1200E+02
     -1.064 -0.3056E-16  0.1200E+02
     -1.023 -0.5105E-14  0.1200E+02
     -0.982 -0.5865E-12  0.1200E+02
     -0.941 -0.4915E-10  0.1200E+02
     -0.900 -0.2912E-08  0.1200E+02
     -0.859 -0.1218E-06  0.1200E+02
     -0.818 -0.3589E-05  0.1200E+02
     -0.777 -0.7407E-04  0.1200E+02
     -0.736 -0.1064E-02  0.1200E+02
     -0.695 -0.1054E-01  0.1200E+02
     -0.654 -0.7058E-01  0.1200E+02
     -0.612 -0.3085E+00  0.1198E+02
     -0.571 -0.8030E+00  0.1195E+02
     -0.530 -0.8154E+00  0.1192E+02
     -0.489  0.1875E+01  0.1199E+02
     -0.448  0.8833E+01  0.1236E+02
     -0.407  0.1744E+02  0.1307E+02
     -0.366  0.2273E+02  0.1401E+02
     -0.325  0.2217E+02  0.1492E+02
     -0.284  0.1648E+02  0.1559E+02
     -0.243  0.1044E+02  0.1602E+02
     -0.202  0.1026E+02  0.1644E+02
     -0.161  0.1423E+02  0.1703E+02
     -0.120  0.1387E+02  0.1760E+02
     -0.079  0.8032E+01  0.1793E+02
     -0.038  0.5258E+01  0.1814E+02
      0.003  0.1002E+02  0.1855E+02
      0.044  0.1557E+02  0.1919E+02
      0.085  0.1386E+02  0.1976E+02
      0.126  0.6601E+01  0.2003E+02
      0.167  0.8656E+00  0.2007E+02
      0.209 -0.8428E+00  0.2003E+02
      0.250 -0.5782E+00  0.2001E+02
      0.291 -0.1844E+00  0.2000E+02
      0.332 -0.3608E-01  0.2000E+02
      0.373 -0.4658E-02  0.2000E+02
      0.414 -0.4093E-03  0.2000E+02
      0.455 -0.2487E-04  0.2000E+02
      0.496 -0.1054E-05  0.2000E+02
      0.537 -0.3139E-07  0.2000E+02
      0.578 -0.6585E-09  0.2000E+02
      0.619 -0.9758E-11  0.2000E+02
      0.660 -0.1122E-12  0.2000E+02
      0.701 -0.4689E-12  0.2000E+02
      0.742 -0.3985E-10  0.2000E+02
      0.783 -0.2402E-08  0.2000E+02
      0.824 -0.1022E-06  0.2000E+02
      0.865 -0.3062E-05  0.2000E+02
      0.906 -0.6430E-04  0.2000E+02
      0.947 -0.9400E-03  0.2000E+02
      0.988 -0.9461E-02  0.2000E+02
      1.030 -0.6431E-01  0.2000E+02
      1.071 -0.2838E+00  0.1999E+02
      1.112 -0.7318E+00  0.1996E+02
      1.153 -0.6340E+00  0.1993E+02
      1.194  0.2286E+01  0.2002E+02
      1.235  0.9204E+01  0.2040E+02
      1.276  0.1570E+02  0.2105E+02
      1.317  0.1507E+02  0.2166E+02
      1.358  0.7833E+01  0.2199E+02
      1.399  0.8767E+00  0.2202E+02
      1.440 -0.1250E+01  0.2197E+02
      1.481  0.2201E+01  0.2206E+02
      1.522  0.9836E+01  0.2246E+02
      1.563  0.1602E+02  0.2312E+02
      1.604  0.1459E+02  0.2372E+02
      1.645  0.7297E+01  0.2402E+02
      1.686  0.1189E+01  0.2407E+02
      1.727 -0.8118E+00  0.2404E+02
      1.768 -0.6189E+00  0.2401E+02
      1.809 -0.2082E+00  0.2400E+02
      1.851 -0.5391E-01  0.2400E+02
      1.892 -0.8292E-01  0.2400E+02
      1.933 -0.3245E+00  0.2398E+02
      1.974 -0.7768E+00  0.2395E+02
      2.015 -0.5016E+00  0.2393E+02
      2.056  0.2867E+01  0.2405E+02
      2.097  0.1005E+02  0.2446E+02
      2.138  0.1597E+02  0.2512E+02
      2.179  0.1420E+02  0.2570E+02
      2.220  0.6457E+01  0.2596E+02
      2.261  0.9224E+00  0.2600E+02
      2.302  0.2827E+01  0.2612E+02
      2.343  0.1008E+02  0.2653E+02
      2.384  0.1556E+02  0.2717E+02
      2.425  0.1560E+02  0.2781E+02
      2.466  0.1459E+02  0.2841E+02
      2.507  0.1572E+02  0.2905E+02
      2.548  0.1645E+02  0.2973E+02
      2.589  0.1632E+02  0.3040E+02
      2.630  0.1651E+02  0.3108E+02
      2.671  0.1580E+02  0.3173E+02
      2.713  0.1531E+02  0.3235E+02
      2.754  0.1638E+02  0.3303E+02
      2.795  0.1483E+02  0.3364E+02
      2.836  0.8288E+01  0.3398E+02
      2.877  0.1362E+01  0.3403E+02
      2.918 -0.1424E+01  0.3397E+02
      2.959  0.9716E+00  0.3401E+02
      3.000  0.7726E+01  0.3433E+02
      3.041  0.1434E+02  0.3492E+02
      3.082  0.1524E+02  0.3554E+02
      3.123  0.1244E+02  0.3606E+02
      3.164  0.1258E+02  0.3657E+02
      3.205  0.1706E+02  0.3727E+02
      3.246  0.2464E+02  0.3828E+02
      3.287  0.3438E+02  0.3969E+02
      3.328  0.4004E+02  0.4134E+02
      3.369  0.3508E+02  0.4278E+02
      3.410  0.2207E+02  0.4368E+02
      3.451  0.8725E+01  0.4404E+02
      3.492  0.3684E+00  0.4406E+02
      3.534 -0.1839E+01  0.4398E+02
      3.575  0.1512E+01  0.4404E+02
      3.616  0.8872E+01  0.4441E+02
      3.657  0.1580E+02  0.4506E+02
      3.698  0.1858E+02  0.4582E+02
      3.739  0.1883E+02  0.4659E+02
      3.780  0.1765E+02  0.4732E+02
      3.821  0.1267E+02  0.4784E+02
      3.862  0.5277E+01  0.4805E+02
      3.903  0.3218E+00  0.4807E+02
      3.944 -0.9034E+00  0.4803E+02
      3.985 -0.5341E+00  0.4801E+02
      4.026 -0.1599E+00  0.4800E+02
      4.067 -0.2986E-01  0.4800E+02
      4.108 -0.3700E-02  0.4800E+02
      4.149 -0.3128E-03  0.4800E+02
      4.190 -0.1831E-04  0.4800E+02
      4.231 -0.7488E-06  0.4800E+02
      4.272 -0.2150E-07  0.4800E+02
      4.313 -0.4354E-09  0.4800E+02
      4.355 -0.6231E-11  0.4800E+02
      4.396 -0.6491E-13  0.4800E+02
      4.437  0.0000E+00  0.4800E+02
      4.478  0.0000E+00  0.4800E+02
      4.519  0.0000E+00  0.4800E+02
      4.560  0.0000E+00  0.4800E+02
      4.601  0.0000E+00  0.4800E+02
      4.642  0.0000E+00  0.4800E+02
      4.683  0.0000E+00  0.4800E+02
      4.724  0.0000E+00  0.4800E+02
      4.765  0.0000E+00  0.4800E+02
