       N       E                     dE             d eps       ncg     rms          rms(c)
DAV:   1     0.653070498702E+02    0.65307E+02   -0.20771E+03    48   0.209E+02
DAV:   2     0.330127848633E+01   -0.62006E+02   -0.62067E+02    72   0.262E+01
DAV:   3    -0.285237691744E-01   -0.33298E+01   -0.33298E+01    48   0.152E+01
DAV:   4    -0.433811205128E-01   -0.14857E-01   -0.14857E-01    48   0.124E+00
DAV:   5    -0.436070251449E-01   -0.22590E-03   -0.22590E-03    48   0.150E-01    0.458E-02
DAV:   6    -0.436801583191E-01   -0.73133E-04   -0.59341E-05    48   0.308E-02
   1 F= -.43680158E-01 E0= -.34276999E-01  d E =-.282095E-01
