 vasp.5.4.1 05Feb16 (build Feb 08 2018 09:21:51) complex                        
  
 executed on             LinuxIFC date 2019.11.21  11:54:52
 running on   24 total cores
 distrk:  each k-point on   24 cores,    1 groups
 distr:  one band on NCORES_PER_BAND=   1 cores,   24 groups


--------------------------------------------------------------------------------------------------------


 INCAR:
 POTCAR:    PAW_PBE Au 04Oct2007                  

 ----------------------------------------------------------------------------- 
|                                                                             |
|           W    W    AA    RRRRR   N    N  II  N    N   GGGG   !!!           |
|           W    W   A  A   R    R  NN   N  II  NN   N  G    G  !!!           |
|           W    W  A    A  R    R  N N  N  II  N N  N  G       !!!           |
|           W WW W  AAAAAA  RRRRR   N  N N  II  N  N N  G  GGG   !            |
|           WW  WW  A    A  R   R   N   NN  II  N   NN  G    G                |
|           W    W  A    A  R    R  N    N  II  N    N   GGGG   !!!           |
|                                                                             |
|      For optimal performance we recommend to set                            |
|        NCORE= 4 - approx SQRT( number of cores)                             |
|      NCORE specifies how many cores store one orbital (NPAR=cpu/NCORE).     |
|      This setting can  greatly improve the performance of VASP for DFT.     |
|      The default, NPAR=number of cores might be grossly inefficient         |
|      on modern multi-core architectures or massively parallel machines.     |
|      Do your own testing !!!!                                               |
|      Unfortunately you need to use the default for GW and RPA calculations. |
|      (for HF NCORE is supported but not extensively tested yet)             |
|                                                                             |
 ----------------------------------------------------------------------------- 

 POTCAR:    PAW_PBE Au 04Oct2007                  
   VRHFIN =Au: s1d10                                                            
   LEXCH  = PE                                                                  
   EATOM  =   926.0867 eV,   68.0654 Ry                                         
                                                                                
   TITEL  = PAW_PBE Au 04Oct2007                                                
   LULTRA =        F    use ultrasoft PP ?                                      
   IUNSCR =        1    unscreen: 0-lin 1-nonlin 2-no                           
   RPACOR =    2.330    partial core radius                                     
   POMASS =  196.966; ZVAL   =   11.000    mass and valenz                      
   RCORE  =    2.500    outmost cutoff radius                                   
   RWIGS  =    2.840; RWIGS  =    1.503    wigner-seitz radius (au A)           
   ENMAX  =  229.943; ENMIN  =  172.457 eV                                      
   ICORE  =        3    local potential                                         
   LCOR   =        T    correct aug charges                                     
   LPAW   =        T    paw PP                                                  
   EAUG   =  356.670                                                            
   DEXC   =    0.000                                                            
   RMAX   =    2.562    core radius for proj-oper                               
   RAUG   =    1.300    factor for augmentation sphere                          
   RDEP   =    2.598    radius for radial grids                                 
   RDEPT  =    2.193    core radius for aug-charge                              
                                                                                
   Atomic configuration                                                         
   16 entries                                                                   
     n  l   j            E        occ.                                          
     1  0  0.50    -80748.5001   2.0000                                         
     2  0  0.50    -14244.7466   2.0000                                         
     2  1  1.50    -12310.9591   6.0000                                         
     3  0  0.50     -3362.1768   2.0000                                         
     3  1  1.50     -2801.5463   6.0000                                         
     3  2  2.50     -2203.8206  10.0000                                         
     4  0  0.50      -729.8168   2.0000                                         
     4  1  1.50      -546.0527   6.0000                                         
     4  2  2.50      -325.7302  10.0000                                         
     4  3  3.50       -81.1472  14.0000                                         
     5  0  0.50      -108.3201   2.0000                                         
     5  1  1.50       -59.7479   6.0000                                         
     5  2  2.50        -6.8783  10.0000                                         
     6  0  0.50        -5.7602   1.0000                                         
     6  1  1.50        -6.8029   0.0000                                         
     5  3  2.50        -1.3606   0.0000                                         
   Description                                                                  
     l       E           TYP  RCUT    TYP  RCUT                                 
     2     -6.8782861     23  2.500                                             
     2     -8.2388687     23  2.500                                             
     0     -5.7601759     23  2.500                                             
     0     -0.8493231     23  2.500                                             
     1     -2.7211652     23  2.500                                             
     1     27.2116520     23  2.500                                             
     3     -1.3605826     23  2.500                                             
  local pseudopotential read in
  partial core-charges read in
  partial kinetic energy density read in
  atomic valenz-charges read in
  non local Contribution for L=           2  read in
    real space projection operators read in
  non local Contribution for L=           2  read in
    real space projection operators read in
  non local Contribution for L=           0  read in
    real space projection operators read in
  non local Contribution for L=           0  read in
    real space projection operators read in
  non local Contribution for L=           1  read in
    real space projection operators read in
  non local Contribution for L=           1  read in
    real space projection operators read in
    PAW grid and wavefunctions read in
 
   number of l-projection  operators is LMAX  =           6
   number of lm-projection operators is LMMAX =          18
 
  PAW_PBE Au 04Oct2007                  :
 energy of atom  1       EATOM= -926.0867
 kinetic energy error for atom=    0.0062 (will be added to EATOM!!)
 
 
 POSCAR: Au                                      
  positions in cartesian coordinates
  No initial velocities read in
 exchange correlation table for  LEXCH =        8
   RHO(1)=    0.500       N(1)  =     2000
   RHO(2)=  100.500       N(2)  =     4000
 


--------------------------------------------------------------------------------------------------------


 ion  position               nearest neighbor table
   1  0.500  0.500  0.500-
 
  LATTYP: Found a simple orthorhombic cell.
 ALAT       =     8.0000000000
 B/A-ratio  =     1.1250000000
 C/A-ratio  =     1.2500000000
  
  Lattice vectors:
  
 A1 = (   8.0000000000,   0.0000000000,   0.0000000000)
 A2 = (   0.0000000000,   9.0000000000,   0.0000000000)
 A3 = (   0.0000000000,   0.0000000000,  10.0000000000)


Analysis of symmetry for initial positions (statically):
=====================================================================
 Subroutine PRICEL returns:
 Original cell was already a primitive cell.
 

 Routine SETGRP: Setting up the symmetry group for a 
 simple orthorhombic supercell.


 Subroutine GETGRP returns: Found  8 space group operations
 (whereof  8 operations were pure point group operations)
 out of a pool of  8 trial point group operations.


The static configuration has the point symmetry D_2h.


Analysis of symmetry for dynamics (positions and initial velocities):
=====================================================================
 Subroutine PRICEL returns:
 Original cell was already a primitive cell.
 

 Routine SETGRP: Setting up the symmetry group for a 
 simple orthorhombic supercell.


 Subroutine GETGRP returns: Found  8 space group operations
 (whereof  8 operations were pure point group operations)
 out of a pool of  8 trial point group operations.


The dynamic configuration has the point symmetry D_2h.


 Subroutine INISYM returns: Found  8 space group operations
 (whereof  8 operations are pure point group operations),
 and found     1 'primitive' translations

 
 
 KPOINTS: KPOINTS created by Atomic Simulation Env

Automatic generation of k-mesh.
Space group operators:
 irot       det(A)        alpha          n_x          n_y          n_z        tau_x        tau_y        tau_z
    1     1.000000     0.000000     1.000000     0.000000     0.000000     0.000000     0.000000     0.000000
    2    -1.000000     0.000000     1.000000     0.000000     0.000000     0.000000     0.000000     0.000000
    3     1.000000   180.000000     0.000000     0.000000     1.000000     0.000000     0.000000     0.000000
    4    -1.000000   180.000000     0.000000     0.000000     1.000000     0.000000     0.000000     0.000000
    5     1.000000   180.000000     0.000000     1.000000     0.000000     0.000000     0.000000     0.000000
    6    -1.000000   180.000000     0.000000     1.000000     0.000000     0.000000     0.000000     0.000000
    7     1.000000   180.000000     1.000000     0.000000     0.000000     0.000000     0.000000     0.000000
    8    -1.000000   180.000000     1.000000     0.000000     0.000000     0.000000     0.000000     0.000000
 
 Subroutine IBZKPT returns following result:
 ===========================================
 
 Found      1 irreducible k-points:
 
 Following reciprocal coordinates:
            Coordinates               Weight
  0.000000  0.000000  0.000000      1.000000
 
 Following cartesian coordinates:
            Coordinates               Weight
  0.000000  0.000000  0.000000      1.000000
 


--------------------------------------------------------------------------------------------------------




 Dimension of arrays:
   k-points           NKPTS =      1   k-points in BZ     NKDIM =      1   number of bands    NBANDS=     24
   number of dos      NEDOS =    301   number of ions     NIONS =      1
   non local maximal  LDIM  =      6   non local SUM 2l+1 LMDIM =     18
   total plane-waves  NPLWV =  96000
   max r-space proj   IRMAX =      1   max aug-charges    IRDMAX=   8352
   dimension x,y,z NGX =    40 NGY =   48 NGZ =   50
   dimension x,y,z NGXF=    80 NGYF=   96 NGZF=  100
   support grid    NGXF=    80 NGYF=   96 NGZF=  100
   ions per type =               1
 NGX,Y,Z   is equivalent  to a cutoff of   8.31,  8.87,  8.31 a.u.
 NGXF,Y,Z  is equivalent  to a cutoff of  16.62, 17.73, 16.62 a.u.


 I would recommend the setting:
   dimension x,y,z NGX =    39 NGY =   44 NGZ =   49
 SYSTEM =  unknown system                          
 POSCAR =  Au                                      

 Startparameter for this run:
   NWRITE =      2    write-flag & timer
   PREC   = normal    normal or accurate (medium, high low for compatibility)
   ISTART =      0    job   : 0-new  1-cont  2-samecut
   ICHARG =      2    charge: 1-file 2-atom 10-const
   ISPIN  =      1    spin polarized calculation?
   LNONCOLLINEAR =      F non collinear calculations
   LSORBIT =      F    spin-orbit coupling
   INIWAV =      1    electr: 0-lowe 1-rand  2-diag
   LASPH  =      F    aspherical Exc in radial PAW
   METAGGA=      F    non-selfconsistent MetaGGA calc.

 Electronic Relaxation 1
   ENCUT  =  400.0 eV  29.40 Ry    5.42 a.u.  13.05 14.68 16.31*2*pi/ulx,y,z
   ENINI  =  400.0     initial cutoff
   ENAUG  =  356.7 eV  augmentation charge cutoff
   NELM   =     60;   NELMIN=  2; NELMDL= -5     # of ELM steps 
   EDIFF  = 0.1E-03   stopping-criterion for ELM
   LREAL  =      F    real-space projection
   NLSPLINE    = F    spline interpolate recip. space projectors
   LCOMPAT=      F    compatible to vasp.4.4
   GGA_COMPAT  = T    GGA compatible to vasp.4.4-vasp.4.6
   LMAXPAW     = -100 max onsite density
   LMAXMIX     =    2 max onsite mixed and CHGCAR
   VOSKOWN=      0    Vosko Wilk Nusair interpolation
   ROPT   =    0.00000
 Ionic relaxation
   EDIFFG = 0.1E-02   stopping-criterion for IOM
   NSW    =      0    number of steps for IOM
   NBLOCK =      1;   KBLOCK =      1    inner block; outer block 
   IBRION =     -1    ionic relax: 0-MD 1-quasi-New 2-CG
   NFREE  =      0    steps in history (QN), initial steepest desc. (CG)
   ISIF   =      2    stress and relaxation
   IWAVPR =     10    prediction:  0-non 1-charg 2-wave 3-comb
   ISYM   =      2    0-nonsym 1-usesym 2-fastsym
   LCORR  =      T    Harris-Foulkes like correction to forces

   POTIM  = 0.5000    time-step for ionic-motion
   TEIN   =    0.0    initial temperature
   TEBEG  =    0.0;   TEEND  =   0.0 temperature during run
   SMASS  =  -3.00    Nose mass-parameter (am)
   estimated Nose-frequenzy (Omega)   =  0.10E-29 period in steps =****** mass=  -0.146E-26a.u.
   SCALEE = 1.0000    scale energy and forces
   NPACO  =    256;   APACO  = 16.0  distance and # of slots for P.C.
   PSTRESS=    0.0 pullay stress

  Mass of Ions in am
   POMASS = 196.97
  Ionic Valenz
   ZVAL   =  11.00
  Atomic Wigner-Seitz radii
   RWIGS  =  -1.00
  virtual crystal weights 
   VCA    =   1.00
   NELECT =      11.0000    total number of electrons
   NUPDOWN=      -1.0000    fix difference up-down

 DOS related values:
   EMIN   =  10.00;   EMAX   =-10.00  energy-range for DOS
   EFERMI =   0.00
   ISMEAR =     1;   SIGMA  =   0.10  broadening in eV -4-tet -1-fermi 0-gaus

 Electronic relaxation 2 (details)
   IALGO  =     38    algorithm
   LDIAG  =      T    sub-space diagonalisation (order eigenvalues)
   LSUBROT=      F    optimize rotation matrix (better conditioning)
   TURBO    =      0    0=normal 1=particle mesh
   IRESTART =      0    0=no restart 2=restart with 2 vectors
   NREBOOT  =      0    no. of reboots
   NMIN     =      0    reboot dimension
   EREF     =   0.00    reference energy to select bands
   IMIX   =      4    mixing-type and parameters
     AMIX     =   0.40;   BMIX     =  1.00
     AMIX_MAG =   1.60;   BMIX_MAG =  1.00
     AMIN     =   0.10
     WC   =   100.;   INIMIX=   1;  MIXPRE=   1;  MAXMIX= -45

 Intra band minimization:
   WEIMIN = 0.0000     energy-eigenvalue tresh-hold
   EBREAK =  0.10E-05  absolut break condition
   DEPER  =   0.30     relativ break condition  

   TIME   =   0.40     timestep for ELM

  volume/ion in A,a.u.               =     720.00      4858.80
  Fermi-wavevector in a.u.,A,eV,Ry     =   0.406220  0.767645  2.245164  0.165015
  Thomas-Fermi vector in A             =   1.359048
 
 Write flags
   LWAVE  =      F    write WAVECAR
   LCHARG =      F    write CHGCAR
   LVTOT  =      F    write LOCPOT, total local potential
   LVHAR  =      F    write LOCPOT, Hartree potential only
   LELF   =      F    write electronic localiz. function (ELF)
   LORBIT =      0    0 simple, 1 ext, 2 COOP (PROOUT)


 Dipole corrections
   LMONO  =      F    monopole corrections only (constant potential shift)
   LDIPOL =      F    correct potential (dipole corrections)
   IDIPOL =      0    1-x, 2-y, 3-z, 4-all directions 
   EPSILON=  1.0000000 bulk dielectric constant

 Exchange correlation treatment:
   GGA     =    --    GGA type
   LEXCH   =     8    internal setting for exchange type
   VOSKOWN=      0    Vosko Wilk Nusair interpolation
   LHFCALC =     F    Hartree Fock is set to
   LHFONE  =     F    Hartree Fock one center treatment
   AEXX    =    0.0000 exact exchange contribution

 Linear response parameters
   LEPSILON=     F    determine dielectric tensor
   LRPA    =     F    only Hartree local field effects (RPA)
   LNABLA  =     F    use nabla operator in PAW spheres
   LVEL    =     F    velocity operator in full k-point grid
   LINTERFAST=   F  fast interpolation
   KINTER  =     0    interpolate to denser k-point grid
   CSHIFT  =0.1000    complex shift for real part using Kramers Kronig
   OMEGAMAX=  -1.0    maximum frequency
   DEG_THRESHOLD= 0.2000000E-02 threshold for treating states as degnerate
   RTIME   =    0.100 relaxation time in fs

 Orbital magnetization related:
   ORBITALMAG=     F  switch on orbital magnetization
   LCHIMAG   =     F  perturbation theory with respect to B field
   DQ        =  0.001000  dq finite difference perturbation B field



--------------------------------------------------------------------------------------------------------


 Static calculation
 charge density and potential will be updated during run
 non-spin polarized calculation
 Variant of blocked Davidson
 Davidson routine will perform the subspace rotation
 perform sub-space diagonalisation
    after iterative eigenvector-optimisation
 modified Broyden-mixing scheme, WC =      100.0
 initial mixing is a Kerker type mixing with AMIX =  0.4000 and BMIX =      1.0000
 Hartree-type preconditioning will be used
 using additional bands           18
 reciprocal scheme for non local part
 use partial core corrections
 calculate Harris-corrections to forces 
   (improved forces if not selfconsistent)
 use gradient corrections 
 use of overlap-Matrix (Vanderbilt PP)
 Methfessel and Paxton  Order N= 1 SIGMA  =   0.10


--------------------------------------------------------------------------------------------------------


  energy-cutoff  :      400.00
  volume of cell :      720.00
      direct lattice vectors                 reciprocal lattice vectors
     8.000000000  0.000000000  0.000000000     0.125000000  0.000000000  0.000000000
     0.000000000  9.000000000  0.000000000     0.000000000  0.111111111  0.000000000
     0.000000000  0.000000000 10.000000000     0.000000000  0.000000000  0.100000000

  length of vectors
     8.000000000  9.000000000 10.000000000     0.125000000  0.111111111  0.100000000


 
 k-points in units of 2pi/SCALE and weight: KPOINTS created by Atomic Simulation Env
   0.00000000  0.00000000  0.00000000       1.000
 
 k-points in reciprocal lattice and weights: KPOINTS created by Atomic Simulation Env
   0.00000000  0.00000000  0.00000000       1.000
 
 position of ions in fractional coordinates (direct lattice) 
   0.50000000  0.50000000  0.50000000
 
 position of ions in cartesian coordinates  (Angst):
   4.00000000  4.50000000  5.00000000
 


--------------------------------------------------------------------------------------------------------


 k-point  1 :   0.0000 0.0000 0.0000  plane waves:   13091

 maximum and minimum number of plane-waves per node :     13091    13091

 maximum number of plane-waves:     13091
 maximum index in each direction: 
   IXMAX=   13   IYMAX=   14   IZMAX=   16
   IXMIN=  -13   IYMIN=  -14   IZMIN=  -16

 WARNING: aliasing errors must be expected set NGX to  54 to avoid them
 WARNING: aliasing errors must be expected set NGY to  58 to avoid them
 WARNING: aliasing errors must be expected set NGZ to  66 to avoid them
 aliasing errors are usually negligible using standard VASP settings
 and one can safely disregard these warnings

 serial   3D FFT for wavefunctions
 parallel 3D FFT for charge:
    minimum data exchange during FFTs selected (reduces bandwidth)


 total amount of memory used by VASP on root node    39719. kBytes
========================================================================

   base      :      30000. kBytes
   nonl-proj :       2096. kBytes
   fftplans  :       1660. kBytes
   grid      :       5738. kBytes
   one-center:         15. kBytes
   wavefun   :        210. kBytes
 
     INWAV:  cpu time    0.0000: real time    0.0001
 Broyden mixing: mesh for mixing (old mesh)
   NGX = 27   NGY = 29   NGZ = 33
  (NGX  = 80   NGY  = 96   NGZ  =100)
  gives a total of  25839 points

 initial charge density was supplied:
 charge density of overlapping atoms calculated
 number of electron      11.0000000 magnetization 
 keeping initial charge density in first step


--------------------------------------------------------------------------------------------------------


 Maximum index for augmentation-charges          281 (set IRDMAX)


--------------------------------------------------------------------------------------------------------


 First call to EWALD:  gamma=   0.198
 Maximum number of real-space cells 3x 3x 3
 Maximum number of reciprocal cells 3x 3x 3

 FEWALD executed in parallel
    FEWALD:  cpu time    0.0017: real time    0.0017


----------------------------------------- Iteration    1(   1)  ---------------------------------------


    POTLOK:  cpu time    0.0328: real time    0.0329
    SETDIJ:  cpu time    0.0027: real time    0.0027
     EDDAV:  cpu time    0.0432: real time    0.0434
       DOS:  cpu time    0.0004: real time    0.0005
    --------------------------------------------
      LOOP:  cpu time    0.0820: real time    0.0875

 eigenvalue-minimisations  :    48
 total energy-change (2. order) : 0.6530705E+02  (-0.2077058E+03)
 number of electron      11.0000000 magnetization 
 augmentation part       11.0000000 magnetization 

 Free energy of the ion-electron system (eV)
  ---------------------------------------------------
  alpha Z        PSCENC =         1.61777229
  Ewald energy   TEWEN  =      -272.25557010
  -Hartree energ DENC   =      -621.28594168
  -exchange      EXHF   =         0.00000000
  -V(xc)+E(xc)   XCENC  =        13.62964583
  PAW double counting   =       874.09750335     -851.01013482
  entropy T*S    EENTRO =        -0.02521326
  eigenvalues    EBANDS =        -5.54153051
  atomic energy  EATOM  =       926.08051877
  Solvation  Ediel_sol  =         0.00000000
  ---------------------------------------------------
  free energy    TOTEN  =        65.30704987 eV

  energy without entropy =       65.33226313  energy(sigma->0) =       65.31545429


--------------------------------------------------------------------------------------------------------




----------------------------------------- Iteration    1(   2)  ---------------------------------------


     EDDAV:  cpu time    0.0485: real time    0.0487
       DOS:  cpu time    0.0003: real time    0.0003
    --------------------------------------------
      LOOP:  cpu time    0.0502: real time    0.0517

 eigenvalue-minimisations  :    72
 total energy-change (2. order) :-0.6200577E+02  (-0.6206708E+02)
 number of electron      11.0000000 magnetization 
 augmentation part       11.0000000 magnetization 

 Free energy of the ion-electron system (eV)
  ---------------------------------------------------
  alpha Z        PSCENC =         1.61777229
  Ewald energy   TEWEN  =      -272.25557010
  -Hartree energ DENC   =      -621.28594168
  -exchange      EXHF   =         0.00000000
  -V(xc)+E(xc)   XCENC  =        13.62964583
  PAW double counting   =       874.09750335     -851.01013482
  entropy T*S    EENTRO =        -0.02820947
  eigenvalues    EBANDS =       -67.54430569
  atomic energy  EATOM  =       926.08051877
  Solvation  Ediel_sol  =         0.00000000
  ---------------------------------------------------
  free energy    TOTEN  =         3.30127849 eV

  energy without entropy =        3.32948796  energy(sigma->0) =        3.31068164


--------------------------------------------------------------------------------------------------------




----------------------------------------- Iteration    1(   3)  ---------------------------------------


     EDDAV:  cpu time    0.0342: real time    0.0344
       DOS:  cpu time    0.0003: real time    0.0003
    --------------------------------------------
      LOOP:  cpu time    0.0355: real time    0.0429

 eigenvalue-minimisations  :    48
 total energy-change (2. order) :-0.3329802E+01  (-0.3329802E+01)
 number of electron      11.0000000 magnetization 
 augmentation part       11.0000000 magnetization 

 Free energy of the ion-electron system (eV)
  ---------------------------------------------------
  alpha Z        PSCENC =         1.61777229
  Ewald energy   TEWEN  =      -272.25557010
  -Hartree energ DENC   =      -621.28594168
  -exchange      EXHF   =         0.00000000
  -V(xc)+E(xc)   XCENC  =        13.62964583
  PAW double counting   =       874.09750335     -851.01013482
  entropy T*S    EENTRO =        -0.02820948
  eigenvalues    EBANDS =       -70.87410793
  atomic energy  EATOM  =       926.08051877
  Solvation  Ediel_sol  =         0.00000000
  ---------------------------------------------------
  free energy    TOTEN  =        -0.02852377 eV

  energy without entropy =       -0.00031429  energy(sigma->0) =       -0.01912061


--------------------------------------------------------------------------------------------------------




----------------------------------------- Iteration    1(   4)  ---------------------------------------


     EDDAV:  cpu time    0.0340: real time    0.0341
       DOS:  cpu time    0.0003: real time    0.0003
    --------------------------------------------
      LOOP:  cpu time    0.0354: real time    0.0378

 eigenvalue-minimisations  :    48
 total energy-change (2. order) :-0.1485735E-01  (-0.1485735E-01)
 number of electron      11.0000000 magnetization 
 augmentation part       11.0000000 magnetization 

 Free energy of the ion-electron system (eV)
  ---------------------------------------------------
  alpha Z        PSCENC =         1.61777229
  Ewald energy   TEWEN  =      -272.25557010
  -Hartree energ DENC   =      -621.28594168
  -exchange      EXHF   =         0.00000000
  -V(xc)+E(xc)   XCENC  =        13.62964583
  PAW double counting   =       874.09750335     -851.01013482
  entropy T*S    EENTRO =        -0.02820948
  eigenvalues    EBANDS =       -70.88896528
  atomic energy  EATOM  =       926.08051877
  Solvation  Ediel_sol  =         0.00000000
  ---------------------------------------------------
  free energy    TOTEN  =        -0.04338112 eV

  energy without entropy =       -0.01517164  energy(sigma->0) =       -0.03397796


--------------------------------------------------------------------------------------------------------




----------------------------------------- Iteration    1(   5)  ---------------------------------------


     EDDAV:  cpu time    0.0343: real time    0.0345
       DOS:  cpu time    0.0003: real time    0.0003
    CHARGE:  cpu time    0.0192: real time    0.0192
    MIXING:  cpu time    0.0012: real time    0.0014
    --------------------------------------------
      LOOP:  cpu time    0.0560: real time    0.0580

 eigenvalue-minimisations  :    48
 total energy-change (2. order) :-0.2259046E-03  (-0.2259042E-03)
 number of electron      11.0000008 magnetization 
 augmentation part        4.1597451 magnetization 

 Broyden mixing:
  rms(total) = 0.45822E-02    rms(broyden)= 0.41271E-02
  rms(prec ) = 0.45609E-02
  weight for this iteration     100.00

 Free energy of the ion-electron system (eV)
  ---------------------------------------------------
  alpha Z        PSCENC =         1.61777229
  Ewald energy   TEWEN  =      -272.25557010
  -Hartree energ DENC   =      -621.28594168
  -exchange      EXHF   =         0.00000000
  -V(xc)+E(xc)   XCENC  =        13.62964583
  PAW double counting   =       874.09750335     -851.01013482
  entropy T*S    EENTRO =        -0.02820948
  eigenvalues    EBANDS =       -70.88919119
  atomic energy  EATOM  =       926.08051877
  Solvation  Ediel_sol  =         0.00000000
  ---------------------------------------------------
  free energy    TOTEN  =        -0.04360703 eV

  energy without entropy =       -0.01539755  energy(sigma->0) =       -0.03420387


--------------------------------------------------------------------------------------------------------




----------------------------------------- Iteration    1(   6)  ---------------------------------------


    POTLOK:  cpu time    0.0243: real time    0.0244
    SETDIJ:  cpu time    0.0018: real time    0.0018
     EDDAV:  cpu time    0.0359: real time    0.0361
       DOS:  cpu time    0.0003: real time    0.0003
    --------------------------------------------
      LOOP:  cpu time    0.0633: real time    0.0653

 eigenvalue-minimisations  :    48
 total energy-change (2. order) :-0.7313317E-04  (-0.5934082E-05)
 number of electron      11.0000008 magnetization 
 augmentation part        4.1597451 magnetization 

 Free energy of the ion-electron system (eV)
  ---------------------------------------------------
  alpha Z        PSCENC =         1.61777229
  Ewald energy   TEWEN  =      -272.25557010
  -Hartree energ DENC   =      -621.24635659
  -exchange      EXHF   =         0.00000000
  -V(xc)+E(xc)   XCENC  =        13.62783124
  PAW double counting   =       873.69729332     -850.60665253
  entropy T*S    EENTRO =        -0.02820948
  eigenvalues    EBANDS =       -70.93030708
  atomic energy  EATOM  =       926.08051877
  Solvation  Ediel_sol  =         0.00000000
  ---------------------------------------------------
  free energy    TOTEN  =        -0.04368016 eV

  energy without entropy =       -0.01547068  energy(sigma->0) =       -0.03427700


--------------------------------------------------------------------------------------------------------




 average (electrostatic) potential at core
  the test charge radii are     1.2098
  (the norm of the test charge is              1.0000)
       1 -76.0678
 
 
 
 E-fermi :  -5.4378     XC(G=0):  -1.1557     alpha+bet : -0.3298


 k-point     1 :       0.0000    0.0000    0.0000
  band No.  band energies     occupation 
      1      -6.5498      2.00000
      2      -6.5493      2.00000
      3      -6.5492      2.00000
      4      -6.5490      2.00000
      5      -6.5489      2.00000
      6      -5.4378      1.00000
      7      -0.4119      0.00000
      8      -0.3220      0.00000
      9      -0.1608      0.00000
     10       0.0337      0.00000
     11       1.2731      0.00000
     12       1.5559      0.00000
     13       2.1307      0.00000
     14       2.3697      0.00000
     15       2.5036      0.00000
     16       2.6259      0.00000
     17       2.7563      0.00000
     18       3.0420      0.00000
     19       3.1855      0.00000
     20       3.2958      0.00000
     21       3.2991      0.00000
     22       3.3759      0.00000
     23       3.6496      0.00000
     24       3.7650      0.00000


--------------------------------------------------------------------------------------------------------


 soft charge-density along one line, spin component           1
         0         1         2         3         4         5         6         7         8         9
 total charge-density along one line
 
 pseudopotential strength for first ion, spin component:           1
 -8.970   0.000  -0.000   0.000   0.000  -9.098   0.000  -0.000
  0.000  -8.970   0.000   0.000  -0.000   0.000  -9.098   0.000
 -0.000   0.000  -8.970   0.000   0.000  -0.000   0.000  -9.098
  0.000   0.000   0.000  -8.970  -0.000   0.000   0.000   0.000
  0.000  -0.000   0.000  -0.000  -8.970   0.000  -0.000   0.000
 -9.098   0.000  -0.000   0.000   0.000  -9.211   0.000  -0.000
  0.000  -9.098   0.000   0.000  -0.000   0.000  -9.211   0.000
 -0.000   0.000  -9.098   0.000   0.000  -0.000   0.000  -9.211
  0.000   0.000   0.000  -9.098  -0.000   0.000   0.000   0.000
  0.000  -0.000   0.000  -0.000  -9.099   0.000  -0.000   0.000
 -0.000  -0.000  -0.000   0.000   0.000  -0.000  -0.000  -0.000
 -0.000  -0.000  -0.000   0.000   0.000  -0.000  -0.000  -0.000
  0.000  -0.000   0.000   0.000   0.000   0.000  -0.000   0.000
  0.000  -0.000   0.000   0.000   0.000   0.000  -0.000   0.000
 -0.000   0.000   0.000  -0.000  -0.000  -0.000   0.000   0.000
  0.000  -0.000   0.000   0.000   0.000   0.000  -0.000   0.000
  0.000  -0.000   0.000   0.000   0.000   0.000  -0.000   0.000
 -0.000   0.000   0.000  -0.000  -0.000  -0.000   0.000   0.000
 total augmentation occupancy for first ion, spin component:           1
  2.016   0.000  -0.000   0.000   0.000  -0.008   0.000  -0.000   0.000   0.000  -0.000  -0.000   0.000   0.000   0.000   0.000
  0.000   2.015   0.000  -0.000   0.000   0.000  -0.008   0.000   0.000   0.000   0.000   0.000   0.000   0.000   0.000   0.000
 -0.000   0.000   2.014   0.000   0.001   0.000   0.000  -0.007   0.000  -0.000  -0.001   0.002   0.000   0.000   0.000   0.000
  0.000  -0.000   0.000   2.015   0.000   0.000   0.000   0.000  -0.007   0.000   0.000   0.000   0.000   0.000   0.000   0.000
  0.000   0.000   0.001   0.000   2.012   0.000   0.000  -0.001   0.000  -0.006  -0.001  -0.000   0.000   0.000   0.000   0.000
 -0.008   0.000   0.000   0.000   0.000   0.000   0.000   0.000   0.000  -0.000  -0.000  -0.000   0.000   0.000   0.000   0.000
  0.000  -0.008   0.000   0.000   0.000   0.000   0.000   0.000  -0.000   0.000   0.000   0.000   0.000   0.000   0.000   0.000
 -0.000   0.000  -0.007   0.000  -0.001   0.000   0.000   0.000   0.000   0.000  -0.001  -0.000   0.000   0.000   0.000   0.000
  0.000   0.000   0.000  -0.007   0.000   0.000  -0.000   0.000   0.000   0.000   0.000   0.000   0.000   0.000   0.000   0.000
  0.000   0.000  -0.000   0.000  -0.006  -0.000   0.000   0.000   0.000   0.000   0.001   0.000   0.000   0.000   0.000   0.000
 -0.000   0.000  -0.001   0.000  -0.001  -0.000   0.000  -0.001   0.000   0.001   0.980   0.005   0.000   0.000   0.000   0.000
 -0.000   0.000   0.002   0.000  -0.000  -0.000   0.000  -0.000   0.000   0.000   0.005   0.000   0.000   0.000   0.000   0.000
  0.000   0.000   0.000   0.000   0.000   0.000   0.000   0.000   0.000   0.000   0.000   0.000   0.000   0.000  -0.000  -0.000
  0.000   0.000   0.000   0.000   0.000   0.000   0.000   0.000   0.000   0.000   0.000   0.000   0.000   0.000   0.000   0.000
  0.000   0.000   0.000   0.000   0.000   0.000   0.000   0.000   0.000   0.000   0.000   0.000  -0.000   0.000   0.000   0.000
  0.000   0.000   0.000   0.000   0.000   0.000   0.000   0.000   0.000   0.000   0.000   0.000  -0.000   0.000  -0.000   0.000
  0.000   0.000   0.000   0.000   0.000   0.000   0.000   0.000   0.000   0.000   0.000   0.000   0.000  -0.000   0.000   0.000
  0.000   0.000   0.000   0.000   0.000   0.000   0.000   0.000   0.000   0.000   0.000   0.000  -0.000   0.000  -0.000   0.000


------------------------ aborting loop because EDIFF is reached ----------------------------------------


    CHARGE:  cpu time    0.0225: real time    0.0226
    FORLOC:  cpu time    0.0008: real time    0.0008
    FORNL :  cpu time    0.0081: real time    0.0081
    STRESS:  cpu time    0.0701: real time    0.0703
    FORCOR:  cpu time    0.0221: real time    0.0222
    FORHAR:  cpu time    0.0062: real time    0.0062
    MIXING:  cpu time    0.0018: real time    0.0018
    OFIELD:  cpu time    0.0001: real time    0.0001

  FORCE on cell =-STRESS in cart. coord.  units (eV):
  Direction    XX          YY          ZZ          XY          YZ          ZX
  --------------------------------------------------------------------------------------
  Alpha Z     1.61777     1.61777     1.61777
  Ewald     -58.49678   -91.23187  -122.52691    -0.00000     0.00000    -0.00000
  Hartree   237.39996   206.72248   176.96775    -0.00000    -0.00000    -0.00000
  E(xc)     -49.06805   -49.06813   -49.06823    -0.00000    -0.00000     0.00000
  Local    -346.37842  -282.95194  -221.90099    -0.00000     0.00000     0.00000
  n-local   -10.11057   -10.11262   -10.11202    -0.00019     0.00032    -0.00016
  augment    67.98808    67.99127    67.99046    -0.00000     0.00000     0.00000
  Kinetic   156.94147   156.97505   156.98501     0.00040    -0.00033     0.00020
  Fock        0.00000     0.00000     0.00000     0.00000     0.00000     0.00000
  -------------------------------------------------------------------------------------
  Total      -0.10655    -0.05799    -0.04717     0.00000     0.00000     0.00000
  in kB      -0.23709    -0.12904    -0.10496     0.00000     0.00000     0.00000
  external pressure =       -0.16 kB  Pullay stress =        0.00 kB


 VOLUME and BASIS-vectors are now :
 -----------------------------------------------------------------------------
  energy-cutoff  :      400.00
  volume of cell :      720.00
      direct lattice vectors                 reciprocal lattice vectors
     8.000000000  0.000000000  0.000000000     0.125000000  0.000000000  0.000000000
     0.000000000  9.000000000  0.000000000     0.000000000  0.111111111  0.000000000
     0.000000000  0.000000000 10.000000000     0.000000000  0.000000000  0.100000000

  length of vectors
     8.000000000  9.000000000 10.000000000     0.125000000  0.111111111  0.100000000


 FORCES acting on ions
    electron-ion (+dipol)            ewald-force                    non-local-force                 convergence-correction
 -----------------------------------------------------------------------------------------------
   0.621E-14 0.258E-11 -.143E-11   -.376E-15 0.199E-15 0.208E-16   0.000E+00 0.000E+00 0.000E+00   -.359E-14 -.871E-12 0.931E-12
 -----------------------------------------------------------------------------------------------
   0.621E-14 0.258E-11 -.143E-11   -.376E-15 0.199E-15 0.208E-16   0.000E+00 0.000E+00 0.000E+00   -.359E-14 -.871E-12 0.931E-12
 
 
 POSITION                                       TOTAL-FORCE (eV/Angst)
 -----------------------------------------------------------------------------------
      4.00000      4.50000      5.00000         0.000000      0.000000      0.000000
 -----------------------------------------------------------------------------------
    total drift:                                0.000000      0.000000     -0.000000


--------------------------------------------------------------------------------------------------------



  FREE ENERGIE OF THE ION-ELECTRON SYSTEM (eV)
  ---------------------------------------------------
  free  energy   TOTEN  =        -0.04368016 eV

  energy  without entropy=       -0.01547068  energy(sigma->0) =       -0.03427700
 


--------------------------------------------------------------------------------------------------------


    POTLOK:  cpu time    0.0448: real time    0.0453


--------------------------------------------------------------------------------------------------------


     LOOP+:  cpu time    0.5050: real time    0.5377
    4ORBIT:  cpu time    0.0000: real time    0.0000

 total amount of memory used by VASP on root node    39719. kBytes
========================================================================

   base      :      30000. kBytes
   nonl-proj :       2096. kBytes
   fftplans  :       1660. kBytes
   grid      :       5738. kBytes
   one-center:         15. kBytes
   wavefun   :        210. kBytes
 
  
  
 General timing and accounting informations for this job:
 ========================================================
  
                  Total CPU time used (sec):        0.991
                            User time (sec):        0.863
                          System time (sec):        0.129
                         Elapsed time (sec):        1.166
  
                   Maximum memory used (kb):       74104.
                   Average memory used (kb):           0.
  
                          Minor page faults:        12085
                          Major page faults:           10
                 Voluntary context switches:         1461
