   4   4   0   0
  0.1565452E+02  0.3971000E-09  0.3971000E-09  0.3971000E-09  0.5000000E-15
  1.000000000000000E-004
  CAR 
 unknown system                          
     36.63887135     -4.72621162  301      4.48966201      1.00000000
     -4.726  0.0000E+00  0.0000E+00
     -4.588  0.0000E+00  0.0000E+00
     -4.450  0.0000E+00  0.0000E+00
     -4.313  0.0000E+00  0.0000E+00
     -4.175  0.0000E+00  0.0000E+00
     -4.037  0.0000E+00  0.0000E+00
     -3.899  0.0000E+00  0.0000E+00
     -3.761 -0.2222E-37 -0.3064E-38
     -3.623 -0.2565E-27 -0.3537E-28
     -3.485 -0.6401E-19 -0.8826E-20
     -3.347 -0.3266E-12 -0.4504E-13
     -3.209 -0.3452E-07 -0.4760E-08
     -3.072 -0.6436E-04 -0.8878E-05
     -2.934 -0.7527E-03 -0.1127E-03
     -2.796  0.1961E-01  0.2591E-02
     -2.658  0.1340E+00  0.2106E-01
     -2.520  0.2515E+00  0.5574E-01
     -2.382  0.1590E+00  0.7766E-01
     -2.244  0.2961E+00  0.1185E+00
     -2.106  0.5827E+00  0.1988E+00
     -1.969  0.1776E+00  0.2233E+00
     -1.831  0.2362E+00  0.2559E+00
     -1.693  0.6459E+00  0.3449E+00
     -1.555  0.5887E+00  0.4261E+00
     -1.417  0.4060E+00  0.4821E+00
     -1.279  0.4327E+00  0.5418E+00
     -1.141  0.9916E+00  0.6785E+00
     -1.003  0.7943E-01  0.6894E+00
     -0.865  0.6523E+00  0.7794E+00
     -0.728  0.1022E+01  0.9203E+00
     -0.590  0.6490E+00  0.1010E+01
     -0.452  0.9957E+00  0.1147E+01
     -0.314  0.8632E+00  0.1266E+01
     -0.176  0.2493E+00  0.1301E+01
     -0.038  0.8401E+00  0.1416E+01
      0.100  0.1776E+01  0.1661E+01
      0.238  0.1074E+01  0.1809E+01
      0.375  0.1266E+01  0.1984E+01
      0.513  0.1007E+01  0.2123E+01
      0.651  0.1595E+01  0.2343E+01
      0.789  0.3145E+01  0.2776E+01
      0.927  0.2453E+01  0.3115E+01
      1.065  0.4262E+01  0.3702E+01
      1.203  0.6181E+01  0.4555E+01
      1.341  0.6811E+01  0.5494E+01
      1.479  0.9252E+01  0.6769E+01
      1.616  0.1260E+02  0.8506E+01
      1.754  0.1281E+02  0.1027E+02
      1.892  0.1279E+02  0.1204E+02
      2.030  0.1447E+02  0.1403E+02
      2.168  0.2020E+02  0.1682E+02
      2.306  0.2268E+02  0.1994E+02
      2.444  0.2748E+02  0.2373E+02
      2.582  0.1739E+02  0.2613E+02
      2.720  0.1900E+02  0.2875E+02
      2.857  0.2377E+02  0.3203E+02
      2.995  0.1976E+02  0.3475E+02
      3.133  0.2769E+02  0.3857E+02
      3.271  0.2253E+02  0.4168E+02
      3.409  0.3781E+01  0.4220E+02
      3.547  0.9881E+00  0.4233E+02
      3.685  0.2101E+01  0.4262E+02
      3.823  0.2156E+01  0.4292E+02
      3.960  0.1457E+01  0.4312E+02
      4.098  0.2772E+00  0.4316E+02
      4.236  0.1919E+01  0.4343E+02
      4.374  0.2380E+01  0.4375E+02
      4.512  0.2069E+01  0.4404E+02
      4.650  0.7594E+00  0.4414E+02
      4.788  0.6212E+00  0.4423E+02
      4.926  0.5834E+00  0.4431E+02
      5.064  0.2666E+01  0.4468E+02
      5.201  0.1598E+01  0.4490E+02
      5.339  0.7871E+00  0.4501E+02
      5.477  0.1712E+01  0.4524E+02
      5.615  0.8355E+00  0.4536E+02
      5.753  0.1208E+01  0.4552E+02
      5.891  0.2856E+00  0.4556E+02
      6.029  0.1401E+01  0.4576E+02
      6.167  0.2025E+01  0.4604E+02
      6.304  0.5541E+00  0.4611E+02
      6.442  0.1704E+01  0.4635E+02
      6.580  0.1467E+01  0.4655E+02
      6.718  0.6981E+00  0.4665E+02
      6.856  0.6113E+00  0.4673E+02
      6.994  0.4593E+00  0.4679E+02
      7.132  0.5295E+00  0.4687E+02
      7.270  0.1957E+01  0.4714E+02
      7.408  0.1342E+01  0.4732E+02
      7.545  0.2408E+01  0.4765E+02
      7.683  0.9489E+00  0.4778E+02
      7.821  0.8558E+00  0.4790E+02
      7.959  0.7680E+00  0.4801E+02
      8.097  0.2429E+01  0.4834E+02
      8.235  0.1336E+01  0.4853E+02
      8.373  0.7517E+00  0.4863E+02
      8.511  0.1140E+01  0.4879E+02
      8.648  0.1889E+01  0.4905E+02
      8.786  0.1067E+01  0.4919E+02
      8.924  0.8168E+00  0.4931E+02
      9.062  0.3868E+00  0.4936E+02
      9.200  0.2300E+01  0.4968E+02
      9.338  0.1941E+01  0.4995E+02
      9.476  0.1071E+01  0.5009E+02
      9.614  0.9310E+00  0.5022E+02
      9.752  0.5807E+00  0.5030E+02
      9.889  0.1144E+01  0.5046E+02
     10.027  0.8573E+00  0.5058E+02
     10.165  0.9766E+00  0.5071E+02
     10.303  0.2366E+01  0.5104E+02
     10.441  0.1100E+01  0.5119E+02
     10.579  0.1726E+01  0.5143E+02
     10.717  0.2311E+01  0.5175E+02
     10.855  0.1268E+01  0.5192E+02
     10.993  0.6720E+00  0.5201E+02
     11.130  0.1816E+01  0.5226E+02
     11.268  0.1601E+01  0.5249E+02
     11.406  0.1591E+01  0.5270E+02
     11.544  0.1492E+01  0.5291E+02
     11.682  0.5445E+00  0.5299E+02
     11.820  0.2995E+01  0.5340E+02
     11.958  0.2207E+01  0.5370E+02
     12.096  0.1511E+01  0.5391E+02
     12.233  0.1758E+01  0.5415E+02
     12.371  0.1887E+01  0.5441E+02
     12.509  0.1070E+01  0.5456E+02
     12.647  0.1585E+01  0.5478E+02
     12.785  0.1369E+01  0.5497E+02
     12.923  0.1217E+01  0.5514E+02
     13.061  0.1999E+01  0.5541E+02
     13.199  0.8395E+00  0.5553E+02
     13.337  0.1032E+01  0.5567E+02
     13.474  0.2829E+01  0.5606E+02
     13.612  0.3086E+01  0.5649E+02
     13.750  0.1061E+01  0.5663E+02
     13.888  0.2665E+01  0.5700E+02
     14.026  0.1776E+01  0.5724E+02
     14.164  0.1204E+01  0.5741E+02
     14.302  0.1606E+01  0.5763E+02
     14.440  0.9409E+00  0.5776E+02
     14.577  0.2998E+01  0.5818E+02
     14.715  0.2328E+01  0.5850E+02
     14.853  0.5352E+00  0.5857E+02
     14.991  0.2086E+01  0.5886E+02
     15.129  0.2923E+01  0.5926E+02
     15.267  0.1779E+01  0.5951E+02
     15.405  0.1282E+01  0.5968E+02
     15.543  0.1165E+01  0.5984E+02
     15.681  0.2871E+01  0.6024E+02
     15.818  0.1559E+01  0.6045E+02
     15.956  0.2804E+01  0.6084E+02
     16.094  0.1074E+01  0.6099E+02
     16.232  0.2333E+01  0.6131E+02
     16.370  0.3318E+01  0.6177E+02
     16.508  0.1562E+01  0.6198E+02
     16.646  0.1488E+01  0.6219E+02
     16.784  0.2603E+01  0.6255E+02
     16.922  0.3479E+01  0.6303E+02
     17.059  0.1028E+01  0.6317E+02
     17.197  0.1993E+01  0.6344E+02
     17.335  0.1291E+01  0.6362E+02
     17.473  0.8559E+00  0.6374E+02
     17.611  0.2734E+01  0.6412E+02
     17.749  0.2001E+01  0.6439E+02
     17.887  0.1847E+01  0.6465E+02
     18.025  0.1695E+01  0.6488E+02
     18.162  0.1588E+00  0.6490E+02
     18.300  0.1246E+01  0.6507E+02
     18.438  0.2690E+01  0.6545E+02
     18.576  0.1607E+01  0.6567E+02
     18.714  0.1589E+01  0.6589E+02
     18.852  0.2126E+01  0.6618E+02
     18.990  0.1695E+01  0.6641E+02
     19.128  0.5413E+00  0.6649E+02
     19.266  0.1929E+01  0.6675E+02
     19.403  0.1226E+01  0.6692E+02
     19.541  0.1161E+01  0.6708E+02
     19.679  0.1847E+01  0.6734E+02
     19.817  0.2184E+01  0.6764E+02
     19.955  0.1097E+01  0.6779E+02
     20.093  0.1508E+01  0.6800E+02
     20.231  0.1544E+01  0.6821E+02
     20.369  0.1801E+01  0.6846E+02
     20.506  0.2121E+01  0.6875E+02
     20.644  0.2398E+01  0.6908E+02
     20.782  0.1362E+01  0.6927E+02
     20.920  0.1376E+01  0.6946E+02
     21.058  0.1651E+01  0.6969E+02
     21.196  0.1746E+01  0.6993E+02
     21.334  0.3080E+01  0.7035E+02
     21.472  0.1667E+01  0.7058E+02
     21.610  0.1677E+01  0.7081E+02
     21.747  0.2433E+01  0.7115E+02
     21.885  0.1968E+01  0.7142E+02
     22.023  0.3812E+01  0.7195E+02
     22.161  0.1437E+01  0.7214E+02
     22.299  0.2570E+01  0.7250E+02
     22.437  0.1348E+01  0.7268E+02
     22.575  0.3053E+01  0.7311E+02
     22.713  0.3539E+01  0.7359E+02
     22.851  0.3389E+01  0.7406E+02
     22.988  0.3234E+01  0.7451E+02
     23.126  0.3552E+01  0.7500E+02
     23.264  0.2015E+01  0.7527E+02
     23.402  0.2702E+01  0.7565E+02
     23.540  0.2063E+01  0.7593E+02
     23.678  0.2352E+01  0.7626E+02
     23.816  0.3360E+01  0.7672E+02
     23.954  0.1675E+01  0.7695E+02
     24.091  0.1590E+01  0.7717E+02
     24.229  0.1289E+01  0.7735E+02
     24.367  0.6001E+01  0.7817E+02
     24.505  0.1441E+01  0.7837E+02
     24.643  0.1275E+01  0.7855E+02
     24.781  0.1065E+01  0.7870E+02
     24.919  0.1466E+01  0.7890E+02
     25.057  0.1431E+01  0.7909E+02
     25.195  0.4644E+01  0.7973E+02
     25.332  0.2604E+01  0.8009E+02
     25.470  0.2571E+01  0.8045E+02
     25.608  0.1372E+01  0.8064E+02
     25.746  0.9280E+00  0.8077E+02
     25.884  0.2367E+01  0.8109E+02
     26.022  0.3152E+01  0.8153E+02
     26.160  0.1578E+01  0.8174E+02
     26.298  0.1656E+01  0.8197E+02
     26.435  0.7097E+00  0.8207E+02
     26.573  0.1207E+01  0.8224E+02
     26.711  0.7550E+00  0.8234E+02
     26.849  0.2113E+00  0.8237E+02
     26.987  0.1251E+01  0.8254E+02
     27.125  0.5493E+00  0.8262E+02
     27.263  0.2425E+01  0.8295E+02
     27.401  0.1720E+01  0.8319E+02
     27.539  0.3934E+01  0.8373E+02
     27.676  0.3653E+01  0.8424E+02
     27.814  0.5138E+01  0.8494E+02
     27.952  0.2894E+01  0.8534E+02
     28.090  0.1657E+01  0.8557E+02
     28.228  0.1879E+01  0.8583E+02
     28.366  0.2182E+01  0.8613E+02
     28.504  0.8019E+00  0.8624E+02
     28.642  0.1018E+01  0.8638E+02
     28.780  0.3135E+01  0.8681E+02
     28.917  0.2994E+01  0.8723E+02
     29.055  0.2439E+01  0.8756E+02
     29.193  0.2945E+01  0.8797E+02
     29.331  0.1469E+01  0.8817E+02
     29.469  0.1460E+01  0.8837E+02
     29.607  0.2727E+01  0.8875E+02
     29.745  0.8328E+00  0.8886E+02
     29.883  0.1887E+01  0.8912E+02
     30.020  0.4203E+01  0.8970E+02
     30.158  0.2067E+01  0.8999E+02
     30.296  0.2628E+01  0.9035E+02
     30.434  0.2444E+01  0.9069E+02
     30.572  0.1481E+01  0.9089E+02
     30.710  0.3142E+01  0.9133E+02
     30.848  0.2818E+01  0.9171E+02
     30.986  0.1784E+01  0.9196E+02
     31.124  0.1240E+01  0.9213E+02
     31.261  0.3297E+01  0.9259E+02
     31.399  0.2306E+01  0.9290E+02
     31.537  0.2236E+01  0.9321E+02
     31.675  0.3699E+01  0.9372E+02
     31.813  0.3078E+01  0.9415E+02
     31.951  0.8739E+00  0.9427E+02
     32.089  0.1599E+01  0.9449E+02
     32.227  0.5766E+00  0.9457E+02
     32.364  0.1135E+01  0.9472E+02
     32.502  0.1113E+01  0.9488E+02
     32.640  0.8283E+00  0.9499E+02
     32.778  0.8005E+00  0.9510E+02
     32.916  0.1835E+01  0.9535E+02
     33.054  0.1408E+01  0.9555E+02
     33.192  0.6581E+00  0.9564E+02
     33.330  0.6312E+00  0.9573E+02
     33.468  0.5169E+00  0.9580E+02
     33.605  0.5984E-01  0.9581E+02
     33.743  0.7201E+00  0.9591E+02
     33.881  0.3265E+00  0.9595E+02
     34.019 -0.2519E-01  0.9595E+02
     34.157  0.6543E-01  0.9596E+02
     34.295  0.1902E+00  0.9598E+02
     34.433  0.1017E+00  0.9600E+02
     34.571  0.5732E-02  0.9600E+02
     34.709  0.2022E-02  0.9600E+02
     34.846  0.1747E-01  0.9600E+02
     34.984 -0.8131E-04  0.9600E+02
     35.122 -0.6378E-04  0.9600E+02
     35.260 -0.3451E-07  0.9600E+02
     35.398 -0.3266E-12  0.9600E+02
     35.536  0.0000E+00  0.9600E+02
     35.674  0.0000E+00  0.9600E+02
     35.812  0.0000E+00  0.9600E+02
     35.949  0.0000E+00  0.9600E+02
     36.087  0.0000E+00  0.9600E+02
     36.225  0.0000E+00  0.9600E+02
     36.363  0.0000E+00  0.9600E+02
     36.501  0.0000E+00  0.9600E+02
     36.639  0.0000E+00  0.9600E+02
