    4    4    1    1
  0.1565452E+02  0.3971000E-09  0.3971000E-09  0.3971000E-09  0.5000000E-15
  1.000000000000000E-004
  CAR 
 unknown system                          
     44     35     48
 
  0.0000000E+00  0.0000000E+00  0.0000000E+00  0.1371742E-02
    1       -2.845981   1.000000
    2        1.074835   1.000000
    3        1.074835   1.000000
    4        1.074835   1.000000
    5        1.374259   1.000000
    6        1.374259   1.000000
    7        1.374259   1.000000
    8        2.266929   1.000000
    9        2.266929   1.000000
   10        2.266929   1.000000
   11        2.799217   1.000000
   12        2.799217   1.000000
   13        3.155984   1.000000
   14        3.155984   1.000000
   15        3.155984   1.000000
   16        3.257217   1.000000
   17        3.257217   1.000000
   18        3.257217   1.000000
   19        3.257217   1.000000
   20        3.257217   1.000000
   21        3.257217   1.000000
   22        6.271838  -0.000000
   23        6.271838  -0.000000
   24        6.271838  -0.000000
   25        9.905173   0.000000
   26        9.905173   0.000000
   27        9.905173   0.000000
   28       15.638944   0.000000
   29       15.638944   0.000000
   30       15.638944   0.000000
   31       15.638944   0.000000
   32       15.638944   0.000000
   33       15.638944   0.000000
   34       19.535483   0.000000
   35       19.535483   0.000000
   36       19.535483   0.000000
   37       20.745214   0.000000
   38       20.745214   0.000000
   39       20.745214   0.000000
   40       24.886492   0.000000
   41       25.504412   0.000000
   42       25.504412   0.000000
   43       25.504412   0.000000
   44       28.043863   0.000000
   45       28.043863   0.000000
   46       28.043863   0.000000
   47       31.497205   0.000000
   48       34.758640   0.000000
 
  0.1111111E+00  0.0000000E+00  0.0000000E+00  0.8230453E-02
    1       -2.723174   1.000000
    2        1.066188   1.000000
    3        1.124044   1.000000
    4        1.124044   1.000000
    5        1.400324   1.000000
    6        1.402469   1.000000
    7        1.402469   1.000000
    8        2.239191   1.000000
    9        2.290136   1.000000
   10        2.290136   1.000000
   11        2.774180   1.000000
   12        2.809802   1.000000
   13        3.116501   1.000000
   14        3.116501   1.000000
   15        3.123766   1.000000
   16        3.123766   1.000000
   17        3.144847   1.000000
   18        3.218562   1.000000
   19        3.218562   1.000000
   20        3.256899   1.000000
   21        3.256899   1.000000
   22        5.405663  -0.000000
   23        6.527737  -0.000000
   24        6.527737  -0.000000
   25        9.962123   0.000000
   26        9.962123   0.000000
   27       11.032661   0.000000
   28       14.852955   0.000000
   29       14.852955   0.000000
   30       15.034521   0.000000
   31       15.034521   0.000000
   32       15.808668   0.000000
   33       15.808668   0.000000
   34       19.602579   0.000000
   35       20.492313   0.000000
   36       20.492313   0.000000
   37       20.800615   0.000000
   38       21.612914   0.000000
   39       21.612914   0.000000
   40       24.255808   0.000000
   41       24.375163   0.000000
   42       24.375163   0.000000
   43       25.083357   0.000000
   44       28.930429   0.000000
   45       29.312082   0.000000
   46       29.312082   0.000000
   47       31.149267   0.000000
   48       33.324021   0.000000
 
  0.2222222E+00  0.0000000E+00  0.0000000E+00  0.8230453E-02
    1       -2.358261   1.000000
    2        0.991752   1.000000
    3        1.258656   1.000000
    4        1.258656   1.000000
    5        1.475946   1.000000
    6        1.488172   1.000000
    7        1.488172   1.000000
    8        2.159378   1.000000
    9        2.358932   1.000000
   10        2.358932   1.000000
   11        2.704588   1.000000
   12        2.797070   1.000000
   13        2.797070   1.000000
   14        2.840228   1.000000
   15        3.032579   1.000000
   16        3.032579   1.000000
   17        3.111926   1.000000
   18        3.111926   1.000000
   19        3.113422   1.000000
   20        3.257193   1.000000
   21        3.257193   1.000000
   22        4.017693   1.000000
   23        7.192857  -0.000000
   24        7.192857  -0.000000
   25       10.139667   0.000000
   26       10.139667   0.000000
   27       13.247637   0.000000
   28       13.404294   0.000000
   29       13.404294   0.000000
   30       13.869126   0.000000
   31       13.869126   0.000000
   32       16.307687   0.000000
   33       16.307687   0.000000
   34       19.806441   0.000000
   35       20.973689   0.000000
   36       22.454366   0.000000
   37       22.454366   0.000000
   38       22.647501   0.000000
   39       22.647501   0.000000
   40       23.176494   0.000000
   41       23.557827   0.000000
   42       23.557827   0.000000
   43       24.174512   0.000000
   44       28.301719   0.000000
   45       30.773264   0.000000
   46       31.445723   0.000000
   47       31.445723   0.000000
   48       34.364433   0.000000
 
  0.3333333E+00  0.0000000E+00  0.0000000E+00  0.8230453E-02
    1       -1.764067   1.000000
    2        0.664244   1.000000
    3        1.436131   1.000000
    4        1.436131   1.000000
    5        1.592230   1.000000
    6        1.633307   1.000000
    7        1.633307   1.000000
    8        2.038457   1.000000
    9        2.438843   1.000000
   10        2.438843   1.000000
   11        2.470095   1.000000
   12        2.470095   1.000000
   13        2.608364   1.000000
   14        2.887190   1.000000
   15        2.904369   1.000000
   16        2.904369   1.000000
   17        2.958299   1.000000
   18        2.958299   1.000000
   19        2.977985   1.000000
   20        3.065408   1.000000
   21        3.257346   1.000000
   22        3.257346   1.000000
   23        8.122395   0.000000
   24        8.122395   0.000000
   25       10.454048   0.000000
   26       10.454048   0.000000
   27       11.912992   0.000000
   28       11.912992   0.000000
   29       12.737865   0.000000
   30       12.737865   0.000000
   31       15.852306   0.000000
   32       17.109456   0.000000
   33       17.109456   0.000000
   34       20.154117   0.000000
   35       20.985793   0.000000
   36       20.985793   0.000000
   37       21.283355   0.000000
   38       22.168945   0.000000
   39       23.207253   0.000000
   40       24.804058   0.000000
   41       24.804058   0.000000
   42       25.010603   0.000000
   43       25.933438   0.000000
   44       25.933438   0.000000
   45       33.040066   0.000000
   46       33.288029   0.000000
   47       33.288034   0.000000
   48       33.720736   0.000000
 
  0.4444444E+00  0.0000000E+00  0.0000000E+00  0.8230453E-02
    1       -0.973417   1.000000
    2       -0.078870   1.000000
    3        1.574789   1.000000
    4        1.574789   1.000000
    5        1.736508   1.000000
    6        1.841110   1.000000
    7        1.841110   1.000000
    8        1.891415   1.000000
    9        2.111760   1.000000
   10        2.111760   1.000000
   11        2.527064   1.000000
   12        2.563359   1.000000
   13        2.616234   1.000000
   14        2.616234   1.000000
   15        2.784972   1.000000
   16        2.784972   1.000000
   17        2.798526   1.000000
   18        2.798526   1.000000
   19        2.945363   1.000000
   20        3.007313   1.000000
   21        3.257395   1.000000
   22        3.257395   1.000000
   23        9.240483   0.000000
   24        9.240483   0.000000
   25       10.512075   0.000000
   26       10.512075   0.000000
   27       10.891789   0.000000
   28       10.891789   0.000000
   29       11.858465   0.000000
   30       11.858465   0.000000
   31       18.179660   0.000000
   32       18.179660   0.000000
   33       18.705570   0.000000
   34       19.483167   0.000000
   35       19.483167   0.000000
   36       20.656502   0.000000
   37       21.325435   0.000000
   38       21.730404   0.000000
   39       21.755660   0.000000
   40       22.438346   0.000000
   41       27.412703   0.000000
   42       27.412703   0.000000
   43       28.245070   0.000000
   44       28.245070   0.000000
   45       30.246772   0.000000
   46       30.246772   0.000000
   47       33.084921   0.000000
   48       33.084921   0.000000
 
  0.1111111E+00  0.1111111E+00  0.0000000E+00  0.1646091E-01
    1       -2.601095   1.000000
    2        1.118007   1.000000
    3        1.118007   1.000000
    4        1.170415   1.000000
    5        1.427749   1.000000
    6        1.427749   1.000000
    7        1.429458   1.000000
    8        2.224827   1.000000
    9        2.301009   1.000000
   10        2.309326   1.000000
   11        2.768044   1.000000
   12        2.805676   1.000000
   13        3.019778   1.000000
   14        3.042144   1.000000
   15        3.042144   1.000000
   16        3.093856   1.000000
   17        3.137943   1.000000
   18        3.137943   1.000000
   19        3.218522   1.000000
   20        3.218522   1.000000
   21        3.231578   1.000000
   22        5.646423  -0.000000
   23        5.646423  -0.000000
   24        6.765723  -0.000000
   25       10.020829   0.000000
   26       11.113912   0.000000
   27       11.113912   0.000000
   28       13.348393   0.000000
   29       15.009068   0.000000
   30       15.009068   0.000000
   31       15.190318   0.000000
   32       15.190318   0.000000
   33       15.968760   0.000000
   34       20.148231   0.000000
   35       20.574133   0.000000
   36       20.574133   0.000000
   37       21.679374   0.000000
   38       21.679374   0.000000
   39       22.685184   0.000000
   40       22.961971   0.000000
   41       23.054329   0.000000
   42       25.431101   0.000000
   43       25.808493   0.000000
   44       28.193139   0.000000
   45       29.173226   0.000000
   46       30.951550   0.000000
   47       31.830436   0.000000
   48       32.029985   0.000000
 
  0.2222222E+00  0.1111111E+00  0.0000000E+00  0.3292181E-01
    1       -2.238478   1.000000
    2        1.052458   1.000000
    3        1.260158   1.000000
    4        1.297370   1.000000
    5        1.500554   1.000000
    6        1.510443   1.000000
    7        1.510619   1.000000
    8        2.155214   1.000000
    9        2.362830   1.000000
   10        2.363981   1.000000
   11        2.711359   1.000000
   12        2.720374   1.000000
   13        2.745877   1.000000
   14        2.837561   1.000000
   15        2.883678   1.000000
   16        3.008858   1.000000
   17        3.041844   1.000000
   18        3.109418   1.000000
   19        3.111382   1.000000
   20        3.218212   1.000000
   21        3.218718   1.000000
   22        4.290114   1.008112
   23        6.240255  -0.000000
   24        7.399221   0.000000
   25       10.201804   0.000000
   26       11.361598   0.000000
   27       11.774529   0.000000
   28       13.338050   0.000000
   29       13.551851   0.000000
   30       14.010798   0.000000
   31       15.466148   0.000000
   32       15.555227   0.000000
   33       15.648843   0.000000
   34       20.822895   0.000000
   35       21.101298   0.000000
   36       21.261852   0.000000
   37       21.422216   0.000000
   38       21.885985   0.000000
   39       22.548043   0.000000
   40       23.629100   0.000000
   41       24.818703   0.000000
   42       25.133174   0.000000
   43       25.412875   0.000000
   44       28.203960   0.000000
   45       29.436732   0.000000
   46       30.832238   0.000000
   47       33.017225   0.000000
   48       33.035453   0.000000
 
  0.3333333E+00  0.1111111E+00  0.0000000E+00  0.3292181E-01
    1       -1.648673   1.000000
    2        0.740935   1.000000
    3        1.449884   1.000000
    4        1.468466   1.000000
    5        1.612702   1.000000
    6        1.642173   1.000000
    7        1.650512   1.000000
    8        2.040811   1.000000
    9        2.369190   1.000000
   10        2.416924   1.000000
   11        2.433207   1.000000
   12        2.471534   1.000000
   13        2.623326   1.000000
   14        2.645876   1.000000
   15        2.889178   1.000000
   16        2.895974   1.000000
   17        2.914194   1.000000
   18        2.957610   1.000000
   19        3.032404   1.000000
   20        3.216100   1.000000
   21        3.217549   1.000000
   22        3.373447   1.000000
   23        7.035686  -0.000000
   24        8.303484   0.000000
   25       10.267301   0.000000
   26       10.612166   0.000000
   27       11.761771   0.000000
   28       12.060702   0.000000
   29       12.900328   0.000000
   30       14.491280   0.000000
   31       15.915098   0.000000
   32       16.194772   0.000000
   33       16.407027   0.000000
   34       19.637070   0.000000
   35       19.895026   0.000000
   36       21.247980   0.000000
   37       22.252162   0.000000
   38       23.415719   0.000000
   39       23.691892   0.000000
   40       24.411955   0.000000
   41       24.903516   0.000000
   42       25.097962   0.000000
   43       25.968768   0.000000
   44       27.573358   0.000000
   45       31.639218   0.000000
   46       32.291975   0.000000
   47       32.432239   0.000000
   48       33.393683   0.000000
 
  0.4444444E+00  0.1111111E+00  0.0000000E+00  0.3292181E-01
    1       -0.865651   1.000000
    2        0.016024   1.000000
    3        1.604309   1.000000
    4        1.612089   1.000000
    5        1.751260   1.000000
    6        1.815948   1.000000
    7        1.850298   1.000000
    8        1.900071   1.000000
    9        2.058370   1.000000
   10        2.108737   1.000000
   11        2.434195   1.000000
   12        2.436937   1.000000
   13        2.616375   1.000000
   14        2.693150   1.000000
   15        2.784396   1.000000
   16        2.793526   1.000000
   17        2.804074   1.000000
   18        2.860669   1.000000
   19        2.972049   1.000000
   20        3.074147   1.000000
   21        3.216326   1.000000
   22        3.216959   1.000000
   23        7.978679   0.000000
   24        9.066092   0.000000
   25        9.404557   0.000000
   26       10.665398   0.000000
   27       11.065044   0.000000
   28       11.721671   0.000000
   29       12.640986   0.000000
   30       13.446842   0.000000
   31       17.156827   0.000000
   32       17.334646   0.000000
   33       18.314703   0.000000
   34       18.524764   0.000000
   35       18.809056   0.000000
   36       21.839111   0.000000
   37       21.862724   0.000000
   38       22.678897   0.000000
   39       22.802600   0.000000
   40       23.558440   0.000000
   41       25.910162   0.000000
   42       27.515589   0.000000
   43       27.721970   0.000000
   44       29.921123   0.000000
   45       30.167994   0.000000
   46       30.351991   0.000000
   47       33.218959   0.000000
   48       33.654647   0.000000
 
  0.2222222E+00  0.2222222E+00  0.0000000E+00  0.1646091E-01
    1       -1.883285   1.000000
    2        1.220032   1.000000
    3        1.220032   1.000000
    4        1.400853   1.000000
    5        1.574699   1.000000
    6        1.574699   1.000000
    7        1.579598   1.000000
    8        2.120903   1.000000
    9        2.379560   1.000000
   10        2.397888   1.000000
   11        2.534545   1.000000
   12        2.534545   1.000000
   13        2.584308   1.000000
   14        2.692741   1.000000
   15        2.871270   1.000000
   16        2.940147   1.000000
   17        3.028655   1.000000
   18        3.028655   1.000000
   19        3.109992   1.000000
   20        3.109992   1.000000
   21        3.157363   1.000000
   22        4.848623  -0.000002
   23        4.848623  -0.000002
   24        7.970287   0.000000
   25       10.053169   0.000000
   26       10.461144   0.000000
   27       13.573050   0.000000
   28       13.573050   0.000000
   29       13.984110   0.000000
   30       13.984110   0.000000
   31       14.461842   0.000000
   32       14.461842   0.000000
   33       16.922889   0.000000
   34       19.474281   0.000000
   35       19.797924   0.000000
   36       20.594043   0.000000
   37       22.830780   0.000000
   38       22.830780   0.000000
   39       23.847904   0.000000
   40       23.847904   0.000000
   41       26.260285   0.000000
   42       26.569600   0.000000
   43       27.400419   0.000000
   44       27.964654   0.000000
   45       28.649417   0.000000
   46       28.891506   0.000000
   47       32.141587   0.000000
   48       34.186913   0.000000
 
  0.3333333E+00  0.2222222E+00  0.0000000E+00  0.3292181E-01
    1       -1.307951   1.000000
    2        0.954639   1.000000
    3        1.449506   1.000000
    4        1.542560   1.000000
    5        1.673449   1.000000
    6        1.682844   1.000000
    7        1.699825   1.000000
    8        2.037997   1.000000
    9        2.209352   1.000000
   10        2.332383   1.000000
   11        2.345886   1.000000
   12        2.387019   1.000000
   13        2.487283   1.000000
   14        2.655760   1.000000
   15        2.841502   1.000000
   16        2.909045   1.000000
   17        2.956108   1.000000
   18        2.957672   1.000000
   19        2.964695   1.000000
   20        3.108285   1.000000
   21        3.123891   1.000000
   22        3.835228   1.000000
   23        5.547211  -0.000000
   24        8.633163   0.000000
   25        8.818342   0.000000
   26       10.792011   0.000000
   27       12.492998   0.000000
   28       13.082658   0.000000
   29       14.242323   0.000000
   30       14.674786   0.000000
   31       14.993483   0.000000
   32       16.299505   0.000000
   33       16.689611   0.000000
   34       18.007113   0.000000
   35       18.310230   0.000000
   36       21.920385   0.000000
   37       23.306660   0.000000
   38       24.226127   0.000000
   39       25.202355   0.000000
   40       25.248002   0.000000
   41       25.811397   0.000000
   42       26.060799   0.000000
   43       26.246444   0.000000
   44       29.491261   0.000000
   45       29.882003   0.000000
   46       30.170029   0.000000
   47       31.166263   0.000000
   48       32.848694   0.000000
 
  0.4444444E+00  0.2222222E+00  0.0000000E+00  0.3292181E-01
    1       -0.550733   1.000000
    2        0.287088   1.000000
    3        1.658362   1.000000
    4        1.709732   1.000000
    5        1.751104   1.000000
    6        1.794585   1.000000
    7        1.875183   1.000000
    8        1.922136   1.000000
    9        1.937358   1.000000
   10        2.096153   1.000000
   11        2.276181   1.000000
   12        2.337108   1.000000
   13        2.622039   1.000000
   14        2.699443   1.000000
   15        2.767873   1.000000
   16        2.785054   1.000000
   17        2.796320   1.000000
   18        2.827327   1.000000
   19        3.102757   1.000000
   20        3.107790   1.000000
   21        3.111143   1.000000
   22        3.330204   1.000000
   23        6.388006  -0.000000
   24        7.405971   0.000000
   25        9.878408   0.000000
   26       11.112140   0.000000
   27       11.344384   0.000000
   28       12.113156   0.000000
   29       14.906244   0.000000
   30       15.592383   0.000000
   31       15.777835   0.000000
   32       15.904142   0.000000
   33       16.709465   0.000000
   34       17.007955   0.000000
   35       19.108898   0.000000
   36       22.121551   0.000000
   37       23.978520   0.000000
   38       24.283553   0.000000
   39       24.772905   0.000000
   40       24.837316   0.000000
   41       25.474897   0.000000
   42       26.585905   0.000000
   43       27.824064   0.000000
   44       30.272262   0.000000
   45       30.567873   0.000000
   46       30.667539   0.000000
   47       31.651409   0.000000
   48       31.922186   0.000000
 
  0.3333333E+00  0.3333333E+00  0.0000000E+00  0.1646091E-01
    1       -0.761877   1.000000
    2        1.249693   1.000000
    3        1.249693   1.000000
    4        1.603266   1.000000
    5        1.773635   1.000000
    6        1.773635   1.000000
    7        1.775188   1.000000
    8        2.008557   1.000000
    9        2.103409   1.000000
   10        2.103409   1.000000
   11        2.222749   1.000000
   12        2.349655   1.000000
   13        2.541939   1.000000
   14        2.616445   1.000000
   15        2.765531   1.000000
   16        2.847400   1.000000
   17        2.847400   1.000000
   18        2.956563   1.000000
   19        2.956563   1.000000
   20        3.038357   1.000000
   21        3.112423   1.000000
   22        4.388283   1.026500
   23        4.388283   1.026500
   24        7.187006  -0.000000
   25        9.608276   0.000000
   26       11.201584   0.000000
   27       13.183133   0.000000
   28       13.183133   0.000000
   29       13.726521   0.000000
   30       13.726521   0.000000
   31       16.527511   0.000000
   32       16.795648   0.000000
   33       16.795648   0.000000
   34       16.853922   0.000000
   35       18.419944   0.000000
   36       21.300220   0.000000
   37       25.321835   0.000000
   38       25.700658   0.000000
   39       25.700658   0.000000
   40       25.822011   0.000000
   41       26.155428   0.000000
   42       26.155428   0.000000
   43       27.616063   0.000000
   44       28.614071   0.000000
   45       29.436357   0.000000
   46       30.134006   0.000000
   47       30.134006   0.000000
   48       32.398317   0.000000
 
  0.4444444E+00  0.3333333E+00  0.0000000E+00  0.3292181E-01
    1       -0.059173   1.000000
    2        0.685501   1.000000
    3        1.518448   1.000000
    4        1.626230   1.000000
    5        1.860783   1.000000
    6        1.862817   1.000000
    7        1.908804   1.000000
    8        1.945273   1.000000
    9        1.946477   1.000000
   10        2.066495   1.000000
   11        2.159745   1.000000
   12        2.273469   1.000000
   13        2.631222   1.000000
   14        2.648065   1.000000
   15        2.706816   1.000000
   16        2.732464   1.000000
   17        2.740387   1.000000
   18        2.793813   1.000000
   19        2.964046   1.000000
   20        2.987129   1.000000
   21        3.329679   1.000000
   22        3.691402   1.000000
   23        5.089218  -0.000000
   24        6.006892  -0.000000
   25       10.621144   0.000000
   26       11.815618   0.000000
   27       11.821292   0.000000
   28       12.655020   0.000000
   29       14.101009   0.000000
   30       14.554238   0.000000
   31       15.221522   0.000000
   32       15.597047   0.000000
   33       17.488275   0.000000
   34       18.272757   0.000000
   35       19.602498   0.000000
   36       22.568877   0.000000
   37       22.934738   0.000000
   38       25.387050   0.000000
   39       25.940043   0.000000
   40       26.142430   0.000000
   41       26.392268   0.000000
   42       27.231033   0.000000
   43       28.335820   0.000000
   44       29.173624   0.000000
   45       29.492093   0.000000
   46       30.573739   0.000000
   47       31.191133   0.000000
   48       31.313517   0.000000
 
  0.4444444E+00  0.4444444E+00  0.0000000E+00  0.1646091E-01
    1        0.538247   1.000000
    2        1.110428   1.000000
    3        1.110428   1.000000
    4        1.434877   1.000000
    5        1.939307   1.000000
    6        1.939307   1.000000
    7        1.953362   1.000000
    8        1.998589   1.000000
    9        2.012989   1.000000
   10        2.085100   1.000000
   11        2.085100   1.000000
   12        2.207371   1.000000
   13        2.587327   1.000000
   14        2.636876   1.000000
   15        2.643354   1.000000
   16        2.643354   1.000000
   17        2.712254   1.000000
   18        2.822339   1.000000
   19        2.822339   1.000000
   20        2.884847   1.000000
   21        3.656290   1.000000
   22        4.190327   1.000097
   23        4.190327   1.000097
   24        4.933703  -0.000000
   25       11.591695   0.000000
   26       12.499354   0.000000
   27       12.759172   0.000000
   28       12.759172   0.000000
   29       13.410943   0.000000
   30       13.410943   0.000000
   31       13.898840   0.000000
   32       14.391406   0.000000
   33       20.240863   0.000000
   34       20.240863   0.000000
   35       20.374341   0.000000
   36       22.378514   0.000000
   37       22.712695   0.000000
   38       23.888934   0.000000
   39       24.344210   0.000000
   40       24.344210   0.000000
   41       29.031811   0.000000
   42       29.031811   0.000000
   43       29.444706   0.000000
   44       30.524319   0.000000
   45       30.587986   0.000000
   46       30.885751   0.000000
   47       30.885751   0.000000
   48       31.710013   0.000000
 
  0.1111111E+00  0.1111111E+00  0.1111111E+00  0.1097394E-01
    1       -2.479805   1.000000
    2        1.166289   1.000000
    3        1.166289   1.000000
    4        1.166289   1.000000
    5        1.454058   1.000000
    6        1.454058   1.000000
    7        1.454058   1.000000
    8        2.212994   1.000000
    9        2.317191   1.000000
   10        2.317191   1.000000
   11        2.783733   1.000000
   12        2.783733   1.000000
   13        2.961765   1.000000
   14        2.961765   1.000000
   15        2.961765   1.000000
   16        3.058217   1.000000
   17        3.058217   1.000000
   18        3.058217   1.000000
   19        3.222631   1.000000
   20        3.222631   1.000000
   21        3.222631   1.000000
   22        5.862587  -0.000000
   23        5.862587  -0.000000
   24        5.862587  -0.000000
   25       11.195019   0.000000
   26       11.195019   0.000000
   27       11.195019   0.000000
   28       13.497741   0.000000
   29       13.497741   0.000000
   30       13.497741   0.000000
   31       16.133879   0.000000
   32       16.133879   0.000000
   33       16.133879   0.000000
   34       20.213305   0.000000
   35       20.213305   0.000000
   36       20.213305   0.000000
   37       21.064235   0.000000
   38       23.043003   0.000000
   39       23.043003   0.000000
   40       23.043003   0.000000
   41       24.639519   0.000000
   42       24.639519   0.000000
   43       24.962841   0.000000
   44       29.501870   0.000000
   45       29.501870   0.000000
   46       30.140116   0.000000
   47       32.169138   0.000000
   48       32.169138   0.000000
 
  0.2222222E+00  0.1111111E+00  0.1111111E+00  0.3292181E-01
    1       -2.119808   1.000000
    2        1.107279   1.000000
    3        1.298076   1.000000
    4        1.298076   1.000000
    5        1.525204   1.000000
    6        1.533278   1.000000
    7        1.533278   1.000000
    8        2.152691   1.000000
    9        2.364109   1.000000
   10        2.366733   1.000000
   11        2.677757   1.000000
   12        2.677757   1.000000
   13        2.728565   1.000000
   14        2.784918   1.000000
   15        2.828939   1.000000
   16        2.963947   1.000000
   17        2.984994   1.000000
   18        2.984994   1.000000
   19        3.190363   1.000000
   20        3.208138   1.000000
   21        3.208138   1.000000
   22        4.499131   0.420266
   23        6.417747  -0.000000
   24        6.417747  -0.000000
   25       11.406203   0.000000
   26       11.406203   0.000000
   27       11.963640   0.000000
   28       11.963640   0.000000
   29       13.391991   0.000000
   30       13.967520   0.000000
   31       15.701974   0.000000
   32       15.701974   0.000000
   33       16.620487   0.000000
   34       19.415221   0.000000
   35       20.411995   0.000000
   36       21.337863   0.000000
   37       21.337863   0.000000
   38       22.898298   0.000000
   39       23.290938   0.000000
   40       23.802017   0.000000
   41       25.216379   0.000000
   42       25.216379   0.000000
   43       26.157614   0.000000
   44       28.117087   0.000000
   45       29.555734   0.000000
   46       31.572935   0.000000
   47       31.732541   0.000000
   48       32.675534   0.000000
 
  0.3333333E+00  0.1111111E+00  0.1111111E+00  0.3292181E-01
    1       -1.535064   1.000000
    2        0.810038   1.000000
    3        1.476509   1.000000
    4        1.476509   1.000000
    5        1.634774   1.000000
    6        1.659813   1.000000
    7        1.659813   1.000000
    8        2.045967   1.000000
    9        2.358341   1.000000
   10        2.358341   1.000000
   11        2.419620   1.000000
   12        2.448799   1.000000
   13        2.523400   1.000000
   14        2.691412   1.000000
   15        2.834577   1.000000
   16        2.879947   1.000000
   17        2.879947   1.000000
   18        2.896184   1.000000
   19        3.133781   1.000000
   20        3.195219   1.000000
   21        3.195219   1.000000
   22        3.526929   1.000000
   23        7.185261  -0.000000
   24        7.185261  -0.000000
   25       10.443513   0.000000
   26       10.443513   0.000000
   27       11.946635   0.000000
   28       11.946635   0.000000
   29       14.578511   0.000000
   30       14.624152   0.000000
   31       14.624152   0.000000
   32       16.071688   0.000000
   33       17.405416   0.000000
   34       17.931008   0.000000
   35       20.754596   0.000000
   36       21.238895   0.000000
   37       22.787065   0.000000
   38       23.492648   0.000000
   39       23.492648   0.000000
   40       23.717400   0.000000
   41       25.104940   0.000000
   42       25.973243   0.000000
   43       27.626688   0.000000
   44       27.626688   0.000000
   45       30.583645   0.000000
   46       32.533750   0.000000
   47       32.533750   0.000000
   48       32.876765   0.000000
 
  0.4444444E+00  0.1111111E+00  0.1111111E+00  0.3292181E-01
    1       -0.761026   1.000000
    2        0.105296   1.000000