       N       E                     dE             d eps       ncg     rms          rms(c)
DAV:   1     0.185676860869E+03    0.18568E+03   -0.16614E+04  3480   0.125E+03
DAV:   2    -0.985579914925E+01   -0.19553E+03   -0.17588E+03  3456   0.191E+02
DAV:   3    -0.166220182528E+02   -0.67662E+01   -0.66312E+01  4536   0.443E+01
DAV:   4    -0.166815135146E+02   -0.59495E-01   -0.59492E-01  3648   0.364E+00
DAV:   5    -0.166824513407E+02   -0.93783E-03   -0.93781E-03  4704   0.504E-01    0.139E+01
DAV:   6    -0.159304795347E+02    0.75197E+00   -0.40069E+01  4296   0.696E+01    0.996E+00
DAV:   7    -0.138301345431E+02    0.21003E+01   -0.73313E+00  4248   0.311E+01    0.699E-01
DAV:   8    -0.138261314447E+02    0.40031E-02   -0.12445E-01  5064   0.365E+00    0.103E+00
DAV:   9    -0.138088759492E+02    0.17255E-01   -0.89029E-02  4344   0.308E+00    0.186E-01
DAV:  10    -0.138084162093E+02    0.45974E-03   -0.21854E-03  5064   0.485E-01    0.128E-02
DAV:  11    -0.138084267468E+02   -0.10537E-04   -0.18159E-05  2256   0.365E-02
   1 F= -.13808427E+02 E0= -.13807991E+02  d E =-.130697E-02
