<?xml version="1.0" encoding="ISO-8859-1"?>
<modeling>
 <generator>
  <i name="program" type="string">vasp </i>
  <i name="version" type="string">5.4.1  </i>
  <i name="subversion" type="string">05Feb16 (build Feb 08 2018 09:21:51) complex                          parallel </i>
  <i name="platform" type="string">LinuxIFC </i>
  <i name="date" type="string">2019 11 21 </i>
  <i name="time" type="string">15:54:07 </i>
 </generator>
 <incar>
  <i type="string" name="PREC">normal</i>
  <i name="ENCUT">    400.00000000</i>
  <i type="int" name="ISMEAR">     1</i>
  <i name="SIGMA">      0.10000000</i>
  <i type="logical" name="LWAVE"> F  </i>
  <i type="logical" name="LCHARG"> F  </i>
  <v type="int" name="KPOINT_BSE">    -1     0     0     0</v>
 </incar>
 <kpoints>
  <generation param="Monkhorst-Pack">
   <v type="int" name="divisions">       9        9        9 </v>
   <v name="usershift">      0.00000000       0.00000000       0.00000000 </v>
   <v name="genvec1">      0.11111111       0.00000000       0.00000000 </v>
   <v name="genvec2">      0.00000000       0.11111111       0.00000000 </v>
   <v name="genvec3">      0.00000000       0.00000000       0.11111111 </v>
   <v name="shift">      0.00000000       0.00000000       0.00000000 </v>
  </generation>
  <varray name="kpointlist" >
   <v>       0.00000000       0.00000000       0.00000000 </v>
   <v>       0.11111111       0.00000000       0.00000000 </v>
   <v>       0.22222222       0.00000000       0.00000000 </v>
   <v>       0.33333333       0.00000000       0.00000000 </v>
   <v>       0.44444444       0.00000000       0.00000000 </v>
   <v>       0.11111111       0.11111111       0.00000000 </v>
   <v>       0.22222222       0.11111111       0.00000000 </v>
   <v>       0.33333333       0.11111111       0.00000000 </v>
   <v>       0.44444444       0.11111111       0.00000000 </v>
   <v>       0.22222222       0.22222222       0.00000000 </v>
   <v>       0.33333333       0.22222222       0.00000000 </v>
   <v>       0.44444444       0.22222222       0.00000000 </v>
   <v>       0.33333333       0.33333333       0.00000000 </v>
   <v>       0.44444444       0.33333333       0.00000000 </v>
   <v>       0.44444444       0.44444444       0.00000000 </v>
   <v>       0.11111111       0.11111111       0.11111111 </v>
   <v>       0.22222222       0.11111111       0.11111111 </v>
   <v>       0.33333333       0.11111111       0.11111111 </v>
   <v>       0.44444444       0.11111111       0.11111111 </v>
   <v>       0.22222222       0.22222222       0.11111111 </v>
   <v>       0.33333333       0.22222222       0.11111111 </v>
   <v>       0.44444444       0.22222222       0.11111111 </v>
   <v>       0.33333333       0.33333333       0.11111111 </v>
   <v>       0.44444444       0.33333333       0.11111111 </v>
   <v>       0.44444444       0.44444444       0.11111111 </v>
   <v>       0.22222222       0.22222222       0.22222222 </v>
   <v>       0.33333333       0.22222222       0.22222222 </v>
   <v>       0.44444444       0.22222222       0.22222222 </v>
   <v>       0.33333333       0.33333333       0.22222222 </v>
   <v>       0.44444444       0.33333333       0.22222222 </v>
   <v>       0.44444444       0.44444444       0.22222222 </v>
   <v>       0.33333333       0.33333333       0.33333333 </v>
   <v>       0.44444444       0.33333333       0.33333333 </v>
   <v>       0.44444444       0.44444444       0.33333333 </v>
   <v>       0.44444444       0.44444444       0.44444444 </v>
  </varray>
  <varray name="weights" >
   <v>       0.00137174 </v>
   <v>       0.00823045 </v>
   <v>       0.00823045 </v>
   <v>       0.00823045 </v>
   <v>       0.00823045 </v>
   <v>       0.01646091 </v>
   <v>       0.03292181 </v>
   <v>       0.03292181 </v>
   <v>       0.03292181 </v>
   <v>       0.01646091 </v>
   <v>       0.03292181 </v>
   <v>       0.03292181 </v>
   <v>       0.01646091 </v>
   <v>       0.03292181 </v>
   <v>       0.01646091 </v>
   <v>       0.01097394 </v>
   <v>       0.03292181 </v>
   <v>       0.03292181 </v>
   <v>       0.03292181 </v>
   <v>       0.03292181 </v>
   <v>       0.06584362 </v>
   <v>       0.06584362 </v>
   <v>       0.03292181 </v>
   <v>       0.06584362 </v>
   <v>       0.03292181 </v>
   <v>       0.01097394 </v>
   <v>       0.03292181 </v>
   <v>       0.03292181 </v>
   <v>       0.03292181 </v>
   <v>       0.06584362 </v>
   <v>       0.03292181 </v>
   <v>       0.01097394 </v>
   <v>       0.03292181 </v>
   <v>       0.03292181 </v>
   <v>       0.01097394 </v>
  </varray>
 </kpoints>
 <parameters>
  <separator name="general" >
   <i type="string" name="SYSTEM">unknown system</i>
   <i type="logical" name="LCOMPAT"> F  </i>
  </separator>
  <separator name="electronic" >
   <i type="string" name="PREC">normal</i>
   <i name="ENMAX">    400.00000000</i>
   <i name="ENAUG">    586.98000000</i>
   <i name="EDIFF">      0.00010000</i>
   <i type="int" name="IALGO">    38</i>
   <i type="int" name="IWAVPR">    10</i>
   <i type="int" name="NBANDS">    48</i>
   <i name="NELECT">     44.00000000</i>
   <i type="int" name="TURBO">     0</i>
   <i type="int" name="IRESTART">     0</i>
   <i type="int" name="NREBOOT">     0</i>
   <i type="int" name="NMIN">     0</i>
   <i name="EREF">      0.00000000</i>
   <separator name="electronic smearing" >
    <i type="int" name="ISMEAR">     1</i>
    <i name="SIGMA">      0.10000000</i>
    <i name="KSPACING">      0.50000000</i>
    <i type="logical" name="KGAMMA"> T  </i>
   </separator>
   <separator name="electronic projectors" >
    <i type="logical" name="LREAL"> F  </i>
    <v name="ROPT">      0.00000000</v>
    <i type="int" name="LMAXPAW">  -100</i>
    <i type="int" name="LMAXMIX">     2</i>
    <i type="logical" name="NLSPLINE"> F  </i>
   </separator>
   <separator name="electronic startup" >
    <i type="int" name="ISTART">     0</i>
    <i type="int" name="ICHARG">     2</i>
    <i type="int" name="INIWAV">     1</i>
   </separator>
   <separator name="electronic spin" >
    <i type="int" name="ISPIN">     1</i>
    <i type="logical" name="LNONCOLLINEAR"> F  </i>
    <v name="MAGMOM">      1.00000000      1.00000000      1.00000000      1.00000000</v>
    <i name="NUPDOWN">     -1.00000000</i>
    <i type="logical" name="LSORBIT"> F  </i>
    <v name="SAXIS">      0.00000000      0.00000000      1.00000000</v>
    <i type="logical" name="LSPIRAL"> F  </i>
    <v name="QSPIRAL">      0.00000000      0.00000000      0.00000000</v>
    <i type="logical" name="LZEROZ"> F  </i>
   </separator>
   <separator name="electronic exchange-correlation" >
    <i type="logical" name="LASPH"> F  </i>
    <i type="logical" name="LMETAGGA"> F  </i>
   </separator>
   <separator name="electronic convergence" >
    <i type="int" name="NELM">    60</i>
    <i type="int" name="NELMDL">    -5</i>
    <i type="int" name="NELMIN">     2</i>
    <i name="ENINI">    400.00000000</i>
    <separator name="electronic convergence detail" >
     <i type="logical" name="LDIAG"> T  </i>
     <i type="logical" name="LSUBROT"> F  </i>
     <i name="WEIMIN">      0.00000000</i>
     <i name="EBREAK">      0.00000052</i>
     <i name="DEPER">      0.30000000</i>
     <i type="int" name="NRMM">     4</i>
     <i name="TIME">      0.40000000</i>
    </separator>
   </separator>
   <separator name="electronic mixer" >
    <i name="AMIX">      0.40000000</i>
    <i name="BMIX">      1.00000000</i>
    <i name="AMIN">      0.10000000</i>
    <i name="AMIX_MAG">      1.60000000</i>
    <i name="BMIX_MAG">      1.00000000</i>
    <separator name="electronic mixer details" >
     <i type="int" name="IMIX">     4</i>
     <i type="logical" name="MIXFIRST"> F  </i>
     <i type="int" name="MAXMIX">   -45</i>
     <i name="WC">    100.00000000</i>
     <i type="int" name="INIMIX">     1</i>
     <i type="int" name="MIXPRE">     1</i>
     <i type="int" name="MREMOVE">     5</i>
    </separator>
   </separator>
   <separator name="electronic dipolcorrection" >
    <i type="logical" name="LDIPOL"> F  </i>
    <i type="logical" name="LMONO"> F  </i>
    <i type="int" name="IDIPOL">     0</i>
    <i name="EPSILON">      1.00000000</i>
    <v name="DIPOL">   -100.00000000   -100.00000000   -100.00000000</v>
    <i name="EFIELD">      0.00000000</i>
   </separator>
  </separator>
  <separator name="grids" >
   <i type="int" name="NGX">    20</i>
   <i type="int" name="NGY">    20</i>
   <i type="int" name="NGZ">    20</i>
   <i type="int" name="NGXF">    40</i>
   <i type="int" name="NGYF">    40</i>
   <i type="int" name="NGZF">    40</i>
   <i type="logical" name="ADDGRID"> F  </i>
  </separator>
  <separator name="ionic" >
   <i type="int" name="NSW">     0</i>
   <i type="int" name="IBRION">    -1</i>
   <i type="int" name="ISIF">     2</i>
   <i name="PSTRESS">      0.00000000</i>
   <i name="EDIFFG">      0.00100000</i>
   <i type="int" name="NFREE">     0</i>
   <i name="POTIM">      0.50000000</i>
   <i name="SMASS">     -3.00000000</i>
   <i name="SCALEE">      1.00000000</i>
  </separator>
  <separator name="ionic md" >
   <i name="TEBEG">      0.00010000</i>
   <i name="TEEND">      0.00010000</i>
   <i type="int" name="NBLOCK">     1</i>
   <i type="int" name="KBLOCK">     1</i>
   <i type="int" name="NPACO">   256</i>
   <i name="APACO">     16.00000000</i>
  </separator>
  <separator name="symmetry" >
   <i type="int" name="ISYM">     2</i>
   <i name="SYMPREC">      0.00001000</i>
  </separator>
  <separator name="dos" >
   <i type="logical" name="LORBIT"> F  </i>
   <v name="RWIGS">     -1.00000000</v>
   <i type="int" name="NEDOS">   301</i>
   <i name="EMIN">     10.00000000</i>
   <i name="EMAX">    -10.00000000</i>
   <i name="EFERMI">      0.00000000</i>
  </separator>
  <separator name="writing" >
   <i type="int" name="NWRITE">     2</i>
   <i type="logical" name="LWAVE"> F  </i>
   <i type="logical" name="LCHARG"> F  </i>
   <i type="logical" name="LPARD"> F  </i>
   <i type="logical" name="LVTOT"> F  </i>
   <i type="logical" name="LVHAR"> F  </i>
   <i type="logical" name="LELF"> F  </i>
   <i type="logical" name="LOPTICS"> F  </i>
   <v name="STM">      0.00000000      0.00000000      0.00000000      0.00000000      0.00000000      0.00000000      0.00000000</v>
  </separator>
  <separator name="performance" >
   <i type="int" name="NPAR">    24</i>
   <i type="int" name="NSIM">     4</i>
   <i type="int" name="NBLK">    -1</i>
   <i type="logical" name="LPLANE"> T  </i>
   <i type="logical" name="LSCALAPACK"> F  </i>
   <i type="logical" name="LSCAAWARE"> F  </i>
   <i type="logical" name="LSCALU"> F  </i>
   <i type="logical" name="LASYNC"> F  </i>
   <i type="logical" name="LORBITALREAL"> F  </i>
  </separator>
  <separator name="miscellaneous" >
   <i type="int" name="IDIOT">     3</i>
   <i type="logical" name="LMUSIC"> F  </i>
   <v name="POMASS">     63.54600000</v>
   <v name="DARWINR">      0.00000000</v>
   <v name="DARWINV">      1.00000000</v>
   <i type="logical" name="LCORR"> T  </i>
  </separator>
  <i type="logical" name="GGA_COMPAT"> T  </i>
  <i type="logical" name="LBERRY"> F  </i>
  <i type="int" name="ICORELEVEL">     0</i>
  <i type="logical" name="LDAU"> F  </i>
  <i type="int" name="I_CONSTRAINED_M">     0</i>
  <separator name="electronic exchange-correlation" >
   <i type="string" name="GGA">--</i>
   <i type="int" name="VOSKOWN">     0</i>
   <i type="logical" name="LHFCALC"> F  </i>
   <i type="string" name="PRECFOCK"></i>
   <i type="logical" name="LSYMGRAD"> F  </i>
   <i type="logical" name="LHFONE"> F  </i>
   <i type="logical" name="LRHFCALC"> F  </i>
   <i type="logical" name="LTHOMAS"> F  </i>
   <i type="logical" name="LMODELHF"> F  </i>
   <i name="ENCUT4O">     -1.00000000</i>
   <i type="int" name="EXXOEP">     0</i>
   <i type="int" name="FOURORBIT">     0</i>
   <i name="AEXX">      0.00000000</i>
   <i name="HFALPHA">      0.00000000</i>
   <i name="MCALPHA">      0.00000000</i>
   <i name="ALDAX">      1.00000000</i>
   <i name="AGGAX">      1.00000000</i>
   <i name="ALDAC">      1.00000000</i>
   <i name="AGGAC">      1.00000000</i>
   <i type="int" name="NKREDX">     1</i>
   <i type="int" name="NKREDY">     1</i>
   <i type="int" name="NKREDZ">     1</i>
   <i type="logical" name="SHIFTRED"> F  </i>
   <i type="logical" name="ODDONLY"> F  </i>
   <i type="logical" name="EVENONLY"> F  </i>
   <i type="int" name="LMAXFOCK">     0</i>
   <i type="int" name="NMAXFOCKAE">     0</i>
   <i type="logical" name="LFOCKAEDFT"> F  </i>
   <i name="HFSCREEN">      0.00000000</i>
   <i name="HFSCREENC">      0.00000000</i>
   <i type="int" name="NBANDSGWLOW">     0</i>
  </separator>
  <separator name="vdW DFT" >
   <i type="logical" name="LUSE_VDW"> F  </i>
   <i name="Zab_VDW">     -0.84910000</i>
   <i name="PARAM1">      0.12340000</i>
   <i name="PARAM2">      1.00000000</i>
   <i name="PARAM3">      0.00000000</i>
  </separator>
  <separator name="model GW" >
   <i type="int" name="MODEL_GW">     0</i>
   <i name="MODEL_EPS0">      9.39271014</i>
   <i name="MODEL_ALPHA">      1.00000000</i>
  </separator>
  <separator name="linear response parameters" >
   <i type="logical" name="LEPSILON"> F  </i>
   <i type="logical" name="LRPA"> F  </i>
   <i type="logical" name="LNABLA"> F  </i>
   <i type="logical" name="LVEL"> F  </i>
   <i type="int" name="KINTER">     0</i>
   <i name="CSHIFT">      0.10000000</i>
   <i name="OMEGAMAX">     -1.00000000</i>
   <i name="DEG_THRESHOLD">      0.00200000</i>
  </separator>
  <separator name="orbital magnetization" >
   <i type="logical" name="NUCIND"> F  </i>
   <v name="MAGPOS">      0.00000000      0.00000000      0.00000000</v>
   <i type="logical" name="LNICSALL"> T  </i>
   <i type="logical" name="ORBITALMAG"> F  </i>
   <i type="logical" name="LMAGBLOCH"> F  </i>
   <i type="logical" name="LCHIMAG"> F  </i>
   <i type="logical" name="LGAUGE"> T  </i>
   <i type="int" name="MAGATOM">     0</i>
   <v name="MAGDIPOL">      0.00000000      0.00000000      0.00000000</v>
   <v name="AVECCONST">      0.00000000      0.00000000      0.00000000</v>
  </separator>
  <separator name="response functions" >
   <i type="logical" name="LADDER"> F  </i>
   <i type="logical" name="LFXC"> F  </i>
   <i type="logical" name="LHARTREE"> T  </i>
   <i type="int" name="IBSE">     0</i>
   <v type="int" name="KPOINT">    -1     0     0     0</v>
   <i type="logical" name="LTCTE"> F  </i>
   <i type="logical" name="LTETE"> F  </i>
   <i type="logical" name="LTRIPLET"> F  </i>
   <i type="logical" name="LFXCEPS"> F  </i>
   <i type="logical" name="LFXHEG"> F  </i>
   <i type="int" name="NATURALO">     0</i>
   <i type="logical" name="L2ORDER"> F  </i>
   <i type="logical" name="LUSEW"> F  </i>
   <i name="ENCUTGW">     -2.00000000</i>
   <i name="ENCUTGWSOFT">     -2.00000000</i>
   <i name="ENCUTLF">     -1.00000000</i>
   <i type="int" name="LMAXMP2">    -1</i>
   <i name="SCISSOR">      0.00000000</i>
   <i type="int" name="NOMEGA">     0</i>
   <i type="int" name="NOMEGAR">     0</i>
   <i type="int" name="NBANDSGW">    -1</i>
   <i type="int" name="NBANDSO">    -1</i>
   <i type="int" name="NBANDSV">    -1</i>
   <i type="int" name="NELM">     1</i>
   <i type="int" name="NELMHF">     1</i>
   <i type="int" name="DIM">     3</i>
   <i type="int" name="ANTIRES">     0</i>
   <i name="OMEGAMAX">    -30.00000000</i>
   <i name="OMEGAMIN">    -30.00000000</i>
   <i name="OMEGATL">   -200.00000000</i>
   <i type="int" name="OMEGAGRID">     0</i>
   <i name="CSHIFT">     -0.10000000</i>
   <i type="logical" name="SELFENERGY"> F  </i>
   <i type="logical" name="LSPECTRAL"> F  </i>
   <i type="logical" name="LSPECTRALGW"> F  </i>
   <i type="logical" name="LSINGLES"> F  </i>
   <i type="logical" name="LFERMIGW"> F  </i>
   <i type="logical" name="ODDONLYGW"> F  </i>
   <i type="logical" name="EVENONLYGW"> F  </i>
   <i type="int" name="NKREDLFX">     1</i>
   <i type="int" name="NKREDLFY">     1</i>
   <i type="int" name="NKREDLFZ">     1</i>
   <i type="int" name="MAXMEM">  1800</i>
   <i type="int" name="TELESCOPE">     0</i>
   <i type="int" name="TAUPAR">     1</i>
   <i type="int" name="OMEGAPAR">    -1</i>
   <i name="LAMBDA">      1.00000000</i>
  </separator>
  <separator name="External order field" >
   <i name="OFIELD_KAPPA">      0.00000000</i>
   <v name="OFIELD_K">      0.00000000      0.00000000      0.00000000</v>
   <i name="OFIELD_Q6_NEAR">      0.00000000</i>
   <i name="OFIELD_Q6_FAR">      0.00000000</i>
   <i name="OFIELD_A">      0.00000000</i>
  </separator>
 </parameters>
 <atominfo>
  <atoms>       4 </atoms>
  <types>       1 </types>
  <array name="atoms" >
   <dimension dim="1">ion</dimension>
   <field type="string">element</field>
   <field type="int">atomtype</field>
   <set>
    <rc><c>Cu</c><c>   1</c></rc>
    <rc><c>Cu</c><c>   1</c></rc>
    <rc><c>Cu</c><c>   1</c></rc>
    <rc><c>Cu</c><c>   1</c></rc>
   </set>
  </array>
  <array name="atomtypes" >
   <dimension dim="1">type</dimension>
   <field type="int">atomspertype</field>
   <field type="string">element</field>
   <field>mass</field>
   <field>valence</field>
   <field type="string">pseudopotential</field>
   <set>
    <rc><c>   4</c><c>Cu</c><c>     63.54600000</c><c>     11.00000000</c><c>  PAW_PBE Cu 22Jun2005                  </c></rc>
   </set>
  </array>
 </atominfo>
 <structure name="initialpos" >
  <crystal>
   <varray name="basis" >
    <v>       3.97100000       0.00000000       0.00000000 </v>
    <v>       0.00000000       3.97100000       0.00000000 </v>
    <v>       0.00000000       0.00000000       3.97100000 </v>
   </varray>
   <i name="volume">     62.61806761 </i>
   <varray name="rec_basis" >
    <v>       0.25182574       0.00000000       0.00000000 </v>
    <v>       0.00000000       0.25182574       0.00000000 </v>
    <v>       0.00000000       0.00000000       0.25182574 </v>
   </varray>
  </crystal>
  <varray name="positions" >
   <v>       0.00000000       0.00000000       0.00000000 </v>
   <v>       0.00000000       0.50000000       0.50000000 </v>
   <v>       0.50000000       0.00000000       0.50000000 </v>
   <v>       0.50000000       0.50000000       0.00000000 </v>
  </varray>
 </structure>
 <calculation>
  <scstep>
   <time name="dav">    0.61    0.61</time>
   <time name="total">    0.97    0.97</time>
   <energy>
    <i name="alphaZ">    186.86697048 </i>
    <i name="ewald">  -4023.44280514 </i>
    <i name="hartreedc">  -1671.18286957 </i>
    <i name="XCdc">    180.43011662 </i>
    <i name="pawpsdc">   4912.82663951 </i>
    <i name="pawaedc">  -5336.19386850 </i>
    <i name="eentropy">      0.00008504 </i>
    <i name="bandstr">    372.54203163 </i>
    <i name="atom">   5563.83056080 </i>
    <i name="e_fr_energy">    185.67686087 </i>
    <i name="e_wo_entrp">    185.67677583 </i>
    <i name="e_0_energy">    185.67683252 </i>
   </energy>
  </scstep>
  <scstep>
   <time name="dav">    0.50    0.50</time>
   <time name="total">    0.50    0.50</time>
   <energy>
    <i name="e_fr_energy">     -9.85579915 </i>
    <i name="e_wo_entrp">     -9.85575972 </i>
    <i name="e_0_energy">     -9.85578601 </i>
   </energy>
  </scstep>
  <scstep>
   <time name="dav">    0.71    0.71</time>
   <time name="total">    0.71    0.72</time>
   <energy>
    <i name="e_fr_energy">    -16.62201825 </i>
    <i name="e_wo_entrp">    -16.62183650 </i>
    <i name="e_0_energy">    -16.62195767 </i>
   </energy>
  </scstep>
  <scstep>
   <time name="dav">    0.52    0.52</time>
   <time name="total">    0.52    0.52</time>
   <energy>
    <i name="e_fr_energy">    -16.68151351 </i>
    <i name="e_wo_entrp">    -16.68133559 </i>
    <i name="e_0_energy">    -16.68145420 </i>
   </energy>
  </scstep>
  <scstep>
   <time name="dav">    0.75    0.76</time>
   <time name="total">    0.77    0.77</time>
   <energy>
    <i name="e_fr_energy">    -16.68245134 </i>
    <i name="e_wo_entrp">    -16.68227335 </i>
    <i name="e_0_energy">    -16.68239201 </i>
   </energy>
  </scstep>
  <scstep>
   <time name="dav">    0.69    0.69</time>
   <time name="total">    0.71    0.71</time>
   <energy>
    <i name="e_fr_energy">    -15.93047953 </i>
    <i name="e_wo_entrp">    -15.92927395 </i>
    <i name="e_0_energy">    -15.93007767 </i>
   </energy>
  </scstep>
  <scstep>
   <time name="dav">    0.64    0.64</time>
   <time name="total">    0.66    0.66</time>
   <energy>
    <i name="e_fr_energy">    -13.83013454 </i>
    <i name="e_wo_entrp">    -13.82880894 </i>
    <i name="e_0_energy">    -13.82969267 </i>
   </energy>
  </scstep>
  <scstep>
   <time name="dav">    0.78    0.78</time>
   <time name="total">    0.80    0.81</time>
   <energy>
    <i name="e_fr_energy">    -13.82613144 </i>
    <i name="e_wo_entrp">    -13.82462442 </i>
    <i name="e_0_energy">    -13.82562910 </i>
   </energy>
  </scstep>
  <scstep>
   <time name="dav">    0.66    0.66</time>
   <time name="total">    0.68    0.69</time>
   <energy>
    <i name="e_fr_energy">    -13.80887595 </i>
    <i name="e_wo_entrp">    -13.80771756 </i>
    <i name="e_0_energy">    -13.80848982 </i>
   </energy>
  </scstep>
  <scstep>
   <time name="dav">    0.79    0.80</time>
   <time name="total">    0.82    0.83</time>
   <energy>
    <i name="e_fr_energy">    -13.80841621 </i>
    <i name="e_wo_entrp">    -13.80709843 </i>
    <i name="e_0_energy">    -13.80797695 </i>
   </energy>
  </scstep>
  <scstep>
   <time name="dav">    0.37    0.37</time>
   <time name="total">    0.38    0.39</time>
   <energy>
    <i name="alphaZ">    186.86697048 </i>
    <i name="ewald">  -4023.44280514 </i>
    <i name="hartreedc">  -1590.42172153 </i>
    <i name="XCdc">    176.81601005 </i>
    <i name="pawpsdc">   4987.05554565 </i>
    <i name="pawaedc">  -5413.61607726 </i>
    <i name="eentropy">     -0.00130697 </i>
    <i name="bandstr">     99.10439717 </i>
    <i name="atom">   5563.83056080 </i>
    <i name="e_fr_energy">    -13.80842675 </i>
    <i name="e_wo_entrp">    -13.80711978 </i>
    <i name="e_0_energy">    -13.80799109 </i>
   </energy>
  </scstep>
  <structure>
   <crystal>
    <varray name="basis" >
     <v>       3.97100000       0.00000000       0.00000000 </v>
     <v>       0.00000000       3.97100000       0.00000000 </v>
     <v>       0.00000000       0.00000000       3.97100000 </v>
    </varray>
    <i name="volume">     62.61806761 </i>
    <varray name="rec_basis" >
     <v>       0.25182574       0.00000000       0.00000000 </v>
     <v>       0.00000000       0.25182574       0.00000000 </v>
     <v>       0.00000000       0.00000000       0.25182574 </v>
    </varray>
   </crystal>
   <varray name="positions" >
    <v>       0.00000000       0.00000000       0.00000000 </v>
    <v>       0.00000000       0.50000000       0.50000000 </v>
    <v>       0.50000000       0.00000000       0.50000000 </v>
    <v>       0.50000000       0.50000000       0.00000000 </v>
   </varray>
  </structure>
  <varray name="forces" >
   <v>      -0.00000000      -0.00000000      -0.00000000 </v>
   <v>      -0.00000000      -0.00000000       0.00000000 </v>
   <v>       0.00000000       0.00000000       0.00000000 </v>
   <v>       0.00000000      -0.00000000      -0.00000000 </v>
  </varray>
  <varray name="stress" >
   <v>    -184.84867160       0.00000000       0.00000000 </v>
   <v>      -0.00000000    -184.84867160      -0.00000000 </v>
   <v>      -0.00000000      -0.00000000    -184.84867160 </v>
  </varray>
  <energy>
   <i name="e_fr_energy">    -13.80842675 </i>
   <i name="e_wo_entrp">    -13.80799109 </i>
   <i name="e_0_energy">     -0.00130697 </i>
  </energy>
  <time name="totalsc">    7.88    7.98</time>
  <eigenvalues>
   <array>
    <dimension dim="1">band</dimension>
    <dimension dim="2">kpoint</dimension>
    <dimension dim="3">spin</dimension>
    <field>eigene</field>
    <field>occ</field>
    <set>
     <set comment="spin 1">
      <set comment="kpoint 1">
       <r>   -2.8460    1.0000 </r>
       <r>    1.0748    1.0000 </r>
       <r>    1.0748    1.0000 </r>
       <r>    1.0748    1.0000 </r>
       <r>    1.3743    1.0000 </r>
       <r>    1.3743    1.0000 </r>
       <r>    1.3743    1.0000 </r>
       <r>    2.2669    1.0000 </r>
       <r>    2.2669    1.0000 </r>
       <r>    2.2669    1.0000 </r>
       <r>    2.7992    1.0000 </r>
       <r>    2.7992    1.0000 </r>
       <r>    3.1560    1.0000 </r>
       <r>    3.1560    1.0000 </r>
       <r>    3.1560    1.0000 </r>
       <r>    3.2572    1.0000 </r>
       <r>    3.2572    1.0000 </r>
       <r>    3.2572    1.0000 </r>
       <r>    3.2572    1.0000 </r>
       <r>    3.2572    1.0000 </r>
       <r>    3.2572    1.0000 </r>
       <r>    6.2718   -0.0000 </r>
       <r>    6.2718   -0.0000 </r>
       <r>    6.2718   -0.0000 </r>
       <r>    9.9052    0.0000 </r>
       <r>    9.9052    0.0000 </r>
       <r>    9.9052    0.0000 </r>
       <r>   15.6389    0.0000 </r>
       <r>   15.6389    0.0000 </r>
       <r>   15.6389    0.0000 </r>
       <r>   15.6389    0.0000 </r>
       <r>   15.6389    0.0000 </r>
       <r>   15.6389    0.0000 </r>
       <r>   19.5355    0.0000 </r>
       <r>   19.5355    0.0000 </r>
       <r>   19.5355    0.0000 </r>
       <r>   20.7452    0.0000 </r>
       <r>   20.7452    0.0000 </r>
       <r>   20.7452    0.0000 </r>
       <r>   24.8865    0.0000 </r>
       <r>   25.5044    0.0000 </r>
       <r>   25.5044    0.0000 </r>
       <r>   25.5044    0.0000 </r>
       <r>   28.0439    0.0000 </r>
       <r>   28.0439    0.0000 </r>
       <r>   28.0439    0.0000 </r>
       <r>   31.4972    0.0000 </r>
       <r>   34.7586    0.0000 </r>
      </set>
      <set comment="kpoint 2">
       <r>   -2.7232    1.0000 </r>
       <r>    1.0662    1.0000 </r>
       <r>    1.1240    1.0000 </r>
       <r>    1.1240    1.0000 </r>
       <r>    1.4003    1.0000 </r>
       <r>    1.4025    1.0000 </r>
       <r>    1.4025    1.0000 </r>
       <r>    2.2392    1.0000 </r>
       <r>    2.2901    1.0000 </r>
       <r>    2.2901    1.0000 </r>
       <r>    2.7742    1.0000 </r>
       <r>    2.8098    1.0000 </r>
       <r>    3.1165    1.0000 </r>
       <r>    3.1165    1.0000 </r>
       <r>    3.1238    1.0000 </r>
       <r>    3.1238    1.0000 </r>
       <r>    3.1448    1.0000 </r>
       <r>    3.2186    1.0000 </r>
       <r>    3.2186    1.0000 </r>
       <r>    3.2569    1.0000 </r>
       <r>    3.2569    1.0000 </r>
       <r>    5.4057   -0.0000 </r>
       <r>    6.5277   -0.0000 </r>
       <r>    6.5277   -0.0000 </r>
       <r>    9.9621    0.0000 </r>
       <r>    9.9621    0.0000 </r>
       <r>   11.0327    0.0000 </r>
       <r>   14.8530    0.0000 </r>
       <r>   14.8530    0.0000 </r>
       <r>   15.0345    0.0000 </r>
       <r>   15.0345    0.0000 </r>
       <r>   15.8087    0.0000 </r>
       <r>   15.8087    0.0000 </r>
       <r>   19.6026    0.0000 </r>
       <r>   20.4923    0.0000 </r>
       <r>   20.4923    0.0000 </r>
       <r>   20.8006    0.0000 </r>
       <r>   21.6129    0.0000 </r>
       <r>   21.6129    0.0000 </r>
       <r>   24.2558    0.0000 </r>
       <r>   24.3752    0.0000 </r>
       <r>   24.3752    0.0000 </r>
       <r>   25.0834    0.0000 </r>
       <r>   28.9304    0.0000 </r>
       <r>   29.3121    0.0000 </r>
       <r>   29.3121    0.0000 </r>
       <r>   31.1493    0.0000 </r>
       <r>   33.3240    0.0000 </r>
      </set>
      <set comment="kpoint 3">
       <r>   -2.3583    1.0000 </r>
       <r>    0.9918    1.0000 </r>
       <r>    1.2587    1.0000 </r>
       <r>    1.2587    1.0000 </r>
       <r>    1.4759    1.0000 </r>
       <r>    1.4882    1.0000 </r>
       <r>    1.4882    1.0000 </r>
       <r>    2.1594    1.0000 </r>
       <r>    2.3589    1.0000 </r>
       <r>    2.3589    1.0000 </r>
       <r>    2.7046    1.0000 </r>
       <r>    2.7971    1.0000 </r>
       <r>    2.7971    1.0000 </r>
       <r>    2.8402    1.0000 </r>
       <r>    3.0326    1.0000 </r>
       <r>    3.0326    1.0000 </r>
       <r>    3.1119    1.0000 </r>
       <r>    3.1119    1.0000 </r>
       <r>    3.1134    1.0000 </r>
       <r>    3.2572    1.0000 </r>
       <r>    3.2572    1.0000 </r>
       <r>    4.0177    1.0000 </r>
       <r>    7.1929   -0.0000 </r>
       <r>    7.1929   -0.0000 </r>
       <r>   10.1397    0.0000 </r>
       <r>   10.1397    0.0000 </r>
       <r>   13.2476    0.0000 </r>
       <r>   13.4043    0.0000 </r>
       <r>   13.4043    0.0000 </r>
       <r>   13.8691    0.0000 </r>
       <r>   13.8691    0.0000 </r>
       <r>   16.3077    0.0000 </r>
       <r>   16.3077    0.0000 </r>
       <r>   19.8064    0.0000 </r>
       <r>   20.9737    0.0000 </r>
       <r>   22.4544    0.0000 </r>
       <r>   22.4544    0.0000 </r>
       <r>   22.6475    0.0000 </r>
       <r>   22.6475    0.0000 </r>
       <r>   23.1765    0.0000 </r>
       <r>   23.5578    0.0000 </r>
       <r>   23.5578    0.0000 </r>
       <r>   24.1745    0.0000 </r>
       <r>   28.3017    0.0000 </r>
       <r>   30.7733    0.0000 </r>
       <r>   31.4457    0.0000 </r>
       <r>   31.4457    0.0000 </r>
       <r>   34.3644    0.0000 </r>
      </set>
      <set comment="kpoint 4">
       <r>   -1.7641    1.0000 </r>
       <r>    0.6642    1.0000 </r>
       <r>    1.4361    1.0000 </r>
       <r>    1.4361    1.0000 </r>
       <r>    1.5922    1.0000 </r>
       <r>    1.6333    1.0000 </r>
       <r>    1.6333    1.0000 </r>
       <r>    2.0385    1.0000 </r>
       <r>    2.4388    1.0000 </r>
       <r>    2.4388    1.0000 </r>
       <r>    2.4701    1.0000 </r>
       <r>    2.4701    1.0000 </r>
       <r>    2.6084    1.0000 </r>
       <r>    2.8872    1.0000 </r>
       <r>    2.9044    1.0000 </r>
       <r>    2.9044    1.0000 </r>
       <r>    2.9583    1.0000 </r>
       <r>    2.9583    1.0000 </r>
       <r>    2.9780    1.0000 </r>
       <r>    3.0654    1.0000 </r>
       <r>    3.2573    1.0000 </r>
       <r>    3.2573    1.0000 </r>
       <r>    8.1224    0.0000 </r>
       <r>    8.1224    0.0000 </r>
       <r>   10.4540    0.0000 </r>
       <r>   10.4540    0.0000 </r>
       <r>   11.9130    0.0000 </r>
       <r>   11.9130    0.0000 </r>
       <r>   12.7379    0.0000 </r>
       <r>   12.7379    0.0000 </r>
       <r>   15.8523    0.0000 </r>
       <r>   17.1095    0.0000 </r>
       <r>   17.1095    0.0000 </r>
       <r>   20.1541    0.0000 </r>
       <r>   20.9858    0.0000 </r>
       <r>   20.9858    0.0000 </r>
       <r>   21.2834    0.0000 </r>
       <r>   22.1689    0.0000 </r>
       <r>   23.2073    0.0000 </r>
       <r>   24.8041    0.0000 </r>
       <r>   24.8041    0.0000 </r>
       <r>   25.0106    0.0000 </r>
       <r>   25.9334    0.0000 </r>
       <r>   25.9334    0.0000 </r>
       <r>   33.0401    0.0000 </r>
       <r>   33.2880    0.0000 </r>
       <r>   33.2880    0.0000 </r>
       <r>   33.7207    0.0000 </r>
      </set>
      <set comment="kpoint 5">
       <r>   -0.9734    1.0000 </r>
       <r>   -0.0789    1.0000 </r>
       <r>    1.5748    1.0000 </r>
       <r>    1.5748    1.0000 </r>
       <r>    1.7365    1.0000 </r>
       <r>    1.8411    1.0000 </r>
       <r>    1.8411    1.0000 </r>
       <r>    1.8914    1.0000 </r>
       <r>    2.1118    1.0000 </r>
       <r>    2.1118    1.0000 </r>
       <r>    2.5271    1.0000 </r>
       <r>    2.5634    1.0000 </r>
       <r>    2.6162    1.0000 </r>
       <r>    2.6162    1.0000 </r>
       <r>    2.7850    1.0000 </r>
       <r>    2.7850    1.0000 </r>
       <r>    2.7985    1.0000 </r>
       <r>    2.7985    1.0000 </r>
       <r>    2.9454    1.0000 </r>
       <r>    3.0073    1.0000 </r>
       <r>    3.2574    1.0000 </r>
       <r>    3.2574    1.0000 </r>
       <r>    9.2405    0.0000 </r>
       <r>    9.2405    0.0000 </r>
       <r>   10.5121    0.0000 </r>
       <r>   10.5121    0.0000 </r>
       <r>   10.8918    0.0000 </r>
       <r>   10.8918    0.0000 </r>
       <r>   11.8585    0.0000 </r>
       <r>   11.8585    0.0000 </r>
       <r>   18.1797    0.0000 </r>
       <r>   18.1797    0.0000 </r>
       <r>   18.7056    0.0000 </r>
       <r>   19.4832    0.0000 </r>
       <r>   19.4832    0.0000 </r>
       <r>   20.6565    0.0000 </r>
       <r>   21.3254    0.0000 </r>
       <r>   21.7304    0.0000 </r>
       <r>   21.7557    0.0000 </r>
       <r>   22.4383    0.0000 </r>
       <r>   27.4127    0.0000 </r>
       <r>   27.4127    0.0000 </r>
       <r>   28.2451    0.0000 </r>
       <r>   28.2451    0.0000 </r>
       <r>   30.2468    0.0000 </r>
       <r>   30.2468    0.0000 </r>
       <r>   33.0849    0.0000 </r>
       <r>   33.0849    0.0000 </r>
      </set>
      <set comment="kpoint 6">
       <r>   -2.6011    1.0000 </r>
       <r>    1.1180    1.0000 </r>
       <r>    1.1180    1.0000 </r>
       <r>    1.1704    1.0000 </r>
       <r>    1.4277    1.0000 </r>
       <r>    1.4277    1.0000 </r>
       <r>    1.4295    1.0000 </r>
       <r>    2.2248    1.0000 </r>
       <r>    2.3010    1.0000 </r>
       <r>    2.3093    1.0000 </r>
       <r>    2.7680    1.0000 </r>
       <r>    2.8057    1.0000 </r>
       <r>    3.0198    1.0000 </r>
       <r>    3.0421    1.0000 </r>
       <r>    3.0421    1.0000 </r>
       <r>    3.0939    1.0000 </r>
       <r>    3.1379    1.0000 </r>
       <r>    3.1379    1.0000 </r>
       <r>    3.2185    1.0000 </r>
       <r>    3.2185    1.0000 </r>
       <r>    3.2316    1.0000 </r>
       <r>    5.6464   -0.0000 </r>
       <r>    5.6464   -0.0000 </r>
       <r>    6.7657   -0.0000 </r>
       <r>   10.0208    0.0000 </r>
       <r>   11.1139    0.0000 </r>
       <r>   11.1139    0.0000 </r>
       <r>   13.3484    0.0000 </r>
       <r>   15.0091    0.0000 </r>
       <r>   15.0091    0.0000 </r>
       <r>   15.1903    0.0000 </r>
       <r>   15.1903    0.0000 </r>
       <r>   15.9688    0.0000 </r>
       <r>   20.1482    0.0000 </r>
       <r>   20.5741    0.0000 </r>
       <r>   20.5741    0.0000 </r>
       <r>   21.6794    0.0000 </r>
       <r>   21.6794    0.0000 </r>
       <r>   22.6852    0.0000 </r>
       <r>   22.9620    0.0000 </r>
       <r>   23.0543    0.0000 </r>
       <r>   25.4311    0.0000 </r>
       <r>   25.8085    0.0000 </r>
       <r>   28.1931    0.0000 </r>
       <r>   29.1732    0.0000 </r>
       <r>   30.9516    0.0000 </r>
       <r>   31.8304    0.0000 </r>
       <r>   32.0300    0.0000 </r>
      </set>
      <set comment="kpoint 7">
       <r>   -2.2385    1.0000 </r>
       <r>    1.0525    1.0000 </r>
       <r>    1.2602    1.0000 </r>
       <r>    1.2974    1.0000 </r>
       <r>    1.5006    1.0000 </r>
       <r>    1.5104    1.0000 </r>
       <r>    1.5106    1.0000 </r>
       <r>    2.1552    1.0000 </r>
       <r>    2.3628    1.0000 </r>
       <r>    2.3640    1.0000 </r>
       <r>    2.7114    1.0000 </r>
       <r>    2.7204    1.0000 </r>
       <r>    2.7459    1.0000 </r>
       <r>    2.8376    1.0000 </r>
       <r>    2.8837    1.0000 </r>
       <r>    3.0089    1.0000 </r>
       <r>    3.0418    1.0000 </r>
       <r>    3.1094    1.0000 </r>
       <r>    3.1114    1.0000 </r>
       <r>    3.2182    1.0000 </r>
       <r>    3.2187    1.0000 </r>
       <r>    4.2901    1.0081 </r>
       <r>    6.2403   -0.0000 </r>
       <r>    7.3992    0.0000 </r>
       <r>   10.2018    0.0000 </r>
       <r>   11.3616    0.0000 </r>
       <r>   11.7745    0.0000 </r>
       <r>   13.3381    0.0000 </r>
       <r>   13.5519    0.0000 </r>
       <r>   14.0108    0.0000 </r>
       <r>   15.4661    0.0000 </r>
       <r>   15.5552    0.0000 </r>
       <r>   15.6488    0.0000 </r>
       <r>   20.8229    0.0000 </r>
       <r>   21.1013    0.0000 </r>
       <r>   21.2619    0.0000 </r>
       <r>   21.4222    0.0000 </r>
       <r>   21.8860    0.0000 </r>
       <r>   22.5480    0.0000 </r>
       <r>   23.6291    0.0000 </r>
       <r>   24.8187    0.0000 </r>
       <r>   25.1332    0.0000 </r>
       <r>   25.4129    0.0000 </r>
       <r>   28.2040    0.0000 </r>
       <r>   29.4367    0.0000 </r>
       <r>   30.8322    0.0000 </r>
       <r>   33.0172    0.0000 </r>
       <r>   33.0355    0.0000 </r>
      </set>
      <set comment="kpoint 8">
       <r>   -1.6487    1.0000 </r>
       <r>    0.7409    1.0000 </r>
       <r>    1.4499    1.0000 </r>
       <r>    1.4685    1.0000 </r>
       <r>    1.6127    1.0000 </r>
       <r>    1.6422    1.0000 </r>
       <r>    1.6505    1.0000 </r>
       <r>    2.0408    1.0000 </r>
       <r>    2.3692    1.0000 </r>
       <r>    2.4169    1.0000 </r>
       <r>    2.4332    1.0000 </r>
       <r>    2.4715    1.0000 </r>
       <r>    2.6233    1.0000 </r>
       <r>    2.6459    1.0000 </r>
       <r>    2.8892    1.0000 </r>
       <r>    2.8960    1.0000 </r>
       <r>    2.9142    1.0000 </r>
       <r>    2.9576    1.0000 </r>
       <r>    3.0324    1.0000 </r>
       <r>    3.2161    1.0000 </r>
       <r>    3.2175    1.0000 </r>
       <r>    3.3734    1.0000 </r>
       <r>    7.0357   -0.0000 </r>
       <r>    8.3035    0.0000 </r>
       <r>   10.2673    0.0000 </r>
       <r>   10.6122    0.0000 </r>
       <r>   11.7618    0.0000 </r>
       <r>   12.0607    0.0000 </r>
       <r>   12.9003    0.0000 </r>
       <r>   14.4913    0.0000 </r>
       <r>   15.9151    0.0000 </r>
       <r>   16.1948    0.0000 </r>
       <r>   16.4070    0.0000 </r>
       <r>   19.6371    0.0000 </r>
       <r>   19.8950    0.0000 </r>
       <r>   21.2480    0.0000 </r>
       <r>   22.2522    0.0000 </r>
       <r>   23.4157    0.0000 </r>
       <r>   23.6919    0.0000 </r>
       <r>   24.4120    0.0000 </r>
       <r>   24.9035    0.0000 </r>
       <r>   25.0980    0.0000 </r>
       <r>   25.9688    0.0000 </r>
       <r>   27.5734    0.0000 </r>
       <r>   31.6392    0.0000 </r>
       <r>   32.2920    0.0000 </r>
       <r>   32.4322    0.0000 </r>
       <r>   33.3937    0.0000 </r>
      </set>
      <set comment="kpoint 9">
       <r>   -0.8657    1.0000 </r>
       <r>    0.0160    1.0000 </r>
       <r>    1.6043    1.0000 </r>
       <r>    1.6121    1.0000 </r>
       <r>    1.7513    1.0000 </r>
       <r>    1.8159    1.0000 </r>
       <r>    1.8503    1.0000 </r>
       <r>    1.9001    1.0000 </r>
       <r>    2.0584    1.0000 </r>
       <r>    2.1087    1.0000 </r>
       <r>    2.4342    1.0000 </r>
       <r>    2.4369    1.0000 </r>
       <r>    2.6164    1.0000 </r>
       <r>    2.6931    1.0000 </r>
       <r>    2.7844    1.0000 </r>
       <r>    2.7935    1.0000 </r>
       <r>    2.8041    1.0000 </r>
       <r>    2.8607    1.0000 </r>
       <r>    2.9720    1.0000 </r>
       <r>    3.0741    1.0000 </r>
       <r>    3.2163    1.0000 </r>
       <r>    3.2170    1.0000 </r>
       <r>    7.9787    0.0000 </r>
       <r>    9.0661    0.0000 </r>
       <r>    9.4046    0.0000 </r>
       <r>   10.6654    0.0000 </r>
       <r>   11.0650    0.0000 </r>
       <r>   11.7217    0.0000 </r>
       <r>   12.6410    0.0000 </r>
       <r>   13.4468    0.0000 </r>
       <r>   17.1568    0.0000 </r>
       <r>   17.3346    0.0000 </r>
       <r>   18.3147    0.0000 </r>
       <r>   18.5248    0.0000 </r>
       <r>   18.8091    0.0000 </r>
       <r>   21.8391    0.0000 </r>
       <r>   21.8627    0.0000 </r>
       <r>   22.6789    0.0000 </r>
       <r>   22.8026    0.0000 </r>
       <r>   23.5584    0.0000 </r>
       <r>   25.9102    0.0000 </r>
       <r>   27.5156    0.0000 </r>
       <r>   27.7220    0.0000 </r>
       <r>   29.9211    0.0000 </r>
       <r>   30.1680    0.0000 </r>
       <r>   30.3520    0.0000 </r>
       <r>   33.2190    0.0000 </r>
       <r>   33.6546    0.0000 </r>
      </set>
      <set comment="kpoint 10">
       <r>   -1.8833    1.0000 </r>
       <r>    1.2200    1.0000 </r>
       <r>    1.2200    1.0000 </r>
       <r>    1.4009    1.0000 </r>
       <r>    1.5747    1.0000 </r>
       <r>    1.5747    1.0000 </r>
       <r>    1.5796    1.0000 </r>
       <r>    2.1209    1.0000 </r>
       <r>    2.3796    1.0000 </r>
       <r>    2.3979    1.0000 </r>
       <r>    2.5345    1.0000 </r>
       <r>    2.5345    1.0000 </r>
       <r>    2.5843    1.0000 </r>
       <r>    2.6927    1.0000 </r>
       <r>    2.8713    1.0000 </r>
       <r>    2.9401    1.0000 </r>
       <r>    3.0287    1.0000 </r>
       <r>    3.0287    1.0000 </r>
       <r>    3.1100    1.0000 </r>
       <r>    3.1100    1.0000 </r>
       <r>    3.1574    1.0000 </r>
       <r>    4.8486   -0.0000 </r>
       <r>    4.8486   -0.0000 </r>
       <r>    7.9703    0.0000 </r>
       <r>   10.0532    0.0000 </r>
       <r>   10.4611    0.0000 </r>
       <r>   13.5730    0.0000 </r>
       <r>   13.5730    0.0000 </r>
       <r>   13.9841    0.0000 </r>
       <r>   13.9841    0.0000 </r>
       <r>   14.4618    0.0000 </r>
       <r>   14.4618    0.0000 </r>
       <r>   16.9229    0.0000 </r>
       <r>   19.4743    0.0000 </r>
       <r>   19.7979    0.0000 </r>
       <r>   20.5940    0.0000 </r>
       <r>   22.8308    0.0000 </r>
       <r>   22.8308    0.0000 </r>
       <r>   23.8479    0.0000 </r>
       <r>   23.8479    0.0000 </r>
       <r>   26.2603    0.0000 </r>
       <r>   26.5696    0.0000 </r>
       <r>   27.4004    0.0000 </r>
       <r>   27.9647    0.0000 </r>
       <r>   28.6494    0.0000 </r>
       <r>   28.8915    0.0000 </r>
       <r>   32.1416    0.0000 </r>
       <r>   34.1869    0.0000 </r>
      </set>
      <set comment="kpoint 11">
       <r>   -1.3080    1.0000 </r>
       <r>    0.9546    1.0000 </r>
       <r>    1.4495    1.0000 </r>
       <r>    1.5426    1.0000 </r>
       <r>    1.6734    1.0000 </r>
       <r>    1.6828    1.0000 </r>
       <r>    1.6998    1.0000 </r>
       <r>    2.0380    1.0000 </r>
       <r>    2.2094    1.0000 </r>
       <r>    2.3324    1.0000 </r>
       <r>    2.3459    1.0000 </r>
       <r>    2.3870    1.0000 </r>
       <r>    2.4873    1.0000 </r>
       <r>    2.6558    1.0000 </r>
       <r>    2.8415    1.0000 </r>
       <r>    2.9090    1.0000 </r>
       <r>    2.9561    1.0000 </r>
       <r>    2.9577    1.0000 </r>
       <r>    2.9647    1.0000 </r>
       <r>    3.1083    1.0000 </r>
       <r>    3.1239    1.0000 </r>
       <r>    3.8352    1.0000 </r>
       <r>    5.5472   -0.0000 </r>
       <r>    8.6332    0.0000 </r>
       <r>    8.8183    0.0000 </r>
       <r>   10.7920    0.0000 </r>
       <r>   12.4930    0.0000 </r>
       <r>   13.0827    0.0000 </r>
       <r>   14.2423    0.0000 </r>
       <r>   14.6748    0.0000 </r>
       <r>   14.9935    0.0000 </r>
       <r>   16.2995    0.0000 </r>
       <r>   16.6896    0.0000 </r>
       <r>   18.0071    0.0000 </r>
       <r>   18.3102    0.0000 </r>
       <r>   21.9204    0.0000 </r>
       <r>   23.3067    0.0000 </r>
       <r>   24.2261    0.0000 </r>
       <r>   25.2024    0.0000 </r>
       <r>   25.2480    0.0000 </r>
       <r>   25.8114    0.0000 </r>
       <r>   26.0608    0.0000 </r>
       <r>   26.2464    0.0000 </r>
       <r>   29.4913    0.0000 </r>
       <r>   29.8820    0.0000 </r>
       <r>   30.1700    0.0000 </r>
       <r>   31.1663    0.0000 </r>
       <r>   32.8487    0.0000 </r>
      </set>
      <set comment="kpoint 12">
       <r>   -0.5507    1.0000 </r>
       <r>    0.2871    1.0000 </r>
       <r>    1.6584    1.0000 </r>
       <r>    1.7097    1.0000 </r>
       <r>    1.7511    1.0000 </r>
       <r>    1.7946    1.0000 </r>
       <r>    1.8752    1.0000 </r>
       <r>    1.9221    1.0000 </r>
       <r>    1.9374    1.0000 </r>
       <r>    2.0962    1.0000 </r>
       <r>    2.2762    1.0000 </r>
       <r>    2.3371    1.0000 </r>
       <r>    2.6220    1.0000 </r>
       <r>    2.6994    1.0000 </r>
       <r>    2.7679    1.0000 </r>
       <r>    2.7851    1.0000 </r>
       <r>    2.7963    1.0000 </r>
       <r>    2.8273    1.0000 </r>
       <r>    3.1028    1.0000 </r>
       <r>    3.1078    1.0000 </r>
       <r>    3.1111    1.0000 </r>
       <r>    3.3302    1.0000 </r>
       <r>    6.3880   -0.0000 </r>
       <r>    7.4060    0.0000 </r>
       <r>    9.8784    0.0000 </r>
       <r>   11.1121    0.0000 </r>
       <r>   11.3444    0.0000 </r>
       <r>   12.1132    0.0000 </r>
       <r>   14.9062    0.0000 </r>
       <r>   15.5924    0.0000 </r>
       <r>   15.7778    0.0000 </r>
       <r>   15.9041    0.0000 </r>
       <r>   16.7095    0.0000 </r>
       <r>   17.0080    0.0000 </r>
       <r>   19.1089    0.0000 </r>
       <r>   22.1216    0.0000 </r>
       <r>   23.9785    0.0000 </r>
       <r>   24.2836    0.0000 </r>
       <r>   24.7729    0.0000 </r>
       <r>   24.8373    0.0000 </r>
       <r>   25.4749    0.0000 </r>
       <r>   26.5859    0.0000 </r>
       <r>   27.8241    0.0000 </r>
       <r>   30.2723    0.0000 </r>
       <r>   30.5679    0.0000 </r>
       <r>   30.6675    0.0000 </r>
       <r>   31.6514    0.0000 </r>
       <r>   31.9222    0.0000 </r>
      </set>
      <set comment="kpoint 13">
       <r>   -0.7619    1.0000 </r>
       <r>    1.2497    1.0000 </r>
       <r>    1.2497    1.0000 </r>
       <r>    1.6033    1.0000 </r>
       <r>    1.7736    1.0000 </r>
       <r>    1.7736    1.0000 </r>
       <r>    1.7752    1.0000 </r>
       <r>    2.0086    1.0000 </r>
       <r>    2.1034    1.0000 </r>
       <r>    2.1034    1.0000 </r>
       <r>    2.2227    1.0000 </r>
       <r>    2.3497    1.0000 </r>
       <r>    2.5419    1.0000 </r>
       <r>    2.6164    1.0000 </r>
       <r>    2.7655    1.0000 </r>
       <r>    2.8474    1.0000 </r>
       <r>    2.8474    1.0000 </r>
       <r>    2.9566    1.0000 </r>
       <r>    2.9566    1.0000 </r>
       <r>    3.0384    1.0000 </r>
       <r>    3.1124    1.0000 </r>
       <r>    4.3883    1.0265 </r>
       <r>    4.3883    1.0265 </r>
       <r>    7.1870   -0.0000 </r>
       <r>    9.6083    0.0000 </r>
       <r>   11.2016    0.0000 </r>
       <r>   13.1831    0.0000 </r>
       <r>   13.1831    0.0000 </r>
       <r>   13.7265    0.0000 </r>
       <r>   13.7265    0.0000 </r>
       <r>   16.5275    0.0000 </r>
       <r>   16.7956    0.0000 </r>
       <r>   16.7956    0.0000 </r>
       <r>   16.8539    0.0000 </r>
       <r>   18.4199    0.0000 </r>
       <r>   21.3002    0.0000 </r>
       <r>   25.3218    0.0000 </r>
       <r>   25.7007    0.0000 </r>
       <r>   25.7007    0.0000 </r>
       <r>   25.8220    0.0000 </r>
       <r>   26.1554    0.0000 </r>
       <r>   26.1554    0.0000 </r>
       <r>   27.6161    0.0000 </r>
       <r>   28.6141    0.0000 </r>
       <r>   29.4364    0.0000 </r>
       <r>   30.1340    0.0000 </r>
       <r>   30.1340    0.0000 </r>
       <r>   32.3983    0.0000 </r>
      </set>
      <set comment="kpoint 14">
       <r>   -0.0592    1.0000 </r>
       <r>    0.6855    1.0000 </r>
       <r>    1.5184    1.0000 </r>
       <r>    1.6262    1.0000 </r>
       <r>    1.8608    1.0000 </r>
       <r>    1.8628    1.0000 </r>
       <r>    1.9088    1.0000 </r>
       <r>    1.9453    1.0000 </r>
       <r>    1.9465    1.0000 </r>
       <r>    2.0665    1.0000 </r>
       <r>    2.1597    1.0000 </r>
       <r>    2.2735    1.0000 </r>
       <r>    2.6312    1.0000 </r>
       <r>    2.6481    1.0000 </r>
       <r>    2.7068    1.0000 </r>
       <r>    2.7325    1.0000 </r>
       <r>    2.7404    1.0000 </r>
       <r>    2.7938    1.0000 </r>
       <r>    2.9640    1.0000 </r>
       <r>    2.9871    1.0000 </r>
       <r>    3.3297    1.0000 </r>
       <r>    3.6914    1.0000 </r>
       <r>    5.0892   -0.0000 </r>
       <r>    6.0069   -0.0000 </r>
       <r>   10.6211    0.0000 </r>
       <r>   11.8156    0.0000 </r>
       <r>   11.8213    0.0000 </r>
       <r>   12.6550    0.0000 </r>
       <r>   14.1010    0.0000 </r>
       <r>   14.5542    0.0000 </r>
       <r>   15.2215    0.0000 </r>
       <r>   15.5970    0.0000 </r>
       <r>   17.4883    0.0000 </r>
       <r>   18.2728    0.0000 </r>
       <r>   19.6025    0.0000 </r>
       <r>   22.5689    0.0000 </r>
       <r>   22.9347    0.0000 </r>
       <r>   25.3871    0.0000 </r>
       <r>   25.9400    0.0000 </r>
       <r>   26.1424    0.0000 </r>
       <r>   26.3923    0.0000 </r>
       <r>   27.2310    0.0000 </r>
       <r>   28.3358    0.0000 </r>
       <r>   29.1736    0.0000 </r>
       <r>   29.4921    0.0000 </r>
       <r>   30.5737    0.0000 </r>
       <r>   31.1911    0.0000 </r>
       <r>   31.3135    0.0000 </r>
      </set>
      <set comment="kpoint 15">
       <r>    0.5382    1.0000 </r>
       <r>    1.1104    1.0000 </r>
       <r>    1.1104    1.0000 </r>
       <r>    1.4349    1.0000 </r>
       <r>    1.9393    1.0000 </r>
       <r>    1.9393    1.0000 </r>
       <r>    1.9534    1.0000 </r>
       <r>    1.9986    1.0000 </r>
       <r>    2.0130    1.0000 </r>
       <r>    2.0851    1.0000 </r>
       <r>    2.0851    1.0000 </r>
       <r>    2.2074    1.0000 </r>
       <r>    2.5873    1.0000 </r>
       <r>    2.6369    1.0000 </r>
       <r>    2.6434    1.0000 </r>
       <r>    2.6434    1.0000 </r>
       <r>    2.7123    1.0000 </r>
       <r>    2.8223    1.0000 </r>
       <r>    2.8223    1.0000 </r>
       <r>    2.8848    1.0000 </r>
       <r>    3.6563    1.0000 </r>
       <r>    4.1903    1.0001 </r>
       <r>    4.1903    1.0001 </r>
       <r>    4.9337   -0.0000 </r>
       <r>   11.5917    0.0000 </r>
       <r>   12.4994    0.0000 </r>
       <r>   12.7592    0.0000 </r>
       <r>   12.7592    0.0000 </r>
       <r>   13.4109    0.0000 </r>
       <r>   13.4109    0.0000 </r>
       <r>   13.8988    0.0000 </r>
       <r>   14.3914    0.0000 </r>
       <r>   20.2409    0.0000 </r>
       <r>   20.2409    0.0000 </r>
       <r>   20.3743    0.0000 </r>
       <r>   22.3785    0.0000 </r>
       <r>   22.7127    0.0000 </r>
       <r>   23.8889    0.0000 </r>
       <r>   24.3442    0.0000 </r>
       <r>   24.3442    0.0000 </r>
       <r>   29.0318    0.0000 </r>
       <r>   29.0318    0.0000 </r>
       <r>   29.4447    0.0000 </r>
       <r>   30.5243    0.0000 </r>
       <r>   30.5880    0.0000 </r>
       <r>   30.8858    0.0000 </r>
       <r>   30.8858    0.0000 </r>
       <r>   31.7100    0.0000 </r>
      </set>
      <set comment="kpoint 16">
       <r>   -2.4798    1.0000 </r>
       <r>    1.1663    1.0000 </r>
       <r>    1.1663    1.0000 </r>
       <r>    1.1663    1.0000 </r>
       <r>    1.4541    1.0000 </r>
       <r>    1.4541    1.0000 </r>
       <r>    1.4541    1.0000 </r>
       <r>    2.2130    1.0000 </r>
       <r>    2.3172    1.0000 </r>
       <r>    2.3172    1.0000 </r>
       <r>    2.7837    1.0000 </r>
       <r>    2.7837    1.0000 </r>
       <r>    2.9618    1.0000 </r>
       <r>    2.9618    1.0000 </r>
       <r>    2.9618    1.0000 </r>
       <r>    3.0582    1.0000 </r>
       <r>    3.0582    1.0000 </r>
       <r>    3.0582    1.0000 </r>
       <r>    3.2226    1.0000 </r>
       <r>    3.2226    1.0000 </r>
       <r>    3.2226    1.0000 </r>
       <r>    5.8626   -0.0000 </r>
       <r>    5.8626   -0.0000 </r>
       <r>    5.8626   -0.0000 </r>
       <r>   11.1950    0.0000 </r>
       <r>   11.1950    0.0000 </r>
       <r>   11.1950    0.0000 </r>
       <r>   13.4977    0.0000 </r>
       <r>   13.4977    0.0000 </r>
       <r>   13.4977    0.0000 </r>
       <r>   16.1339    0.0000 </r>
       <r>   16.1339    0.0000 </r>
       <r>   16.1339    0.0000 </r>
       <r>   20.2133    0.0000 </r>
       <r>   20.2133    0.0000 </r>
       <r>   20.2133    0.0000 </r>
       <r>   21.0642    0.0000 </r>
       <r>   23.0430    0.0000 </r>
       <r>   23.0430    0.0000 </r>
       <r>   23.0430    0.0000 </r>
       <r>   24.6395    0.0000 </r>
       <r>   24.6395    0.0000 </r>
       <r>   24.9628    0.0000 </r>
       <r>   29.5019    0.0000 </r>
       <r>   29.5019    0.0000 </r>
       <r>   30.1401    0.0000 </r>
       <r>   32.1691    0.0000 </r>
       <r>   32.1691    0.0000 </r>
      </set>
      <set comment="kpoint 17">
       <r>   -2.1198    1.0000 </r>
       <r>    1.1073    1.0000 </r>
       <r>    1.2981    1.0000 </r>
       <r>    1.2981    1.0000 </r>
       <r>    1.5252    1.0000 </r>
       <r>    1.5333    1.0000 </r>
       <r>    1.5333    1.0000 </r>
       <r>    2.1527    1.0000 </r>
       <r>    2.3641    1.0000 </r>
       <r>    2.3667    1.0000 </r>
       <r>    2.6778    1.0000 </r>
       <r>    2.6778    1.0000 </r>
       <r>    2.7286    1.0000 </r>
       <r>    2.7849    1.0000 </r>
       <r>    2.8289    1.0000 </r>
       <r>    2.9639    1.0000 </r>
       <r>    2.9850    1.0000 </r>
       <r>    2.9850    1.0000 </r>
       <r>    3.1904    1.0000 </r>
       <r>    3.2081    1.0000 </r>
       <r>    3.2081    1.0000 </r>
       <r>    4.4991    0.4203 </r>
       <r>    6.4177   -0.0000 </r>
       <r>    6.4177   -0.0000 </r>
       <r>   11.4062    0.0000 </r>
       <r>   11.4062    0.0000 </r>
       <r>   11.9636    0.0000 </r>
       <r>   11.9636    0.0000 </r>
       <r>   13.3920    0.0000 </r>
       <r>   13.9675    0.0000 </r>
       <r>   15.7020    0.0000 </r>
       <r>   15.7020    0.0000 </r>
       <r>   16.6205    0.0000 </r>
       <r>   19.4152    0.0000 </r>
       <r>   20.4120    0.0000 </r>
       <r>   21.3379    0.0000 </r>
       <r>   21.3379    0.0000 </r>
       <r>   22.8983    0.0000 </r>
       <r>   23.2909    0.0000 </r>
       <r>   23.8020    0.0000 </r>
       <r>   25.2164    0.0000 </r>
       <r>   25.2164    0.0000 </r>
       <r>   26.1576    0.0000 </r>
       <r>   28.1171    0.0000 </r>
       <r>   29.5557    0.0000 </r>
       <r>   31.5729    0.0000 </r>
       <r>   31.7325    0.0000 </r>
       <r>   32.6755    0.0000 </r>
      </set>
      <set comment="kpoint 18">
       <r>   -1.5351    1.0000 </r>
       <r>    0.8100    1.0000 </r>
       <r>    1.4765    1.0000 </r>
       <r>    1.4765    1.0000 </r>
       <r>    1.6348    1.0000 </r>
       <r>    1.6598    1.0000 </r>
       <r>    1.6598    1.0000 </r>
       <r>    2.0460    1.0000 </r>
       <r>    2.3583    1.0000 </r>
       <r>    2.3583    1.0000 </r>
       <r>    2.4196    1.0000 </r>
       <r>    2.4488    1.0000 </r>
       <r>    2.5234    1.0000 </r>
       <r>    2.6914    1.0000 </r>
       <r>    2.8346    1.0000 </r>
       <r>    2.8799    1.0000 </r>
       <r>    2.8799    1.0000 </r>
       <r>    2.8962    1.0000 </r>
       <r>    3.1338    1.0000 </r>
       <r>    3.1952    1.0000 </r>
       <r>    3.1952    1.0000 </r>
       <r>    3.5269    1.0000 </r>
       <r>    7.1853   -0.0000 </r>
       <r>    7.1853   -0.0000 </r>
       <r>   10.4435    0.0000 </r>
       <r>   10.4435    0.0000 </r>
       <r>   11.9466    0.0000 </r>
       <r>   11.9466    0.0000 </r>
       <r>   14.5785    0.0000 </r>
       <r>   14.6242    0.0000 </r>
       <r>   14.6242    0.0000 </r>
       <r>   16.0717    0.0000 </r>
       <r>   17.4054    0.0000 </r>
       <r>   17.9310    0.0000 </r>
       <r>   20.7546    0.0000 </r>
       <r>   21.2389    0.0000 </r>
       <r>   22.7871    0.0000 </r>
       <r>   23.4926    0.0000 </r>
       <r>   23.4926    0.0000 </r>
       <r>   23.7174    0.0000 </r>
       <r>   25.1049    0.0000 </r>
       <r>   25.9732    0.0000 </r>
       <r>   27.6267    0.0000 </r>
       <r>   27.6267    0.0000 </r>
       <r>   30.5836    0.0000 </r>
       <r>   32.5338    0.0000 </r>
       <r>   32.5338    0.0000 </r>
       <r>   32.8768    0.0000 </r>
      </set>
      <set comment="kpoint 19">
       <r>   -0.7610    1.0000 </r>
       <r>    0.1053    1.0000 </r>
       <r>    1.6390    1.0000 </r>
       <r>    1.6390    1.0000 </r>
       <r>    1.7693    1.0000 </r>
       <r>    1.7987    1.0000 </r>
       <r>    1.7987    1.0000 </r>
       <r>    1.9123    1.0000 </r>
       <r>    2.0898    1.0000 </r>
       <r>    2.0898    1.0000 </r>
       <r>    2.3801    1.0000 </r>
       <r>    2.3986    1.0000 </r>
       <r>    2.5605    1.0000 </r>
       <r>    2.6937    1.0000 </r>
       <r>    2.7854    1.0000 </r>
       <r>    2.7854    1.0000 </r>
       <r>    2.7906    1.0000 </r>
       <r>    2.9766    1.0000 </r>
       <r>    3.0413    1.0000 </r>
       <r>    3.0592    1.0000 </r>
       <r>    3.1896    1.0000 </r>
       <r>    3.1896    1.0000 </r>
       <r>    8.1073    0.0000 </r>
       <r>    8.1073    0.0000 </r>
       <r>    9.2061    0.0000 </r>
       <r>    9.2061    0.0000 </r>
       <r>   12.5679    0.0000 </r>
       <r>   12.5679    0.0000 </r>
       <r>   13.5976    0.0000 </r>
       <r>   13.5976    0.0000 </r>
       <r>   15.5030    0.0000 </r>
       <r>   16.6238    0.0000 </r>
       <r>   18.4581    0.0000 </r>
       <r>   18.9058    0.0000 </r>
       <r>   19.7465    0.0000 </r>
       <r>   21.2568    0.0000 </r>
       <r>   21.8692    0.0000 </r>
       <r>   22.0023    0.0000 </r>
       <r>   24.3318    0.0000 </r>
       <r>   25.1215    0.0000 </r>
       <r>   25.9027    0.0000 </r>
       <r>   25.9027    0.0000 </r>
       <r>   28.9836    0.0000 </r>
       <r>   28.9836    0.0000 </r>
       <r>   30.8289    0.0000 </r>
       <r>   30.8289    0.0000 </r>
       <r>   32.7580    0.0000 </r>
       <r>   33.7517    0.0000 </r>
      </set>
      <set comment="kpoint 20">
       <r>   -1.7683    1.0000 </r>
       <r>    1.2555    1.0000 </r>
       <r>    1.2555    1.0000 </r>
       <r>    1.3969    1.0000 </r>
       <r>    1.6004    1.0000 </r>
       <r>    1.6004    1.0000 </r>
       <r>    1.6043    1.0000 </r>
       <r>    2.1256    1.0000 </r>
       <r>    2.3767    1.0000 </r>
       <r>    2.3869    1.0000 </r>
       <r>    2.5029    1.0000 </r>
       <r>    2.5029    1.0000 </r>
       <r>    2.5318    1.0000 </r>
       <r>    2.7309    1.0000 </r>
       <r>    2.8552    1.0000 </r>
       <r>    2.8851    1.0000 </r>
       <r>    2.9017    1.0000 </r>
       <r>    2.9017    1.0000 </r>
       <r>    3.1782    1.0000 </r>
       <r>    3.1784    1.0000 </r>
       <r>    3.1784    1.0000 </r>
       <r>    4.9971   -0.0000 </r>
       <r>    4.9971   -0.0000 </r>
       <r>    6.9001   -0.0000 </r>
       <r>   10.2096    0.0000 </r>
       <r>   11.7740    0.0000 </r>
       <r>   12.2804    0.0000 </r>
       <r>   12.2804    0.0000 </r>
       <r>   13.7725    0.0000 </r>
       <r>   13.7725    0.0000 </r>
       <r>   16.1351    0.0000 </r>
       <r>   16.1351    0.0000 </r>
       <r>   17.0756    0.0000 </r>
       <r>   17.7417    0.0000 </r>
       <r>   20.6557    0.0000 </r>
       <r>   21.5704    0.0000 </r>
       <r>   21.5704    0.0000 </r>
       <r>   21.6855    0.0000 </r>
       <r>   25.3358    0.0000 </r>
       <r>   25.4683    0.0000 </r>
       <r>   25.4683    0.0000 </r>
       <r>   25.5143    0.0000 </r>
       <r>   27.4838    0.0000 </r>
       <r>   28.6746    0.0000 </r>
       <r>   28.9693    0.0000 </r>
       <r>   30.0877    0.0000 </r>
       <r>   31.9854    0.0000 </r>
       <r>   32.9825    0.0000 </r>
      </set>
      <set comment="kpoint 21">
       <r>   -1.2004    1.0000 </r>
       <r>    0.9966    1.0000 </r>
       <r>    1.4505    1.0000 </r>
       <r>    1.5255    1.0000 </r>
       <r>    1.7038    1.0000 </r>
       <r>    1.7093    1.0000 </r>
       <r>    1.7212    1.0000 </r>
       <r>    2.0533    1.0000 </r>
       <r>    2.2252    1.0000 </r>
       <r>    2.3150    1.0000 </r>
       <r>    2.3189    1.0000 </r>
       <r>    2.3823    1.0000 </r>
       <r>    2.4419    1.0000 </r>
       <r>    2.7259    1.0000 </r>
       <r>    2.7742    1.0000 </r>
       <r>    2.7949    1.0000 </r>
       <r>    2.8274    1.0000 </r>
       <r>    2.9494    1.0000 </r>
       <r>    3.1181    1.0000 </r>
       <r>    3.1434    1.0000 </r>
       <r>    3.1442    1.0000 </r>
       <r>    3.9222    1.0000 </r>
       <r>    5.6656   -0.0000 </r>
       <r>    7.5901    0.0000 </r>
       <r>    8.7862    0.0000 </r>
       <r>   10.8530    0.0000 </r>
       <r>   12.2452    0.0000 </r>
       <r>   12.9578    0.0000 </r>
       <r>   14.2246    0.0000 </r>
       <r>   15.0403    0.0000 </r>
       <r>   16.2515    0.0000 </r>
       <r>   16.3503    0.0000 </r>
       <r>   16.8214    0.0000 </r>
       <r>   16.8467    0.0000 </r>
       <r>   20.2184    0.0000 </r>
       <r>   21.9717    0.0000 </r>
       <r>   21.9891    0.0000 </r>
       <r>   23.7224    0.0000 </r>
       <r>   24.3181    0.0000 </r>
       <r>   25.2293    0.0000 </r>
       <r>   25.8922    0.0000 </r>
       <r>   27.4659    0.0000 </r>
       <r>   27.7645    0.0000 </r>
       <r>   29.1253    0.0000 </r>
       <r>   29.9230    0.0000 </r>
       <r>   30.6953    0.0000 </r>
       <r>   31.2773    0.0000 </r>
       <r>   32.8338    0.0000 </r>
      </set>
      <set comment="kpoint 22">
       <r>   -0.4569    1.0000 </r>
       <r>    0.3566    1.0000 </r>
       <r>    1.6310    1.0000 </r>
       <r>    1.6609    1.0000 </r>
       <r>    1.7660    1.0000 </r>
       <r>    1.8047    1.0000 </r>
       <r>    1.8252    1.0000 </r>
       <r>    1.9470    1.0000 </r>
       <r>    2.0639    1.0000 </r>
       <r>    2.1357    1.0000 </r>
       <r>    2.2674    1.0000 </r>
       <r>    2.3301    1.0000 </r>
       <r>    2.5255    1.0000 </r>
       <r>    2.6399    1.0000 </r>
       <r>    2.7279    1.0000 </r>
       <r>    2.7449    1.0000 </r>
       <r>    2.8301    1.0000 </r>
       <r>    3.0026    1.0000 </r>
       <r>    3.0830    1.0000 </r>
       <r>    3.1227    1.0000 </r>
       <r>    3.1232    1.0000 </r>
       <r>    3.3315    1.0000 </r>
       <r>    6.4897   -0.0000 </r>
       <r>    7.4778    0.0000 </r>
       <r>    8.5651    0.0000 </r>
       <r>    9.6071    0.0000 </r>
       <r>   12.9398    0.0000 </r>
       <r>   13.8363    0.0000 </r>
       <r>   13.8522    0.0000 </r>
       <r>   14.9531    0.0000 </r>
       <r>   15.0332    0.0000 </r>
       <r>   15.8970    0.0000 </r>
       <r>   17.7527    0.0000 </r>
       <r>   18.8965    0.0000 </r>
       <r>   19.2054    0.0000 </r>
       <r>   22.2022    0.0000 </r>
       <r>   22.5589    0.0000 </r>
       <r>   23.3475    0.0000 </r>
       <r>   24.3105    0.0000 </r>
       <r>   25.7340    0.0000 </r>
       <r>   26.4794    0.0000 </r>
       <r>   27.1601    0.0000 </r>
       <r>   28.0435    0.0000 </r>
       <r>   29.6306    0.0000 </r>
       <r>   30.4390    0.0000 </r>
       <r>   31.2159    0.0000 </r>
       <r>   31.6901    0.0000 </r>
       <r>   32.0275    0.0000 </r>
      </set>
      <set comment="kpoint 23">
       <r>   -0.6669    1.0000 </r>
       <r>    1.2352    1.0000 </r>
       <r>    1.2352    1.0000 </r>
       <r>    1.5462    1.0000 </r>
       <r>    1.8106    1.0000 </r>
       <r>    1.8230    1.0000 </r>
       <r>    1.8230    1.0000 </r>
       <r>    2.0412    1.0000 </r>
       <r>    2.1325    1.0000 </r>
       <r>    2.1325    1.0000 </r>
       <r>    2.2465    1.0000 </r>
       <r>    2.3493    1.0000 </r>
       <r>    2.4546    1.0000 </r>
       <r>    2.7016    1.0000 </r>
       <r>    2.7206    1.0000 </r>
       <r>    2.7206    1.0000 </r>
       <r>    2.7235    1.0000 </r>
       <r>    3.0654    1.0000 </r>
       <r>    3.0654    1.0000 </r>
       <r>    3.0829    1.0000 </r>
       <r>    3.0922    1.0000 </r>
       <r>    4.4551    0.7737 </r>
       <r>    4.4551    0.7737 </r>
       <r>    7.2293    0.0000 </r>
       <r>    8.3592    0.0000 </r>
       <r>   11.5052    0.0000 </r>
       <r>   11.5052    0.0000 </r>
       <r>   12.7602    0.0000 </r>
       <r>   14.7605    0.0000 </r>
       <r>   15.5949    0.0000 </r>
       <r>   15.5949    0.0000 </r>
       <r>   16.9034    0.0000 </r>
       <r>   16.9034    0.0000 </r>
       <r>   18.5545    0.0000 </r>
       <r>   18.8055    0.0000 </r>
       <r>   21.3560    0.0000 </r>
       <r>   24.0973    0.0000 </r>
       <r>   24.0973    0.0000 </r>
       <r>   25.1421    0.0000 </r>
       <r>   25.4377    0.0000 </r>
       <r>   27.4143    0.0000 </r>
       <r>   27.7679    0.0000 </r>
       <r>   27.8859    0.0000 </r>
       <r>   27.8859    0.0000 </r>
       <r>   30.3161    0.0000 </r>
       <r>   30.3161    0.0000 </r>
       <r>   31.1071    0.0000 </r>
       <r>   32.3320    0.0000 </r>
      </set>
      <set comment="kpoint 24">
       <r>    0.0111    1.0000 </r>
       <r>    0.7127    1.0000 </r>
       <r>    1.4309    1.0000 </r>
       <r>    1.5273    1.0000 </r>
       <r>    1.8970    1.0000 </r>
       <r>    1.9229    1.0000 </r>
       <r>    1.9329    1.0000 </r>
       <r>    1.9965    1.0000 </r>
       <r>    2.0618    1.0000 </r>
       <r>    2.1589    1.0000 </r>
       <r>    2.1720    1.0000 </r>
       <r>    2.2769    1.0000 </r>
       <r>    2.5003    1.0000 </r>
       <r>    2.5970    1.0000 </r>
       <r>    2.6414    1.0000 </r>
       <r>    2.6585    1.0000 </r>
       <r>    2.7976    1.0000 </r>
       <r>    2.9412    1.0000 </r>
       <r>    3.0301    1.0000 </r>
       <r>    3.0372    1.0000 </r>
       <r>    3.3084    1.0000 </r>
       <r>    3.6953    1.0000 </r>
       <r>    5.1524   -0.0000 </r>
       <r>    6.0717   -0.0000 </r>
       <r>    9.1947    0.0000 </r>
       <r>   10.2497    0.0000 </r>
       <r>   12.3818    0.0000 </r>
       <r>   13.4691    0.0000 </r>
       <r>   13.4982    0.0000 </r>
       <r>   14.4550    0.0000 </r>
       <r>   16.4677    0.0000 </r>
       <r>   17.5407    0.0000 </r>
       <r>   17.5942    0.0000 </r>
       <r>   18.3866    0.0000 </r>
       <r>   19.6966    0.0000 </r>
       <r>   22.6340    0.0000 </r>
       <r>   22.9776    0.0000 </r>
       <r>   24.5847    0.0000 </r>
       <r>   25.0740    0.0000 </r>
       <r>   25.1124    0.0000 </r>
       <r>   27.5564    0.0000 </r>
       <r>   27.7873    0.0000 </r>
       <r>   27.8442    0.0000 </r>
       <r>   29.2101    0.0000 </r>
       <r>   29.8699    0.0000 </r>
       <r>   30.1928    0.0000 </r>
       <r>   31.4471    0.0000 </r>
       <r>   31.6085    0.0000 </r>
      </set>
      <set comment="kpoint 25">
       <r>    0.5637    1.0000 </r>
       <r>    1.0708    1.0000 </r>
       <r>    1.0708    1.0000 </r>
       <r>    1.3414    1.0000 </r>
       <r>    2.0251    1.0000 </r>
       <r>    2.0404    1.0000 </r>
       <r>    2.0501    1.0000 </r>
       <r>    2.0501    1.0000 </r>
       <r>    2.1050    1.0000 </r>
       <r>    2.1050    1.0000 </r>
       <r>    2.1406    1.0000 </r>
       <r>    2.2189    1.0000 </r>
       <r>    2.4920    1.0000 </r>
       <r>    2.5540    1.0000 </r>
       <r>    2.5540    1.0000 </r>
       <r>    2.5634    1.0000 </r>
       <r>    2.8163    1.0000 </r>
       <r>    2.9140    1.0000 </r>
       <r>    2.9140    1.0000 </r>
       <r>    2.9536    1.0000 </r>
       <r>    3.6403    1.0000 </r>
       <r>    4.2042    1.0002 </r>
       <r>    4.2042    1.0002 </r>
       <r>    4.9720   -0.0000 </r>
       <r>   10.0506    0.0000 </r>
       <r>   11.1134    0.0000 </r>
       <r>   11.1134    0.0000 </r>
       <r>   12.1878    0.0000 </r>
       <r>   14.2779    0.0000 </r>
       <r>   15.2760    0.0000 </r>
       <r>   15.2760    0.0000 </r>
       <r>   16.3104    0.0000 </r>
       <r>   20.3344    0.0000 </r>
       <r>   20.3344    0.0000 </r>
       <r>   20.4840    0.0000 </r>
       <r>   22.4157    0.0000 </r>
       <r>   22.7760    0.0000 </r>
       <r>   23.8630    0.0000 </r>
       <r>   24.2716    0.0000 </r>
       <r>   24.2716    0.0000 </r>
       <r>   28.2424    0.0000 </r>
       <r>   28.2424    0.0000 </r>
       <r>   28.7408    0.0000 </r>
       <r>   29.0712    0.0000 </r>
       <r>   30.6713    0.0000 </r>
       <r>   31.0894    0.0000 </r>
       <r>   31.2930    0.0000 </r>
       <r>   31.2930    0.0000 </r>
      </set>
      <set comment="kpoint 26">
       <r>   -1.4290    1.0000 </r>
       <r>    1.3407    1.0000 </r>
       <r>    1.3407    1.0000 </r>
       <r>    1.3407    1.0000 </r>
       <r>    1.6818    1.0000 </r>
       <r>    1.6818    1.0000 </r>
       <r>    1.6818    1.0000 </r>
       <r>    2.1265    1.0000 </r>
       <r>    2.3754    1.0000 </r>
       <r>    2.3754    1.0000 </r>
       <r>    2.3965    1.0000 </r>
       <r>    2.3965    1.0000 </r>
       <r>    2.3965    1.0000 </r>
       <r>    2.7702    1.0000 </r>
       <r>    2.7702    1.0000 </r>
       <r>    2.7702    1.0000 </r>
       <r>    2.8216    1.0000 </r>
       <r>    2.8216    1.0000 </r>
       <r>    3.1974    1.0000 </r>
       <r>    3.1974    1.0000 </r>
       <r>    3.1974    1.0000 </r>
       <r>    5.4010   -0.0000 </r>
       <r>    5.4010   -0.0000 </r>
       <r>    5.4010   -0.0000 </r>
       <r>   10.6206    0.0000 </r>
       <r>   10.6206    0.0000 </r>
       <r>   10.6206    0.0000 </r>
       <r>   14.0715    0.0000 </r>
       <r>   14.0715    0.0000 </r>
       <r>   14.0715    0.0000 </r>
       <r>   16.0460    0.0000 </r>
       <r>   17.5280    0.0000 </r>
       <r>   17.5280    0.0000 </r>
       <r>   17.5280    0.0000 </r>
       <r>   20.8454    0.0000 </r>
       <r>   20.8454    0.0000 </r>
       <r>   20.8454    0.0000 </r>
       <r>   23.5899    0.0000 </r>
       <r>   23.5899    0.0000 </r>
       <r>   24.5981    0.0000 </r>
       <r>   27.7334    0.0000 </r>
       <r>   27.7334    0.0000 </r>
       <r>   27.7334    0.0000 </r>
       <r>   29.3110    0.0000 </r>
       <r>   29.3110    0.0000 </r>
       <r>   29.6858    0.0000 </r>
       <r>   32.3400    0.0000 </r>
       <r>   32.3400    0.0000 </r>
      </set>
      <set comment="kpoint 27">
       <r>   -0.8861    1.0000 </r>
       <r>    1.0958    1.0000 </r>
       <r>    1.4324    1.0000 </r>
       <r>    1.4324    1.0000 </r>
       <r>    1.8009    1.0000 </r>
       <r>    1.8009    1.0000 </r>
       <r>    1.8010    1.0000 </r>
       <r>    2.0962    1.0000 </r>
       <r>    2.2617    1.0000 </r>
       <r>    2.2617    1.0000 </r>
       <r>    2.2638    1.0000 </r>
       <r>    2.3669    1.0000 </r>
       <r>    2.3906    1.0000 </r>
       <r>    2.6431    1.0000 </r>
       <r>    2.6902    1.0000 </r>
       <r>    2.6902    1.0000 </r>
       <r>    2.8354    1.0000 </r>
       <r>    2.9315    1.0000 </r>
       <r>    3.1680    1.0000 </r>
       <r>    3.1680    1.0000 </r>
       <r>    3.1810    1.0000 </r>
       <r>    4.1995    1.0002 </r>
       <r>    5.9944   -0.0000 </r>
       <r>    5.9944   -0.0000 </r>
       <r>    9.1818    0.0000 </r>
       <r>    9.1818    0.0000 </r>
       <r>   11.2770    0.0000 </r>
       <r>   14.5472    0.0000 </r>
       <r>   14.5812    0.0000 </r>
       <r>   14.5812    0.0000 </r>
       <r>   16.6775    0.0000 </r>
       <r>   17.2129    0.0000 </r>
       <r>   17.2129    0.0000 </r>
       <r>   18.2651    0.0000 </r>
       <r>   21.1762    0.0000 </r>
       <r>   21.9558    0.0000 </r>
       <r>   22.1989    0.0000 </r>
       <r>   22.1989    0.0000 </r>
       <r>   23.1625    0.0000 </r>
       <r>   25.0269    0.0000 </r>
       <r>   27.4552    0.0000 </r>
       <r>   28.1426    0.0000 </r>
       <r>   29.8713    0.0000 </r>
       <r>   29.9518    0.0000 </r>
       <r>   29.9518    0.0000 </r>
       <r>   29.9699    0.0000 </r>
       <r>   31.6385    0.0000 </r>
       <r>   31.6385    0.0000 </r>
      </set>
      <set comment="kpoint 28">
       <r>   -0.1901    1.0000 </r>
       <r>    0.5412    1.0000 </r>
       <r>    1.4978    1.0000 </r>
       <r>    1.4978    1.0000 </r>
       <r>    1.8669    1.0000 </r>
       <r>    1.8669    1.0000 </r>
       <r>    1.9265    1.0000 </r>
       <r>    2.0275    1.0000 </r>
       <r>    2.2092    1.0000 </r>
       <r>    2.2092    1.0000 </r>
       <r>    2.2420    1.0000 </r>
       <r>    2.3087    1.0000 </r>
       <r>    2.4417    1.0000 </r>
       <r>    2.5285    1.0000 </r>
       <r>    2.6339    1.0000 </r>
       <r>    2.6339    1.0000 </r>
       <r>    3.0078    1.0000 </r>
       <r>    3.0381    1.0000 </r>
       <r>    3.1253    1.0000 </r>
       <r>    3.1353    1.0000 </r>
       <r>    3.1353    1.0000 </r>
       <r>    3.4242    1.0000 </r>
       <r>    6.6967   -0.0000 </r>
       <r>    6.6967   -0.0000 </r>
       <r>    8.0511    0.0000 </r>
       <r>    8.0511    0.0000 </r>
       <r>   12.1582    0.0000 </r>
       <r>   13.2504    0.0000 </r>
       <r>   15.2819    0.0000 </r>
       <r>   15.2819    0.0000 </r>
       <r>   16.2651    0.0000 </r>
       <r>   16.2651    0.0000 </r>
       <r>   19.2652    0.0000 </r>
       <r>   19.4931    0.0000 </r>
       <r>   20.5040    0.0000 </r>
       <r>   21.6661    0.0000 </r>
       <r>   22.3294    0.0000 </r>
       <r>   22.4452    0.0000 </r>
       <r>   24.3555    0.0000 </r>
       <r>   24.3555    0.0000 </r>
       <r>   28.3772    0.0000 </r>
       <r>   28.3772    0.0000 </r>
       <r>   28.6697    0.0000 </r>
       <r>   28.8651    0.0000 </r>
       <r>   30.0071    0.0000 </r>
       <r>   30.6452    0.0000 </r>
       <r>   31.6242    0.0000 </r>
       <r>   31.7966    0.0000 </r>
      </set>
      <set comment="kpoint 29">
       <r>   -0.3958    1.0000 </r>
       <r>    1.1977    1.0000 </r>
       <r>    1.1977    1.0000 </r>
       <r>    1.3895    1.0000 </r>
       <r>    1.9123    1.0000 </r>
       <r>    1.9449    1.0000 </r>
       <r>    1.9449    1.0000 </r>
       <r>    2.1489    1.0000 </r>
       <r>    2.2206    1.0000 </r>
       <r>    2.2206    1.0000 </r>
       <r>    2.3026    1.0000 </r>
       <r>    2.3438    1.0000 </r>
       <r>    2.3694    1.0000 </r>
       <r>    2.5711    1.0000 </r>
       <r>    2.5711    1.0000 </r>
       <r>    2.5809    1.0000 </r>
       <r>    2.8641    1.0000 </r>
       <r>    3.0380    1.0000 </r>
       <r>    3.1476    1.0000 </r>
       <r>    3.1585    1.0000 </r>
       <r>    3.1585    1.0000 </r>
       <r>    4.6651   -0.0162 </r>
       <r>    4.6651   -0.0162 </r>
       <r>    6.4044   -0.0000 </r>
       <r>    7.8803    0.0000 </r>
       <r>    9.8200    0.0000 </r>
       <r>    9.8200    0.0000 </r>
       <r>   13.0480    0.0000 </r>
       <r>   15.1164    0.0000 </r>
       <r>   17.1755    0.0000 </r>
       <r>   17.1755    0.0000 </r>
       <r>   17.8592    0.0000 </r>
       <r>   17.8592    0.0000 </r>
       <r>   18.9554    0.0000 </r>
       <r>   21.0284    0.0000 </r>
       <r>   21.5279    0.0000 </r>
       <r>   22.5583    0.0000 </r>
       <r>   22.5583    0.0000 </r>
       <r>   24.2609    0.0000 </r>
       <r>   24.6504    0.0000 </r>
       <r>   26.9052    0.0000 </r>
       <r>   27.9921    0.0000 </r>
       <r>   29.5122    0.0000 </r>
       <r>   29.5122    0.0000 </r>
       <r>   30.8656    0.0000 </r>
       <r>   31.1339    0.0000 </r>
       <r>   31.1339    0.0000 </r>
       <r>   31.4180    0.0000 </r>
      </set>
      <set comment="kpoint 30">
       <r>    0.2002    1.0000 </r>
       <r>    0.7753    1.0000 </r>
       <r>    1.2756    1.0000 </r>
       <r>    1.3365    1.0000 </r>
       <r>    1.9870    1.0000 </r>
       <r>    2.0096    1.0000 </r>
       <r>    2.0990    1.0000 </r>
       <r>    2.1700    1.0000 </r>
       <r>    2.2186    1.0000 </r>
       <r>    2.2803    1.0000 </r>
       <r>    2.2817    1.0000 </r>
       <r>    2.3340    1.0000 </r>
       <r>    2.3938    1.0000 </r>
       <r>    2.4659    1.0000 </r>
       <r>    2.5213    1.0000 </r>
       <r>    2.5269    1.0000 </r>
       <r>    2.9608    1.0000 </r>
       <r>    3.0934    1.0000 </r>
       <r>    3.1123    1.0000 </r>
       <r>    3.1153    1.0000 </r>
       <r>    3.2463    1.0000 </r>
       <r>    3.7333    1.0000 </r>
       <r>    5.3201   -0.0000 </r>
       <r>    6.1223   -0.0000 </r>
       <r>    7.7429    0.0000 </r>
       <r>    8.6152    0.0000 </r>
       <r>   10.6824    0.0000 </r>
       <r>   11.7593    0.0000 </r>
       <r>   15.8612    0.0000 </r>
       <r>   16.7928    0.0000 </r>
       <r>   17.9167    0.0000 </r>
       <r>   18.7075    0.0000 </r>
       <r>   18.7266    0.0000 </r>
       <r>   19.7855    0.0000 </r>
       <r>   19.9790    0.0000 </r>
       <r>   22.8120    0.0000 </r>
       <r>   23.0736    0.0000 </r>
       <r>   23.0987    0.0000 </r>
       <r>   23.7346    0.0000 </r>
       <r>   24.2922    0.0000 </r>
       <r>   27.5481    0.0000 </r>
       <r>   27.6869    0.0000 </r>
       <r>   28.6375    0.0000 </r>
       <r>   28.7358    0.0000 </r>
       <r>   28.8335    0.0000 </r>
       <r>   30.7674    0.0000 </r>
       <r>   31.4719    0.0000 </r>
       <r>   31.7566    0.0000 </r>
      </set>
      <set comment="kpoint 31">
       <r>    0.6240    1.0000 </r>
       <r>    0.9908    1.0000 </r>
       <r>    0.9908    1.0000 </r>
       <r>    1.1715    1.0000 </r>
       <r>    2.0918    1.0000 </r>
       <r>    2.1484    1.0000 </r>
       <r>    2.1484    1.0000 </r>
       <r>    2.2370    1.0000 </r>
       <r>    2.3262    1.0000 </r>
       <r>    2.3347    1.0000 </r>
       <r>    2.3347    1.0000 </r>
       <r>    2.3771    1.0000 </r>
       <r>    2.4092    1.0000 </r>
       <r>    2.4369    1.0000 </r>
       <r>    2.4369    1.0000 </r>
       <r>    2.4429    1.0000 </r>
       <r>    2.9548    1.0000 </r>
       <r>    3.0426    1.0000 </r>
       <r>    3.0426    1.0000 </r>
       <r>    3.0595    1.0000 </r>
       <r>    3.5921    1.0000 </r>
       <r>    4.2518    1.0020 </r>
       <r>    4.2518    1.0020 </r>
       <r>    5.0592   -0.0000 </r>
       <r>    8.4395    0.0000 </r>
       <r>    9.4391    0.0000 </r>
       <r>    9.4391    0.0000 </r>
       <r>   10.4883    0.0000 </r>
       <r>   16.6356    0.0000 </r>
       <r>   17.6096    0.0000 </r>
       <r>   17.6096    0.0000 </r>
       <r>   18.6217    0.0000 </r>
       <r>   20.6131    0.0000 </r>
       <r>   20.6131    0.0000 </r>
       <r>   20.8082    0.0000 </r>
       <r>   22.5287    0.0000 </r>
       <r>   22.9243    0.0000 </r>
       <r>   23.7750    0.0000 </r>
       <r>   23.9817    0.0000 </r>
       <r>   23.9817    0.0000 </r>
       <r>   27.2407    0.0000 </r>
       <r>   27.3298    0.0000 </r>
       <r>   27.3298    0.0000 </r>
       <r>   28.3501    0.0000 </r>
       <r>   29.0844    0.0000 </r>
       <r>   29.9440    0.0000 </r>
       <r>   30.3429    0.0000 </r>
       <r>   30.3429    0.0000 </r>
      </set>
      <set comment="kpoint 32">
       <r>    0.0047    1.0000 </r>
       <r>    1.1558    1.0000 </r>
       <r>    1.1558    1.0000 </r>
       <r>    1.1558    1.0000 </r>
       <r>    2.0535    1.0000 </r>
       <r>    2.0535    1.0000 </r>
       <r>    2.0535    1.0000 </r>
       <r>    2.3246    1.0000 </r>
       <r>    2.3246    1.0000 </r>
       <r>    2.3442    1.0000 </r>
       <r>    2.3744    1.0000 </r>
       <r>    2.3744    1.0000 </r>
       <r>    2.3744    1.0000 </r>
       <r>    2.4638    1.0000 </r>
       <r>    2.4638    1.0000 </r>
       <r>    2.4638    1.0000 </r>
       <r>    2.9946    1.0000 </r>
       <r>    2.9946    1.0000 </r>
       <r>    3.1791    1.0000 </r>
       <r>    3.1791    1.0000 </r>
       <r>    3.1791    1.0000 </r>
       <r>    5.0224   -0.0000 </r>
       <r>    5.0224   -0.0000 </r>
       <r>    5.0224   -0.0000 </r>
       <r>    8.4215    0.0000 </r>
       <r>    8.4215    0.0000 </r>
       <r>    8.4215    0.0000 </r>
       <r>   11.5527    0.0000 </r>
[...]
       <r>   27.7104    0.0000 </r>
       <r>   27.7104    0.0000 </r>
       <r>   27.9164    0.0000 </r>
       <r>   28.8670    0.0000 </r>
       <r>   29.1564    0.0000 </r>
       <r>   29.7836    0.0000 </r>
       <r>   30.9209    0.0000 </r>
      </set>
      <set comment="kpoint 34">
       <r>    0.6958    1.0000 </r>
       <r>    0.9189    1.0000 </r>
       <r>    0.9189    1.0000 </r>
       <r>    1.0103    1.0000 </r>
       <r>    2.1694    1.0000 </r>
       <r>    2.1983    1.0000 </r>
       <r>    2.1983    1.0000 </r>
       <r>    2.2619    1.0000 </r>
       <r>    2.2968    1.0000 </r>
       <r>    2.3299    1.0000 </r>
       <r>    2.3299    1.0000 </r>
       <r>    2.3408    1.0000 </r>
       <r>    2.7089    1.0000 </r>
       <r>    2.7089    1.0000 </r>
       <r>    2.7140    1.0000 </r>
       <r>    2.7962    1.0000 </r>
       <r>    3.0702    1.0000 </r>
       <r>    3.1373    1.0000 </r>
       <r>    3.1373    1.0000 </r>
       <r>    3.1375    1.0000 </r>
       <r>    3.5272    1.0000 </r>
       <r>    4.3490    1.0315 </r>
       <r>    4.3490    1.0315 </r>
       <r>    5.0166   -0.0000 </r>
       <r>    7.3572    0.0000 </r>
       <r>    8.0885    0.0000 </r>
       <r>    8.0885    0.0000 </r>
       <r>    9.0513    0.0000 </r>
       <r>   19.1568    0.0000 </r>
       <r>   20.0462    0.0000 </r>
       <r>   20.0462    0.0000 </r>
       <r>   20.9924    0.0000 </r>
       <r>   21.0682    0.0000 </r>
       <r>   21.0682    0.0000 </r>
       <r>   21.3279    0.0000 </r>
       <r>   22.7204    0.0000 </r>
       <r>   22.9802    0.0000 </r>
       <r>   23.4097    0.0000 </r>
       <r>   23.4097    0.0000 </r>
       <r>   23.6256    0.0000 </r>
       <r>   26.2524    0.0000 </r>
       <r>   26.9189    0.0000 </r>
       <r>   26.9189    0.0000 </r>
       <r>   27.4552    0.0000 </r>
       <r>   27.7330    0.0000 </r>
       <r>   28.7138    0.0000 </r>
       <r>   28.8832    0.0000 </r>
       <r>   28.8832    0.0000 </r>
      </set>
      <set comment="kpoint 35">
       <r>    0.7766    1.0000 </r>
       <r>    0.8785    1.0000 </r>
       <r>    0.8785    1.0000 </r>
       <r>    0.8785    1.0000 </r>
       <r>    2.2310    1.0000 </r>
       <r>    2.2310    1.0000 </r>
       <r>    2.2310    1.0000 </r>
       <r>    2.2621    1.0000 </r>
       <r>    2.2621    1.0000 </r>
       <r>    2.2777    1.0000 </r>
       <r>    2.2777    1.0000 </r>
       <r>    2.2777    1.0000 </r>
       <r>    2.9910    1.0000 </r>
       <r>    2.9910    1.0000 </r>
       <r>    2.9910    1.0000 </r>
       <r>    3.1445    1.0000 </r>
       <r>    3.1445    1.0000 </r>
       <r>    3.1684    1.0000 </r>
       <r>    3.1684    1.0000 </r>
       <r>    3.1684    1.0000 </r>
       <r>    3.7370    1.0000 </r>
       <r>    4.4793    0.5875 </r>
       <r>    4.4793    0.5875 </r>
       <r>    4.4793    0.5875 </r>
       <r>    7.2492    0.0000 </r>
       <r>    7.2492    0.0000 </r>
       <r>    7.2492    0.0000 </r>
       <r>    7.9310    0.0000 </r>
       <r>   21.6411    0.0000 </r>
       <r>   21.6411    0.0000 </r>
       <r>   21.6411    0.0000 </r>
       <r>   21.9903    0.0000 </r>
       <r>   21.9903    0.0000 </r>
       <r>   21.9903    0.0000 </r>
       <r>   22.6447    0.0000 </r>
       <r>   22.6447    0.0000 </r>
       <r>   23.0159    0.0000 </r>
       <r>   23.0159    0.0000 </r>
       <r>   23.0159    0.0000 </r>
       <r>   23.5789    0.0000 </r>
       <r>   26.0878    0.0000 </r>
       <r>   26.0878    0.0000 </r>
       <r>   26.6835    0.0000 </r>
       <r>   26.6835    0.0000 </r>
       <r>   26.6835    0.0000 </r>
       <r>   27.1218    0.0000 </r>
       <r>   27.1218    0.0000 </r>
       <r>   27.1218    0.0000 </r>
      </set>
     </set>
    </set>
   </array>
  </eigenvalues>
  <separator name="orbital magnetization" >
   <v name="MAGDIPOLOUT">      0.00000000      0.00000000      0.00000000</v>
  </separator>
  <dos>
   <i name="efermi">      4.48966201 </i>
   <total>
    <array>
     <dimension dim="1">gridpoints</dimension>
     <dimension dim="2">spin</dimension>
     <field>energy</field>
     <field>total</field>
     <field>integrated</field>
     <set>
      <set comment="spin 1">
       <r>    -4.7262     0.0000     0.0000 </r>
       <r>    -4.5883     0.0000     0.0000 </r>
       <r>    -4.4504     0.0000     0.0000 </r>
       <r>    -4.3126     0.0000     0.0000 </r>
       <r>    -4.1747     0.0000     0.0000 </r>
       <r>    -4.0368     0.0000     0.0000 </r>
       <r>    -3.8989     0.0000     0.0000 </r>
       <r>    -3.7610    -0.0000    -0.0000 </r>
       <r>    -3.6231    -0.0000    -0.0000 </r>
       <r>    -3.4853    -0.0000    -0.0000 </r>
       <r>    -3.3474    -0.0000    -0.0000 </r>
       <r>    -3.2095    -0.0000    -0.0000 </r>
       <r>    -3.0716    -0.0001    -0.0000 </r>
       <r>    -2.9337    -0.0008    -0.0001 </r>
       <r>    -2.7958     0.0196     0.0026 </r>
       <r>    -2.6580     0.1340     0.0211 </r>
       <r>    -2.5201     0.2515     0.0557 </r>
       <r>    -2.3822     0.1590     0.0777 </r>
       <r>    -2.2443     0.2961     0.1185 </r>
       <r>    -2.1064     0.5827     0.1988 </r>
       <r>    -1.9685     0.1776     0.2233 </r>
       <r>    -1.8307     0.2362     0.2559 </r>
       <r>    -1.6928     0.6459     0.3449 </r>
       <r>    -1.5549     0.5887     0.4261 </r>
       <r>    -1.4170     0.4060     0.4821 </r>
       <r>    -1.2791     0.4327     0.5418 </r>
       <r>    -1.1412     0.9916     0.6785 </r>
       <r>    -1.0034     0.0794     0.6894 </r>
       <r>    -0.8655     0.6523     0.7794 </r>
       <r>    -0.7276     1.0225     0.9203 </r>
       <r>    -0.5897     0.6490     1.0098 </r>
       <r>    -0.4518     0.9957     1.1471 </r>
       <r>    -0.3139     0.8632     1.2661 </r>
       <r>    -0.1761     0.2493     1.3005 </r>
       <r>    -0.0382     0.8401     1.4164 </r>
       <r>     0.0997     1.7762     1.6613 </r>
       <r>     0.2376     1.0744     1.8094 </r>
       <r>     0.3755     1.2657     1.9839 </r>
       <r>     0.5134     1.0075     2.1228 </r>
       <r>     0.6512     1.5947     2.3427 </r>
       <r>     0.7891     3.1452     2.7764 </r>
       <r>     0.9270     2.4532     3.1147 </r>
       <r>     1.0649     4.2619     3.7023 </r>
       <r>     1.2028     6.1809     4.5545 </r>
       <r>     1.3407     6.8105     5.4936 </r>
       <r>     1.4786     9.2519     6.7693 </r>
       <r>     1.6164    12.5955     8.5060 </r>
       <r>     1.7543    12.8083    10.2721 </r>
       <r>     1.8922    12.7943    12.0362 </r>
       <r>     2.0301    14.4658    14.0308 </r>
       <r>     2.1680    20.2046    16.8167 </r>
       <r>     2.3059    22.6840    19.9444 </r>
       <r>     2.4437    27.4776    23.7331 </r>
       <r>     2.5816    17.3887    26.1307 </r>
       <r>     2.7195    18.9968    28.7501 </r>
       <r>     2.8574    23.7691    32.0275 </r>
       <r>     2.9953    19.7621    34.7523 </r>
       <r>     3.1332    27.6855    38.5697 </r>
       <r>     3.2710    22.5338    41.6767 </r>
       <r>     3.4089     3.7814    42.1981 </r>
       <r>     3.5468     0.9881    42.3344 </r>
       <r>     3.6847     2.1012    42.6241 </r>
       <r>     3.8226     2.1561    42.9214 </r>
       <r>     3.9605     1.4569    43.1223 </r>
       <r>     4.0983     0.2772    43.1605 </r>
       <r>     4.2362     1.9194    43.4251 </r>
       <r>     4.3741     2.3803    43.7533 </r>
       <r>     4.5120     2.0690    44.0386 </r>
       <r>     4.6499     0.7594    44.1433 </r>
       <r>     4.7878     0.6212    44.2290 </r>
       <r>     4.9256     0.5834    44.3094 </r>
       <r>     5.0635     2.6657    44.6770 </r>
       <r>     5.2014     1.5977    44.8973 </r>
       <r>     5.3393     0.7871    45.0058 </r>
       <r>     5.4772     1.7119    45.2418 </r>
       <r>     5.6151     0.8355    45.3570 </r>
       <r>     5.7529     1.2075    45.5235 </r>
       <r>     5.8908     0.2856    45.5629 </r>
       <r>     6.0287     1.4012    45.7561 </r>
       <r>     6.1666     2.0251    46.0353 </r>
       <r>     6.3045     0.5541    46.1117 </r>
       <r>     6.4424     1.7036    46.3466 </r>
       <r>     6.5802     1.4665    46.5488 </r>
       <r>     6.7181     0.6981    46.6451 </r>
       <r>     6.8560     0.6113    46.7294 </r>
       <r>     6.9939     0.4593    46.7927 </r>
       <r>     7.1318     0.5295    46.8657 </r>
       <r>     7.2697     1.9574    47.1356 </r>
       <r>     7.4075     1.3422    47.3207 </r>
       <r>     7.5454     2.4076    47.6527 </r>
       <r>     7.6833     0.9489    47.7835 </r>
       <r>     7.8212     0.8558    47.9015 </r>
       <r>     7.9591     0.7680    48.0074 </r>
       <r>     8.0970     2.4291    48.3423 </r>
       <r>     8.2348     1.3359    48.5265 </r>
       <r>     8.3727     0.7517    48.6302 </r>
       <r>     8.5106     1.1401    48.7874 </r>
       <r>     8.6485     1.8890    49.0478 </r>
       <r>     8.7864     1.0673    49.1950 </r>
       <r>     8.9243     0.8168    49.3076 </r>
       <r>     9.0621     0.3868    49.3609 </r>
       <r>     9.2000     2.2997    49.6780 </r>
       <r>     9.3379     1.9411    49.9457 </r>
       <r>     9.4758     1.0711    50.0934 </r>
       <r>     9.6137     0.9310    50.2217 </r>
       <r>     9.7516     0.5807    50.3018 </r>
       <r>     9.8895     1.1435    50.4595 </r>
       <r>    10.0273     0.8573    50.5777 </r>
       <r>    10.1652     0.9766    50.7123 </r>
       <r>    10.3031     2.3661    51.0386 </r>
       <r>    10.4410     1.1004    51.1903 </r>
       <r>    10.5789     1.7264    51.4283 </r>
       <r>    10.7168     2.3110    51.7470 </r>
       <r>    10.8546     1.2678    51.9218 </r>
       <r>    10.9925     0.6720    52.0145 </r>
       <r>    11.1304     1.8156    52.2648 </r>
       <r>    11.2683     1.6006    52.4855 </r>
       <r>    11.4062     1.5906    52.7048 </r>
       <r>    11.5441     1.4923    52.9106 </r>
       <r>    11.6819     0.5445    52.9857 </r>
       <r>    11.8198     2.9954    53.3987 </r>
       <r>    11.9577     2.2067    53.7030 </r>
       <r>    12.0956     1.5106    53.9112 </r>
       <r>    12.2335     1.7579    54.1536 </r>
       <r>    12.3714     1.8873    54.4139 </r>
       <r>    12.5092     1.0699    54.5614 </r>
       <r>    12.6471     1.5846    54.7799 </r>
       <r>    12.7850     1.3685    54.9686 </r>
       <r>    12.9229     1.2166    55.1363 </r>
       <r>    13.0608     1.9985    55.4119 </r>
       <r>    13.1987     0.8395    55.5276 </r>
       <r>    13.3365     1.0323    55.6700 </r>
       <r>    13.4744     2.8287    56.0600 </r>
       <r>    13.6123     3.0864    56.4856 </r>
       <r>    13.7502     1.0614    56.6319 </r>
       <r>    13.8881     2.6655    56.9994 </r>
       <r>    14.0260     1.7760    57.2443 </r>
       <r>    14.1638     1.2043    57.4104 </r>
       <r>    14.3017     1.6064    57.6319 </r>
       <r>    14.4396     0.9409    57.7616 </r>
       <r>    14.5775     2.9982    58.1750 </r>
       <r>    14.7154     2.3275    58.4959 </r>
       <r>    14.8533     0.5352    58.5697 </r>
       <r>    14.9911     2.0863    58.8574 </r>
       <r>    15.1290     2.9230    59.2604 </r>
       <r>    15.2669     1.7787    59.5057 </r>
       <r>    15.4048     1.2823    59.6825 </r>
       <r>    15.5427     1.1648    59.8431 </r>
       <r>    15.6806     2.8707    60.2389 </r>
       <r>    15.8184     1.5589    60.4539 </r>
       <r>    15.9563     2.8038    60.8405 </r>
       <r>    16.0942     1.0737    60.9885 </r>
       <r>    16.2321     2.3329    61.3102 </r>
       <r>    16.3700     3.3183    61.7677 </r>
       <r>    16.5079     1.5624    61.9832 </r>
       <r>    16.6457     1.4878    62.1883 </r>
       <r>    16.7836     2.6030    62.5472 </r>
       <r>    16.9215     3.4789    63.0269 </r>
       <r>    17.0594     1.0281    63.1687 </r>
       <r>    17.1973     1.9931    63.4435 </r>
       <r>    17.3352     1.2911    63.6215 </r>
       <r>    17.4730     0.8559    63.7395 </r>
       <r>    17.6109     2.7338    64.1165 </r>
       <r>    17.7488     2.0007    64.3923 </r>
       <r>    17.8867     1.8474    64.6471 </r>
       <r>    18.0246     1.6950    64.8808 </r>
       <r>    18.1625     0.1588    64.9027 </r>
       <r>    18.3004     1.2458    65.0744 </r>
       <r>    18.4382     2.6900    65.4453 </r>
       <r>    18.5761     1.6068    65.6669 </r>
       <r>    18.7140     1.5893    65.8860 </r>
       <r>    18.8519     2.1257    66.1791 </r>
       <r>    18.9898     1.6946    66.4128 </r>
       <r>    19.1277     0.5413    66.4874 </r>
       <r>    19.2655     1.9286    66.7534 </r>
       <r>    19.4034     1.2260    66.9224 </r>
       <r>    19.5413     1.1610    67.0825 </r>
       <r>    19.6792     1.8475    67.3372 </r>
       <r>    19.8171     2.1840    67.6384 </r>
       <r>    19.9550     1.0966    67.7896 </r>
       <r>    20.0928     1.5075    67.9974 </r>
       <r>    20.2307     1.5436    68.2103 </r>
       <r>    20.3686     1.8009    68.4586 </r>
       <r>    20.5065     2.1212    68.7511 </r>
       <r>    20.6444     2.3981    69.0817 </r>
       <r>    20.7823     1.3622    69.2696 </r>
       <r>    20.9201     1.3759    69.4593 </r>
       <r>    21.0580     1.6506    69.6869 </r>
       <r>    21.1959     1.7459    69.9276 </r>
       <r>    21.3338     3.0805    70.3523 </r>
       <r>    21.4717     1.6670    70.5822 </r>
       <r>    21.6096     1.6765    70.8134 </r>
       <r>    21.7474     2.4331    71.1489 </r>
       <r>    21.8853     1.9677    71.4202 </r>
       <r>    22.0232     3.8122    71.9458 </r>
       <r>    22.1611     1.4374    72.1440 </r>
       <r>    22.2990     2.5695    72.4983 </r>
       <r>    22.4369     1.3475    72.6841 </r>
       <r>    22.5747     3.0530    73.1051 </r>
       <r>    22.7126     3.5394    73.5931 </r>
       <r>    22.8505     3.3890    74.0604 </r>
       <r>    22.9884     3.2342    74.5063 </r>
       <r>    23.1263     3.5525    74.9962 </r>
       <r>    23.2642     2.0151    75.2740 </r>
       <r>    23.4020     2.7015    75.6465 </r>
       <r>    23.5399     2.0626    75.9309 </r>
       <r>    23.6778     2.3515    76.2551 </r>
       <r>    23.8157     3.3604    76.7185 </r>
       <r>    23.9536     1.6745    76.9494 </r>
       <r>    24.0915     1.5905    77.1687 </r>
       <r>    24.2293     1.2886    77.3464 </r>
       <r>    24.3672     6.0007    78.1738 </r>
       <r>    24.5051     1.4410    78.3724 </r>
       <r>    24.6430     1.2747    78.5482 </r>
       <r>    24.7809     1.0653    78.6951 </r>
       <r>    24.9188     1.4658    78.8972 </r>
       <r>    25.0566     1.4308    79.0945 </r>
       <r>    25.1945     4.6438    79.7348 </r>
       <r>    25.3324     2.6043    80.0939 </r>
       <r>    25.4703     2.5714    80.4484 </r>
       <r>    25.6082     1.3716    80.6376 </r>
       <r>    25.7461     0.9280    80.7655 </r>
       <r>    25.8839     2.3666    81.0918 </r>
       <r>    26.0218     3.1516    81.5264 </r>
       <r>    26.1597     1.5781    81.7440 </r>
       <r>    26.2976     1.6560    81.9723 </r>
       <r>    26.4355     0.7097    82.0702 </r>
       <r>    26.5734     1.2074    82.2367 </r>
       <r>    26.7113     0.7550    82.3408 </r>
       <r>    26.8491     0.2113    82.3699 </r>
       <r>    26.9870     1.2509    82.5424 </r>
       <r>    27.1249     0.5493    82.6181 </r>
       <r>    27.2628     2.4254    82.9525 </r>
       <r>    27.4007     1.7195    83.1896 </r>
       <r>    27.5386     3.9342    83.7321 </r>
       <r>    27.6764     3.6531    84.2358 </r>
       <r>    27.8143     5.1377    84.9442 </r>
       <r>    27.9522     2.8939    85.3432 </r>
       <r>    28.0901     1.6569    85.5717 </r>
       <r>    28.2280     1.8787    85.8307 </r>
       <r>    28.3659     2.1820    86.1316 </r>
       <r>    28.5037     0.8019    86.2422 </r>
       <r>    28.6416     1.0178    86.3825 </r>
       <r>    28.7795     3.1347    86.8147 </r>
       <r>    28.9174     2.9939    87.2276 </r>
       <r>    29.0553     2.4392    87.5639 </r>
       <r>    29.1932     2.9448    87.9699 </r>
       <r>    29.3310     1.4687    88.1724 </r>
       <r>    29.4689     1.4595    88.3737 </r>
       <r>    29.6068     2.7273    88.7497 </r>
       <r>    29.7447     0.8328    88.8645 </r>
       <r>    29.8826     1.8872    89.1248 </r>
       <r>    30.0205     4.2029    89.7043 </r>
       <r>    30.1583     2.0671    89.9893 </r>
       <r>    30.2962     2.6277    90.3516 </r>
       <r>    30.4341     2.4437    90.6886 </r>
       <r>    30.5720     1.4810    90.8928 </r>
       <r>    30.7099     3.1423    91.3260 </r>
       <r>    30.8478     2.8183    91.7146 </r>
       <r>    30.9856     1.7841    91.9606 </r>
       <r>    31.1235     1.2400    92.1316 </r>
       <r>    31.2614     3.2971    92.5862 </r>
       <r>    31.3993     2.3061    92.9042 </r>
       <r>    31.5372     2.2359    93.2125 </r>
       <r>    31.6751     3.6995    93.7226 </r>
       <r>    31.8129     3.0784    94.1470 </r>
       <r>    31.9508     0.8739    94.2675 </r>
       <r>    32.0887     1.5986    94.4880 </r>
       <r>    32.2266     0.5766    94.5675 </r>
       <r>    32.3645     1.1353    94.7240 </r>
       <r>    32.5024     1.1125    94.8774 </r>
       <r>    32.6402     0.8283    94.9916 </r>
       <r>    32.7781     0.8005    95.1020 </r>
       <r>    32.9160     1.8350    95.3550 </r>
       <r>    33.0539     1.4081    95.5491 </r>
       <r>    33.1918     0.6581    95.6399 </r>
       <r>    33.3297     0.6312    95.7269 </r>
       <r>    33.4675     0.5169    95.7982 </r>
       <r>    33.6054     0.0598    95.8064 </r>
       <r>    33.7433     0.7201    95.9057 </r>
       <r>    33.8812     0.3265    95.9507 </r>
       <r>    34.0191    -0.0252    95.9473 </r>
       <r>    34.1570     0.0654    95.9563 </r>
       <r>    34.2948     0.1902    95.9825 </r>
       <r>    34.4327     0.1017    95.9965 </r>
       <r>    34.5706     0.0057    95.9973 </r>
       <r>    34.7085     0.0020    95.9976 </r>
       <r>    34.8464     0.0175    96.0000 </r>
       <r>    34.9843    -0.0001    96.0000 </r>
       <r>    35.1222    -0.0001    96.0000 </r>
       <r>    35.2600    -0.0000    96.0000 </r>
       <r>    35.3979    -0.0000    96.0000 </r>
       <r>    35.5358     0.0000    96.0000 </r>
       <r>    35.6737     0.0000    96.0000 </r>
       <r>    35.8116     0.0000    96.0000 </r>
       <r>    35.9495     0.0000    96.0000 </r>
       <r>    36.0873     0.0000    96.0000 </r>
       <r>    36.2252     0.0000    96.0000 </r>
       <r>    36.3631     0.0000    96.0000 </r>
       <r>    36.5010     0.0000    96.0000 </r>
       <r>    36.6389     0.0000    96.0000 </r>
      </set>
     </set>
    </array>
   </total>
  </dos>
 </calculation>
 <structure name="finalpos" >
  <crystal>
   <varray name="basis" >
    <v>       3.97100000       0.00000000       0.00000000 </v>
    <v>       0.00000000       3.97100000       0.00000000 </v>
    <v>       0.00000000       0.00000000       3.97100000 </v>
   </varray>
   <i name="volume">     62.61806761 </i>
   <varray name="rec_basis" >
    <v>       0.25182574       0.00000000       0.00000000 </v>
    <v>       0.00000000       0.25182574       0.00000000 </v>
    <v>       0.00000000       0.00000000       0.25182574 </v>
   </varray>
  </crystal>
  <varray name="positions" >
   <v>       0.00000000       0.00000000       0.00000000 </v>
   <v>       0.00000000       0.50000000       0.50000000 </v>
   <v>       0.50000000       0.00000000       0.50000000 </v>
   <v>       0.50000000       0.50000000       0.00000000 </v>
  </varray>
 </structure>
</modeling>
