   4   4   0   0
  0.8574112E+01  0.3249000E-09  0.3249000E-09  0.3249000E-09  0.5000000E-15
  1.000000000000000E-004
  CAR 
 unknown system                          
     60.60404079     -2.64740908  301     12.47403519      1.00000000
     -2.647  0.0000E+00  0.0000E+00
     -2.437  0.0000E+00  0.0000E+00
     -2.226  0.0000E+00  0.0000E+00
     -2.015  0.0000E+00  0.0000E+00
     -1.804  0.0000E+00  0.0000E+00
     -1.593  0.0000E+00  0.0000E+00
     -1.382  0.0000E+00  0.0000E+00
     -1.172  0.0000E+00  0.0000E+00
     -0.961  0.0000E+00  0.0000E+00
     -0.750 -0.1137E-42 -0.2398E-43
     -0.539 -0.8343E-27 -0.1759E-27
     -0.328 -0.7544E-15 -0.1591E-15
     -0.117 -0.7880E-07 -0.1661E-07
      0.093 -0.4398E-03 -0.9275E-04
      0.304  0.1054E-01  0.2130E-02
      0.515  0.8088E-01  0.1918E-01
      0.726  0.1679E+00  0.5458E-01
      0.937  0.1096E+00  0.7769E-01
      1.148  0.1889E+00  0.1175E+00
      1.359  0.4011E+00  0.2021E+00
      1.569  0.9074E-01  0.2212E+00
      1.780  0.1671E+00  0.2564E+00
      1.991  0.4485E+00  0.3510E+00
      2.202  0.4120E+00  0.4379E+00
      2.413  0.2367E+00  0.4878E+00
      2.624  0.3852E+00  0.5690E+00
      2.834  0.5819E+00  0.6917E+00
      3.045  0.7040E-01  0.7065E+00
      3.256  0.7196E+00  0.8582E+00
      3.467  0.6100E+00  0.9868E+00
      3.678  0.5376E+00  0.1100E+01
      3.889  0.7917E+00  0.1267E+01
      4.099  0.2865E+00  0.1328E+01
      4.310  0.8760E+00  0.1512E+01
      4.521  0.1309E+01  0.1788E+01
      4.732  0.9740E+00  0.1994E+01
      4.943  0.8608E+00  0.2175E+01
      5.154  0.2367E+01  0.2674E+01
      5.364  0.4327E+01  0.3586E+01
      5.575  0.3168E+01  0.4254E+01
      5.786  0.3724E+01  0.5040E+01
      5.997  0.5487E+01  0.6196E+01
      6.208  0.5855E+01  0.7431E+01
      6.419  0.6309E+01  0.8761E+01
      6.629  0.6345E+01  0.1010E+02
      6.840  0.5332E+01  0.1122E+02
      7.051  0.4923E+01  0.1226E+02
      7.262  0.6095E+01  0.1355E+02
      7.473  0.6099E+01  0.1483E+02
      7.684  0.8552E+01  0.1664E+02
      7.894  0.6687E+01  0.1805E+02
      8.105  0.1041E+02  0.2024E+02
      8.316  0.1058E+02  0.2247E+02
      8.527  0.9129E+01  0.2439E+02
      8.738  0.7191E+01  0.2591E+02
      8.949  0.6337E+01  0.2725E+02
      9.160  0.7774E+01  0.2889E+02
      9.370  0.8706E+01  0.3072E+02
      9.581  0.8752E+01  0.3257E+02
      9.792  0.7209E+01  0.3409E+02
     10.003  0.8302E+01  0.3584E+02
     10.214  0.1033E+02  0.3802E+02
     10.425  0.1274E+02  0.4070E+02
     10.635  0.6267E+01  0.4202E+02
     10.846  0.1685E+01  0.4238E+02
     11.057  0.2754E+00  0.4244E+02
     11.268  0.1036E+01  0.4266E+02
     11.479  0.1949E+01  0.4307E+02
     11.690  0.1187E+01  0.4332E+02
     11.900  0.5302E+00  0.4343E+02
     12.111  0.9382E+00  0.4363E+02
     12.322  0.1304E+01  0.4390E+02
     12.533  0.8558E+00  0.4408E+02
     12.744  0.9849E+00  0.4429E+02
     12.955  0.5922E+00  0.4441E+02
     13.165  0.1441E+01  0.4472E+02
     13.376  0.7182E+00  0.4487E+02
     13.587  0.1351E+01  0.4515E+02
     13.798  0.8134E+00  0.4533E+02
     14.009  0.3467E+00  0.4540E+02
     14.220  0.5202E+00  0.4551E+02
     14.430  0.1199E+01  0.4576E+02
     14.641  0.7748E+00  0.4592E+02
     14.852  0.1006E+01  0.4614E+02
     15.063  0.1221E+01  0.4639E+02
     15.274  0.1183E+00  0.4642E+02
     15.485  0.1214E+01  0.4667E+02
     15.696  0.3632E+00  0.4675E+02
     15.906  0.3324E+00  0.4682E+02
     16.117  0.5734E+00  0.4694E+02
     16.328  0.9184E+00  0.4714E+02
     16.539  0.7441E-01  0.4715E+02
     16.750  0.1107E+01  0.4738E+02
     16.961  0.6195E+00  0.4752E+02
     17.171  0.1487E+00  0.4755E+02
     17.382  0.1066E+00  0.4757E+02
     17.593  0.7388E+00  0.4773E+02
     17.804  0.5307E+00  0.4784E+02
     18.015 -0.2208E-01  0.4783E+02
     18.226  0.5818E+00  0.4796E+02
     18.436  0.9979E+00  0.4817E+02
     18.647  0.1281E+01  0.4844E+02
     18.858  0.9233E+00  0.4863E+02
     19.069  0.1245E+01  0.4889E+02
     19.280  0.1723E+01  0.4926E+02
     19.491  0.1026E+01  0.4947E+02
     19.701  0.4114E+00  0.4956E+02
     19.912  0.1138E+01  0.4980E+02
     20.123  0.8735E+00  0.4998E+02
     20.334  0.7032E+00  0.5013E+02
     20.545  0.1146E+01  0.5037E+02
     20.756  0.1262E+00  0.5040E+02
     20.966  0.1221E+01  0.5066E+02
     21.177  0.4600E+00  0.5075E+02
     21.388  0.1842E+01  0.5114E+02
     21.599  0.3033E-01  0.5115E+02
     21.810  0.6225E+00  0.5128E+02
     22.021  0.1527E+01  0.5160E+02
     22.231  0.1275E+01  0.5187E+02
     22.442  0.1762E+00  0.5191E+02
     22.653  0.5701E+00  0.5203E+02
     22.864  0.1233E+01  0.5229E+02
     23.075  0.1519E+01  0.5261E+02
     23.286  0.1494E+01  0.5292E+02
     23.497  0.1064E+01  0.5315E+02
     23.707  0.1556E+01  0.5348E+02
     23.918  0.3687E+00  0.5355E+02
     24.129  0.2258E+01  0.5403E+02
     24.340  0.1286E+01  0.5430E+02
     24.551  0.1204E+01  0.5455E+02
     24.762  0.9564E+00  0.5476E+02
     24.972  0.2838E+00  0.5482E+02
     25.183  0.1444E+01  0.5512E+02
     25.394  0.2122E+01  0.5557E+02
     25.605  0.9838E+00  0.5578E+02
     25.816  0.7559E+00  0.5593E+02
     26.027  0.1456E+01  0.5624E+02
     26.237  0.1501E+01  0.5656E+02
     26.448  0.2495E+01  0.5708E+02
     26.659  0.1009E+01  0.5730E+02
     26.870  0.1025E+01  0.5751E+02
     27.081  0.5468E+00  0.5763E+02
     27.292  0.1593E+01  0.5796E+02
     27.502  0.2216E+01  0.5843E+02
     27.713  0.1241E+01  0.5869E+02
     27.924  0.1277E+01  0.5896E+02
     28.135  0.1233E+01  0.5922E+02
     28.346  0.1896E+01  0.5962E+02
     28.557  0.2046E+01  0.6005E+02
     28.767  0.1546E+01  0.6038E+02
     28.978  0.5612E+00  0.6050E+02
     29.189  0.1249E+01  0.6076E+02
     29.400  0.1797E+01  0.6114E+02
     29.611  0.1757E+01  0.6151E+02
     29.822  0.9474E+00  0.6171E+02
     30.033  0.1392E+01  0.6200E+02
     30.243  0.2340E+01  0.6250E+02
     30.454  0.7590E+00  0.6266E+02
     30.665  0.1653E+01  0.6301E+02
     30.876  0.1558E+01  0.6333E+02
     31.087  0.1146E+01  0.6358E+02
     31.298  0.1328E+01  0.6386E+02
     31.508  0.1833E+01  0.6424E+02
     31.719  0.1260E+01  0.6451E+02
     31.930  0.6062E+00  0.6464E+02
     32.141  0.6386E+00  0.6477E+02
     32.352  0.1204E+01  0.6502E+02
     32.563  0.9171E+00  0.6522E+02
     32.773  0.2174E+01  0.6568E+02
     32.984  0.1241E+01  0.6594E+02
     33.195  0.1667E+01  0.6629E+02
     33.406  0.1063E+01  0.6651E+02
     33.617  0.4545E+00  0.6661E+02
     33.828  0.1671E+01  0.6696E+02
     34.038  0.6192E+00  0.6709E+02
     34.249  0.1341E+01  0.6737E+02
     34.460  0.1383E+01  0.6767E+02
     34.671  0.5454E+00  0.6778E+02
     34.882  0.1790E+01  0.6816E+02
     35.093  0.1538E+01  0.6848E+02
     35.303  0.1970E+01  0.6890E+02
     35.514  0.1138E+01  0.6914E+02
     35.725  0.1349E+01  0.6942E+02
     35.936  0.1472E+01  0.6973E+02
     36.147  0.1032E+01  0.6995E+02
     36.358  0.1083E+01  0.7018E+02
     36.568  0.2273E+01  0.7066E+02
     36.779  0.1922E+01  0.7106E+02
     36.990  0.1980E+01  0.7148E+02
     37.201  0.4779E+00  0.7158E+02
     37.412  0.3090E+01  0.7223E+02
     37.623  0.1723E+01  0.7260E+02
     37.834  0.1102E+01  0.7283E+02
     38.044  0.1014E+01  0.7304E+02
     38.255  0.2303E+01  0.7353E+02
     38.466  0.1669E+01  0.7388E+02
     38.677  0.2103E+01  0.7432E+02
     38.888  0.1366E+01  0.7461E+02
     39.099  0.1208E+01  0.7487E+02
     39.309  0.1864E+01  0.7526E+02
     39.520  0.1812E+01  0.7564E+02
     39.731  0.1379E+01  0.7593E+02
     39.942  0.2070E+01  0.7637E+02
     40.153  0.1473E+01  0.7668E+02
     40.364  0.2107E+01  0.7712E+02
     40.574  0.2892E+01  0.7773E+02
     40.785  0.1113E+01  0.7797E+02
     40.996  0.2263E+01  0.7845E+02
     41.207  0.2968E+00  0.7851E+02
     41.418  0.9826E+00  0.7871E+02
     41.629  0.1131E+01  0.7895E+02
     41.839  0.8347E+00  0.7913E+02
     42.050  0.1219E+01  0.7939E+02
     42.261  0.4206E+00  0.7947E+02
     42.472  0.1454E+01  0.7978E+02
     42.683  0.1912E+01  0.8018E+02
     42.894  0.5574E+00  0.8030E+02
     43.104  0.1699E+01  0.8066E+02
     43.315  0.8618E+00  0.8084E+02
     43.526  0.3672E+00  0.8092E+02
     43.737  0.1656E+01  0.8127E+02
     43.948  0.1999E+01  0.8169E+02
     44.159  0.1290E+01  0.8196E+02
     44.370  0.1005E+01  0.8217E+02
     44.580  0.2210E+01  0.8264E+02
     44.791  0.1531E+01  0.8296E+02
     45.002  0.8466E+00  0.8314E+02
     45.213  0.2406E+01  0.8365E+02
     45.424  0.3329E+01  0.8435E+02
     45.635  0.2312E+01  0.8484E+02
     45.845  0.2514E+00  0.8489E+02
     46.056  0.1771E+01  0.8526E+02
     46.267  0.2352E+01  0.8576E+02
     46.478  0.1938E+01  0.8617E+02
     46.689  0.2760E+01  0.8675E+02
     46.900  0.2367E+01  0.8725E+02
     47.110  0.9351E+00  0.8745E+02
     47.321  0.1993E+01  0.8787E+02
     47.532  0.1767E+01  0.8824E+02
     47.743  0.1382E+01  0.8853E+02
     47.954  0.1189E+01  0.8878E+02
     48.165  0.1220E+01  0.8904E+02
     48.375  0.6367E+00  0.8917E+02
     48.586  0.2094E+01  0.8961E+02
     48.797  0.1813E+00  0.8965E+02
     49.008  0.2369E+01  0.9015E+02
     49.219  0.1147E+01  0.9039E+02
     49.430  0.2449E+01  0.9091E+02
     49.640  0.1125E+01  0.9115E+02
     49.851  0.1839E+01  0.9154E+02
     50.062  0.1982E+01  0.9195E+02
     50.273  0.1878E+01  0.9235E+02
     50.484  0.1755E+01  0.9272E+02
     50.695  0.1038E+01  0.9294E+02
     50.905  0.1631E+01  0.9328E+02
     51.116  0.1703E+01  0.9364E+02
     51.327  0.2263E+01  0.9412E+02
     51.538  0.1899E+01  0.9452E+02
     51.749  0.4848E+00  0.9462E+02
     51.960  0.1842E+01  0.9501E+02
     52.171  0.1669E+01  0.9536E+02
     52.381  0.1022E+00  0.9538E+02
     52.592  0.3776E+00  0.9546E+02
     52.803  0.4091E+00  0.9555E+02
     53.014  0.1274E-01  0.9555E+02
     53.225  0.1397E+00  0.9558E+02
     53.436 -0.4002E-02  0.9558E+02
     53.646  0.5243E-01  0.9559E+02
     53.857  0.5884E+00  0.9572E+02
     54.068  0.3853E+00  0.9580E+02
     54.279  0.2538E+00  0.9585E+02
     54.490  0.4059E-01  0.9586E+02
     54.701  0.3361E-01  0.9587E+02
     54.911 -0.3159E-03  0.9587E+02
     55.122 -0.8573E-02  0.9586E+02
     55.333  0.3946E+00  0.9595E+02
     55.544  0.2419E+00  0.9600E+02
     55.755 -0.3395E-02  0.9600E+02
     55.966 -0.3023E-07  0.9600E+02
     56.176  0.0000E+00  0.9600E+02
     56.387  0.0000E+00  0.9600E+02
     56.598  0.0000E+00  0.9600E+02
     56.809 -0.5864E-38  0.9600E+02
     57.020 -0.3742E-23  0.9600E+02
     57.231 -0.2879E-12  0.9600E+02
     57.441 -0.2402E-05  0.9600E+02
     57.652  0.2493E-03  0.9600E+02
     57.863  0.1320E-01  0.9600E+02
     58.074 -0.4380E-03  0.9600E+02
     58.285 -0.7880E-07  0.9600E+02
     58.496 -0.7541E-15  0.9600E+02
     58.706  0.0000E+00  0.9600E+02
     58.917  0.0000E+00  0.9600E+02
     59.128  0.0000E+00  0.9600E+02
     59.339  0.0000E+00  0.9600E+02
     59.550  0.0000E+00  0.9600E+02
     59.761  0.0000E+00  0.9600E+02
     59.972  0.0000E+00  0.9600E+02
     60.182  0.0000E+00  0.9600E+02
     60.393  0.0000E+00  0.9600E+02
     60.604  0.0000E+00  0.9600E+02
