    4    4    1    1
  0.8574112E+01  0.3249000E-09  0.3249000E-09  0.3249000E-09  0.5000000E-15
  1.000000000000000E-004
  CAR 
 unknown system                          
     44     35     48
 
  0.0000000E+00  0.0000000E+00  0.0000000E+00  0.1371742E-02
    1        0.227657   1.000000
    2        5.087986   1.000000
    3        5.087986   1.000000
    4        5.087986   1.000000
    5        5.792918   1.000000
    6        5.792918   1.000000
    7        5.792918   1.000000
    8        8.068619   1.000000
    9        8.068619   1.000000
   10        8.068619   1.000000
   11        9.424917   1.000000
   12        9.424917   1.000000
   13       10.324472   1.000000
   14       10.324472   1.000000
   15       10.324472   1.000000
   16       10.580822   1.000000
   17       10.580822   1.000000
   18       10.580822   1.000000
   19       10.580822   1.000000
   20       10.580822   1.000000
   21       10.580822   1.000000
   22       13.595993  -0.000000
   23       13.595993  -0.000000
   24       13.595993  -0.000000
   25       21.969136   0.000000
   26       21.969136   0.000000
   27       21.969136   0.000000
   28       28.114482   0.000000
   29       28.114482   0.000000
   30       28.114482   0.000000
   31       28.114482   0.000000
   32       28.114482   0.000000
   33       28.114482   0.000000
   34       33.594260   0.000000
   35       33.594260   0.000000
   36       33.594260   0.000000
   37       37.343385   0.000000
   38       38.724615   0.000000
   39       38.724615   0.000000
   40       38.724615   0.000000
   41       42.641120   0.000000
   42       42.641120   0.000000
   43       42.641120   0.000000
   44       45.989218   0.000000
   45       45.989218   0.000000
   46       45.989218   0.000000
   47       49.376181   0.000000
   48       57.728975   0.000000
 
  0.1111111E+00  0.0000000E+00  0.0000000E+00  0.8230453E-02
    1        0.417496   1.000000
    2        5.107984   1.000000
    3        5.190376   1.000000
    4        5.190376   1.000000
    5        5.855379   1.000000
    6        5.862008   1.000000
    7        5.862008   1.000000
    8        7.992919   1.000000
    9        8.125596   1.000000
   10        8.125596   1.000000
   11        9.356594   1.000000
   12        9.451066   1.000000
   13       10.106981   1.000000
   14       10.106981   1.000000
   15       10.234949   1.000000
   16       10.234949   1.000000
   17       10.296343   1.000000
   18       10.476982   1.000000
   19       10.476982   1.000000
   20       10.580993   1.000000
   21       10.580993   1.000000
   22       12.721076  -0.001320
   23       14.222576  -0.000000
   24       14.222576  -0.000000
   25       21.996771   0.000000
   26       21.996771   0.000000
   27       23.141691   0.000000
   28       27.090486   0.000000
   29       27.090486   0.000000
   30       27.560939   0.000000
   31       27.560939   0.000000
   32       28.412645   0.000000
   33       28.412645   0.000000
   34       33.641858   0.000000
   35       34.808602   0.000000
   36       34.808602   0.000000
   37       37.037024   0.000000
   38       38.798568   0.000000
   39       39.716136   0.000000
   40       39.716136   0.000000
   41       41.294321   0.000000
   42       41.294321   0.000000
   43       41.658604   0.000000
   44       46.710742   0.000000
   45       47.266275   0.000000
   46       47.266275   0.000000
   47       50.486469   0.000000
   48       54.481010   0.000000
 
  0.2222222E+00  0.0000000E+00  0.0000000E+00  0.8230453E-02
    1        0.975913   1.000000
    2        5.108383   1.000000
    3        5.471723   1.000000
    4        5.471723   1.000000
    5        6.036839   1.000000
    6        6.070179   1.000000
    7        6.070179   1.000000
    8        7.777929   1.000000
    9        8.294285   1.000000
   10        8.294285   1.000000
   11        9.164863   1.000000
   12        9.217549   1.000000
   13        9.217549   1.000000
   14        9.526664   1.000000
   15        9.984337   1.000000
   16        9.984337   1.000000
   17       10.192330   1.000000
   18       10.192330   1.000000
   19       10.215583   1.000000
   20       10.581246   1.000000
   21       10.581246   1.000000
   22       11.004059   1.000000
   23       15.567305   0.000000
   24       15.567305   0.000000
   25       22.084168   0.000000
   26       22.084168   0.000000
   27       25.127522   0.000000
   28       25.127522   0.000000
   29       25.784048   0.000000
   30       26.388681   0.000000
   31       26.388681   0.000000
   32       29.275985   0.000000
   33       29.275985   0.000000
   34       33.788200   0.000000
   35       36.346061   0.000000
   36       37.347349   0.000000
   37       37.347349   0.000000
   38       39.015504   0.000000
   39       39.015504   0.000000
   40       39.062209   0.000000
   41       39.725740   0.000000
   42       42.183542   0.000000
   43       42.183542   0.000000
   44       48.633944   0.000000
   45       49.391525   0.000000
   46       49.391525   0.000000
   47       49.582000   0.000000
   48       53.872064   0.000000
 
  0.3333333E+00  0.0000000E+00  0.0000000E+00  0.8230453E-02
    1        1.863372   1.000000
    2        4.872483   1.000000
    3        5.844621   1.000000
    4        5.844621   1.000000
    5        6.321015   1.000000
    6        6.420358   1.000000
    7        6.420358   1.000000
    8        7.455979   1.000000
    9        8.332043   1.000000
   10        8.332043   1.000000
   11        8.566853   1.000000
   12        8.566853   1.000000
   13        8.902196   1.000000
   14        9.499067   1.000000
   15        9.643256   1.000000
   16        9.643256   1.000000
   17        9.643421   1.000000
   18        9.793335   1.000000
   19        9.793335   1.000000
   20       10.093300   1.000000
   21       10.581248   1.000000
   22       10.581248   1.000000
   23       17.206459   0.000000
   24       17.206459   0.000000
   25       22.233119   0.000000
   26       22.233119   0.000000
   27       23.028127   0.000000
   28       23.028127   0.000000
   29       25.260058   0.000000
   30       25.260058   0.000000
   31       28.959686   0.000000
   32       30.626812   0.000000
   33       30.626812   0.000000
   34       34.043473   0.000000
   35       35.595072   0.000000
   36       36.660220   0.000000
   37       36.660220   0.000000
   38       37.570089   0.000000
   39       39.647395   0.000000
   40       40.420710   0.000000
   41       40.420710   0.000000
   42       45.376743   0.000000
   43       45.376743   0.000000
   44       45.899230   0.000000
   45       51.396020   0.000000
   46       51.661691   0.000000
   47       51.662170   0.000000
   48       51.691256   0.000000
 
  0.4444444E+00  0.0000000E+00  0.0000000E+00  0.8230453E-02
    1        2.985371   1.000000
    2        4.118833   1.000000
    3        6.135843   1.000000
    4        6.135843   1.000000
    5        6.679310   1.000000
    6        6.915316   1.000000
    7        6.915316   1.000000
    8        7.073200   1.000000
    9        7.555098   1.000000
   10        7.555098   1.000000
   11        8.683118   1.000000
   12        8.750916   1.000000
   13        8.928315   1.000000
   14        8.928315   1.000000
   15        9.351401   1.000000
   16        9.351401   1.000000
   17        9.371128   1.000000
   18        9.371128   1.000000
   19        9.789098   1.000000
   20        9.944886   1.000000
   21       10.581554   1.000000
   22       10.581554   1.000000
   23       19.023954   0.000000
   24       19.023954   0.000000
   25       20.975316   0.000000
   26       20.975316   0.000000
   27       22.390100   0.000000
   28       22.390100   0.000000
   29       24.555078   0.000000
   30       24.555078   0.000000
   31       32.196890   0.000000
   32       32.369815   0.000000
   33       32.369815   0.000000
   34       34.411145   0.000000
   35       34.411145   0.000000
   36       34.422482   0.000000
   37       34.939415   0.000000
   38       35.122078   0.000000
   39       40.796008   0.000000
   40       42.836718   0.000000
   41       43.862508   0.000000
   42       43.862508   0.000000
   43       47.631722   0.000000
   44       47.631722   0.000000
   45       48.459735   0.000000
   46       48.459735   0.000000
   47       54.092264   0.000000
   48       54.092266   0.000000
 
  0.1111111E+00  0.1111111E+00  0.0000000E+00  0.1646091E-01
    1        0.605349   1.000000
    2        5.213655   1.000000
    3        5.213655   1.000000
    4        5.289040   1.000000
    5        5.922133   1.000000
    6        5.922133   1.000000
    7        5.926873   1.000000
    8        7.950979   1.000000
    9        8.152085   1.000000
   10        8.171958   1.000000
   11        9.338059   1.000000
   12        9.437854   1.000000
   13        9.807681   1.000000
   14        9.925354   1.000000
   15        9.925354   1.000000
   16       10.152378   1.000000
   17       10.247603   1.000000
   18       10.247603   1.000000
   19       10.476419   1.000000
   20       10.476419   1.000000
   21       10.514936   1.000000
   22       13.354325  -0.000000
   23       13.354325  -0.000000
   24       14.740799  -0.000000
   25       22.002786   0.000000
   26       23.198579   0.000000
   27       23.198579   0.000000
   28       25.273249   0.000000
   29       27.356803   0.000000
   30       27.356803   0.000000
   31       27.843486   0.000000
   32       27.843486   0.000000
   33       28.697382   0.000000
   34       34.890662   0.000000
   35       34.890662   0.000000
   36       34.926684   0.000000
   37       36.447317   0.000000
   38       39.176791   0.000000
   39       39.798550   0.000000
   40       39.798550   0.000000
   41       40.929484   0.000000
   42       41.194744   0.000000
   43       43.144235   0.000000
   44       46.123662   0.000000
   45       46.287387   0.000000
   46       48.869346   0.000000
   47       52.246933   0.000000
   48       53.667972   0.000000
 
  0.2222222E+00  0.1111111E+00  0.0000000E+00  0.3292181E-01
    1        1.157579   1.000000
    2        5.223494   1.000000
    3        5.504966   1.000000
    4        5.561168   1.000000
    5        6.097355   1.000000
    6        6.120999   1.000000
    7        6.123601   1.000000
    8        7.761565   1.000000
    9        8.303615   1.000000
   10        8.303649   1.000000
   11        9.042605   1.000000
   12        9.079613   1.000000
   13        9.181419   1.000000
   14        9.487798   1.000000
   15        9.516474   1.000000
   16        9.919900   1.000000
   17        9.995541   1.000000
   18       10.170727   1.000000
   19       10.191489   1.000000
   20       10.475534   1.000000
   21       10.479112   1.000000
   22       11.762201   1.000000
   23       14.599947  -0.000000
   24       15.962449   0.000000
   25       21.887441   0.000000
   26       23.367724   0.000000
   27       23.425112   0.000000
   28       25.372130   0.000000
   29       25.842597   0.000000
   30       26.656432   0.000000
   31       28.117581   0.000000
   32       28.414230   0.000000
   33       28.685373   0.000000
   34       35.146937   0.000000
   35       35.192285   0.000000
   36       36.445919   0.000000
   37       36.918283   0.000000
   38       37.459180   0.000000
   39       40.084252   0.000000
   40       40.192575   0.000000
   41       41.882386   0.000000
   42       42.258856   0.000000
   43       43.620995   0.000000
   44       47.214326   0.000000
   45       47.257434   0.000000
   46       50.246360   0.000000
   47       51.019634   0.000000
   48       55.278650   0.000000
 
  0.3333333E+00  0.1111111E+00  0.0000000E+00  0.3292181E-01
    1        2.034382   1.000000
    2        5.000676   1.000000
    3        5.895602   1.000000
    4        5.929217   1.000000
    5        6.370794   1.000000
    6        6.436881   1.000000
    7        6.461697   1.000000
    8        7.457894   1.000000
    9        8.186744   1.000000
   10        8.277097   1.000000
   11        8.464806   1.000000
   12        8.570865   1.000000
   13        8.861359   1.000000
   14        9.001309   1.000000
   15        9.602263   1.000000
   16        9.657363   1.000000
   17        9.662875   1.000000
   18        9.791910   1.000000
   19        9.949389   1.000000
   20       10.471442   1.000000
   21       10.474124   1.000000
   22       10.579942   1.000000
   23       16.034063   0.000000
   24       17.529728   0.000000
   25       20.794613   0.000000
   26       22.830946   0.000000
   27       23.271768   0.000000
   28       23.587894   0.000000
   29       25.602891   0.000000
   30       27.240837   0.000000
   31       28.773618   0.000000
   32       29.272565   0.000000
   33       30.234292   0.000000
   34       33.742496   0.000000
   35       34.790983   0.000000
   36       35.608308   0.000000
   37       38.707154   0.000000
   38       39.234099   0.000000
   39       39.288892   0.000000
   40       40.547529   0.000000
   41       40.686969   0.000000
   42       45.299005   0.000000
   43       46.321135   0.000000
   44       46.901062   0.000000
   45       49.665075   0.000000
   46       49.766598   0.000000
   47       51.199480   0.000000
   48       51.831671   0.000000
 
  0.4444444E+00  0.1111111E+00  0.0000000E+00  0.3292181E-01
    1        3.141701   1.000000
    2        4.259617   1.000000
    3        6.211685   1.000000
    4        6.226083   1.000000
    5        6.715123   1.000000
    6        6.868896   1.000000
    7        6.937522   1.000000
    8        7.092619   1.000000
    9        7.451106   1.000000
   10        7.547724   1.000000
   11        8.448759   1.000000
   12        8.450999   1.000000
   13        8.929362   1.000000
   14        9.114029   1.000000
   15        9.350654   1.000000
   16        9.354685   1.000000
   17        9.376867   1.000000
   18        9.513892   1.000000
   19        9.852923   1.000000
   20       10.094247   1.000000
   21       10.471041   1.000000
   22       10.472493   1.000000
   23       17.561269   0.000000
   24       19.159999   0.000000
   25       19.305005   0.000000
   26       21.231354   0.000000
   27       23.096218   0.000000
   28       23.512000   0.000000
   29       25.362637   0.000000
   30       26.078924   0.000000
   31       30.687286   0.000000
   32       30.929938   0.000000
   33       32.217215   0.000000
   34       32.807466   0.000000
   35       33.060065   0.000000
   36       36.299432   0.000000
   37       36.326176   0.000000
   38       37.357749   0.000000
   39       41.793079   0.000000
   40       42.577512   0.000000
   41       43.638954   0.000000
   42       43.998215   0.000000
   43       45.917858   0.000000
   44       47.773200   0.000000
   45       49.848252   0.000000
   46       50.010511   0.000000
   47       51.899885   0.000000
   48       52.631281   0.000000
 
  0.2222222E+00  0.2222222E+00  0.0000000E+00  0.1646091E-01
    1        1.690608   1.000000
    2        5.544209   1.000000
    3        5.544209   1.000000
    4        5.808056   1.000000
    5        6.271863   1.000000
    6        6.278664   1.000000
    7        6.278664   1.000000
    8        7.661586   1.000000
    9        8.333192   1.000000
   10        8.390402   1.000000
   11        8.621860   1.000000
   12        8.621860   1.000000
   13        8.673283   1.000000
   14        9.127849   1.000000
   15        9.596308   1.000000
   16        9.734788   1.000000
   17        9.946453   1.000000
   18        9.946453   1.000000
   19       10.188911   1.000000
   20       10.188911   1.000000
   21       10.321155   1.000000
   22       12.892068  -0.000000
   23       12.892068  -0.000000
   24       16.990972   0.000000
   25       20.430427   0.000000
   26       22.806807   0.000000
   27       25.889680   0.000000
   28       25.889680   0.000000
   29       26.070639   0.000000
   30       26.070639   0.000000
   31       27.616494   0.000000
   32       27.616494   0.000000
   33       30.341445   0.000000
   34       33.400710   0.000000
   35       34.672196   0.000000
   36       35.695364   0.000000
   37       37.799830   0.000000
   38       37.799830   0.000000
   39       41.541597   0.000000
   40       42.516778   0.000000
   41       42.516778   0.000000
   42       44.218724   0.000000
   43       44.274935   0.000000
   44       46.509925   0.000000
   45       46.549450   0.000000
   46       49.444590   0.000000
   47       53.064163   0.000000
   48       53.795861   0.000000
 
  0.3333333E+00  0.2222222E+00  0.0000000E+00  0.3292181E-01
    1        2.533704   1.000000
    2        5.360195   1.000000
    3        5.987919   1.000000
    4        6.155926   1.000000
    5        6.495346   1.000000
    6        6.519072   1.000000
    7        6.580241   1.000000
    8        7.440127   1.000000
    9        7.854328   1.000000
   10        8.104929   1.000000
   11        8.179652   1.000000
   12        8.334637   1.000000
   13        8.611256   1.000000
   14        9.023491   1.000000
   15        9.474479   1.000000
   16        9.627412   1.000000
   17        9.753311   1.000000
   18        9.789597   1.000000
   19        9.829166   1.000000
   20       10.185778   1.000000
   21       10.231851   1.000000
   22       11.491184   1.000000
   23       14.109024  -0.000000
   24       18.414583   0.000000
   25       18.545326   0.000000
   26       23.047481   0.000000
   27       23.967718   0.000000
   28       25.305199   0.000000
   29       27.136409   0.000000
   30       27.404878   0.000000
   31       27.764450   0.000000
   32       30.144924   0.000000
   33       30.260654   0.000000
   34       31.643203   0.000000
   35       32.636070   0.000000
   36       37.326577   0.000000
   37       38.381311   0.000000
   38       40.905905   0.000000
   39       40.928629   0.000000
   40       41.304357   0.000000
   41       43.044026   0.000000
   42       45.050395   0.000000
   43       46.308448   0.000000
   44       47.516390   0.000000
   45       48.015032   0.000000
   46       49.880317   0.000000
   47       50.271897   0.000000
   48       52.068622   0.000000
 
  0.4444444E+00  0.2222222E+00  0.0000000E+00  0.3292181E-01
    1        3.592553   1.000000
    2        4.657844   1.000000
    3        6.387344   1.000000
    4        6.478003   1.000000
    5        6.744206   1.000000
    6        6.818637   1.000000
    7        6.998299   1.000000
    8        7.140865   1.000000
    9        7.213680   1.000000
   10        7.518771   1.000000
   11        8.039284   1.000000
   12        8.190362   1.000000
   13        8.945571   1.000000
   14        9.122347   1.000000
   15        9.281141   1.000000
   16        9.342494   1.000000
   17        9.353809   1.000000
   18        9.427037   1.000000
   19       10.163186   1.000000
   20       10.185934   1.000000
   21       10.196432   1.000000
   22       10.646528   1.000000
   23       15.417466   0.000000
   24       16.872943   0.000000
   25       20.093947   0.000000
   26       21.959173   0.000000
   27       23.569509   0.000000
   28       24.347764   0.000000
   29       28.091380   0.000000
   30       28.470355   0.000000
   31       29.153066   0.000000
   32       29.220439   0.000000
   33       29.989954   0.000000
   34       30.823297   0.000000
   35       33.640919   0.000000
   36       37.314845   0.000000
   37       39.209891   0.000000
   38       40.250719   0.000000
   39       40.470710   0.000000
   40       43.875791   0.000000
   41       43.956995   0.000000
   42       44.403601   0.000000
   43       45.354078   0.000000
   44       48.195893   0.000000
   45       48.478789   0.000000
   46       50.286473   0.000000
   47       50.872740   0.000000
   48       51.028670   0.000000
 
  0.3333333E+00  0.3333333E+00  0.0000000E+00  0.1646091E-01
    1        3.314626   1.000000
    2        5.866128   1.000000
    3        5.866128   1.000000
    4        6.427876   1.000000
    5        6.620653   1.000000
    6        6.760485   1.000000
    7        6.760485   1.000000
    8        7.354941   1.000000
    9        7.608400   1.000000
   10        7.608400   1.000000
   11        7.814659   1.000000
   12        8.220466   1.000000
   13        8.749328   1.000000
   14        8.915502   1.000000
   15        9.275728   1.000000
   16        9.461723   1.000000
   17        9.461723   1.000000
   18        9.793083   1.000000
   19        9.793083   1.000000
   20       10.012173   1.000000
   21       10.188318   1.000000
   22       12.484153   0.414861
   23       12.484153   0.414861
   24       16.554540   0.000000
   25       19.703823   0.000000
   26       23.486911   0.000000
   27       25.034213   0.000000
   28       25.034213   0.000000
   29       26.367336   0.000000
   30       26.367336   0.000000
   31       29.712458   0.000000
   32       30.672587   0.000000
   33       30.672587   0.000000
   34       30.686768   0.000000
   35       32.822277   0.000000
   36       36.303718   0.000000
   37       41.457510   0.000000
   38       41.561035   0.000000
   39       41.561035   0.000000
   40       43.059412   0.000000
   41       43.383991   0.000000
   42       44.602631   0.000000
   43       44.602631   0.000000
   44       47.329655   0.000000
   45       48.833367   0.000000
   46       49.572792   0.000000
   47       49.572792   0.000000
   48       52.712765   0.000000
 
  0.4444444E+00  0.3333333E+00  0.0000000E+00  0.3292181E-01
    1        4.277547   1.000000
    2        5.232070   1.000000
    3        6.345573   1.000000
    4        6.554774   1.000000
    5        6.839569   1.000000
    6        6.975479   1.000000
    7        7.080908   1.000000
    8        7.162108   1.000000
    9        7.188683   1.000000
   10        7.450467   1.000000
   11        7.715868   1.000000
   12        8.004641   1.000000
   13        8.941625   1.000000
   14        9.013548   1.000000
   15        9.120881   1.000000
   16        9.178839   1.000000
   17        9.192466   1.000000
   18        9.378841   1.000000
   19        9.815204   1.000000
   20        9.878084   1.000000
   21       10.681340   1.000000
   22       11.380093   1.000000
   23       13.595458  -0.000000
   24       14.918466  -0.000000
   25       21.278677   0.000000
   26       23.069267   0.000000
   27       24.168632   0.000000
   28       25.128035   0.000000
   29       26.384849   0.000000
   30       27.558640   0.000000
   31       27.955993   0.000000
   32       28.993094   0.000000
   33       31.558492   0.000000
   34       32.642001   0.000000
   35       34.359453   0.000000
   36       38.197619   0.000000
   37       38.522637   0.000000
   38       42.034211   0.000000
   39       42.416747   0.000000
   40       43.258551   0.000000
   41       43.341119   0.000000
   42       43.974976   0.000000
   43       45.066426   0.000000
   44       48.887802   0.000000
   45       49.283203   0.000000
   46       49.306996   0.000000
   47       49.317319   0.000000
   48       51.839909   0.000000
 
  0.4444444E+00  0.4444444E+00  0.0000000E+00  0.1646091E-01
    1        5.079276   1.000000
    2        5.828492   1.000000
    3        5.828492   1.000000
    4        6.277532   1.000000
    5        7.158389   1.000000
    6        7.158389   1.000000
    7        7.199724   1.000000
    8        7.201966   1.000000
    9        7.327930   1.000000
   10        7.474354   1.000000
   11        7.474354   1.000000
   12        7.801806   1.000000
   13        8.828116   1.000000
   14        8.946071   1.000000
   15        8.956588   1.000000
   16        8.956588   1.000000
   17        9.177820   1.000000
   18        9.455311   1.000000
   19        9.455311   1.000000
   20        9.617405   1.000000
   21       11.347997   1.000000
   22       12.261222   1.005171
   23       12.261222   1.005171
   24       13.396027  -0.000000
   25       22.760229   0.000000
   26       24.474331   0.000000
   27       24.474331   0.000000
   28       25.011499   0.000000
   29       26.113888   0.000000
   30       26.138360   0.000000
   31       26.138360   0.000000
   32       27.423377   0.000000
   33       35.323267   0.000000
   34       35.323267   0.000000
   35       35.924235   0.000000
   36       37.327381   0.000000
   37       39.035948   0.000000
   38       39.461478   0.000000
   39       40.482506   0.000000
   40       40.482506   0.000000
   41       45.912457   0.000000
   42       45.912457   0.000000
   43       46.050045   0.000000
   44       48.555294   0.000000
   45       49.377019   0.000000
   46       50.324464   0.000000
   47       51.218047   0.000000
   48       51.218047   0.000000
 
  0.1111111E+00  0.1111111E+00  0.1111111E+00  0.1097394E-01
    1        0.790857   1.000000
    2        5.314531   1.000000
    3        5.314531   1.000000
    4        5.314531   1.000000
    5        5.985194   1.000000
    6        5.985194   1.000000
    7        5.985194   1.000000
    8        7.914066   1.000000
    9        8.192051   1.000000
   10        8.192051   1.000000
   11        9.378091   1.000000
   12        9.378091   1.000000
   13        9.653012   1.000000
   14        9.653012   1.000000
   15        9.653012   1.000000
   16       10.056500   1.000000
   17       10.056500   1.000000
   18       10.056500   1.000000
   19       10.492217   1.000000
   20       10.492217   1.000000
   21       10.492217   1.000000
   22       13.840779  -0.000000
   23       13.840779  -0.000000
   24       13.840779  -0.000000
   25       23.221778   0.000000
   26       23.221778   0.000000
   27       23.221778   0.000000
   28       25.549285   0.000000
   29       25.549285   0.000000
   30       25.549285   0.000000
   31       28.982364   0.000000
   32       28.982364   0.000000
   33       28.982364   0.000000
   34       34.997058   0.000000
   35       34.997058   0.000000
   36       34.997058   0.000000
   37       35.386264   0.000000
   38       39.110607   0.000000
   39       41.022134   0.000000
   40       41.022134   0.000000
   41       41.022134   0.000000
   42       41.755378   0.000000
   43       41.755378   0.000000
   44       47.184464   0.000000
   45       47.304734   0.000000
   46       47.304734   0.000000
   47       54.050910   0.000000
   48       54.179087   0.000000
 
  0.2222222E+00  0.1111111E+00  0.1111111E+00  0.3292181E-01
    1        1.335893   1.000000
    2        5.330049   1.000000
    3        5.593088   1.000000
    4        5.593088   1.000000
    5        6.155472   1.000000
    6        6.173081   1.000000
    7        6.173081   1.000000
    8        7.748228   1.000000
    9        8.303557   1.000000
   10        8.312504   1.000000
   11        8.926070   1.000000
   12        8.926070   1.000000
   13        9.210026   1.000000
   14        9.224572   1.000000
   15        9.491138   1.000000
   16        9.808532   1.000000
   17        9.850667   1.000000
   18        9.850667   1.000000
   19       10.410521   1.000000
   20       10.453233   1.000000
   21       10.453233   1.000000
   22       12.197782   1.000331
   23       14.936003  -0.000000
   24       14.936003  -0.000000
   25       22.865598   0.000000
   26       22.865598   0.000000
   27       24.041479   0.000000
   28       24.041479   0.000000
   29       25.612050   0.000000
   30       26.595134   0.000000
   31       28.664989   0.000000
   32       28.664989   0.000000
   33       29.812049   0.000000
   34       33.587852   0.000000
   35       35.221739   0.000000
   36       36.534773   0.000000
   37       36.534773   0.000000
   38       38.043630   0.000000
   39       39.449615   0.000000
   40       41.331725   0.000000
   41       42.853661   0.000000
   42       43.709105   0.000000
   43       43.709105   0.000000
   44       45.510220   0.000000
   45       49.057666   0.000000
   46       49.357964   0.000000
   47       50.740277   0.000000
   48       55.352045   0.000000
 
  0.3333333E+00  0.1111111E+00  0.1111111E+00  0.3292181E-01
    1        2.200078   1.000000
    2        5.115110   1.000000
    3        5.974244   1.000000
    4        5.974244   1.000000
    5        6.422147   1.000000
    6        6.472137   1.000000
    7        6.472137   1.000000
    8        7.465633   1.000000
    9        8.157346   1.000000
   10        8.157346   1.000000
   11        8.427493   1.000000
   12        8.513064   1.000000
   13        8.627994   1.000000
   14        9.117778   1.000000
   15        9.475797   1.000000
   16        9.569795   1.000000
   17        9.569795   1.000000
   18        9.661274   1.000000
   19       10.265695   1.000000
   20       10.417668   1.000000
   21       10.417668   1.000000
   22       10.825351   1.000000
   23       16.266606   0.000000
   24       16.266606   0.000000
   25       21.260115   0.000000
   26       21.260115   0.000000
   27       24.148860   0.000000
   28       24.148860   0.000000
   29       27.101090   0.000000
   30       27.469247   0.000000
   31       27.469247   0.000000
   32       29.430987   0.000000
   33       31.121253   0.000000
   34       31.775578   0.000000
   35       35.655510   0.000000
   36       36.731195   0.000000
   37       37.084634   0.000000
   38       39.329565   0.000000
   39       39.329565   0.000000
   40       40.915757   0.000000
   41       41.945236   0.000000
   42       46.245353   0.000000
   43       46.835074   0.000000
   44       46.835074   0.000000
   45       48.544981   0.000000
   46       50.754515   0.000000
   47       51.347579   0.000000
   48       51.347579   0.000000
 
  0.4444444E+00  0.1111111E+00  0.1111111E+00  0.3292181E-01
    1        3.289177   1.000000
    2        4.387052   1.000000