       N       E                     dE             d eps       ncg     rms          rms(c)
DAV:   1     0.153130692174E+03    0.15313E+03   -0.15761E+04  3960   0.148E+03
DAV:   2    -0.110140001089E+02   -0.16414E+03   -0.15055E+03  3624   0.213E+02
DAV:   3    -0.152873200412E+02   -0.42733E+01   -0.42593E+01  4320   0.380E+01
DAV:   4    -0.153122657245E+02   -0.24946E-01   -0.24945E-01  3888   0.256E+00
DAV:   5    -0.153125443741E+02   -0.27865E-03   -0.27865E-03  4368   0.290E-01    0.154E+01
DAV:   6    -0.122565198273E+02    0.30560E+01   -0.18530E+01  4080   0.607E+01    0.334E+00
DAV:   7    -0.117075615575E+02    0.54896E+00   -0.18984E+00  4272   0.189E+01    0.177E+00
DAV:   8    -0.116075574419E+02    0.10000E+00   -0.37654E-02  4680   0.145E+00    0.258E-01
DAV:   9    -0.116060980408E+02    0.14594E-02   -0.27601E-03  5592   0.598E-01    0.275E-02
DAV:  10    -0.116061542462E+02   -0.56205E-04   -0.46601E-05  2808   0.398E-02
   1 F= -.11606154E+02 E0= -.11605918E+02  d E =-.707462E-03
