 vasp.5.4.1 05Feb16 (build Feb 08 2018 09:21:51) complex                        
  
 executed on             LinuxIFC date 2019.11.21  15:53:32
 running on   24 total cores
 distrk:  each k-point on   24 cores,    1 groups
 distr:  one band on NCORES_PER_BAND=   1 cores,   24 groups


--------------------------------------------------------------------------------------------------------


 INCAR:
 POTCAR:    PAW_PBE Cu 22Jun2005                  

 ----------------------------------------------------------------------------- 
|                                                                             |
|           W    W    AA    RRRRR   N    N  II  N    N   GGGG   !!!           |
|           W    W   A  A   R    R  NN   N  II  NN   N  G    G  !!!           |
|           W    W  A    A  R    R  N N  N  II  N N  N  G       !!!           |
|           W WW W  AAAAAA  RRRRR   N  N N  II  N  N N  G  GGG   !            |
|           WW  WW  A    A  R   R   N   NN  II  N   NN  G    G                |
|           W    W  A    A  R    R  N    N  II  N    N   GGGG   !!!           |
|                                                                             |
|      For optimal performance we recommend to set                            |
|        NCORE= 4 - approx SQRT( number of cores)                             |
|      NCORE specifies how many cores store one orbital (NPAR=cpu/NCORE).     |
|      This setting can  greatly improve the performance of VASP for DFT.     |
|      The default, NPAR=number of cores might be grossly inefficient         |
|      on modern multi-core architectures or massively parallel machines.     |
|      Do your own testing !!!!                                               |
|      Unfortunately you need to use the default for GW and RPA calculations. |
|      (for HF NCORE is supported but not extensively tested yet)             |
|                                                                             |
 ----------------------------------------------------------------------------- 

 POTCAR:    PAW_PBE Cu 22Jun2005                  
   VRHFIN =Cu: d10 p1                                                           
   LEXCH  = PE                                                                  
   EATOM  =  1390.9808 eV,  102.2342 Ry                                         
                                                                                
   TITEL  = PAW_PBE Cu 22Jun2005                                                
   LULTRA =        F    use ultrasoft PP ?                                      
   IUNSCR =        1    unscreen: 0-lin 1-nonlin 2-no                           
   RPACOR =    2.000    partial core radius                                     
   POMASS =   63.546; ZVAL   =   11.000    mass and valenz                      
   RCORE  =    2.300    outmost cutoff radius                                   
   RWIGS  =    2.200; RWIGS  =    1.164    wigner-seitz radius (au A)           
   ENMAX  =  295.446; ENMIN  =  221.585 eV                                      
   ICORE  =        3    local potential                                         
   LCOR   =        T    correct aug charges                                     
   LPAW   =        T    paw PP                                                  
   EAUG   =  586.980                                                            
   DEXC   =    0.000                                                            
   RMAX   =    2.344    core radius for proj-oper                               
   RAUG   =    1.300    factor for augmentation sphere                          
   RDEP   =    2.302    radius for radial grids                                 
   RDEPT  =    1.771    core radius for aug-charge                              
                                                                                
   Atomic configuration                                                         
    9 entries                                                                   
     n  l   j            E        occ.                                          
     1  0  0.50     -8850.2468   2.0000                                         
     2  0  0.50     -1062.3498   2.0000                                         
     2  1  1.50      -916.8226   6.0000                                         
     3  0  0.50      -114.6929   2.0000                                         
     3  1  1.50       -72.1325   6.0000                                         
     3  2  2.50        -5.0394  10.0000                                         
     4  0  0.50        -4.6097   1.0000                                         
     4  1  0.50        -4.0817   0.0000                                         
     4  3  2.50        -1.3606   0.0000                                         
   Description                                                                  
     l       E           TYP  RCUT    TYP  RCUT                                 
     2     -5.0393973     23  2.200                                             
     2     10.8846608     23  2.200                                             
     0     -4.6097109     23  2.200                                             
     0      8.2520465     23  2.200                                             
     1     -2.7211652     23  2.200                                             
     1     21.7055443     23  2.200                                             
     3      2.7211652     23  2.300                                             
  local pseudopotential read in
  partial core-charges read in
  partial kinetic energy density read in
  atomic valenz-charges read in
  non local Contribution for L=           2  read in
    real space projection operators read in
  non local Contribution for L=           2  read in
    real space projection operators read in
  non local Contribution for L=           0  read in
    real space projection operators read in
  non local Contribution for L=           0  read in
    real space projection operators read in
  non local Contribution for L=           1  read in
    real space projection operators read in
  non local Contribution for L=           1  read in
    real space projection operators read in
    PAW grid and wavefunctions read in
 
   number of l-projection  operators is LMAX  =           6
   number of lm-projection operators is LMMAX =          18
 
  PAW_PBE Cu 22Jun2005                  :
 energy of atom  1       EATOM=-1390.9808
 kinetic energy error for atom=    0.0232 (will be added to EATOM!!)
 
 
 POSCAR: Cu                                      
  positions in cartesian coordinates
  No initial velocities read in
 exchange correlation table for  LEXCH =        8
   RHO(1)=    0.500       N(1)  =     2000
   RHO(2)=  100.500       N(2)  =     4000
 


--------------------------------------------------------------------------------------------------------


 ion  position               nearest neighbor table
   1  0.000  0.000  0.000-   2 2.30   3 2.30   4 2.30   2 2.30   3 2.30   2 2.30   4 2.30   2 2.30
                             3 2.30   4 2.30   3 2.30   4 2.30
   2  0.000  0.500  0.500-   1 2.30   3 2.30   4 2.30   1 2.30   4 2.30   1 2.30   3 2.30   1 2.30
                             3 2.30   4 2.30   4 2.30   3 2.30
   3  0.500  0.000  0.500-   1 2.30   2 2.30   4 2.30   1 2.30   4 2.30   2 2.30   4 2.30   4 2.30
                             1 2.30   2 2.30   1 2.30   2 2.30
   4  0.500  0.500  0.000-   1 2.30   2 2.30   3 2.30   2 2.30   3 2.30   1 2.30   3 2.30   3 2.30
                             1 2.30   2 2.30   2 2.30   1 2.30
 
  LATTYP: Found a simple cubic cell.
 ALAT       =     3.2490000000
  
  Lattice vectors:
  
 A1 = (   3.2490000000,   0.0000000000,   0.0000000000)
 A2 = (   0.0000000000,   3.2490000000,   0.0000000000)
 A3 = (   0.0000000000,   0.0000000000,   3.2490000000)


Analysis of symmetry for initial positions (statically):
=====================================================================
 Subroutine PRICEL returns following result:
 
  LATTYP: Found a face centered cubic cell.
 ALAT       =     3.2490000000
  
  Lattice vectors:
  
 A1 = (   1.6245000000,   1.6245000000,   0.0000000000)
 A2 = (   1.6245000000,   0.0000000000,  -1.6245000000)
 A3 = (   0.0000000000,   1.6245000000,  -1.6245000000)
 
   4 primitive cells build up your supercell.
 

 Routine SETGRP: Setting up the symmetry group for a 
 simple cubic supercell.


 Subroutine GETGRP returns: Found 48 space group operations
 (whereof 48 operations were pure point group operations)
 out of a pool of 48 trial point group operations.


The static configuration has the point symmetry O_h .


Analysis of symmetry for dynamics (positions and initial velocities):
=====================================================================
 Subroutine PRICEL returns following result:
 
  LATTYP: Found a face centered cubic cell.
 ALAT       =     3.2490000000
  
  Lattice vectors:
  
 A1 = (   1.6245000000,   1.6245000000,   0.0000000000)
 A2 = (   1.6245000000,   0.0000000000,  -1.6245000000)
 A3 = (   0.0000000000,   1.6245000000,  -1.6245000000)
 
   4 primitive cells build up your supercell.
 

 Routine SETGRP: Setting up the symmetry group for a 
 simple cubic supercell.


 Subroutine GETGRP returns: Found 48 space group operations
 (whereof 48 operations were pure point group operations)
 out of a pool of 48 trial point group operations.


The dynamic configuration has the point symmetry O_h .


 Subroutine INISYM returns: Found 48 space group operations
 (whereof 48 operations are pure point group operations),
 and found     4 'primitive' translations

 
 
 KPOINTS: KPOINTS created by Atomic Simulation Env

Automatic generation of k-mesh.
Space group operators:
 irot       det(A)        alpha          n_x          n_y          n_z        tau_x        tau_y        tau_z
    1     1.000000     0.000000     1.000000     0.000000     0.000000     0.000000     0.000000     0.000000
    2    -1.000000     0.000000     1.000000     0.000000     0.000000     0.000000     0.000000     0.000000
    3     1.000000   120.000000    -0.577350    -0.577350    -0.577350     0.000000     0.000000     0.000000
    4    -1.000000   120.000000    -0.577350    -0.577350    -0.577350     0.000000     0.000000     0.000000
    5     1.000000   120.000000     0.577350     0.577350     0.577350     0.000000     0.000000     0.000000
    6    -1.000000   120.000000     0.577350     0.577350     0.577350     0.000000     0.000000     0.000000
    7     1.000000    90.000000     0.000000     0.000000    -1.000000     0.000000     0.000000     0.000000
    8    -1.000000    90.000000     0.000000     0.000000    -1.000000     0.000000     0.000000     0.000000
    9     1.000000   180.000000     0.000000     0.707107     0.707107     0.000000     0.000000     0.000000
   10    -1.000000   180.000000     0.000000     0.707107     0.707107     0.000000     0.000000     0.000000
   11     1.000000    90.000000     0.000000     1.000000     0.000000     0.000000     0.000000     0.000000
   12    -1.000000    90.000000     0.000000     1.000000     0.000000     0.000000     0.000000     0.000000
   13     1.000000   180.000000     0.000000     0.000000     1.000000     0.000000     0.000000     0.000000
   14    -1.000000   180.000000     0.000000     0.000000     1.000000     0.000000     0.000000     0.000000
   15     1.000000   120.000000    -0.577350     0.577350     0.577350     0.000000     0.000000     0.000000
   16    -1.000000   120.000000    -0.577350     0.577350     0.577350     0.000000     0.000000     0.000000
   17     1.000000   120.000000    -0.577350     0.577350    -0.577350     0.000000     0.000000     0.000000
   18    -1.000000   120.000000    -0.577350     0.577350    -0.577350     0.000000     0.000000     0.000000
   19     1.000000    90.000000     0.000000     0.000000     1.000000     0.000000     0.000000     0.000000
   20    -1.000000    90.000000     0.000000     0.000000     1.000000     0.000000     0.000000     0.000000
   21     1.000000    90.000000    -1.000000     0.000000     0.000000     0.000000     0.000000     0.000000
   22    -1.000000    90.000000    -1.000000     0.000000     0.000000     0.000000     0.000000     0.000000
   23     1.000000   180.000000     0.707107     0.000000     0.707107     0.000000     0.000000     0.000000
   24    -1.000000   180.000000     0.707107     0.000000     0.707107     0.000000     0.000000     0.000000
   25     1.000000   120.000000     0.577350    -0.577350     0.577350     0.000000     0.000000     0.000000
   26    -1.000000   120.000000     0.577350    -0.577350     0.577350     0.000000     0.000000     0.000000
   27     1.000000   120.000000    -0.577350    -0.577350     0.577350     0.000000     0.000000     0.000000
   28    -1.000000   120.000000    -0.577350    -0.577350     0.577350     0.000000     0.000000     0.000000
   29     1.000000   180.000000     1.000000     0.000000     0.000000     0.000000     0.000000     0.000000
   30    -1.000000   180.000000     1.000000     0.000000     0.000000     0.000000     0.000000     0.000000
   31     1.000000    90.000000     0.000000    -1.000000     0.000000     0.000000     0.000000     0.000000
   32    -1.000000    90.000000     0.000000    -1.000000     0.000000     0.000000     0.000000     0.000000
   33     1.000000   180.000000     0.707107     0.707107     0.000000     0.000000     0.000000     0.000000
   34    -1.000000   180.000000     0.707107     0.707107     0.000000     0.000000     0.000000     0.000000
   35     1.000000    90.000000     1.000000     0.000000     0.000000     0.000000     0.000000     0.000000
   36    -1.000000    90.000000     1.000000     0.000000     0.000000     0.000000     0.000000     0.000000
   37     1.000000   120.000000     0.577350    -0.577350    -0.577350     0.000000     0.000000     0.000000
   38    -1.000000   120.000000     0.577350    -0.577350    -0.577350     0.000000     0.000000     0.000000
   39     1.000000   180.000000     0.000000     1.000000     0.000000     0.000000     0.000000     0.000000
   40    -1.000000   180.000000     0.000000     1.000000     0.000000     0.000000     0.000000     0.000000
   41     1.000000   120.000000     0.577350     0.577350    -0.577350     0.000000     0.000000     0.000000
   42    -1.000000   120.000000     0.577350     0.577350    -0.577350     0.000000     0.000000     0.000000
   43     1.000000   180.000000     0.000000    -0.707107     0.707107     0.000000     0.000000     0.000000
   44    -1.000000   180.000000     0.000000    -0.707107     0.707107     0.000000     0.000000     0.000000
   45     1.000000   180.000000     0.707107    -0.707107     0.000000     0.000000     0.000000     0.000000
   46    -1.000000   180.000000     0.707107    -0.707107     0.000000     0.000000     0.000000     0.000000
   47     1.000000   180.000000     0.707107     0.000000    -0.707107     0.000000     0.000000     0.000000
   48    -1.000000   180.000000     0.707107     0.000000    -0.707107     0.000000     0.000000     0.000000
 
 Subroutine IBZKPT returns following result:
 ===========================================
 
 Found     35 irreducible k-points:
 
 Following reciprocal coordinates:
            Coordinates               Weight
  0.000000  0.000000  0.000000      1.000000
  0.111111  0.000000  0.000000      6.000000
  0.222222  0.000000  0.000000      6.000000
  0.333333  0.000000  0.000000      6.000000
  0.444444  0.000000  0.000000      6.000000
  0.111111  0.111111  0.000000     12.000000
  0.222222  0.111111  0.000000     24.000000
  0.333333  0.111111  0.000000     24.000000
  0.444444  0.111111  0.000000     24.000000
  0.222222  0.222222  0.000000     12.000000
  0.333333  0.222222  0.000000     24.000000
  0.444444  0.222222  0.000000     24.000000
  0.333333  0.333333  0.000000     12.000000
  0.444444  0.333333  0.000000     24.000000
  0.444444  0.444444  0.000000     12.000000
  0.111111  0.111111  0.111111      8.000000
  0.222222  0.111111  0.111111     24.000000
  0.333333  0.111111  0.111111     24.000000
  0.444444  0.111111  0.111111     24.000000
  0.222222  0.222222  0.111111     24.000000
  0.333333  0.222222  0.111111     48.000000
  0.444444  0.222222  0.111111     48.000000
  0.333333  0.333333  0.111111     24.000000
  0.444444  0.333333  0.111111     48.000000
  0.444444  0.444444  0.111111     24.000000
  0.222222  0.222222  0.222222      8.000000
  0.333333  0.222222  0.222222     24.000000
  0.444444  0.222222  0.222222     24.000000
  0.333333  0.333333  0.222222     24.000000
  0.444444  0.333333  0.222222     48.000000
  0.444444  0.444444  0.222222     24.000000
  0.333333  0.333333  0.333333      8.000000
  0.444444  0.333333  0.333333     24.000000
  0.444444  0.444444  0.333333     24.000000
  0.444444  0.444444  0.444444      8.000000
 
 Following cartesian coordinates:
            Coordinates               Weight
  0.000000  0.000000  0.000000      1.000000
  0.034199  0.000000  0.000000      6.000000
  0.068397  0.000000  0.000000      6.000000
  0.102596  0.000000  0.000000      6.000000
  0.136794  0.000000  0.000000      6.000000
  0.034199  0.034199  0.000000     12.000000
  0.068397  0.034199  0.000000     24.000000
  0.102596  0.034199  0.000000     24.000000
  0.136794  0.034199  0.000000     24.000000
  0.068397  0.068397  0.000000     12.000000
  0.102596  0.068397  0.000000     24.000000
  0.136794  0.068397  0.000000     24.000000
  0.102596  0.102596  0.000000     12.000000
  0.136794  0.102596  0.000000     24.000000
  0.136794  0.136794  0.000000     12.000000
  0.034199  0.034199  0.034199      8.000000
  0.068397  0.034199  0.034199     24.000000
  0.102596  0.034199  0.034199     24.000000
  0.136794  0.034199  0.034199     24.000000
  0.068397  0.068397  0.034199     24.000000
  0.102596  0.068397  0.034199     48.000000
  0.136794  0.068397  0.034199     48.000000
  0.102596  0.102596  0.034199     24.000000
  0.136794  0.102596  0.034199     48.000000
  0.136794  0.136794  0.034199     24.000000
  0.068397  0.068397  0.068397      8.000000
  0.102596  0.068397  0.068397     24.000000
  0.136794  0.068397  0.068397     24.000000
  0.102596  0.102596  0.068397     24.000000
  0.136794  0.102596  0.068397     48.000000
  0.136794  0.136794  0.068397     24.000000
  0.102596  0.102596  0.102596      8.000000
  0.136794  0.102596  0.102596     24.000000
  0.136794  0.136794  0.102596     24.000000
  0.136794  0.136794  0.136794      8.000000
 


--------------------------------------------------------------------------------------------------------




 Dimension of arrays:
   k-points           NKPTS =     35   k-points in BZ     NKDIM =     35   number of bands    NBANDS=     48
   number of dos      NEDOS =    301   number of ions     NIONS =      4
   non local maximal  LDIM  =      6   non local SUM 2l+1 LMDIM =     18
   total plane-waves  NPLWV =   4096
   max r-space proj   IRMAX =      1   max aug-charges    IRDMAX=   3658
   dimension x,y,z NGX =    16 NGY =   16 NGZ =   16
   dimension x,y,z NGXF=    32 NGYF=   32 NGZF=   32
   support grid    NGXF=    32 NGYF=   32 NGZF=   32
   ions per type =               4
 NGX,Y,Z   is equivalent  to a cutoff of   8.19,  8.19,  8.19 a.u.
 NGXF,Y,Z  is equivalent  to a cutoff of  16.37, 16.37, 16.37 a.u.


 I would recommend the setting:
   dimension x,y,z NGX =    16 NGY =   16 NGZ =   16
 SYSTEM =  unknown system                          
 POSCAR =  Cu                                      

 Startparameter for this run:
   NWRITE =      2    write-flag & timer
   PREC   = normal    normal or accurate (medium, high low for compatibility)
   ISTART =      0    job   : 0-new  1-cont  2-samecut
   ICHARG =      2    charge: 1-file 2-atom 10-const
   ISPIN  =      1    spin polarized calculation?
   LNONCOLLINEAR =      F non collinear calculations
   LSORBIT =      F    spin-orbit coupling
   INIWAV =      1    electr: 0-lowe 1-rand  2-diag
   LASPH  =      F    aspherical Exc in radial PAW
   METAGGA=      F    non-selfconsistent MetaGGA calc.

 Electronic Relaxation 1
   ENCUT  =  400.0 eV  29.40 Ry    5.42 a.u.   5.30  5.30  5.30*2*pi/ulx,y,z
   ENINI  =  400.0     initial cutoff
   ENAUG  =  587.0 eV  augmentation charge cutoff
   NELM   =     60;   NELMIN=  2; NELMDL= -5     # of ELM steps 
   EDIFF  = 0.1E-03   stopping-criterion for ELM
   LREAL  =      F    real-space projection
   NLSPLINE    = F    spline interpolate recip. space projectors
   LCOMPAT=      F    compatible to vasp.4.4
   GGA_COMPAT  = T    GGA compatible to vasp.4.4-vasp.4.6
   LMAXPAW     = -100 max onsite density
   LMAXMIX     =    2 max onsite mixed and CHGCAR
   VOSKOWN=      0    Vosko Wilk Nusair interpolation
   ROPT   =    0.00000
 Ionic relaxation
   EDIFFG = 0.1E-02   stopping-criterion for IOM
   NSW    =      0    number of steps for IOM
   NBLOCK =      1;   KBLOCK =      1    inner block; outer block 
   IBRION =     -1    ionic relax: 0-MD 1-quasi-New 2-CG
   NFREE  =      0    steps in history (QN), initial steepest desc. (CG)
   ISIF   =      2    stress and relaxation
   IWAVPR =     10    prediction:  0-non 1-charg 2-wave 3-comb
   ISYM   =      2    0-nonsym 1-usesym 2-fastsym
   LCORR  =      T    Harris-Foulkes like correction to forces

   POTIM  = 0.5000    time-step for ionic-motion
   TEIN   =    0.0    initial temperature
   TEBEG  =    0.0;   TEEND  =   0.0 temperature during run
   SMASS  =  -3.00    Nose mass-parameter (am)
   estimated Nose-frequenzy (Omega)   =  0.10E-29 period in steps =****** mass=  -0.241E-27a.u.
   SCALEE = 1.0000    scale energy and forces
   NPACO  =    256;   APACO  = 16.0  distance and # of slots for P.C.
   PSTRESS=    0.0 pullay stress

  Mass of Ions in am
   POMASS =  63.55
  Ionic Valenz
   ZVAL   =  11.00
  Atomic Wigner-Seitz radii
   RWIGS  =  -1.00
  virtual crystal weights 
   VCA    =   1.00
   NELECT =      44.0000    total number of electrons
   NUPDOWN=      -1.0000    fix difference up-down

 DOS related values:
   EMIN   =  10.00;   EMAX   =-10.00  energy-range for DOS
   EFERMI =   0.00
   ISMEAR =     1;   SIGMA  =   0.10  broadening in eV -4-tet -1-fermi 0-gaus

 Electronic relaxation 2 (details)
   IALGO  =     38    algorithm
   LDIAG  =      T    sub-space diagonalisation (order eigenvalues)
   LSUBROT=      F    optimize rotation matrix (better conditioning)
   TURBO    =      0    0=normal 1=particle mesh
   IRESTART =      0    0=no restart 2=restart with 2 vectors
   NREBOOT  =      0    no. of reboots
   NMIN     =      0    reboot dimension
   EREF     =   0.00    reference energy to select bands
   IMIX   =      4    mixing-type and parameters
     AMIX     =   0.40;   BMIX     =  1.00
     AMIX_MAG =   1.60;   BMIX_MAG =  1.00
     AMIN     =   0.10
     WC   =   100.;   INIMIX=   1;  MIXPRE=   1;  MAXMIX= -45

 Intra band minimization:
   WEIMIN = 0.0000     energy-eigenvalue tresh-hold
   EBREAK =  0.52E-06  absolut break condition
   DEPER  =   0.30     relativ break condition  

   TIME   =   0.40     timestep for ELM

  volume/ion in A,a.u.               =       8.57        57.86
  Fermi-wavevector in a.u.,A,eV,Ry     =   1.778864  3.361565 43.053679  3.164356
  Thomas-Fermi vector in A             =   2.843971
 
 Write flags
   LWAVE  =      F    write WAVECAR
   LCHARG =      F    write CHGCAR
   LVTOT  =      F    write LOCPOT, total local potential
   LVHAR  =      F    write LOCPOT, Hartree potential only
   LELF   =      F    write electronic localiz. function (ELF)
   LORBIT =      0    0 simple, 1 ext, 2 COOP (PROOUT)


 Dipole corrections
   LMONO  =      F    monopole corrections only (constant potential shift)
   LDIPOL =      F    correct potential (dipole corrections)
   IDIPOL =      0    1-x, 2-y, 3-z, 4-all directions 
   EPSILON=  1.0000000 bulk dielectric constant

 Exchange correlation treatment:
   GGA     =    --    GGA type
   LEXCH   =     8    internal setting for exchange type
   VOSKOWN=      0    Vosko Wilk Nusair interpolation
   LHFCALC =     F    Hartree Fock is set to
   LHFONE  =     F    Hartree Fock one center treatment
   AEXX    =    0.0000 exact exchange contribution

 Linear response parameters
   LEPSILON=     F    determine dielectric tensor
   LRPA    =     F    only Hartree local field effects (RPA)
   LNABLA  =     F    use nabla operator in PAW spheres
   LVEL    =     F    velocity operator in full k-point grid
   LINTERFAST=   F  fast interpolation
   KINTER  =     0    interpolate to denser k-point grid
   CSHIFT  =0.1000    complex shift for real part using Kramers Kronig
   OMEGAMAX=  -1.0    maximum frequency
   DEG_THRESHOLD= 0.2000000E-02 threshold for treating states as degnerate
   RTIME   =    0.100 relaxation time in fs

 Orbital magnetization related:
   ORBITALMAG=     F  switch on orbital magnetization
   LCHIMAG   =     F  perturbation theory with respect to B field
   DQ        =  0.001000  dq finite difference perturbation B field



--------------------------------------------------------------------------------------------------------


 Static calculation
 charge density and potential will be updated during run
 non-spin polarized calculation
 Variant of blocked Davidson
 Davidson routine will perform the subspace rotation
 perform sub-space diagonalisation
    after iterative eigenvector-optimisation
 modified Broyden-mixing scheme, WC =      100.0
 initial mixing is a Kerker type mixing with AMIX =  0.4000 and BMIX =      1.0000
 Hartree-type preconditioning will be used
 using additional bands           26
 reciprocal scheme for non local part
 use partial core corrections
 calculate Harris-corrections to forces 
   (improved forces if not selfconsistent)
 use gradient corrections 
 use of overlap-Matrix (Vanderbilt PP)
 Methfessel and Paxton  Order N= 1 SIGMA  =   0.10


--------------------------------------------------------------------------------------------------------


  energy-cutoff  :      400.00
  volume of cell :       34.30
      direct lattice vectors                 reciprocal lattice vectors
     3.249000000  0.000000000  0.000000000     0.307787011  0.000000000  0.000000000
     0.000000000  3.249000000  0.000000000     0.000000000  0.307787011  0.000000000
     0.000000000  0.000000000  3.249000000     0.000000000  0.000000000  0.307787011

  length of vectors
     3.249000000  3.249000000  3.249000000     0.307787011  0.307787011  0.307787011


 
 k-points in units of 2pi/SCALE and weight: KPOINTS created by Atomic Simulation Env
   0.00000000  0.00000000  0.00000000       0.001
   0.03419856  0.00000000  0.00000000       0.008
   0.06839711  0.00000000  0.00000000       0.008
   0.10259567  0.00000000  0.00000000       0.008
   0.13679423  0.00000000  0.00000000       0.008
   0.03419856  0.03419856  0.00000000       0.016
   0.06839711  0.03419856  0.00000000       0.033
   0.10259567  0.03419856  0.00000000       0.033
   0.13679423  0.03419856  0.00000000       0.033
   0.06839711  0.06839711  0.00000000       0.016
   0.10259567  0.06839711  0.00000000       0.033
   0.13679423  0.06839711  0.00000000       0.033
   0.10259567  0.10259567  0.00000000       0.016
   0.13679423  0.10259567  0.00000000       0.033
   0.13679423  0.13679423  0.00000000       0.016
   0.03419856  0.03419856  0.03419856       0.011
   0.06839711  0.03419856  0.03419856       0.033
   0.10259567  0.03419856  0.03419856       0.033
   0.13679423  0.03419856  0.03419856       0.033
   0.06839711  0.06839711  0.03419856       0.033
   0.10259567  0.06839711  0.03419856       0.066
   0.13679423  0.06839711  0.03419856       0.066
   0.10259567  0.10259567  0.03419856       0.033
   0.13679423  0.10259567  0.03419856       0.066
   0.13679423  0.13679423  0.03419856       0.033
   0.06839711  0.06839711  0.06839711       0.011
   0.10259567  0.06839711  0.06839711       0.033
   0.13679423  0.06839711  0.06839711       0.033
   0.10259567  0.10259567  0.06839711       0.033
   0.13679423  0.10259567  0.06839711       0.066
   0.13679423  0.13679423  0.06839711       0.033
   0.10259567  0.10259567  0.10259567       0.011
   0.13679423  0.10259567  0.10259567       0.033
   0.13679423  0.13679423  0.10259567       0.033
   0.13679423  0.13679423  0.13679423       0.011
 
 k-points in reciprocal lattice and weights: KPOINTS created by Atomic Simulation Env
   0.00000000  0.00000000  0.00000000       0.001
   0.11111111  0.00000000  0.00000000       0.008
   0.22222222  0.00000000  0.00000000       0.008
   0.33333333  0.00000000  0.00000000       0.008
   0.44444444  0.00000000  0.00000000       0.008
   0.11111111  0.11111111  0.00000000       0.016
   0.22222222  0.11111111  0.00000000       0.033
   0.33333333  0.11111111  0.00000000       0.033
   0.44444444  0.11111111  0.00000000       0.033
   0.22222222  0.22222222  0.00000000       0.016
   0.33333333  0.22222222  0.00000000       0.033
   0.44444444  0.22222222  0.00000000       0.033
   0.33333333  0.33333333  0.00000000       0.016
   0.44444444  0.33333333  0.00000000       0.033
   0.44444444  0.44444444  0.00000000       0.016
   0.11111111  0.11111111  0.11111111       0.011
   0.22222222  0.11111111  0.11111111       0.033
   0.33333333  0.11111111  0.11111111       0.033
   0.44444444  0.11111111  0.11111111       0.033
   0.22222222  0.22222222  0.11111111       0.033
   0.33333333  0.22222222  0.11111111       0.066
   0.44444444  0.22222222  0.11111111       0.066
   0.33333333  0.33333333  0.11111111       0.033
   0.44444444  0.33333333  0.11111111       0.066
   0.44444444  0.44444444  0.11111111       0.033
   0.22222222  0.22222222  0.22222222       0.011
   0.33333333  0.22222222  0.22222222       0.033
   0.44444444  0.22222222  0.22222222       0.033
   0.33333333  0.33333333  0.22222222       0.033
   0.44444444  0.33333333  0.22222222       0.066
   0.44444444  0.44444444  0.22222222       0.033
   0.33333333  0.33333333  0.33333333       0.011
   0.44444444  0.33333333  0.33333333       0.033
   0.44444444  0.44444444  0.33333333       0.033
   0.44444444  0.44444444  0.44444444       0.011
 
 position of ions in fractional coordinates (direct lattice) 
   0.00000000  0.00000000  0.00000000
   0.00000000  0.50000000  0.50000000
   0.50000000  0.00000000  0.50000000
   0.50000000  0.50000000  0.00000000
 
 position of ions in cartesian coordinates  (Angst):
   0.00000000  0.00000000  0.00000000
   0.00000000  1.62450000  1.62450000
   1.62450000  0.00000000  1.62450000
   1.62450000  1.62450000  0.00000000
 


--------------------------------------------------------------------------------------------------------


 k-point  1 :   0.0000 0.0000 0.0000  plane waves:     619
 k-point  2 :   0.1111 0.0000 0.0000  plane waves:     619
 k-point  3 :   0.2222 0.0000 0.0000  plane waves:     635
 k-point  4 :   0.3333 0.0000 0.0000  plane waves:     630
 k-point  5 :   0.4444 0.0000 0.0000  plane waves:     618
 k-point  6 :   0.1111 0.1111 0.0000  plane waves:     631
 k-point  7 :   0.2222 0.1111 0.0000  plane waves:     635
 k-point  8 :   0.3333 0.1111 0.0000  plane waves:     630
 k-point  9 :   0.4444 0.1111 0.0000  plane waves:     618
 k-point 10 :   0.2222 0.2222 0.0000  plane waves:     621
 k-point 11 :   0.3333 0.2222 0.0000  plane waves:     623
 k-point 12 :   0.4444 0.2222 0.0000  plane waves:     619
 k-point 13 :   0.3333 0.3333 0.0000  plane waves:     618
 k-point 14 :   0.4444 0.3333 0.0000  plane waves:     623
 k-point 15 :   0.4444 0.4444 0.0000  plane waves:     624
 k-point 16 :   0.1111 0.1111 0.1111  plane waves:     627
 k-point 17 :   0.2222 0.1111 0.1111  plane waves:     622
 k-point 18 :   0.3333 0.1111 0.1111  plane waves:     631
 k-point 19 :   0.4444 0.1111 0.1111  plane waves:     624
 k-point 20 :   0.2222 0.2222 0.1111  plane waves:     626
 k-point 21 :   0.3333 0.2222 0.1111  plane waves:     624
 k-point 22 :   0.4444 0.2222 0.1111  plane waves:     620
 k-point 23 :   0.3333 0.3333 0.1111  plane waves:     618
 k-point 24 :   0.4444 0.3333 0.1111  plane waves:     613
 k-point 25 :   0.4444 0.4444 0.1111  plane waves:     616
 k-point 26 :   0.2222 0.2222 0.2222  plane waves:     621
 k-point 27 :   0.3333 0.2222 0.2222  plane waves:     616
 k-point 28 :   0.4444 0.2222 0.2222  plane waves:     619
 k-point 29 :   0.3333 0.3333 0.2222  plane waves:     618
 k-point 30 :   0.4444 0.3333 0.2222  plane waves:     627
 k-point 31 :   0.4444 0.4444 0.2222  plane waves:     625
 k-point 32 :   0.3333 0.3333 0.3333  plane waves:     627
 k-point 33 :   0.4444 0.3333 0.3333  plane waves:     624
 k-point 34 :   0.4444 0.4444 0.3333  plane waves:     630
 k-point 35 :   0.4444 0.4444 0.4444  plane waves:     630

 maximum and minimum number of plane-waves per node :       635      613

 maximum number of plane-waves:       635
 maximum index in each direction: 
   IXMAX=    5   IYMAX=    5   IZMAX=    5
   IXMIN=   -5   IYMIN=   -5   IZMIN=   -5

 WARNING: aliasing errors must be expected set NGX to  22 to avoid them
 WARNING: aliasing errors must be expected set NGY to  22 to avoid them
 WARNING: aliasing errors must be expected set NGZ to  22 to avoid them
 aliasing errors are usually negligible using standard VASP settings
 and one can safely disregard these warnings

 serial   3D FFT for wavefunctions
 parallel 3D FFT for charge:
    minimum data exchange during FFTs selected (reduces bandwidth)


 total amount of memory used by VASP on root node    34533. kBytes
========================================================================

   base      :      30000. kBytes
   nonl-proj :       3307. kBytes
   fftplans  :         88. kBytes
   grid      :        270. kBytes
   one-center:         62. kBytes
   wavefun   :        806. kBytes
 
     INWAV:  cpu time    0.0001: real time    0.0035
 Broyden mixing: mesh for mixing (old mesh)
   NGX = 11   NGY = 11   NGZ = 11
  (NGX  = 32   NGY  = 32   NGZ  = 32)
  gives a total of   1331 points

 initial charge density was supplied:
 charge density of overlapping atoms calculated
 number of electron      44.0000000 magnetization 
 keeping initial charge density in first step


--------------------------------------------------------------------------------------------------------


 Maximum index for augmentation-charges          346 (set IRDMAX)


--------------------------------------------------------------------------------------------------------


 First call to EWALD:  gamma=   0.546
 Maximum number of real-space cells 3x 3x 3
 Maximum number of reciprocal cells 3x 3x 3

 FEWALD executed in parallel
    FEWALD:  cpu time    0.0016: real time    0.0016


----------------------------------------- Iteration    1(   1)  ---------------------------------------


    POTLOK:  cpu time    0.0219: real time    0.0220
    SETDIJ:  cpu time    0.0028: real time    0.0029
     EDDAV:  cpu time    0.5496: real time    0.5499
       DOS:  cpu time    0.0014: real time    0.0014
    --------------------------------------------
      LOOP:  cpu time    0.5779: real time    0.5795

 eigenvalue-minimisations  :  3960
 total energy-change (2. order) : 0.1531307E+03  (-0.1576144E+04)
 number of electron      44.0000000 magnetization 
 augmentation part       44.0000000 magnetization 

 Free energy of the ion-electron system (eV)
  ---------------------------------------------------
  alpha Z        PSCENC =       341.17961278
  Ewald energy   TEWEN  =     -4917.54120629
  -Hartree energ DENC   =     -1197.54210942
  -exchange      EXHF   =         0.00000000
  -V(xc)+E(xc)   XCENC  =       187.39540453
  PAW double counting   =      4912.82663951    -5336.19386850
  entropy T*S    EENTRO =        -0.00286051
  eigenvalues    EBANDS =       599.17851928
  atomic energy  EATOM  =      5563.83056080
  Solvation  Ediel_sol  =         0.00000000
  ---------------------------------------------------
  free energy    TOTEN  =       153.13069217 eV

  energy without entropy =      153.13355268  energy(sigma->0) =      153.13164568


--------------------------------------------------------------------------------------------------------




----------------------------------------- Iteration    1(   2)  ---------------------------------------


     EDDAV:  cpu time    0.5014: real time    0.5046
       DOS:  cpu time    0.0011: real time    0.0011
    --------------------------------------------
      LOOP:  cpu time    0.5036: real time    0.5205

 eigenvalue-minimisations  :  3624
 total energy-change (2. order) :-0.1641447E+03  (-0.1505509E+03)
 number of electron      44.0000000 magnetization 
 augmentation part       44.0000000 magnetization 

 Free energy of the ion-electron system (eV)
  ---------------------------------------------------
  alpha Z        PSCENC =       341.17961278
  Ewald energy   TEWEN  =     -4917.54120629
  -Hartree energ DENC   =     -1197.54210942
  -exchange      EXHF   =         0.00000000
  -V(xc)+E(xc)   XCENC  =       187.39540453
  PAW double counting   =      4912.82663951    -5336.19386850
  entropy T*S    EENTRO =        -0.00090378
  eigenvalues    EBANDS =       435.03187027
  atomic energy  EATOM  =      5563.83056080
  Solvation  Ediel_sol  =         0.00000000
  ---------------------------------------------------
  free energy    TOTEN  =       -11.01400011 eV

  energy without entropy =      -11.01309633  energy(sigma->0) =      -11.01369885


--------------------------------------------------------------------------------------------------------




----------------------------------------- Iteration    1(   3)  ---------------------------------------


     EDDAV:  cpu time    0.6001: real time    0.6003
       DOS:  cpu time    0.0008: real time    0.0008
    --------------------------------------------
      LOOP:  cpu time    0.6018: real time    0.6159

 eigenvalue-minimisations  :  4320
 total energy-change (2. order) :-0.4273320E+01  (-0.4259299E+01)
 number of electron      44.0000000 magnetization 
 augmentation part       44.0000000 magnetization 

 Free energy of the ion-electron system (eV)
  ---------------------------------------------------
  alpha Z        PSCENC =       341.17961278
  Ewald energy   TEWEN  =     -4917.54120629
  -Hartree energ DENC   =     -1197.54210942
  -exchange      EXHF   =         0.00000000
  -V(xc)+E(xc)   XCENC  =       187.39540453
  PAW double counting   =      4912.82663951    -5336.19386850
  entropy T*S    EENTRO =        -0.00002396
  eigenvalues    EBANDS =       430.75767052
  atomic energy  EATOM  =      5563.83056080
  Solvation  Ediel_sol  =         0.00000000
  ---------------------------------------------------
  free energy    TOTEN  =       -15.28732004 eV

  energy without entropy =      -15.28729608  energy(sigma->0) =      -15.28731205


--------------------------------------------------------------------------------------------------------




----------------------------------------- Iteration    1(   4)  ---------------------------------------


     EDDAV:  cpu time    0.5045: real time    0.5046
       DOS:  cpu time    0.0007: real time    0.0007
    --------------------------------------------
      LOOP:  cpu time    0.5063: real time    0.5205

 eigenvalue-minimisations  :  3888
 total energy-change (2. order) :-0.2494568E-01  (-0.2494490E-01)
 number of electron      44.0000000 magnetization 
 augmentation part       44.0000000 magnetization 

 Free energy of the ion-electron system (eV)
  ---------------------------------------------------
  alpha Z        PSCENC =       341.17961278
  Ewald energy   TEWEN  =     -4917.54120629
  -Hartree energ DENC   =     -1197.54210942
  -exchange      EXHF   =         0.00000000
  -V(xc)+E(xc)   XCENC  =       187.39540453
  PAW double counting   =      4912.82663951    -5336.19386850
  entropy T*S    EENTRO =        -0.00002509
  eigenvalues    EBANDS =       430.73272597
  atomic energy  EATOM  =      5563.83056080
  Solvation  Ediel_sol  =         0.00000000
  ---------------------------------------------------
  free energy    TOTEN  =       -15.31226572 eV

  energy without entropy =      -15.31224063  energy(sigma->0) =      -15.31225736


--------------------------------------------------------------------------------------------------------




----------------------------------------- Iteration    1(   5)  ---------------------------------------


     EDDAV:  cpu time    0.6258: real time    0.6282
       DOS:  cpu time    0.0017: real time    0.0017
    CHARGE:  cpu time    0.0045: real time    0.0050
    MIXING:  cpu time    0.0005: real time    0.0005
    --------------------------------------------
      LOOP:  cpu time    0.6335: real time    0.6376

 eigenvalue-minimisations  :  4368
 total energy-change (2. order) :-0.2786496E-03  (-0.2786464E-03)
 number of electron      44.0001081 magnetization 
 augmentation part       25.9492194 magnetization 

 Broyden mixing:
  rms(total) = 0.15432E+01    rms(broyden)= 0.15431E+01
  rms(prec ) = 0.37405E+01
  weight for this iteration     100.00

 Free energy of the ion-electron system (eV)
  ---------------------------------------------------
  alpha Z        PSCENC =       341.17961278
  Ewald energy   TEWEN  =     -4917.54120629
  -Hartree energ DENC   =     -1197.54210942
  -exchange      EXHF   =         0.00000000
  -V(xc)+E(xc)   XCENC  =       187.39540453
  PAW double counting   =      4912.82663951    -5336.19386850
  entropy T*S    EENTRO =        -0.00002509
  eigenvalues    EBANDS =       430.73244731
  atomic energy  EATOM  =      5563.83056080
  Solvation  Ediel_sol  =         0.00000000
  ---------------------------------------------------
  free energy    TOTEN  =       -15.31254437 eV

  energy without entropy =      -15.31251928  energy(sigma->0) =      -15.31253601


--------------------------------------------------------------------------------------------------------




----------------------------------------- Iteration    1(   6)  ---------------------------------------


    POTLOK:  cpu time    0.0025: real time    0.0025
    SETDIJ:  cpu time    0.0024: real time    0.0024
     EDDAV:  cpu time    0.5122: real time    0.5155
       DOS:  cpu time    0.0008: real time    0.0008
    CHARGE:  cpu time    0.0039: real time    0.0044
    MIXING:  cpu time    0.0004: real time    0.0004
    --------------------------------------------
      LOOP:  cpu time    0.5230: real time    0.5283

 eigenvalue-minimisations  :  4080
 total energy-change (2. order) : 0.3056025E+01  (-0.1853000E+01)
 number of electron      44.0001163 magnetization 
 augmentation part       28.3557822 magnetization 

 Broyden mixing:
  rms(total) = 0.33380E+00    rms(broyden)= 0.33360E+00
  rms(prec ) = 0.71348E+00
  weight for this iteration     100.00

 eigenvalues of (default mixing * dielectric matrix)
  average eigenvalue GAMMA=   0.8306
  0.8306

 Free energy of the ion-electron system (eV)
  ---------------------------------------------------
  alpha Z        PSCENC =       341.17961278
  Ewald energy   TEWEN  =     -4917.54120629
  -Hartree energ DENC   =     -1100.86069606
  -exchange      EXHF   =         0.00000000
  -V(xc)+E(xc)   XCENC  =       182.36976579
  PAW double counting   =      5313.23045155    -5723.54481135
  entropy T*S    EENTRO =        -0.00255607
  eigenvalues    EBANDS =       329.08235903
  atomic energy  EATOM  =      5563.83056080
  Solvation  Ediel_sol  =         0.00000000
  ---------------------------------------------------
  free energy    TOTEN  =       -12.25651983 eV

  energy without entropy =      -12.25396376  energy(sigma->0) =      -12.25566780


--------------------------------------------------------------------------------------------------------




----------------------------------------- Iteration    1(   7)  ---------------------------------------


    POTLOK:  cpu time    0.0692: real time    0.0692
    SETDIJ:  cpu time    0.0020: real time    0.0020
     EDDAV:  cpu time    0.5611: real time    0.5612
       DOS:  cpu time    0.0011: real time    0.0011
    CHARGE:  cpu time    0.0045: real time    0.0045
    MIXING:  cpu time    0.0003: real time    0.0003
    --------------------------------------------
      LOOP:  cpu time    0.6392: real time    0.6410

 eigenvalue-minimisations  :  4272
 total energy-change (2. order) : 0.5489583E+00  (-0.1898374E+00)
 number of electron      44.0001138 magnetization 
 augmentation part       27.6395029 magnetization 

 Broyden mixing:
  rms(total) = 0.17659E+00    rms(broyden)= 0.17658E+00
  rms(prec ) = 0.43727E+00
  weight for this iteration     100.00

 eigenvalues of (default mixing * dielectric matrix)
  average eigenvalue GAMMA=   1.5344
  0.7339  2.3349

 Free energy of the ion-electron system (eV)
  ---------------------------------------------------
  alpha Z        PSCENC =       341.17961278
  Ewald energy   TEWEN  =     -4917.54120629
  -Hartree energ DENC   =     -1115.29002322
  -exchange      EXHF   =         0.00000000
  -V(xc)+E(xc)   XCENC  =       183.17428578
  PAW double counting   =      5519.44054005    -5948.02304654
  entropy T*S    EENTRO =        -0.00049029
  eigenvalues    EBANDS =       361.52220536
  atomic energy  EATOM  =      5563.83056080
  Solvation  Ediel_sol  =         0.00000000
  ---------------------------------------------------
  free energy    TOTEN  =       -11.70756156 eV

  energy without entropy =      -11.70707127  energy(sigma->0) =      -11.70739813


--------------------------------------------------------------------------------------------------------




----------------------------------------- Iteration    1(   8)  ---------------------------------------


    POTLOK:  cpu time    0.0019: real time    0.0019
    SETDIJ:  cpu time    0.0022: real time    0.0022
     EDDAV:  cpu time    0.6087: real time    0.6088
       DOS:  cpu time    0.0007: real time    0.0007
    CHARGE:  cpu time    0.0038: real time    0.0038
    MIXING:  cpu time    0.0002: real time    0.0002
    --------------------------------------------
      LOOP:  cpu time    0.6187: real time    0.6206

 eigenvalue-minimisations  :  4680
 total energy-change (2. order) : 0.1000041E+00  (-0.3765379E-02)
 number of electron      44.0001140 magnetization 
 augmentation part       27.7125980 magnetization 

 Broyden mixing:
  rms(total) = 0.25848E-01    rms(broyden)= 0.25848E-01
  rms(prec ) = 0.64432E-01
  weight for this iteration     100.00

 eigenvalues of (default mixing * dielectric matrix)
  average eigenvalue GAMMA=   1.3973
  0.7482  0.9450  2.4987

 Free energy of the ion-electron system (eV)
  ---------------------------------------------------
  alpha Z        PSCENC =       341.17961278
  Ewald energy   TEWEN  =     -4917.54120629
  -Hartree energ DENC   =     -1096.54701475
  -exchange      EXHF   =         0.00000000
  -V(xc)+E(xc)   XCENC  =       182.25440100
  PAW double counting   =      5914.18968783    -6357.29283476
  entropy T*S    EENTRO =        -0.00063958
  eigenvalues    EBANDS =       358.31987553
  atomic energy  EATOM  =      5563.83056080
  Solvation  Ediel_sol  =         0.00000000
  ---------------------------------------------------
  free energy    TOTEN  =       -11.60755744 eV

  energy without entropy =      -11.60691786  energy(sigma->0) =      -11.60734425


--------------------------------------------------------------------------------------------------------




----------------------------------------- Iteration    1(   9)  ---------------------------------------


    POTLOK:  cpu time    0.0018: real time    0.0018
    SETDIJ:  cpu time    0.0020: real time    0.0020
     EDDAV:  cpu time    0.8050: real time    0.8051
       DOS:  cpu time    0.0007: real time    0.0007
    CHARGE:  cpu time    0.0045: real time    0.0045
    MIXING:  cpu time    0.0003: real time    0.0003
    --------------------------------------------
      LOOP:  cpu time    0.8154: real time    0.8168

 eigenvalue-minimisations  :  5592
 total energy-change (2. order) : 0.1459401E-02  (-0.2760067E-03)
 number of electron      44.0001141 magnetization 
 augmentation part       27.7392246 magnetization 

 Broyden mixing:
  rms(total) = 0.27506E-02    rms(broyden)= 0.27461E-02
  rms(prec ) = 0.49110E-02
  weight for this iteration     100.00

 eigenvalues of (default mixing * dielectric matrix)
  average eigenvalue GAMMA=   1.6637
  0.7496  0.9325  2.7812  2.1918

 Free energy of the ion-electron system (eV)
  ---------------------------------------------------
  alpha Z        PSCENC =       341.17961278
  Ewald energy   TEWEN  =     -4917.54120629
  -Hartree energ DENC   =     -1094.18186675
  -exchange      EXHF   =         0.00000000
  -V(xc)+E(xc)   XCENC  =       182.13668303
  PAW double counting   =      5951.70079781    -6395.86512633
  entropy T*S    EENTRO =        -0.00070492
  eigenvalues    EBANDS =       357.13515182
  atomic energy  EATOM  =      5563.83056080
  Solvation  Ediel_sol  =         0.00000000
  ---------------------------------------------------
  free energy    TOTEN  =       -11.60609804 eV

  energy without entropy =      -11.60539312  energy(sigma->0) =      -11.60586307


--------------------------------------------------------------------------------------------------------




----------------------------------------- Iteration    1(  10)  ---------------------------------------


    POTLOK:  cpu time    0.0025: real time    0.0025
    SETDIJ:  cpu time    0.0020: real time    0.0020
     EDDAV:  cpu time    0.3675: real time    0.3676
       DOS:  cpu time    0.0006: real time    0.0006
    --------------------------------------------
      LOOP:  cpu time    0.3739: real time    0.3756

 eigenvalue-minimisations  :  2808
 total energy-change (2. order) :-0.5620545E-04  (-0.4660055E-05)
 number of electron      44.0001141 magnetization 
 augmentation part       27.7392246 magnetization 

 Free energy of the ion-electron system (eV)
  ---------------------------------------------------
  alpha Z        PSCENC =       341.17961278
  Ewald energy   TEWEN  =     -4917.54120629
  -Hartree energ DENC   =     -1094.32539451
  -exchange      EXHF   =         0.00000000
  -V(xc)+E(xc)   XCENC  =       182.14443638
  PAW double counting   =      5949.17357721    -6393.14328665
  entropy T*S    EENTRO =        -0.00070746
  eigenvalues    EBANDS =       357.07625350
  atomic energy  EATOM  =      5563.83056080
  Solvation  Ediel_sol  =         0.00000000
  ---------------------------------------------------
  free energy    TOTEN  =       -11.60615425 eV

  energy without entropy =      -11.60544678  energy(sigma->0) =      -11.60591843


--------------------------------------------------------------------------------------------------------




 average (electrostatic) potential at core
  the test charge radii are     0.9430
  (the norm of the test charge is              1.0000)
       1 -59.8828       2 -59.8828       3 -59.8828       4 -59.8828
 
 
 
 E-fermi :  12.4740     XC(G=0): -14.7012     alpha+bet :-18.4909


 k-point     1 :       0.0000    0.0000    0.0000
  band No.  band energies     occupation 
      1       0.2277      2.00000
      2       5.0880      2.00000
      3       5.0880      2.00000
      4       5.0880      2.00000
      5       5.7929      2.00000
      6       5.7929      2.00000
      7       5.7929      2.00000
      8       8.0686      2.00000
      9       8.0686      2.00000
     10       8.0686      2.00000
     11       9.4249      2.00000
     12       9.4249      2.00000
     13      10.3245      2.00000
     14      10.3245      2.00000
     15      10.3245      2.00000
     16      10.5808      2.00000
     17      10.5808      2.00000
     18      10.5808      2.00000
     19      10.5808      2.00000
     20      10.5808      2.00000
     21      10.5808      2.00000
     22      13.5960     -0.00000
     23      13.5960     -0.00000
     24      13.5960     -0.00000
     25      21.9691      0.00000
     26      21.9691      0.00000
     27      21.9691      0.00000
     28      28.1145      0.00000
     29      28.1145      0.00000
     30      28.1145      0.00000
     31      28.1145      0.00000
     32      28.1145      0.00000
     33      28.1145      0.00000
     34      33.5943      0.00000
     35      33.5943      0.00000
     36      33.5943      0.00000
     37      37.3434      0.00000
     38      38.7246      0.00000
     39      38.7246      0.00000
     40      38.7246      0.00000
     41      42.6411      0.00000
     42      42.6411      0.00000
     43      42.6411      0.00000
     44      45.9892      0.00000
     45      45.9892      0.00000
     46      45.9892      0.00000
     47      49.3762      0.00000
     48      57.7290      0.00000

 k-point     2 :       0.1111    0.0000    0.0000
  band No.  band energies     occupation 
      1       0.4175      2.00000
      2       5.1080      2.00000
      3       5.1904      2.00000
      4       5.1904      2.00000
      5       5.8554      2.00000
      6       5.8620      2.00000
      7       5.8620      2.00000
      8       7.9929      2.00000
      9       8.1256      2.00000
     10       8.1256      2.00000
     11       9.3566      2.00000
     12       9.4511      2.00000
     13      10.1070      2.00000
     14      10.1070      2.00000
     15      10.2349      2.00000
     16      10.2349      2.00000
     17      10.2963      2.00000
     18      10.4770      2.00000
     19      10.4770      2.00000
     20      10.5810      2.00000
     21      10.5810      2.00000
     22      12.7211     -0.00264
     23      14.2226     -0.00000
     24      14.2226     -0.00000
     25      21.9968      0.00000
     26      21.9968      0.00000
     27      23.1417      0.00000
     28      27.0905      0.00000
     29      27.0905      0.00000
     30      27.5609      0.00000
     31      27.5609      0.00000
     32      28.4126      0.00000
     33      28.4126      0.00000
     34      33.6419      0.00000
     35      34.8086      0.00000
     36      34.8086      0.00000
     37      37.0370      0.00000
     38      38.7986      0.00000
     39      39.7161      0.00000
     40      39.7161      0.00000
     41      41.2943      0.00000
     42      41.2943      0.00000
     43      41.6586      0.00000
     44      46.7107      0.00000
     45      47.2663      0.00000
     46      47.2663      0.00000
     47      50.4865      0.00000
     48      54.4810      0.00000

 k-point     3 :       0.2222    0.0000    0.0000
  band No.  band energies     occupation 
      1       0.9759      2.00000
      2       5.1084      2.00000
      3       5.4717      2.00000
      4       5.4717      2.00000
      5       6.0368      2.00000
      6       6.0702      2.00000
      7       6.0702      2.00000
      8       7.7779      2.00000
      9       8.2943      2.00000
     10       8.2943      2.00000
     11       9.1649      2.00000
     12       9.2175      2.00000
     13       9.2175      2.00000
     14       9.5267      2.00000
     15       9.9843      2.00000
     16       9.9843      2.00000
     17      10.1923      2.00000
     18      10.1923      2.00000
     19      10.2156      2.00000
     20      10.5812      2.00000
     21      10.5812      2.00000
     22      11.0041      2.00000
     23      15.5673      0.00000
     24      15.5673      0.00000
     25      22.0842      0.00000
     26      22.0842      0.00000
     27      25.1275      0.00000
     28      25.1275      0.00000
     29      25.7840      0.00000
     30      26.3887      0.00000
     31      26.3887      0.00000
     32      29.2760      0.00000
     33      29.2760      0.00000
     34      33.7882      0.00000
     35      36.3461      0.00000
     36      37.3473      0.00000
     37      37.3473      0.00000
     38      39.0155      0.00000
     39      39.0155      0.00000
     40      39.0622      0.00000
     41      39.7257      0.00000
     42      42.1835      0.00000
     43      42.1835      0.00000
     44      48.6339      0.00000
     45      49.3915      0.00000
     46      49.3915      0.00000
     47      49.5820      0.00000
     48      53.8721      0.00000

 k-point     4 :       0.3333    0.0000    0.0000
  band No.  band energies     occupation 
      1       1.8634      2.00000
      2       4.8725      2.00000
      3       5.8446      2.00000
      4       5.8446      2.00000
      5       6.3210      2.00000
      6       6.4204      2.00000
      7       6.4204      2.00000
      8       7.4560      2.00000
      9       8.3320      2.00000
     10       8.3320      2.00000
     11       8.5669      2.00000
     12       8.5669      2.00000
     13       8.9022      2.00000
     14       9.4991      2.00000
     15       9.6433      2.00000
     16       9.6433      2.00000
     17       9.6434      2.00000
     18       9.7933      2.00000
     19       9.7933      2.00000
     20      10.0933      2.00000
     21      10.5812      2.00000
     22      10.5812      2.00000
     23      17.2065      0.00000
     24      17.2065      0.00000
     25      22.2331      0.00000
     26      22.2331      0.00000
     27      23.0281      0.00000
     28      23.0281      0.00000
     29      25.2601      0.00000
     30      25.2601      0.00000
     31      28.9597      0.00000
     32      30.6268      0.00000
     33      30.6268      0.00000
     34      34.0435      0.00000
     35      35.5951      0.00000
     36      36.6602      0.00000
     37      36.6602      0.00000
     38      37.5701      0.00000
     39      39.6474      0.00000
     40      40.4207      0.00000
     41      40.4207      0.00000
     42      45.3767      0.00000
     43      45.3767      0.00000
     44      45.8992      0.00000
     45      51.3960      0.00000
     46      51.6617      0.00000
     47      51.6622      0.00000
     48      51.6913      0.00000

 k-point     5 :       0.4444    0.0000    0.0000
  band No.  band energies     occupation 
      1       2.9854      2.00000
      2       4.1188      2.00000
      3       6.1358      2.00000
      4       6.1358      2.00000
      5       6.6793      2.00000
      6       6.9153      2.00000
      7       6.9153      2.00000
      8       7.0732      2.00000
      9       7.5551      2.00000
     10       7.5551      2.00000
     11       8.6831      2.00000
     12       8.7509      2.00000
     13       8.9283      2.00000
     14       8.9283      2.00000
     15       9.3514      2.00000
     16       9.3514      2.00000
     17       9.3711      2.00000
     18       9.3711      2.00000
     19       9.7891      2.00000
     20       9.9449      2.00000
     21      10.5816      2.00000
     22      10.5816      2.00000
     23      19.0240      0.00000
     24      19.0240      0.00000
     25      20.9753      0.00000
     26      20.9753      0.00000
     27      22.3901      0.00000
     28      22.3901      0.00000
     29      24.5551      0.00000
     30      24.5551      0.00000
     31      32.1969      0.00000
     32      32.3698      0.00000
     33      32.3698      0.00000
     34      34.4111      0.00000
     35      34.4111      0.00000
     36      34.4225      0.00000
     37      34.9394      0.00000
     38      35.1221      0.00000
     39      40.7960      0.00000
     40      42.8367      0.00000
     41      43.8625      0.00000
     42      43.8625      0.00000
     43      47.6317      0.00000
     44      47.6317      0.00000
     45      48.4597      0.00000
     46      48.4597      0.00000
     47      54.0923      0.00000
     48      54.0923      0.00000

 k-point     6 :       0.1111    0.1111    0.0000
  band No.  band energies     occupation 
      1       0.6053      2.00000
      2       5.2137      2.00000
      3       5.2137      2.00000
      4       5.2890      2.00000
      5       5.9221      2.00000
      6       5.9221      2.00000
      7       5.9269      2.00000
      8       7.9510      2.00000
      9       8.1521      2.00000
     10       8.1720      2.00000
     11       9.3381      2.00000
     12       9.4379      2.00000
     13       9.8077      2.00000
     14       9.9254      2.00000
     15       9.9254      2.00000
     16      10.1524      2.00000
     17      10.2476      2.00000
     18      10.2476      2.00000
     19      10.4764      2.00000
     20      10.4764      2.00000
     21      10.5149      2.00000
     22      13.3543     -0.00000
     23      13.3543     -0.00000
     24      14.7408     -0.00000
     25      22.0028      0.00000
     26      23.1986      0.00000
     27      23.1986      0.00000
     28      25.2732      0.00000
     29      27.3568      0.00000
     30      27.3568      0.00000
     31      27.8435      0.00000
     32      27.8435      0.00000
     33      28.6974      0.00000
     34      34.8907      0.00000
     35      34.8907      0.00000
     36      34.9267      0.00000
     37      36.4473      0.00000
     38      39.1768      0.00000
     39      39.7985      0.00000
     40      39.7985      0.00000
     41      40.9295      0.00000
     42      41.1947      0.00000
     43      43.1442      0.00000
     44      46.1237      0.00000
     45      46.2874      0.00000
     46      48.8693      0.00000
     47      52.2469      0.00000
     48      53.6680      0.00000

 k-point     7 :       0.2222    0.1111    0.0000
  band No.  band energies     occupation 
      1       1.1576      2.00000
      2       5.2235      2.00000
      3       5.5050      2.00000
      4       5.5612      2.00000
      5       6.0974      2.00000
      6       6.1210      2.00000
      7       6.1236      2.00000
      8       7.7616      2.00000
      9       8.3036      2.00000
     10       8.3036      2.00000
     11       9.0426      2.00000
     12       9.0796      2.00000
     13       9.1814      2.00000
     14       9.4878      2.00000
     15       9.5165      2.00000
     16       9.9199      2.00000
     17       9.9955      2.00000
     18      10.1707      2.00000
     19      10.1915      2.00000
     20      10.4755      2.00000
     21      10.4791      2.00000
     22      11.7622      2.00000
     23      14.5999     -0.00000
     24      15.9624      0.00000
     25      21.8874      0.00000
     26      23.3677      0.00000
     27      23.4251      0.00000
     28      25.3721      0.00000
     29      25.8426      0.00000
     30      26.6564      0.00000
     31      28.1176      0.00000
     32      28.4142      0.00000
     33      28.6854      0.00000
     34      35.1469      0.00000
     35      35.1923      0.00000
     36      36.4459      0.00000
     37      36.9183      0.00000
     38      37.4592      0.00000
     39      40.0843      0.00000
     40      40.1926      0.00000
     41      41.8824      0.00000
     42      42.2589      0.00000
     43      43.6210      0.00000
     44      47.2143      0.00000
     45      47.2574      0.00000
     46      50.2464      0.00000
     47      51.0196      0.00000
     48      55.2786      0.00000

 k-point     8 :       0.3333    0.1111    0.0000
  band No.  band energies     occupation 
      1       2.0344      2.00000
      2       5.0007      2.00000
      3       5.8956      2.00000
      4       5.9292      2.00000
      5       6.3708      2.00000
      6       6.4369      2.00000
      7       6.4617      2.00000
      8       7.4579      2.00000
      9       8.1867      2.00000
     10       8.2771      2.00000
     11       8.4648      2.00000
     12       8.5709      2.00000
     13       8.8614      2.00000
     14       9.0013      2.00000
     15       9.6023      2.00000
     16       9.6574      2.00000
     17       9.6629      2.00000
     18       9.7919      2.00000
     19       9.9494      2.00000
     20      10.4714      2.00000
     21      10.4741      2.00000
     22      10.5799      2.00000
     23      16.0341      0.00000
     24      17.5297      0.00000
     25      20.7946      0.00000
     26      22.8309      0.00000
     27      23.2718      0.00000
     28      23.5879      0.00000
     29      25.6029      0.00000
     30      27.2408      0.00000
     31      28.7736      0.00000
     32      29.2726      0.00000
     33      30.2343      0.00000
     34      33.7425      0.00000
     35      34.7910      0.00000
     36      35.6083      0.00000
     37      38.7072      0.00000
     38      39.2341      0.00000
     39      39.2889      0.00000
     40      40.5475      0.00000
     41      40.6870      0.00000
     42      45.2990      0.00000
     43      46.3211      0.00000
     44      46.9011      0.00000
     45      49.6651      0.00000
     46      49.7666      0.00000
     47      51.1995      0.00000
     48      51.8317      0.00000

 k-point     9 :       0.4444    0.1111    0.0000
  band No.  band energies     occupation 
      1       3.1417      2.00000
      2       4.2596      2.00000
      3       6.2117      2.00000
      4       6.2261      2.00000
      5       6.7151      2.00000
      6       6.8689      2.00000
      7       6.9375      2.00000
      8       7.0926      2.00000
      9       7.4511      2.00000
     10       7.5477      2.00000
     11       8.4488      2.00000
     12       8.4510      2.00000
     13       8.9294      2.00000
     14       9.1140      2.00000
     15       9.3507      2.00000
     16       9.3547      2.00000
     17       9.3769      2.00000
     18       9.5139      2.00000
     19       9.8529      2.00000
     20      10.0942      2.00000
     21      10.4710      2.00000
     22      10.4725      2.00000
     23      17.5613      0.00000
     24      19.1600      0.00000
     25      19.3050      0.00000
     26      21.2314      0.00000
     27      23.0962      0.00000
     28      23.5120      0.00000
     29      25.3626      0.00000
     30      26.0789      0.00000
     31      30.6873      0.00000
     32      30.9299      0.00000
     33      32.2172      0.00000
     34      32.8075      0.00000
     35      33.0601      0.00000
     36      36.2994      0.00000
     37      36.3262      0.00000
     38      37.3577      0.00000
     39      41.7931      0.00000
     40      42.5775      0.00000
     41      43.6390      0.00000
     42      43.9982      0.00000
     43      45.9179      0.00000
     44      47.7732      0.00000
     45      49.8483      0.00000
     46      50.0105      0.00000
     47      51.8999      0.00000
     48      52.6313      0.00000

 k-point    10 :       0.2222    0.2222    0.0000
  band No.  band energies     occupation 
      1       1.6906      2.00000
      2       5.5442      2.00000
      3       5.5442      2.00000
      4       5.8081      2.00000
      5       6.2719      2.00000
      6       6.2787      2.00000
      7       6.2787      2.00000
      8       7.6616      2.00000
      9       8.3332      2.00000
     10       8.3904      2.00000
     11       8.6219      2.00000
     12       8.6219      2.00000
     13       8.6733      2.00000
     14       9.1278      2.00000
     15       9.5963      2.00000
     16       9.7348      2.00000
     17       9.9465      2.00000
     18       9.9465      2.00000
     19      10.1889      2.00000
     20      10.1889      2.00000
     21      10.3212      2.00000
     22      12.8921     -0.00000
     23      12.8921     -0.00000
     24      16.9910      0.00000
     25      20.4304      0.00000
     26      22.8068      0.00000
     27      25.8897      0.00000
     28      25.8897      0.00000
     29      26.0706      0.00000
     30      26.0706      0.00000
     31      27.6165      0.00000
     32      27.6165      0.00000
     33      30.3414      0.00000
     34      33.4007      0.00000
     35      34.6722      0.00000
     36      35.6954      0.00000
     37      37.7998      0.00000
     38      37.7998      0.00000
     39      41.5416      0.00000
     40      42.5168      0.00000
     41      42.5168      0.00000
     42      44.2187      0.00000
     43      44.2749      0.00000
     44      46.5099      0.00000
     45      46.5495      0.00000
     46      49.4446      0.00000
     47      53.0642      0.00000
     48      53.7959      0.00000

 k-point    11 :       0.3333    0.2222    0.0000
  band No.  band energies     occupation 
      1       2.5337      2.00000
      2       5.3602      2.00000
      3       5.9879      2.00000
      4       6.1559      2.00000
      5       6.4953      2.00000
      6       6.5191      2.00000
      7       6.5802      2.00000
      8       7.4401      2.00000
      9       7.8543      2.00000
     10       8.1049      2.00000
     11       8.1797      2.00000
     12       8.3346      2.00000
     13       8.6113      2.00000
     14       9.0235      2.00000
     15       9.4745      2.00000
     16       9.6274      2.00000
     17       9.7533      2.00000
     18       9.7896      2.00000
     19       9.8292      2.00000
     20      10.1858      2.00000
     21      10.2319      2.00000
     22      11.4912      2.00000
     23      14.1090     -0.00000
     24      18.4146      0.00000
     25      18.5453      0.00000
     26      23.0475      0.00000
     27      23.9677      0.00000
     28      25.3052      0.00000
     29      27.1364      0.00000
     30      27.4049      0.00000
     31      27.7645      0.00000
     32      30.1449      0.00000
     33      30.2607      0.00000
     34      31.6432      0.00000
     35      32.6361      0.00000
     36      37.3266      0.00000
     37      38.3813      0.00000
     38      40.9059      0.00000
     39      40.9286      0.00000
     40      41.3044      0.00000
     41      43.0440      0.00000
     42      45.0504      0.00000
     43      46.3084      0.00000
     44      47.5164      0.00000
     45      48.0150      0.00000
     46      49.8803      0.00000
     47      50.2719      0.00000
     48      52.0686      0.00000

 k-point    12 :       0.4444    0.2222    0.0000
  band No.  band energies     occupation 
      1       3.5926      2.00000
      2       4.6578      2.00000
      3       6.3873      2.00000
      4       6.4780      2.00000
      5       6.7442      2.00000
      6       6.8186      2.00000
      7       6.9983      2.00000
      8       7.1409      2.00000
      9       7.2137      2.00000
     10       7.5188      2.00000
     11       8.0393      2.00000
     12       8.1904      2.00000
     13       8.9456      2.00000
     14       9.1223      2.00000
     15       9.2811      2.00000
     16       9.3425      2.00000
     17       9.3538      2.00000
     18       9.4270      2.00000
     19      10.1632      2.00000
     20      10.1859      2.00000
     21      10.1964      2.00000
     22      10.6465      2.00000
     23      15.4175      0.00000
     24      16.8729      0.00000
     25      20.0939      0.00000
     26      21.9592      0.00000
     27      23.5695      0.00000
     28      24.3478      0.00000
     29      28.0914      0.00000
     30      28.4704      0.00000
     31      29.1531      0.00000
     32      29.2204      0.00000
     33      29.9900      0.00000
     34      30.8233      0.00000
     35      33.6409      0.00000
     36      37.3148      0.00000
     37      39.2099      0.00000
     38      40.2507      0.00000
     39      40.4707      0.00000
     40      43.8758      0.00000
     41      43.9570      0.00000
     42      44.4036      0.00000
     43      45.3541      0.00000
     44      48.1959      0.00000
     45      48.4788      0.00000
     46      50.2865      0.00000
     47      50.8727      0.00000
     48      51.0287      0.00000

 k-point    13 :       0.3333    0.3333    0.0000
  band No.  band energies     occupation 
      1       3.3146      2.00000
      2       5.8661      2.00000
      3       5.8661      2.00000
      4       6.4279      2.00000
      5       6.6207      2.00000
      6       6.7605      2.00000
      7       6.7605      2.00000
      8       7.3549      2.00000
      9       7.6084      2.00000
     10       7.6084      2.00000
     11       7.8147      2.00000
     12       8.2205      2.00000
     13       8.7493      2.00000
     14       8.9155      2.00000
     15       9.2757      2.00000
     16       9.4617      2.00000
     17       9.4617      2.00000
     18       9.7931      2.00000
     19       9.7931      2.00000
     20      10.0122      2.00000
     21      10.1883      2.00000
     22      12.4842      0.82972
     23      12.4842      0.82972
     24      16.5545      0.00000
     25      19.7038      0.00000
     26      23.4869      0.00000
     27      25.0342      0.00000
     28      25.0342      0.00000
     29      26.3673      0.00000
     30      26.3673      0.00000
     31      29.7125      0.00000
     32      30.6726      0.00000
     33      30.6726      0.00000
     34      30.6868      0.00000
     35      32.8223      0.00000
     36      36.3037      0.00000
     37      41.4575      0.00000
     38      41.5610      0.00000
     39      41.5610      0.00000
     40      43.0594      0.00000
     41      43.3840      0.00000
     42      44.6026      0.00000
     43      44.6026      0.00000
     44      47.3297      0.00000
     45      48.8334      0.00000
     46      49.5728      0.00000
     47      49.5728      0.00000
     48      52.7128      0.00000

 k-point    14 :       0.4444    0.3333    0.0000
  band No.  band energies     occupation 
      1       4.2775      2.00000
      2       5.2321      2.00000
      3       6.3456      2.00000
      4       6.5548      2.00000
      5       6.8396      2.00000
      6       6.9755      2.00000
      7       7.0809      2.00000
      8       7.1621      2.00000
      9       7.1887      2.00000
     10       7.4505      2.00000
     11       7.7159      2.00000
     12       8.0046      2.00000
     13       8.9416      2.00000
     14       9.0135      2.00000
     15       9.1209      2.00000
     16       9.1788      2.00000
     17       9.1925      2.00000
     18       9.3788      2.00000
     19       9.8152      2.00000
     20       9.8781      2.00000
     21      10.6813      2.00000
     22      11.3801      2.00000
     23      13.5955     -0.00000
     24      14.9185     -0.00000
     25      21.2787      0.00000
     26      23.0693      0.00000
     27      24.1686      0.00000
     28      25.1280      0.00000
     29      26.3848      0.00000
     30      27.5586      0.00000
     31      27.9560      0.00000
     32      28.9931      0.00000
     33      31.5585      0.00000
     34      32.6420      0.00000
     35      34.3595      0.00000
     36      38.1976      0.00000
     37      38.5226      0.00000
     38      42.0342      0.00000
     39      42.4167      0.00000
     40      43.2586      0.00000
     41      43.3411      0.00000
     42      43.9750      0.00000
     43      45.0664      0.00000
     44      48.8878      0.00000
     45      49.2832      0.00000
     46      49.3070      0.00000
     47      49.3173      0.00000
     48      51.8399      0.00000

 k-point    15 :       0.4444    0.4444    0.0000
  band No.  band energies     occupation 
      1       5.0793      2.00000
      2       5.8285      2.00000
      3       5.8285      2.00000
      4       6.2775      2.00000
      5       7.1584      2.00000
      6       7.1584      2.00000
      7       7.1997      2.00000
      8       7.2020      2.00000
      9       7.3279      2.00000
     10       7.4744      2.00000
     11       7.4744      2.00000
     12       7.8018      2.00000
     13       8.8281      2.00000
     14       8.9461      2.00000
     15       8.9566      2.00000
     16       8.9566      2.00000
     17       9.1778      2.00000
     18       9.4553      2.00000
     19       9.4553      2.00000
     20       9.6174      2.00000
     21      11.3480      2.00000
     22      12.2612      2.01034
     23      12.2612      2.01034
     24      13.3960     -0.00000
     25      22.7602      0.00000
     26      24.4743      0.00000
     27      24.4743      0.00000
     28      25.0115      0.00000
     29      26.1139      0.00000
     30      26.1384      0.00000
     31      26.1384      0.00000
     32      27.4234      0.00000
     33      35.3233      0.00000
     34      35.3233      0.00000
     35      35.9242      0.00000
     36      37.3274      0.00000
     37      39.0359      0.00000
     38      39.4615      0.00000
     39      40.4825      0.00000
     40      40.4825      0.00000
     41      45.9125      0.00000
     42      45.9125      0.00000
     43      46.0500      0.00000
     44      48.5553      0.00000
     45      49.3770      0.00000
     46      50.3245      0.00000
     47      51.2180      0.00000
     48      51.2180      0.00000

 k-point    16 :       0.1111    0.1111    0.1111
  band No.  band energies     occupation 
      1       0.7909      2.00000
      2       5.3145      2.00000
      3       5.3145      2.00000
      4       5.3145      2.00000
      5       5.9852      2.00000
      6       5.9852      2.00000
      7       5.9852      2.00000
      8       7.9141      2.00000
      9       8.1921      2.00000
     10       8.1921      2.00000
     11       9.3781      2.00000
     12       9.3781      2.00000
     13       9.6530      2.00000
     14       9.6530      2.00000
     15       9.6530      2.00000
     16      10.0565      2.00000
     17      10.0565      2.00000
     18      10.0565      2.00000
     19      10.4922      2.00000
     20      10.4922      2.00000
     21      10.4922      2.00000
     22      13.8408     -0.00000
     23      13.8408     -0.00000
     24      13.8408     -0.00000
     25      23.2218      0.00000
     26      23.2218      0.00000
     27      23.2218      0.00000
     28      25.5493      0.00000
     29      25.5493      0.00000
     30      25.5493      0.00000
     31      28.9824      0.00000
     32      28.9824      0.00000
     33      28.9824      0.00000
     34      34.9971      0.00000
     35      34.9971      0.00000
     36      34.9971      0.00000
     37      35.3863      0.00000
     38      39.1106      0.00000
     39      41.0221      0.00000
     40      41.0221      0.00000
     41      41.0221      0.00000
     42      41.7554      0.00000
     43      41.7554      0.00000
     44      47.1845      0.00000
     45      47.3047      0.00000
     46      47.3047      0.00000
     47      54.0509      0.00000
     48      54.1791      0.00000

 k-point    17 :       0.2222    0.1111    0.1111
  band No.  band energies     occupation 
      1       1.3359      2.00000
      2       5.3300      2.00000
      3       5.5931      2.00000
      4       5.5931      2.00000
      5       6.1555      2.00000
      6       6.1731      2.00000
      7       6.1731      2.00000
      8       7.7482      2.00000
      9       8.3036      2.00000
     10       8.3125      2.00000
     11       8.9261      2.00000
     12       8.9261      2.00000
     13       9.2100      2.00000
     14       9.2246      2.00000
     15       9.4911      2.00000
     16       9.8085      2.00000
     17       9.8507      2.00000
     18       9.8507      2.00000
     19      10.4105      2.00000
     20      10.4532      2.00000
     21      10.4532      2.00000
     22      12.1978      2.00066
     23      14.9360     -0.00000
     24      14.9360     -0.00000
     25      22.8656      0.00000
     26      22.8656      0.00000
     27      24.0415      0.00000
     28      24.0415      0.00000
     29      25.6120      0.00000
     30      26.5951      0.00000
[...]
  band No.  band energies     occupation 
      1       4.4996      2.00000
      2       5.2069      2.00000
      3       5.8776      2.00000
      4       5.9710      2.00000
      5       7.1622      2.00000
      6       7.2213      2.00000
      7       7.4318      2.00000
      8       7.6448      2.00000
      9       7.9040      2.00000
     10       7.9255      2.00000
     11       8.0177      2.00000
     12       8.0597      2.00000
     13       8.3588      2.00000
     14       8.5326      2.00000
     15       8.6635      2.00000
     16       8.6709      2.00000
     17       9.7890      2.00000
     18      10.1366      2.00000
     19      10.2028      2.00000
     20      10.2060      2.00000
     21      10.4391      2.00000
     22      11.2513      2.00000
     23      13.5016     -0.00000
     24      14.3405     -0.00000
     25      18.4793      0.00000
     26      19.3997      0.00000
     27      22.1108      0.00000
     28      23.5977      0.00000
     29      29.0268      0.00000
     30      30.0775      0.00000
     31      32.3426      0.00000
     32      32.6095      0.00000
     33      33.3158      0.00000
     34      34.1389      0.00000
     35      34.9033      0.00000
     36      37.7781      0.00000
     37      38.5648      0.00000
     38      38.9965      0.00000
     39      40.1551      0.00000
     40      40.7994      0.00000
     41      44.5748      0.00000
     42      45.1353      0.00000
     43      46.2753      0.00000
     44      46.7232      0.00000
     45      46.7566      0.00000
     46      49.3252      0.00000
     47      51.1951      0.00000
     48      51.5335      0.00000

 k-point    31 :       0.4444    0.4444    0.2222
  band No.  band energies     occupation 
      1       4.9924      2.00000
      2       5.4547      2.00000
      3       5.4547      2.00000
      4       5.7010      2.00000
      5       7.4709      2.00000
      6       7.6231      2.00000
      7       7.6231      2.00000
      8       7.8924      2.00000
      9       7.9666      2.00000
     10       8.0083      2.00000
     11       8.0083      2.00000
     12       8.1335      2.00000
     13       8.3121      2.00000
     14       8.4393      2.00000
     15       8.4393      2.00000
     16       8.4697      2.00000
     17       9.7923      2.00000
     18      10.0115      2.00000
     19      10.0115      2.00000
     20      10.0643      2.00000
     21      11.0633      2.00000
     22      12.0287      2.00000
     23      12.0287      2.00000
     24      13.0672     -0.00000
     25      19.2490      0.00000
     26      20.5010      0.00000
     27      20.5010      0.00000
     28      21.9054      0.00000
     29      30.0452      0.00000
     30      31.2884      0.00000
     31      31.2884      0.00000
     32      32.6284      0.00000
     33      35.7706      0.00000
     34      35.7706      0.00000
     35      36.5950      0.00000
     36      37.2608      0.00000
     37      38.3833      0.00000
     38      39.7545      0.00000
     39      39.7545      0.00000
     40      39.9724      0.00000
     41      44.7547      0.00000
     42      44.8502      0.00000
     43      44.8502      0.00000
     44      45.8454      0.00000
     45      47.3219      0.00000
     46      47.7594      0.00000
     47      48.4477      0.00000
     48      48.4477      0.00000

 k-point    32 :       0.3333    0.3333    0.3333
  band No.  band energies     occupation 
      1       4.2088      2.00000
      2       5.6486      2.00000
      3       5.6486      2.00000
      4       5.6486      2.00000
      5       7.3322      2.00000
      6       7.3322      2.00000
      7       7.3322      2.00000
      8       7.9887      2.00000
      9       8.1423      2.00000
     10       8.1423      2.00000
     11       8.1423      2.00000
     12       8.1897      2.00000
     13       8.1897      2.00000
     14       8.5259      2.00000
     15       8.5259      2.00000
     16       8.5259      2.00000
     17       9.8992      2.00000
     18       9.8992      2.00000
     19      10.3799      2.00000
     20      10.3799      2.00000
     21      10.3799      2.00000
     22      12.9091     -0.00000
     23      12.9091     -0.00000
     24      12.9091     -0.00000
     25      19.2174      0.00000
     26      19.2174      0.00000
     27      19.2174      0.00000
     28      23.3562      0.00000
     29      31.3216      0.00000
     30      31.3216      0.00000
     31      31.3216      0.00000
     32      34.6997      0.00000
     33      34.6997      0.00000
     34      34.6997      0.00000
     35      36.6864      0.00000
     36      36.8734      0.00000
     37      36.8734      0.00000
     38      36.8734      0.00000
     39      40.0398      0.00000
     40      40.0398      0.00000
     41      44.4966      0.00000
     42      44.4966      0.00000
     43      48.5044      0.00000
     44      48.5044      0.00000
     45      48.5044      0.00000
     46      48.5394      0.00000
     47      48.5394      0.00000
     48      48.5394      0.00000

 k-point    33 :       0.4444    0.3333    0.3333
  band No.  band energies     occupation 
      1       4.7124      2.00000
      2       5.2000      2.00000
      3       5.5841      2.00000
      4       5.5841      2.00000
      5       7.5004      2.00000
      6       7.5004      2.00000
      7       7.7395      2.00000
      8       8.0452      2.00000
      9       8.1906      2.00000
     10       8.2575      2.00000
     11       8.2604      2.00000
     12       8.3072      2.00000
     13       8.3667      2.00000
     14       8.3667      2.00000
     15       8.4115      2.00000
     16       8.4115      2.00000
     17      10.1705      2.00000
     18      10.2174      2.00000
     19      10.3107      2.00000
     20      10.3107      2.00000
     21      10.3386      2.00000
     22      11.2859      2.00000
     23      13.1056     -0.00000
     24      13.1056     -0.00000
     25      18.2847      0.00000
     26      18.2847      0.00000
     27      20.2896      0.00000
     28      21.6745      0.00000
     29      32.0153      0.00000
     30      32.0153      0.00000
     31      34.1451      0.00000
     32      34.3811      0.00000
     33      34.3811      0.00000
     34      35.8152      0.00000
     35      36.1287      0.00000
     36      37.9206      0.00000
     37      38.0387      0.00000
     38      38.7122      0.00000
     39      38.7122      0.00000
     40      40.4387      0.00000
     41      43.6166      0.00000
     42      45.3870      0.00000
     43      45.3870      0.00000
     44      45.5854      0.00000
     45      46.1632      0.00000
     46      46.9469      0.00000
     47      48.8882      0.00000
     48      48.8882      0.00000

 k-point    34 :       0.4444    0.4444    0.3333
  band No.  band energies     occupation 
      1       4.9570      2.00000
      2       5.2435      2.00000
      3       5.2435      2.00000
      4       5.3681      2.00000
      5       7.7285      2.00000
      6       7.8156      2.00000
      7       7.8156      2.00000
      8       8.0142      2.00000
      9       8.1126      2.00000
     10       8.1923      2.00000
     11       8.1923      2.00000
     12       8.2183      2.00000
     13       8.7261      2.00000
     14       8.7261      2.00000
     15       8.7566      2.00000
     16       8.7856      2.00000
     17      10.0939      2.00000
     18      10.2636      2.00000
     19      10.2636      2.00000
     20      10.2701      2.00000
     21      10.6918      2.00000
     22      11.6790      2.00000
     23      11.6790      2.00000
     24      12.3724      2.05350
     25      18.2077      0.00000
     26      18.9518      0.00000
     27      18.9518      0.00000
     28      20.1162      0.00000
     29      33.0625      0.00000
     30      33.9637      0.00000
     31      33.9637      0.00000
     32      35.1464      0.00000
     33      36.6411      0.00000
     34      36.6411      0.00000
     35      37.4281      0.00000
     36      37.4913      0.00000
     37      38.3914      0.00000
     38      39.1290      0.00000
     39      39.1290      0.00000
     40      40.3747      0.00000
     41      42.9766      0.00000
     42      44.2201      0.00000
     43      44.2201      0.00000
     44      44.7520      0.00000
     45      45.4486      0.00000
     46      46.0954      0.00000
     47      46.3122      0.00000
     48      46.3122      0.00000

 k-point    35 :       0.4444    0.4444    0.4444
  band No.  band energies     occupation 
      1       4.9922      2.00000
      2       5.1269      2.00000
      3       5.1269      2.00000
      4       5.1269      2.00000
      5       7.9310      2.00000
      6       7.9310      2.00000
      7       7.9310      2.00000
      8       8.0266      2.00000
      9       8.0266      2.00000
     10       8.0635      2.00000
     11       8.0635      2.00000
     12       8.0635      2.00000
     13       9.4212      2.00000
     14       9.4212      2.00000
     15       9.4212      2.00000
     16       9.7744      2.00000
     17      10.2903      2.00000
     18      10.2903      2.00000
     19      10.3517      2.00000
     20      10.3517      2.00000
     21      10.3517      2.00000
     22      11.2521      2.00000
     23      11.2521      2.00000
     24      11.2521      2.00000
     25      18.1342      0.00000
     26      18.1342      0.00000
     27      18.1342      0.00000
     28      18.8282      0.00000
     29      35.1595      0.00000
     30      35.1595      0.00000
     31      35.1595      0.00000
     32      35.8153      0.00000
     33      38.5609      0.00000
     34      38.5609      0.00000
     35      38.5609      0.00000
     36      38.7436      0.00000
     37      38.7436      0.00000
     38      38.7436      0.00000
     39      39.8307      0.00000
     40      39.8307      0.00000
     41      42.7370      0.00000
     42      42.7370      0.00000
     43      43.8491      0.00000
     44      43.8491      0.00000
     45      43.8491      0.00000
     46      43.8622      0.00000
     47      43.8622      0.00000
     48      43.8622      0.00000


--------------------------------------------------------------------------------------------------------


 soft charge-density along one line, spin component           1
         0         1         2         3         4         5         6         7         8         9
 total charge-density along one line
 
 pseudopotential strength for first ion, spin component:           1
 -0.118   0.000   0.000  -0.000  -0.000  -6.811  -0.000  -0.000
  0.000  -0.118  -0.000  -0.000   0.000  -0.000  -6.811   0.000
  0.000  -0.000  -0.095   0.000  -0.000  -0.000   0.000  -6.828
 -0.000  -0.000   0.000  -0.118   0.000   0.000   0.000  -0.000
 -0.000   0.000  -0.000   0.000  -0.095   0.000  -0.000   0.000
 -6.811  -0.000  -0.000   0.000   0.000  11.757   0.000   0.000
 -0.000  -6.811   0.000   0.000  -0.000   0.000  11.757  -0.000
 -0.000   0.000  -6.828  -0.000   0.000   0.000  -0.000  11.768
  0.000   0.000  -0.000  -6.811  -0.000  -0.000  -0.000   0.000
  0.000  -0.000   0.000  -0.000  -6.828  -0.000   0.000  -0.000
  0.000   0.000   0.000  -0.000  -0.000   0.000   0.000  -0.000
  0.000   0.000   0.000  -0.000  -0.000   0.000   0.000  -0.000
  0.000   0.000  -0.000  -0.000  -0.000   0.000  -0.000  -0.000
 -0.000   0.000   0.000   0.000   0.000  -0.000  -0.000  -0.000
  0.000  -0.000  -0.000   0.000   0.000   0.000  -0.000   0.000
  0.000   0.000  -0.000   0.000  -0.000   0.000   0.000  -0.000
  0.000   0.000   0.000   0.000  -0.000  -0.000  -0.000  -0.000
  0.000   0.000  -0.000   0.000   0.000   0.000  -0.000   0.000
 total augmentation occupancy for first ion, spin component:           1
  1.943  -0.000  -0.000  -0.000   0.000   0.027   0.000   0.000   0.000   0.000  -0.000  -0.000  -0.000   0.000   0.000   0.000
  0.000   1.943   0.000  -0.000   0.000  -0.000   0.027   0.000  -0.000  -0.000  -0.000   0.000   0.000   0.000   0.000  -0.000
 -0.000  -0.000   1.954  -0.000   0.000   0.000  -0.000  -0.003  -0.000   0.000   0.000  -0.000   0.000   0.000   0.000   0.000
  0.000   0.000   0.000   1.943  -0.000   0.000   0.000   0.000   0.027   0.000   0.000   0.000  -0.000  -0.000  -0.000   0.000
  0.000   0.000  -0.000   0.000   1.954  -0.000   0.000   0.000   0.000  -0.003  -0.000   0.000  -0.000  -0.000   0.000   0.000
  0.027  -0.000   0.000   0.000  -0.000   0.042  -0.000  -0.000   0.000   0.000   0.000   0.000   0.000   0.000  -0.000   0.000
  0.000   0.027   0.000  -0.000  -0.000  -0.000   0.042   0.000  -0.000   0.000   0.000   0.000   0.000  -0.000   0.000  -0.000
  0.000   0.000  -0.003  -0.000  -0.000  -0.000  -0.000   0.039   0.000   0.000  -0.000   0.000  -0.000   0.000  -0.000  -0.000
 -0.000  -0.000   0.000   0.027  -0.000   0.000  -0.000   0.000   0.042  -0.000  -0.000  -0.000   0.000   0.000   0.000   0.000
  0.000  -0.000  -0.000  -0.000  -0.003   0.000   0.000   0.000  -0.000   0.039  -0.000  -0.000   0.000  -0.000   0.000   0.000
  0.000   0.000  -0.000  -0.000  -0.000   0.000   0.000  -0.000   0.000   0.000   2.587  -0.318  -0.000   0.000  -0.000   0.000
 -0.000  -0.000  -0.000   0.000   0.000   0.000   0.000   0.000  -0.000  -0.000  -0.318   0.049  -0.000   0.000  -0.000   0.000
 -0.000   0.000   0.000  -0.000   0.000   0.000  -0.000  -0.000   0.000  -0.000  -0.000  -0.000   0.437  -0.000  -0.000  -0.033
  0.000   0.000  -0.000  -0.000   0.000   0.000  -0.000   0.000   0.000   0.000   0.000   0.000  -0.000   0.437   0.000  -0.000
  0.000   0.000   0.000  -0.000  -0.000  -0.000  -0.000  -0.000  -0.000   0.000  -0.000  -0.000  -0.000   0.000   0.437   0.000
  0.000  -0.000  -0.000   0.000  -0.000  -0.000  -0.000  -0.000   0.000   0.000   0.000   0.000  -0.033  -0.000  -0.000   0.003
  0.000   0.000   0.000   0.000  -0.000   0.000   0.000  -0.000  -0.000  -0.000   0.000   0.000   0.000  -0.033   0.000  -0.000
 -0.000  -0.000   0.000  -0.000  -0.000  -0.000  -0.000  -0.000   0.000   0.000   0.000  -0.000  -0.000  -0.000  -0.033   0.000


------------------------ aborting loop because EDIFF is reached ----------------------------------------


    CHARGE:  cpu time    0.0038: real time    0.0038
    FORLOC:  cpu time    0.0001: real time    0.0001
    FORNL :  cpu time    0.0372: real time    0.0374
    STRESS:  cpu time    0.1226: real time    0.1227
    FORCOR:  cpu time    0.0031: real time    0.0031
    FORHAR:  cpu time    0.0005: real time    0.0005
    MIXING:  cpu time    0.0003: real time    0.0003
    OFIELD:  cpu time    0.0000: real time    0.0000

  FORCE on cell =-STRESS in cart. coord.  units (eV):
  Direction    XX          YY          ZZ          XY          YZ          ZX
  --------------------------------------------------------------------------------------
  Alpha Z   341.17961   341.17961   341.17961
  Ewald   -1639.18112 -1639.18112 -1639.18112     0.00000     0.00000     0.00000
  Hartree   364.82835   364.82835   364.82835    -0.00000    -0.00000    -0.00000
  E(xc)    -260.96921  -260.96921  -260.96921    -0.00000    -0.00000    -0.00000
  Local     520.25608   520.25608   520.25608    -0.00000     0.00000    -0.00000
  n-local   -48.37675   -58.55329   -60.75344     0.88141     2.65964     0.95005
  augment   378.57621   378.57621   378.57621    -0.00000    -0.00000     0.00000
  Kinetic   382.63012   373.11900   366.35862    -3.58742    -0.71501    -1.88843
  Fock        0.00000     0.00000     0.00000     0.00000     0.00000     0.00000
  -------------------------------------------------------------------------------------
  Total      22.83133    22.83133    22.83133     0.00000     0.00000     0.00000
  in kB    1066.57828  1066.57828  1066.57828     0.00000     0.00000     0.00000
  external pressure =     1066.58 kB  Pullay stress =        0.00 kB


 VOLUME and BASIS-vectors are now :
 -----------------------------------------------------------------------------
  energy-cutoff  :      400.00
  volume of cell :       34.30
      direct lattice vectors                 reciprocal lattice vectors
     3.249000000  0.000000000  0.000000000     0.307787011  0.000000000  0.000000000
     0.000000000  3.249000000  0.000000000     0.000000000  0.307787011  0.000000000
     0.000000000  0.000000000  3.249000000     0.000000000  0.000000000  0.307787011

  length of vectors
     3.249000000  3.249000000  3.249000000     0.307787011  0.307787011  0.307787011


 FORCES acting on ions
    electron-ion (+dipol)            ewald-force                    non-local-force                 convergence-correction
 -----------------------------------------------------------------------------------------------
   -.640E-14 0.504E-15 -.147E-13   -.203E-14 -.401E-14 -.733E-14   -.662E-23 -.331E-23 0.827E-24   -.521E-14 0.148E-15 0.179E-13
   -.709E-14 0.223E-12 0.208E-12   -.109E-14 0.714E-14 0.605E-14   -.364E-22 0.331E-22 -.165E-22   -.112E-13 -.550E-14 -.611E-14
   0.216E-12 -.228E-15 0.152E-11   -.140E-14 -.850E-14 0.612E-14   0.596E-22 0.662E-23 0.529E-22   -.669E-13 -.525E-14 0.903E-15
   0.216E-12 0.222E-12 -.925E-12   -.470E-15 0.264E-14 -.839E-14   0.248E-22 -.662E-23 -.157E-22   -.633E-13 0.520E-14 0.355E-13
 -----------------------------------------------------------------------------------------------
   0.418E-12 0.446E-12 0.792E-12   -.499E-14 -.273E-14 -.355E-14   0.414E-22 0.298E-22 0.215E-22   -.147E-12 -.540E-14 0.482E-13
 
 
 POSITION                                       TOTAL-FORCE (eV/Angst)
 -----------------------------------------------------------------------------------
      0.00000      0.00000      0.00000         0.000000     -0.000000     -0.000000
      0.00000      1.62450      1.62450        -0.000000     -0.000000      0.000000
      1.62450      0.00000      1.62450        -0.000000      0.000000      0.000000
      1.62450      1.62450      0.00000         0.000000      0.000000     -0.000000
 -----------------------------------------------------------------------------------
    total drift:                                0.000000      0.000000      0.000000


--------------------------------------------------------------------------------------------------------



  FREE ENERGIE OF THE ION-ELECTRON SYSTEM (eV)
  ---------------------------------------------------
  free  energy   TOTEN  =       -11.60615425 eV

  energy  without entropy=      -11.60544678  energy(sigma->0) =      -11.60591843
 


--------------------------------------------------------------------------------------------------------


    POTLOK:  cpu time    0.0042: real time    0.0042


--------------------------------------------------------------------------------------------------------


     LOOP+:  cpu time    5.9808: real time    6.0595
    4ORBIT:  cpu time    0.0000: real time    0.0000

 total amount of memory used by VASP on root node    34533. kBytes
========================================================================

   base      :      30000. kBytes
   nonl-proj :       3307. kBytes
   fftplans  :         88. kBytes
   grid      :        270. kBytes
   one-center:         62. kBytes
   wavefun   :        806. kBytes
 
  
  
 General timing and accounting informations for this job:
 ========================================================
  
                  Total CPU time used (sec):        6.455
                            User time (sec):        6.312
                          System time (sec):        0.143
                         Elapsed time (sec):        6.751
  
                   Maximum memory used (kb):       61628.
                   Average memory used (kb):           0.
  
                          Minor page faults:        15682
                          Major page faults:           12
                 Voluntary context switches:         1955
