<?xml version="1.0" encoding="ISO-8859-1"?>
<modeling>
 <generator>
  <i name="program" type="string">vasp </i>
  <i name="version" type="string">5.4.1  </i>
  <i name="subversion" type="string">05Feb16 (build Feb 08 2018 09:21:51) complex                          parallel </i>
  <i name="platform" type="string">LinuxIFC </i>
  <i name="date" type="string">2019 11 21 </i>
  <i name="time" type="string">15:53:32 </i>
 </generator>
 <incar>
  <i type="string" name="PREC">normal</i>
  <i name="ENCUT">    400.00000000</i>
  <i type="int" name="ISMEAR">     1</i>
  <i name="SIGMA">      0.10000000</i>
  <i type="logical" name="LWAVE"> F  </i>
  <i type="logical" name="LCHARG"> F  </i>
  <v type="int" name="KPOINT_BSE">    -1     0     0     0</v>
 </incar>
 <kpoints>
  <generation param="Monkhorst-Pack">
   <v type="int" name="divisions">       9        9        9 </v>
   <v name="usershift">      0.00000000       0.00000000       0.00000000 </v>
   <v name="genvec1">      0.11111111       0.00000000       0.00000000 </v>
   <v name="genvec2">      0.00000000       0.11111111       0.00000000 </v>
   <v name="genvec3">      0.00000000       0.00000000       0.11111111 </v>
   <v name="shift">      0.00000000       0.00000000       0.00000000 </v>
  </generation>
  <varray name="kpointlist" >
   <v>       0.00000000       0.00000000       0.00000000 </v>
   <v>       0.11111111       0.00000000       0.00000000 </v>
   <v>       0.22222222       0.00000000       0.00000000 </v>
   <v>       0.33333333       0.00000000       0.00000000 </v>
   <v>       0.44444444       0.00000000       0.00000000 </v>
   <v>       0.11111111       0.11111111       0.00000000 </v>
   <v>       0.22222222       0.11111111       0.00000000 </v>
   <v>       0.33333333       0.11111111       0.00000000 </v>
   <v>       0.44444444       0.11111111       0.00000000 </v>
   <v>       0.22222222       0.22222222       0.00000000 </v>
   <v>       0.33333333       0.22222222       0.00000000 </v>
   <v>       0.44444444       0.22222222       0.00000000 </v>
   <v>       0.33333333       0.33333333       0.00000000 </v>
   <v>       0.44444444       0.33333333       0.00000000 </v>
   <v>       0.44444444       0.44444444       0.00000000 </v>
   <v>       0.11111111       0.11111111       0.11111111 </v>
   <v>       0.22222222       0.11111111       0.11111111 </v>
   <v>       0.33333333       0.11111111       0.11111111 </v>
   <v>       0.44444444       0.11111111       0.11111111 </v>
   <v>       0.22222222       0.22222222       0.11111111 </v>
   <v>       0.33333333       0.22222222       0.11111111 </v>
   <v>       0.44444444       0.22222222       0.11111111 </v>
   <v>       0.33333333       0.33333333       0.11111111 </v>
   <v>       0.44444444       0.33333333       0.11111111 </v>
   <v>       0.44444444       0.44444444       0.11111111 </v>
   <v>       0.22222222       0.22222222       0.22222222 </v>
   <v>       0.33333333       0.22222222       0.22222222 </v>
   <v>       0.44444444       0.22222222       0.22222222 </v>
   <v>       0.33333333       0.33333333       0.22222222 </v>
   <v>       0.44444444       0.33333333       0.22222222 </v>
   <v>       0.44444444       0.44444444       0.22222222 </v>
   <v>       0.33333333       0.33333333       0.33333333 </v>
   <v>       0.44444444       0.33333333       0.33333333 </v>
   <v>       0.44444444       0.44444444       0.33333333 </v>
   <v>       0.44444444       0.44444444       0.44444444 </v>
  </varray>
  <varray name="weights" >
   <v>       0.00137174 </v>
   <v>       0.00823045 </v>
   <v>       0.00823045 </v>
   <v>       0.00823045 </v>
   <v>       0.00823045 </v>
   <v>       0.01646091 </v>
   <v>       0.03292181 </v>
   <v>       0.03292181 </v>
   <v>       0.03292181 </v>
   <v>       0.01646091 </v>
   <v>       0.03292181 </v>
   <v>       0.03292181 </v>
   <v>       0.01646091 </v>
   <v>       0.03292181 </v>
   <v>       0.01646091 </v>
   <v>       0.01097394 </v>
   <v>       0.03292181 </v>
   <v>       0.03292181 </v>
   <v>       0.03292181 </v>
   <v>       0.03292181 </v>
   <v>       0.06584362 </v>
   <v>       0.06584362 </v>
   <v>       0.03292181 </v>
   <v>       0.06584362 </v>
   <v>       0.03292181 </v>
   <v>       0.01097394 </v>
   <v>       0.03292181 </v>
   <v>       0.03292181 </v>
   <v>       0.03292181 </v>
   <v>       0.06584362 </v>
   <v>       0.03292181 </v>
   <v>       0.01097394 </v>
   <v>       0.03292181 </v>
   <v>       0.03292181 </v>
   <v>       0.01097394 </v>
  </varray>
 </kpoints>
 <parameters>
  <separator name="general" >
   <i type="string" name="SYSTEM">unknown system</i>
   <i type="logical" name="LCOMPAT"> F  </i>
  </separator>
  <separator name="electronic" >
   <i type="string" name="PREC">normal</i>
   <i name="ENMAX">    400.00000000</i>
   <i name="ENAUG">    586.98000000</i>
   <i name="EDIFF">      0.00010000</i>
   <i type="int" name="IALGO">    38</i>
   <i type="int" name="IWAVPR">    10</i>
   <i type="int" name="NBANDS">    48</i>
   <i name="NELECT">     44.00000000</i>
   <i type="int" name="TURBO">     0</i>
   <i type="int" name="IRESTART">     0</i>
   <i type="int" name="NREBOOT">     0</i>
   <i type="int" name="NMIN">     0</i>
   <i name="EREF">      0.00000000</i>
   <separator name="electronic smearing" >
    <i type="int" name="ISMEAR">     1</i>
    <i name="SIGMA">      0.10000000</i>
    <i name="KSPACING">      0.50000000</i>
    <i type="logical" name="KGAMMA"> T  </i>
   </separator>
   <separator name="electronic projectors" >
    <i type="logical" name="LREAL"> F  </i>
    <v name="ROPT">      0.00000000</v>
    <i type="int" name="LMAXPAW">  -100</i>
    <i type="int" name="LMAXMIX">     2</i>
    <i type="logical" name="NLSPLINE"> F  </i>
   </separator>
   <separator name="electronic startup" >
    <i type="int" name="ISTART">     0</i>
    <i type="int" name="ICHARG">     2</i>
    <i type="int" name="INIWAV">     1</i>
   </separator>
   <separator name="electronic spin" >
    <i type="int" name="ISPIN">     1</i>
    <i type="logical" name="LNONCOLLINEAR"> F  </i>
    <v name="MAGMOM">      1.00000000      1.00000000      1.00000000      1.00000000</v>
    <i name="NUPDOWN">     -1.00000000</i>
    <i type="logical" name="LSORBIT"> F  </i>
    <v name="SAXIS">      0.00000000      0.00000000      1.00000000</v>
    <i type="logical" name="LSPIRAL"> F  </i>
    <v name="QSPIRAL">      0.00000000      0.00000000      0.00000000</v>
    <i type="logical" name="LZEROZ"> F  </i>
   </separator>
   <separator name="electronic exchange-correlation" >
    <i type="logical" name="LASPH"> F  </i>
    <i type="logical" name="LMETAGGA"> F  </i>
   </separator>
   <separator name="electronic convergence" >
    <i type="int" name="NELM">    60</i>
    <i type="int" name="NELMDL">    -5</i>
    <i type="int" name="NELMIN">     2</i>
    <i name="ENINI">    400.00000000</i>
    <separator name="electronic convergence detail" >
     <i type="logical" name="LDIAG"> T  </i>
     <i type="logical" name="LSUBROT"> F  </i>
     <i name="WEIMIN">      0.00000000</i>
     <i name="EBREAK">      0.00000052</i>
     <i name="DEPER">      0.30000000</i>
     <i type="int" name="NRMM">     4</i>
     <i name="TIME">      0.40000000</i>
    </separator>
   </separator>
   <separator name="electronic mixer" >
    <i name="AMIX">      0.40000000</i>
    <i name="BMIX">      1.00000000</i>
    <i name="AMIN">      0.10000000</i>
    <i name="AMIX_MAG">      1.60000000</i>
    <i name="BMIX_MAG">      1.00000000</i>
    <separator name="electronic mixer details" >
     <i type="int" name="IMIX">     4</i>
     <i type="logical" name="MIXFIRST"> F  </i>
     <i type="int" name="MAXMIX">   -45</i>
     <i name="WC">    100.00000000</i>
     <i type="int" name="INIMIX">     1</i>
     <i type="int" name="MIXPRE">     1</i>
     <i type="int" name="MREMOVE">     5</i>
    </separator>
   </separator>
   <separator name="electronic dipolcorrection" >
    <i type="logical" name="LDIPOL"> F  </i>
    <i type="logical" name="LMONO"> F  </i>
    <i type="int" name="IDIPOL">     0</i>
    <i name="EPSILON">      1.00000000</i>
    <v name="DIPOL">   -100.00000000   -100.00000000   -100.00000000</v>
    <i name="EFIELD">      0.00000000</i>
   </separator>
  </separator>
  <separator name="grids" >
   <i type="int" name="NGX">    16</i>
   <i type="int" name="NGY">    16</i>
   <i type="int" name="NGZ">    16</i>
   <i type="int" name="NGXF">    32</i>
   <i type="int" name="NGYF">    32</i>
   <i type="int" name="NGZF">    32</i>
   <i type="logical" name="ADDGRID"> F  </i>
  </separator>
  <separator name="ionic" >
   <i type="int" name="NSW">     0</i>
   <i type="int" name="IBRION">    -1</i>
   <i type="int" name="ISIF">     2</i>
   <i name="PSTRESS">      0.00000000</i>
   <i name="EDIFFG">      0.00100000</i>
   <i type="int" name="NFREE">     0</i>
   <i name="POTIM">      0.50000000</i>
   <i name="SMASS">     -3.00000000</i>
   <i name="SCALEE">      1.00000000</i>
  </separator>
  <separator name="ionic md" >
   <i name="TEBEG">      0.00010000</i>
   <i name="TEEND">      0.00010000</i>
   <i type="int" name="NBLOCK">     1</i>
   <i type="int" name="KBLOCK">     1</i>
   <i type="int" name="NPACO">   256</i>
   <i name="APACO">     16.00000000</i>
  </separator>
  <separator name="symmetry" >
   <i type="int" name="ISYM">     2</i>
   <i name="SYMPREC">      0.00001000</i>
  </separator>
  <separator name="dos" >
   <i type="logical" name="LORBIT"> F  </i>
   <v name="RWIGS">     -1.00000000</v>
   <i type="int" name="NEDOS">   301</i>
   <i name="EMIN">     10.00000000</i>
   <i name="EMAX">    -10.00000000</i>
   <i name="EFERMI">      0.00000000</i>
  </separator>
  <separator name="writing" >
   <i type="int" name="NWRITE">     2</i>
   <i type="logical" name="LWAVE"> F  </i>
   <i type="logical" name="LCHARG"> F  </i>
   <i type="logical" name="LPARD"> F  </i>
   <i type="logical" name="LVTOT"> F  </i>
   <i type="logical" name="LVHAR"> F  </i>
   <i type="logical" name="LELF"> F  </i>
   <i type="logical" name="LOPTICS"> F  </i>
   <v name="STM">      0.00000000      0.00000000      0.00000000      0.00000000      0.00000000      0.00000000      0.00000000</v>
  </separator>
  <separator name="performance" >
   <i type="int" name="NPAR">    24</i>
   <i type="int" name="NSIM">     4</i>
   <i type="int" name="NBLK">    -1</i>
   <i type="logical" name="LPLANE"> T  </i>
   <i type="logical" name="LSCALAPACK"> F  </i>
   <i type="logical" name="LSCAAWARE"> F  </i>
   <i type="logical" name="LSCALU"> F  </i>
   <i type="logical" name="LASYNC"> F  </i>
   <i type="logical" name="LORBITALREAL"> F  </i>
  </separator>
  <separator name="miscellaneous" >
   <i type="int" name="IDIOT">     3</i>
   <i type="logical" name="LMUSIC"> F  </i>
   <v name="POMASS">     63.54600000</v>
   <v name="DARWINR">      0.00000000</v>
   <v name="DARWINV">      1.00000000</v>
   <i type="logical" name="LCORR"> T  </i>
  </separator>
  <i type="logical" name="GGA_COMPAT"> T  </i>
  <i type="logical" name="LBERRY"> F  </i>
  <i type="int" name="ICORELEVEL">     0</i>
  <i type="logical" name="LDAU"> F  </i>
  <i type="int" name="I_CONSTRAINED_M">     0</i>
  <separator name="electronic exchange-correlation" >
   <i type="string" name="GGA">--</i>
   <i type="int" name="VOSKOWN">     0</i>
   <i type="logical" name="LHFCALC"> F  </i>
   <i type="string" name="PRECFOCK"></i>
   <i type="logical" name="LSYMGRAD"> F  </i>
   <i type="logical" name="LHFONE"> F  </i>
   <i type="logical" name="LRHFCALC"> F  </i>
   <i type="logical" name="LTHOMAS"> F  </i>
   <i type="logical" name="LMODELHF"> F  </i>
   <i name="ENCUT4O">     -1.00000000</i>
   <i type="int" name="EXXOEP">     0</i>
   <i type="int" name="FOURORBIT">     0</i>
   <i name="AEXX">      0.00000000</i>
   <i name="HFALPHA">      0.00000000</i>
   <i name="MCALPHA">      0.00000000</i>
   <i name="ALDAX">      1.00000000</i>
   <i name="AGGAX">      1.00000000</i>
   <i name="ALDAC">      1.00000000</i>
   <i name="AGGAC">      1.00000000</i>
   <i type="int" name="NKREDX">     1</i>
   <i type="int" name="NKREDY">     1</i>
   <i type="int" name="NKREDZ">     1</i>
   <i type="logical" name="SHIFTRED"> F  </i>
   <i type="logical" name="ODDONLY"> F  </i>
   <i type="logical" name="EVENONLY"> F  </i>
   <i type="int" name="LMAXFOCK">     0</i>
   <i type="int" name="NMAXFOCKAE">     0</i>
   <i type="logical" name="LFOCKAEDFT"> F  </i>
   <i name="HFSCREEN">      0.00000000</i>
   <i name="HFSCREENC">      0.00000000</i>
   <i type="int" name="NBANDSGWLOW">     0</i>
  </separator>
  <separator name="vdW DFT" >
   <i type="logical" name="LUSE_VDW"> F  </i>
   <i name="Zab_VDW">     -0.84910000</i>
   <i name="PARAM1">      0.12340000</i>
   <i name="PARAM2">      1.00000000</i>
   <i name="PARAM3">      0.00000000</i>
  </separator>
  <separator name="model GW" >
   <i type="int" name="MODEL_GW">     0</i>
   <i name="MODEL_EPS0">      5.14446709</i>
   <i name="MODEL_ALPHA">      1.00000000</i>
  </separator>
  <separator name="linear response parameters" >
   <i type="logical" name="LEPSILON"> F  </i>
   <i type="logical" name="LRPA"> F  </i>
   <i type="logical" name="LNABLA"> F  </i>
   <i type="logical" name="LVEL"> F  </i>
   <i type="int" name="KINTER">     0</i>
   <i name="CSHIFT">      0.10000000</i>
   <i name="OMEGAMAX">     -1.00000000</i>
   <i name="DEG_THRESHOLD">      0.00200000</i>
  </separator>
  <separator name="orbital magnetization" >
   <i type="logical" name="NUCIND"> F  </i>
   <v name="MAGPOS">      0.00000000      0.00000000      0.00000000</v>
   <i type="logical" name="LNICSALL"> T  </i>
   <i type="logical" name="ORBITALMAG"> F  </i>
   <i type="logical" name="LMAGBLOCH"> F  </i>
   <i type="logical" name="LCHIMAG"> F  </i>
   <i type="logical" name="LGAUGE"> T  </i>
   <i type="int" name="MAGATOM">     0</i>
   <v name="MAGDIPOL">      0.00000000      0.00000000      0.00000000</v>
   <v name="AVECCONST">      0.00000000      0.00000000      0.00000000</v>
  </separator>
  <separator name="response functions" >
   <i type="logical" name="LADDER"> F  </i>
   <i type="logical" name="LFXC"> F  </i>
   <i type="logical" name="LHARTREE"> T  </i>
   <i type="int" name="IBSE">     0</i>
   <v type="int" name="KPOINT">    -1     0     0     0</v>
   <i type="logical" name="LTCTE"> F  </i>
   <i type="logical" name="LTETE"> F  </i>
   <i type="logical" name="LTRIPLET"> F  </i>
   <i type="logical" name="LFXCEPS"> F  </i>
   <i type="logical" name="LFXHEG"> F  </i>
   <i type="int" name="NATURALO">     0</i>
   <i type="logical" name="L2ORDER"> F  </i>
   <i type="logical" name="LUSEW"> F  </i>
   <i name="ENCUTGW">     -2.00000000</i>
   <i name="ENCUTGWSOFT">     -2.00000000</i>
   <i name="ENCUTLF">     -1.00000000</i>
   <i type="int" name="LMAXMP2">    -1</i>
   <i name="SCISSOR">      0.00000000</i>
   <i type="int" name="NOMEGA">     0</i>
   <i type="int" name="NOMEGAR">     0</i>
   <i type="int" name="NBANDSGW">    -1</i>
   <i type="int" name="NBANDSO">    -1</i>
   <i type="int" name="NBANDSV">    -1</i>
   <i type="int" name="NELM">     1</i>
   <i type="int" name="NELMHF">     1</i>
   <i type="int" name="DIM">     3</i>
   <i type="int" name="ANTIRES">     0</i>
   <i name="OMEGAMAX">    -30.00000000</i>
   <i name="OMEGAMIN">    -30.00000000</i>
   <i name="OMEGATL">   -200.00000000</i>
   <i type="int" name="OMEGAGRID">     0</i>
   <i name="CSHIFT">     -0.10000000</i>
   <i type="logical" name="SELFENERGY"> F  </i>
   <i type="logical" name="LSPECTRAL"> F  </i>
   <i type="logical" name="LSPECTRALGW"> F  </i>
   <i type="logical" name="LSINGLES"> F  </i>
   <i type="logical" name="LFERMIGW"> F  </i>
   <i type="logical" name="ODDONLYGW"> F  </i>
   <i type="logical" name="EVENONLYGW"> F  </i>
   <i type="int" name="NKREDLFX">     1</i>
   <i type="int" name="NKREDLFY">     1</i>
   <i type="int" name="NKREDLFZ">     1</i>
   <i type="int" name="MAXMEM">  1800</i>
   <i type="int" name="TELESCOPE">     0</i>
   <i type="int" name="TAUPAR">     1</i>
   <i type="int" name="OMEGAPAR">    -1</i>
   <i name="LAMBDA">      1.00000000</i>
  </separator>
  <separator name="External order field" >
   <i name="OFIELD_KAPPA">      0.00000000</i>
   <v name="OFIELD_K">      0.00000000      0.00000000      0.00000000</v>
   <i name="OFIELD_Q6_NEAR">      0.00000000</i>
   <i name="OFIELD_Q6_FAR">      0.00000000</i>
   <i name="OFIELD_A">      0.00000000</i>
  </separator>
 </parameters>
 <atominfo>
  <atoms>       4 </atoms>
  <types>       1 </types>
  <array name="atoms" >
   <dimension dim="1">ion</dimension>
   <field type="string">element</field>
   <field type="int">atomtype</field>
   <set>
    <rc><c>Cu</c><c>   1</c></rc>
    <rc><c>Cu</c><c>   1</c></rc>
    <rc><c>Cu</c><c>   1</c></rc>
    <rc><c>Cu</c><c>   1</c></rc>
   </set>
  </array>
  <array name="atomtypes" >
   <dimension dim="1">type</dimension>
   <field type="int">atomspertype</field>
   <field type="string">element</field>
   <field>mass</field>
   <field>valence</field>
   <field type="string">pseudopotential</field>
   <set>
    <rc><c>   4</c><c>Cu</c><c>     63.54600000</c><c>     11.00000000</c><c>  PAW_PBE Cu 22Jun2005                  </c></rc>
   </set>
  </array>
 </atominfo>
 <structure name="initialpos" >
  <crystal>
   <varray name="basis" >
    <v>       3.24900000       0.00000000       0.00000000 </v>
    <v>       0.00000000       3.24900000       0.00000000 </v>
    <v>       0.00000000       0.00000000       3.24900000 </v>
   </varray>
   <i name="volume">     34.29644725 </i>
   <varray name="rec_basis" >
    <v>       0.30778701       0.00000000       0.00000000 </v>
    <v>       0.00000000       0.30778701       0.00000000 </v>
    <v>       0.00000000       0.00000000       0.30778701 </v>
   </varray>
  </crystal>
  <varray name="positions" >
   <v>       0.00000000       0.00000000       0.00000000 </v>
   <v>       0.00000000       0.50000000       0.50000000 </v>
   <v>       0.50000000       0.00000000       0.50000000 </v>
   <v>       0.50000000       0.50000000       0.00000000 </v>
  </varray>
 </structure>
 <calculation>
  <scstep>
   <time name="dav">    0.55    0.55</time>
   <time name="total">    0.58    0.58</time>
   <energy>
    <i name="alphaZ">    341.17961278 </i>
    <i name="ewald">  -4917.54120629 </i>
    <i name="hartreedc">  -1197.54210942 </i>
    <i name="XCdc">    187.39540453 </i>
    <i name="pawpsdc">   4912.82663951 </i>
    <i name="pawaedc">  -5336.19386850 </i>
    <i name="eentropy">     -0.00286051 </i>
    <i name="bandstr">    599.17851928 </i>
    <i name="atom">   5563.83056080 </i>
    <i name="e_fr_energy">    153.13069217 </i>
    <i name="e_wo_entrp">    153.13355268 </i>
    <i name="e_0_energy">    153.13164568 </i>
   </energy>
  </scstep>
  <scstep>
   <time name="dav">    0.50    0.50</time>
   <time name="total">    0.50    0.52</time>
   <energy>
    <i name="e_fr_energy">    -11.01400011 </i>
    <i name="e_wo_entrp">    -11.01309633 </i>
    <i name="e_0_energy">    -11.01369885 </i>
   </energy>
  </scstep>
  <scstep>
   <time name="dav">    0.60    0.60</time>
   <time name="total">    0.60    0.62</time>
   <energy>
    <i name="e_fr_energy">    -15.28732004 </i>
    <i name="e_wo_entrp">    -15.28729608 </i>
    <i name="e_0_energy">    -15.28731205 </i>
   </energy>
  </scstep>
  <scstep>
   <time name="dav">    0.50    0.50</time>
   <time name="total">    0.51    0.52</time>
   <energy>
    <i name="e_fr_energy">    -15.31226572 </i>
    <i name="e_wo_entrp">    -15.31224063 </i>
    <i name="e_0_energy">    -15.31225736 </i>
   </energy>
  </scstep>
  <scstep>
   <time name="dav">    0.63    0.63</time>
   <time name="total">    0.63    0.64</time>
   <energy>
    <i name="e_fr_energy">    -15.31254437 </i>
    <i name="e_wo_entrp">    -15.31251928 </i>
    <i name="e_0_energy">    -15.31253601 </i>
   </energy>
  </scstep>
  <scstep>
   <time name="dav">    0.51    0.52</time>
   <time name="total">    0.52    0.53</time>
   <energy>
    <i name="e_fr_energy">    -12.25651983 </i>
    <i name="e_wo_entrp">    -12.25396376 </i>
    <i name="e_0_energy">    -12.25566780 </i>
   </energy>
  </scstep>
  <scstep>
   <time name="dav">    0.56    0.56</time>
   <time name="total">    0.64    0.64</time>
   <energy>
    <i name="e_fr_energy">    -11.70756156 </i>
    <i name="e_wo_entrp">    -11.70707127 </i>
    <i name="e_0_energy">    -11.70739813 </i>
   </energy>
  </scstep>
  <scstep>
   <time name="dav">    0.61    0.61</time>
   <time name="total">    0.62    0.62</time>
   <energy>
    <i name="e_fr_energy">    -11.60755744 </i>
    <i name="e_wo_entrp">    -11.60691786 </i>
    <i name="e_0_energy">    -11.60734425 </i>
   </energy>
  </scstep>
  <scstep>
   <time name="dav">    0.80    0.81</time>
   <time name="total">    0.82    0.82</time>
   <energy>
    <i name="e_fr_energy">    -11.60609804 </i>
    <i name="e_wo_entrp">    -11.60539312 </i>
    <i name="e_0_energy">    -11.60586307 </i>
   </energy>
  </scstep>
  <scstep>
   <time name="dav">    0.37    0.37</time>
   <time name="total">    0.37    0.38</time>
   <energy>
    <i name="alphaZ">    341.17961278 </i>
    <i name="ewald">  -4917.54120629 </i>
    <i name="hartreedc">  -1094.32539451 </i>
    <i name="XCdc">    182.14443638 </i>
    <i name="pawpsdc">   5949.17357721 </i>
    <i name="pawaedc">  -6393.14328665 </i>
    <i name="eentropy">     -0.00070746 </i>
    <i name="bandstr">    357.07625350 </i>
    <i name="atom">   5563.83056080 </i>
    <i name="e_fr_energy">    -11.60615425 </i>
    <i name="e_wo_entrp">    -11.60544678 </i>
    <i name="e_0_energy">    -11.60591843 </i>
   </energy>
  </scstep>
  <structure>
   <crystal>
    <varray name="basis" >
     <v>       3.24900000       0.00000000       0.00000000 </v>
     <v>       0.00000000       3.24900000       0.00000000 </v>
     <v>       0.00000000       0.00000000       3.24900000 </v>
    </varray>
    <i name="volume">     34.29644725 </i>
    <varray name="rec_basis" >
     <v>       0.30778701       0.00000000       0.00000000 </v>
     <v>       0.00000000       0.30778701       0.00000000 </v>
     <v>       0.00000000       0.00000000       0.30778701 </v>
    </varray>
   </crystal>
   <varray name="positions" >
    <v>       0.00000000       0.00000000       0.00000000 </v>
    <v>       0.00000000       0.50000000       0.50000000 </v>
    <v>       0.50000000       0.00000000       0.50000000 </v>
    <v>       0.50000000       0.50000000       0.00000000 </v>
   </varray>
  </structure>
  <varray name="forces" >
   <v>       0.00000000      -0.00000000      -0.00000000 </v>
   <v>      -0.00000000      -0.00000000       0.00000000 </v>
   <v>      -0.00000000       0.00000000       0.00000000 </v>
   <v>       0.00000000       0.00000000      -0.00000000 </v>
  </varray>
  <varray name="stress" >
   <v>    1066.57827749      -0.00000000       0.00000000 </v>
   <v>       0.00000000    1066.57827749      -0.00000000 </v>
   <v>      -0.00000000       0.00000000    1066.57827749 </v>
  </varray>
  <energy>
   <i name="e_fr_energy">    -11.60615425 </i>
   <i name="e_wo_entrp">    -11.60591843 </i>
   <i name="e_0_energy">     -0.00070746 </i>
  </energy>
  <time name="totalsc">    5.98    6.06</time>
  <eigenvalues>
   <array>
    <dimension dim="1">band</dimension>
    <dimension dim="2">kpoint</dimension>
    <dimension dim="3">spin</dimension>
    <field>eigene</field>
    <field>occ</field>
    <set>
     <set comment="spin 1">
      <set comment="kpoint 1">
       <r>    0.2277    1.0000 </r>
       <r>    5.0880    1.0000 </r>
       <r>    5.0880    1.0000 </r>
       <r>    5.0880    1.0000 </r>
       <r>    5.7929    1.0000 </r>
       <r>    5.7929    1.0000 </r>
       <r>    5.7929    1.0000 </r>
       <r>    8.0686    1.0000 </r>
       <r>    8.0686    1.0000 </r>
       <r>    8.0686    1.0000 </r>
       <r>    9.4249    1.0000 </r>
       <r>    9.4249    1.0000 </r>
       <r>   10.3245    1.0000 </r>
       <r>   10.3245    1.0000 </r>
       <r>   10.3245    1.0000 </r>
       <r>   10.5808    1.0000 </r>
       <r>   10.5808    1.0000 </r>
       <r>   10.5808    1.0000 </r>
       <r>   10.5808    1.0000 </r>
       <r>   10.5808    1.0000 </r>
       <r>   10.5808    1.0000 </r>
       <r>   13.5960   -0.0000 </r>
       <r>   13.5960   -0.0000 </r>
       <r>   13.5960   -0.0000 </r>
       <r>   21.9691    0.0000 </r>
       <r>   21.9691    0.0000 </r>
       <r>   21.9691    0.0000 </r>
       <r>   28.1145    0.0000 </r>
       <r>   28.1145    0.0000 </r>
       <r>   28.1145    0.0000 </r>
       <r>   28.1145    0.0000 </r>
       <r>   28.1145    0.0000 </r>
       <r>   28.1145    0.0000 </r>
       <r>   33.5943    0.0000 </r>
       <r>   33.5943    0.0000 </r>
       <r>   33.5943    0.0000 </r>
       <r>   37.3434    0.0000 </r>
       <r>   38.7246    0.0000 </r>
       <r>   38.7246    0.0000 </r>
       <r>   38.7246    0.0000 </r>
       <r>   42.6411    0.0000 </r>
       <r>   42.6411    0.0000 </r>
       <r>   42.6411    0.0000 </r>
       <r>   45.9892    0.0000 </r>
       <r>   45.9892    0.0000 </r>
       <r>   45.9892    0.0000 </r>
       <r>   49.3762    0.0000 </r>
       <r>   57.7290    0.0000 </r>
      </set>
      <set comment="kpoint 2">
       <r>    0.4175    1.0000 </r>
       <r>    5.1080    1.0000 </r>
       <r>    5.1904    1.0000 </r>
       <r>    5.1904    1.0000 </r>
       <r>    5.8554    1.0000 </r>
       <r>    5.8620    1.0000 </r>
       <r>    5.8620    1.0000 </r>
       <r>    7.9929    1.0000 </r>
       <r>    8.1256    1.0000 </r>
       <r>    8.1256    1.0000 </r>
       <r>    9.3566    1.0000 </r>
       <r>    9.4511    1.0000 </r>
       <r>   10.1070    1.0000 </r>
       <r>   10.1070    1.0000 </r>
       <r>   10.2349    1.0000 </r>
       <r>   10.2349    1.0000 </r>
       <r>   10.2963    1.0000 </r>
       <r>   10.4770    1.0000 </r>
       <r>   10.4770    1.0000 </r>
       <r>   10.5810    1.0000 </r>
       <r>   10.5810    1.0000 </r>
       <r>   12.7211   -0.0013 </r>
       <r>   14.2226   -0.0000 </r>
       <r>   14.2226   -0.0000 </r>
       <r>   21.9968    0.0000 </r>
       <r>   21.9968    0.0000 </r>
       <r>   23.1417    0.0000 </r>
       <r>   27.0905    0.0000 </r>
       <r>   27.0905    0.0000 </r>
       <r>   27.5609    0.0000 </r>
       <r>   27.5609    0.0000 </r>
       <r>   28.4126    0.0000 </r>
       <r>   28.4126    0.0000 </r>
       <r>   33.6419    0.0000 </r>
       <r>   34.8086    0.0000 </r>
       <r>   34.8086    0.0000 </r>
       <r>   37.0370    0.0000 </r>
       <r>   38.7986    0.0000 </r>
       <r>   39.7161    0.0000 </r>
       <r>   39.7161    0.0000 </r>
       <r>   41.2943    0.0000 </r>
       <r>   41.2943    0.0000 </r>
       <r>   41.6586    0.0000 </r>
       <r>   46.7107    0.0000 </r>
       <r>   47.2663    0.0000 </r>
       <r>   47.2663    0.0000 </r>
       <r>   50.4865    0.0000 </r>
       <r>   54.4810    0.0000 </r>
      </set>
      <set comment="kpoint 3">
       <r>    0.9759    1.0000 </r>
       <r>    5.1084    1.0000 </r>
       <r>    5.4717    1.0000 </r>
       <r>    5.4717    1.0000 </r>
       <r>    6.0368    1.0000 </r>
       <r>    6.0702    1.0000 </r>
       <r>    6.0702    1.0000 </r>
       <r>    7.7779    1.0000 </r>
       <r>    8.2943    1.0000 </r>
       <r>    8.2943    1.0000 </r>
       <r>    9.1649    1.0000 </r>
       <r>    9.2175    1.0000 </r>
       <r>    9.2175    1.0000 </r>
       <r>    9.5267    1.0000 </r>
       <r>    9.9843    1.0000 </r>
       <r>    9.9843    1.0000 </r>
       <r>   10.1923    1.0000 </r>
       <r>   10.1923    1.0000 </r>
       <r>   10.2156    1.0000 </r>
       <r>   10.5812    1.0000 </r>
       <r>   10.5812    1.0000 </r>
       <r>   11.0041    1.0000 </r>
       <r>   15.5673    0.0000 </r>
       <r>   15.5673    0.0000 </r>
       <r>   22.0842    0.0000 </r>
       <r>   22.0842    0.0000 </r>
       <r>   25.1275    0.0000 </r>
       <r>   25.1275    0.0000 </r>
       <r>   25.7840    0.0000 </r>
       <r>   26.3887    0.0000 </r>
       <r>   26.3887    0.0000 </r>
       <r>   29.2760    0.0000 </r>
       <r>   29.2760    0.0000 </r>
       <r>   33.7882    0.0000 </r>
       <r>   36.3461    0.0000 </r>
       <r>   37.3473    0.0000 </r>
       <r>   37.3473    0.0000 </r>
       <r>   39.0155    0.0000 </r>
       <r>   39.0155    0.0000 </r>
       <r>   39.0622    0.0000 </r>
       <r>   39.7257    0.0000 </r>
       <r>   42.1835    0.0000 </r>
       <r>   42.1835    0.0000 </r>
       <r>   48.6339    0.0000 </r>
       <r>   49.3915    0.0000 </r>
       <r>   49.3915    0.0000 </r>
       <r>   49.5820    0.0000 </r>
       <r>   53.8721    0.0000 </r>
      </set>
      <set comment="kpoint 4">
       <r>    1.8634    1.0000 </r>
       <r>    4.8725    1.0000 </r>
       <r>    5.8446    1.0000 </r>
       <r>    5.8446    1.0000 </r>
       <r>    6.3210    1.0000 </r>
       <r>    6.4204    1.0000 </r>
       <r>    6.4204    1.0000 </r>
       <r>    7.4560    1.0000 </r>
       <r>    8.3320    1.0000 </r>
       <r>    8.3320    1.0000 </r>
       <r>    8.5669    1.0000 </r>
       <r>    8.5669    1.0000 </r>
       <r>    8.9022    1.0000 </r>
       <r>    9.4991    1.0000 </r>
       <r>    9.6433    1.0000 </r>
       <r>    9.6433    1.0000 </r>
       <r>    9.6434    1.0000 </r>
       <r>    9.7933    1.0000 </r>
       <r>    9.7933    1.0000 </r>
       <r>   10.0933    1.0000 </r>
       <r>   10.5812    1.0000 </r>
       <r>   10.5812    1.0000 </r>
       <r>   17.2065    0.0000 </r>
       <r>   17.2065    0.0000 </r>
       <r>   22.2331    0.0000 </r>
       <r>   22.2331    0.0000 </r>
       <r>   23.0281    0.0000 </r>
       <r>   23.0281    0.0000 </r>
       <r>   25.2601    0.0000 </r>
       <r>   25.2601    0.0000 </r>
       <r>   28.9597    0.0000 </r>
       <r>   30.6268    0.0000 </r>
       <r>   30.6268    0.0000 </r>
       <r>   34.0435    0.0000 </r>
       <r>   35.5951    0.0000 </r>
       <r>   36.6602    0.0000 </r>
       <r>   36.6602    0.0000 </r>
       <r>   37.5701    0.0000 </r>
       <r>   39.6474    0.0000 </r>
       <r>   40.4207    0.0000 </r>
       <r>   40.4207    0.0000 </r>
       <r>   45.3767    0.0000 </r>
       <r>   45.3767    0.0000 </r>
       <r>   45.8992    0.0000 </r>
       <r>   51.3960    0.0000 </r>
       <r>   51.6617    0.0000 </r>
       <r>   51.6622    0.0000 </r>
       <r>   51.6913    0.0000 </r>
      </set>
      <set comment="kpoint 5">
       <r>    2.9854    1.0000 </r>
       <r>    4.1188    1.0000 </r>
       <r>    6.1358    1.0000 </r>
       <r>    6.1358    1.0000 </r>
       <r>    6.6793    1.0000 </r>
       <r>    6.9153    1.0000 </r>
       <r>    6.9153    1.0000 </r>
       <r>    7.0732    1.0000 </r>
       <r>    7.5551    1.0000 </r>
       <r>    7.5551    1.0000 </r>
       <r>    8.6831    1.0000 </r>
       <r>    8.7509    1.0000 </r>
       <r>    8.9283    1.0000 </r>
       <r>    8.9283    1.0000 </r>
       <r>    9.3514    1.0000 </r>
       <r>    9.3514    1.0000 </r>
       <r>    9.3711    1.0000 </r>
       <r>    9.3711    1.0000 </r>
       <r>    9.7891    1.0000 </r>
       <r>    9.9449    1.0000 </r>
       <r>   10.5816    1.0000 </r>
       <r>   10.5816    1.0000 </r>
       <r>   19.0240    0.0000 </r>
       <r>   19.0240    0.0000 </r>
       <r>   20.9753    0.0000 </r>
       <r>   20.9753    0.0000 </r>
       <r>   22.3901    0.0000 </r>
       <r>   22.3901    0.0000 </r>
       <r>   24.5551    0.0000 </r>
       <r>   24.5551    0.0000 </r>
       <r>   32.1969    0.0000 </r>
       <r>   32.3698    0.0000 </r>
       <r>   32.3698    0.0000 </r>
       <r>   34.4111    0.0000 </r>
       <r>   34.4111    0.0000 </r>
       <r>   34.4225    0.0000 </r>
       <r>   34.9394    0.0000 </r>
       <r>   35.1221    0.0000 </r>
       <r>   40.7960    0.0000 </r>
       <r>   42.8367    0.0000 </r>
       <r>   43.8625    0.0000 </r>
       <r>   43.8625    0.0000 </r>
       <r>   47.6317    0.0000 </r>
       <r>   47.6317    0.0000 </r>
       <r>   48.4597    0.0000 </r>
       <r>   48.4597    0.0000 </r>
       <r>   54.0923    0.0000 </r>
       <r>   54.0923    0.0000 </r>
      </set>
      <set comment="kpoint 6">
       <r>    0.6053    1.0000 </r>
       <r>    5.2137    1.0000 </r>
       <r>    5.2137    1.0000 </r>
       <r>    5.2890    1.0000 </r>
       <r>    5.9221    1.0000 </r>
       <r>    5.9221    1.0000 </r>
       <r>    5.9269    1.0000 </r>
       <r>    7.9510    1.0000 </r>
       <r>    8.1521    1.0000 </r>
       <r>    8.1720    1.0000 </r>
       <r>    9.3381    1.0000 </r>
       <r>    9.4379    1.0000 </r>
       <r>    9.8077    1.0000 </r>
       <r>    9.9254    1.0000 </r>
       <r>    9.9254    1.0000 </r>
       <r>   10.1524    1.0000 </r>
       <r>   10.2476    1.0000 </r>
       <r>   10.2476    1.0000 </r>
       <r>   10.4764    1.0000 </r>
       <r>   10.4764    1.0000 </r>
       <r>   10.5149    1.0000 </r>
       <r>   13.3543   -0.0000 </r>
       <r>   13.3543   -0.0000 </r>
       <r>   14.7408   -0.0000 </r>
       <r>   22.0028    0.0000 </r>
       <r>   23.1986    0.0000 </r>
       <r>   23.1986    0.0000 </r>
       <r>   25.2732    0.0000 </r>
       <r>   27.3568    0.0000 </r>
       <r>   27.3568    0.0000 </r>
       <r>   27.8435    0.0000 </r>
       <r>   27.8435    0.0000 </r>
       <r>   28.6974    0.0000 </r>
       <r>   34.8907    0.0000 </r>
       <r>   34.8907    0.0000 </r>
       <r>   34.9267    0.0000 </r>
       <r>   36.4473    0.0000 </r>
       <r>   39.1768    0.0000 </r>
       <r>   39.7985    0.0000 </r>
       <r>   39.7985    0.0000 </r>
       <r>   40.9295    0.0000 </r>
       <r>   41.1947    0.0000 </r>
       <r>   43.1442    0.0000 </r>
       <r>   46.1237    0.0000 </r>
       <r>   46.2874    0.0000 </r>
       <r>   48.8693    0.0000 </r>
       <r>   52.2469    0.0000 </r>
       <r>   53.6680    0.0000 </r>
      </set>
      <set comment="kpoint 7">
       <r>    1.1576    1.0000 </r>
       <r>    5.2235    1.0000 </r>
       <r>    5.5050    1.0000 </r>
       <r>    5.5612    1.0000 </r>
       <r>    6.0974    1.0000 </r>
       <r>    6.1210    1.0000 </r>
       <r>    6.1236    1.0000 </r>
       <r>    7.7616    1.0000 </r>
       <r>    8.3036    1.0000 </r>
       <r>    8.3036    1.0000 </r>
       <r>    9.0426    1.0000 </r>
       <r>    9.0796    1.0000 </r>
       <r>    9.1814    1.0000 </r>
       <r>    9.4878    1.0000 </r>
       <r>    9.5165    1.0000 </r>
       <r>    9.9199    1.0000 </r>
       <r>    9.9955    1.0000 </r>
       <r>   10.1707    1.0000 </r>
       <r>   10.1915    1.0000 </r>
       <r>   10.4755    1.0000 </r>
       <r>   10.4791    1.0000 </r>
       <r>   11.7622    1.0000 </r>
       <r>   14.5999   -0.0000 </r>
       <r>   15.9624    0.0000 </r>
       <r>   21.8874    0.0000 </r>
       <r>   23.3677    0.0000 </r>
       <r>   23.4251    0.0000 </r>
       <r>   25.3721    0.0000 </r>
       <r>   25.8426    0.0000 </r>
       <r>   26.6564    0.0000 </r>
       <r>   28.1176    0.0000 </r>
       <r>   28.4142    0.0000 </r>
       <r>   28.6854    0.0000 </r>
       <r>   35.1469    0.0000 </r>
       <r>   35.1923    0.0000 </r>
       <r>   36.4459    0.0000 </r>
       <r>   36.9183    0.0000 </r>
       <r>   37.4592    0.0000 </r>
       <r>   40.0843    0.0000 </r>
       <r>   40.1926    0.0000 </r>
       <r>   41.8824    0.0000 </r>
       <r>   42.2589    0.0000 </r>
       <r>   43.6210    0.0000 </r>
       <r>   47.2143    0.0000 </r>
       <r>   47.2574    0.0000 </r>
       <r>   50.2464    0.0000 </r>
       <r>   51.0196    0.0000 </r>
       <r>   55.2786    0.0000 </r>
      </set>
      <set comment="kpoint 8">
       <r>    2.0344    1.0000 </r>
       <r>    5.0007    1.0000 </r>
       <r>    5.8956    1.0000 </r>
       <r>    5.9292    1.0000 </r>
       <r>    6.3708    1.0000 </r>
       <r>    6.4369    1.0000 </r>
       <r>    6.4617    1.0000 </r>
       <r>    7.4579    1.0000 </r>
       <r>    8.1867    1.0000 </r>
       <r>    8.2771    1.0000 </r>
       <r>    8.4648    1.0000 </r>
       <r>    8.5709    1.0000 </r>
       <r>    8.8614    1.0000 </r>
       <r>    9.0013    1.0000 </r>
       <r>    9.6023    1.0000 </r>
       <r>    9.6574    1.0000 </r>
       <r>    9.6629    1.0000 </r>
       <r>    9.7919    1.0000 </r>
       <r>    9.9494    1.0000 </r>
       <r>   10.4714    1.0000 </r>
       <r>   10.4741    1.0000 </r>
       <r>   10.5799    1.0000 </r>
       <r>   16.0341    0.0000 </r>
       <r>   17.5297    0.0000 </r>
       <r>   20.7946    0.0000 </r>
       <r>   22.8309    0.0000 </r>
       <r>   23.2718    0.0000 </r>
       <r>   23.5879    0.0000 </r>
       <r>   25.6029    0.0000 </r>
       <r>   27.2408    0.0000 </r>
       <r>   28.7736    0.0000 </r>
       <r>   29.2726    0.0000 </r>
       <r>   30.2343    0.0000 </r>
       <r>   33.7425    0.0000 </r>
       <r>   34.7910    0.0000 </r>
       <r>   35.6083    0.0000 </r>
       <r>   38.7072    0.0000 </r>
       <r>   39.2341    0.0000 </r>
       <r>   39.2889    0.0000 </r>
       <r>   40.5475    0.0000 </r>
       <r>   40.6870    0.0000 </r>
       <r>   45.2990    0.0000 </r>
       <r>   46.3211    0.0000 </r>
       <r>   46.9011    0.0000 </r>
       <r>   49.6651    0.0000 </r>
       <r>   49.7666    0.0000 </r>
       <r>   51.1995    0.0000 </r>
       <r>   51.8317    0.0000 </r>
      </set>
      <set comment="kpoint 9">
       <r>    3.1417    1.0000 </r>
       <r>    4.2596    1.0000 </r>
       <r>    6.2117    1.0000 </r>
       <r>    6.2261    1.0000 </r>
       <r>    6.7151    1.0000 </r>
       <r>    6.8689    1.0000 </r>
       <r>    6.9375    1.0000 </r>
       <r>    7.0926    1.0000 </r>
       <r>    7.4511    1.0000 </r>
       <r>    7.5477    1.0000 </r>
       <r>    8.4488    1.0000 </r>
       <r>    8.4510    1.0000 </r>
       <r>    8.9294    1.0000 </r>
       <r>    9.1140    1.0000 </r>
       <r>    9.3507    1.0000 </r>
       <r>    9.3547    1.0000 </r>
       <r>    9.3769    1.0000 </r>
       <r>    9.5139    1.0000 </r>
       <r>    9.8529    1.0000 </r>
       <r>   10.0942    1.0000 </r>
       <r>   10.4710    1.0000 </r>
       <r>   10.4725    1.0000 </r>
       <r>   17.5613    0.0000 </r>
       <r>   19.1600    0.0000 </r>
       <r>   19.3050    0.0000 </r>
       <r>   21.2314    0.0000 </r>
       <r>   23.0962    0.0000 </r>
       <r>   23.5120    0.0000 </r>
       <r>   25.3626    0.0000 </r>
       <r>   26.0789    0.0000 </r>
       <r>   30.6873    0.0000 </r>
       <r>   30.9299    0.0000 </r>
       <r>   32.2172    0.0000 </r>
       <r>   32.8075    0.0000 </r>
       <r>   33.0601    0.0000 </r>
       <r>   36.2994    0.0000 </r>
       <r>   36.3262    0.0000 </r>
       <r>   37.3577    0.0000 </r>
       <r>   41.7931    0.0000 </r>
       <r>   42.5775    0.0000 </r>
       <r>   43.6390    0.0000 </r>
       <r>   43.9982    0.0000 </r>
       <r>   45.9179    0.0000 </r>
       <r>   47.7732    0.0000 </r>
       <r>   49.8483    0.0000 </r>
       <r>   50.0105    0.0000 </r>
       <r>   51.8999    0.0000 </r>
       <r>   52.6313    0.0000 </r>
      </set>
      <set comment="kpoint 10">
       <r>    1.6906    1.0000 </r>
       <r>    5.5442    1.0000 </r>
       <r>    5.5442    1.0000 </r>
       <r>    5.8081    1.0000 </r>
       <r>    6.2719    1.0000 </r>
       <r>    6.2787    1.0000 </r>
       <r>    6.2787    1.0000 </r>
       <r>    7.6616    1.0000 </r>
       <r>    8.3332    1.0000 </r>
       <r>    8.3904    1.0000 </r>
       <r>    8.6219    1.0000 </r>
       <r>    8.6219    1.0000 </r>
       <r>    8.6733    1.0000 </r>
       <r>    9.1278    1.0000 </r>
       <r>    9.5963    1.0000 </r>
       <r>    9.7348    1.0000 </r>
       <r>    9.9465    1.0000 </r>
       <r>    9.9465    1.0000 </r>
       <r>   10.1889    1.0000 </r>
       <r>   10.1889    1.0000 </r>
       <r>   10.3212    1.0000 </r>
       <r>   12.8921   -0.0000 </r>
       <r>   12.8921   -0.0000 </r>
       <r>   16.9910    0.0000 </r>
       <r>   20.4304    0.0000 </r>
       <r>   22.8068    0.0000 </r>
       <r>   25.8897    0.0000 </r>
       <r>   25.8897    0.0000 </r>
       <r>   26.0706    0.0000 </r>
       <r>   26.0706    0.0000 </r>
       <r>   27.6165    0.0000 </r>
       <r>   27.6165    0.0000 </r>
       <r>   30.3414    0.0000 </r>
       <r>   33.4007    0.0000 </r>
       <r>   34.6722    0.0000 </r>
       <r>   35.6954    0.0000 </r>
       <r>   37.7998    0.0000 </r>
       <r>   37.7998    0.0000 </r>
       <r>   41.5416    0.0000 </r>
       <r>   42.5168    0.0000 </r>
       <r>   42.5168    0.0000 </r>
       <r>   44.2187    0.0000 </r>
       <r>   44.2749    0.0000 </r>
       <r>   46.5099    0.0000 </r>
       <r>   46.5495    0.0000 </r>
       <r>   49.4446    0.0000 </r>
       <r>   53.0642    0.0000 </r>
       <r>   53.7959    0.0000 </r>
      </set>
      <set comment="kpoint 11">
       <r>    2.5337    1.0000 </r>
       <r>    5.3602    1.0000 </r>
       <r>    5.9879    1.0000 </r>
       <r>    6.1559    1.0000 </r>
       <r>    6.4953    1.0000 </r>
       <r>    6.5191    1.0000 </r>
       <r>    6.5802    1.0000 </r>
       <r>    7.4401    1.0000 </r>
       <r>    7.8543    1.0000 </r>
       <r>    8.1049    1.0000 </r>
       <r>    8.1797    1.0000 </r>
       <r>    8.3346    1.0000 </r>
       <r>    8.6113    1.0000 </r>
       <r>    9.0235    1.0000 </r>
       <r>    9.4745    1.0000 </r>
       <r>    9.6274    1.0000 </r>
       <r>    9.7533    1.0000 </r>
       <r>    9.7896    1.0000 </r>
       <r>    9.8292    1.0000 </r>
       <r>   10.1858    1.0000 </r>
       <r>   10.2319    1.0000 </r>
       <r>   11.4912    1.0000 </r>
       <r>   14.1090   -0.0000 </r>
       <r>   18.4146    0.0000 </r>
       <r>   18.5453    0.0000 </r>
       <r>   23.0475    0.0000 </r>
       <r>   23.9677    0.0000 </r>
       <r>   25.3052    0.0000 </r>
       <r>   27.1364    0.0000 </r>
       <r>   27.4049    0.0000 </r>
       <r>   27.7645    0.0000 </r>
       <r>   30.1449    0.0000 </r>
       <r>   30.2607    0.0000 </r>
       <r>   31.6432    0.0000 </r>
       <r>   32.6361    0.0000 </r>
       <r>   37.3266    0.0000 </r>
       <r>   38.3813    0.0000 </r>
       <r>   40.9059    0.0000 </r>
       <r>   40.9286    0.0000 </r>
       <r>   41.3044    0.0000 </r>
       <r>   43.0440    0.0000 </r>
       <r>   45.0504    0.0000 </r>
       <r>   46.3084    0.0000 </r>
       <r>   47.5164    0.0000 </r>
       <r>   48.0150    0.0000 </r>
       <r>   49.8803    0.0000 </r>
       <r>   50.2719    0.0000 </r>
       <r>   52.0686    0.0000 </r>
      </set>
      <set comment="kpoint 12">
       <r>    3.5926    1.0000 </r>
       <r>    4.6578    1.0000 </r>
       <r>    6.3873    1.0000 </r>
       <r>    6.4780    1.0000 </r>
       <r>    6.7442    1.0000 </r>
       <r>    6.8186    1.0000 </r>
       <r>    6.9983    1.0000 </r>
       <r>    7.1409    1.0000 </r>
       <r>    7.2137    1.0000 </r>
       <r>    7.5188    1.0000 </r>
       <r>    8.0393    1.0000 </r>
       <r>    8.1904    1.0000 </r>
       <r>    8.9456    1.0000 </r>
       <r>    9.1223    1.0000 </r>
       <r>    9.2811    1.0000 </r>
       <r>    9.3425    1.0000 </r>
       <r>    9.3538    1.0000 </r>
       <r>    9.4270    1.0000 </r>
       <r>   10.1632    1.0000 </r>
       <r>   10.1859    1.0000 </r>
       <r>   10.1964    1.0000 </r>
       <r>   10.6465    1.0000 </r>
       <r>   15.4175    0.0000 </r>
       <r>   16.8729    0.0000 </r>
       <r>   20.0939    0.0000 </r>
       <r>   21.9592    0.0000 </r>
       <r>   23.5695    0.0000 </r>
       <r>   24.3478    0.0000 </r>
       <r>   28.0914    0.0000 </r>
       <r>   28.4704    0.0000 </r>
       <r>   29.1531    0.0000 </r>
       <r>   29.2204    0.0000 </r>
       <r>   29.9900    0.0000 </r>
       <r>   30.8233    0.0000 </r>
       <r>   33.6409    0.0000 </r>
       <r>   37.3148    0.0000 </r>
       <r>   39.2099    0.0000 </r>
       <r>   40.2507    0.0000 </r>
       <r>   40.4707    0.0000 </r>
       <r>   43.8758    0.0000 </r>
       <r>   43.9570    0.0000 </r>
       <r>   44.4036    0.0000 </r>
       <r>   45.3541    0.0000 </r>
       <r>   48.1959    0.0000 </r>
       <r>   48.4788    0.0000 </r>
       <r>   50.2865    0.0000 </r>
       <r>   50.8727    0.0000 </r>
       <r>   51.0287    0.0000 </r>
      </set>
      <set comment="kpoint 13">
       <r>    3.3146    1.0000 </r>
       <r>    5.8661    1.0000 </r>
       <r>    5.8661    1.0000 </r>
       <r>    6.4279    1.0000 </r>
       <r>    6.6207    1.0000 </r>
       <r>    6.7605    1.0000 </r>
       <r>    6.7605    1.0000 </r>
       <r>    7.3549    1.0000 </r>
       <r>    7.6084    1.0000 </r>
       <r>    7.6084    1.0000 </r>
       <r>    7.8147    1.0000 </r>
       <r>    8.2205    1.0000 </r>
       <r>    8.7493    1.0000 </r>
       <r>    8.9155    1.0000 </r>
       <r>    9.2757    1.0000 </r>
       <r>    9.4617    1.0000 </r>
       <r>    9.4617    1.0000 </r>
       <r>    9.7931    1.0000 </r>
       <r>    9.7931    1.0000 </r>
       <r>   10.0122    1.0000 </r>
       <r>   10.1883    1.0000 </r>
       <r>   12.4842    0.4149 </r>
       <r>   12.4842    0.4149 </r>
       <r>   16.5545    0.0000 </r>
       <r>   19.7038    0.0000 </r>
       <r>   23.4869    0.0000 </r>
       <r>   25.0342    0.0000 </r>
       <r>   25.0342    0.0000 </r>
       <r>   26.3673    0.0000 </r>
       <r>   26.3673    0.0000 </r>
       <r>   29.7125    0.0000 </r>
       <r>   30.6726    0.0000 </r>
       <r>   30.6726    0.0000 </r>
       <r>   30.6868    0.0000 </r>
       <r>   32.8223    0.0000 </r>
       <r>   36.3037    0.0000 </r>
       <r>   41.4575    0.0000 </r>
       <r>   41.5610    0.0000 </r>
       <r>   41.5610    0.0000 </r>
       <r>   43.0594    0.0000 </r>
       <r>   43.3840    0.0000 </r>
       <r>   44.6026    0.0000 </r>
       <r>   44.6026    0.0000 </r>
       <r>   47.3297    0.0000 </r>
       <r>   48.8334    0.0000 </r>
       <r>   49.5728    0.0000 </r>
       <r>   49.5728    0.0000 </r>
       <r>   52.7128    0.0000 </r>
      </set>
      <set comment="kpoint 14">
       <r>    4.2775    1.0000 </r>
       <r>    5.2321    1.0000 </r>
       <r>    6.3456    1.0000 </r>
       <r>    6.5548    1.0000 </r>
       <r>    6.8396    1.0000 </r>
       <r>    6.9755    1.0000 </r>
       <r>    7.0809    1.0000 </r>
       <r>    7.1621    1.0000 </r>
       <r>    7.1887    1.0000 </r>
       <r>    7.4505    1.0000 </r>
       <r>    7.7159    1.0000 </r>
       <r>    8.0046    1.0000 </r>
       <r>    8.9416    1.0000 </r>
       <r>    9.0135    1.0000 </r>
       <r>    9.1209    1.0000 </r>
       <r>    9.1788    1.0000 </r>
       <r>    9.1925    1.0000 </r>
       <r>    9.3788    1.0000 </r>
       <r>    9.8152    1.0000 </r>
       <r>    9.8781    1.0000 </r>
       <r>   10.6813    1.0000 </r>
       <r>   11.3801    1.0000 </r>
       <r>   13.5955   -0.0000 </r>
       <r>   14.9185   -0.0000 </r>
       <r>   21.2787    0.0000 </r>
       <r>   23.0693    0.0000 </r>
       <r>   24.1686    0.0000 </r>
       <r>   25.1280    0.0000 </r>
       <r>   26.3848    0.0000 </r>
       <r>   27.5586    0.0000 </r>
       <r>   27.9560    0.0000 </r>
       <r>   28.9931    0.0000 </r>
       <r>   31.5585    0.0000 </r>
       <r>   32.6420    0.0000 </r>
       <r>   34.3595    0.0000 </r>
       <r>   38.1976    0.0000 </r>
       <r>   38.5226    0.0000 </r>
       <r>   42.0342    0.0000 </r>
       <r>   42.4167    0.0000 </r>
       <r>   43.2586    0.0000 </r>
       <r>   43.3411    0.0000 </r>
       <r>   43.9750    0.0000 </r>
       <r>   45.0664    0.0000 </r>
       <r>   48.8878    0.0000 </r>
       <r>   49.2832    0.0000 </r>
       <r>   49.3070    0.0000 </r>
       <r>   49.3173    0.0000 </r>
       <r>   51.8399    0.0000 </r>
      </set>
      <set comment="kpoint 15">
       <r>    5.0793    1.0000 </r>
       <r>    5.8285    1.0000 </r>
       <r>    5.8285    1.0000 </r>
       <r>    6.2775    1.0000 </r>
       <r>    7.1584    1.0000 </r>
       <r>    7.1584    1.0000 </r>
       <r>    7.1997    1.0000 </r>
       <r>    7.2020    1.0000 </r>
       <r>    7.3279    1.0000 </r>
       <r>    7.4744    1.0000 </r>
       <r>    7.4744    1.0000 </r>
       <r>    7.8018    1.0000 </r>
       <r>    8.8281    1.0000 </r>
       <r>    8.9461    1.0000 </r>
       <r>    8.9566    1.0000 </r>
       <r>    8.9566    1.0000 </r>
       <r>    9.1778    1.0000 </r>
       <r>    9.4553    1.0000 </r>
       <r>    9.4553    1.0000 </r>
       <r>    9.6174    1.0000 </r>
       <r>   11.3480    1.0000 </r>
       <r>   12.2612    1.0052 </r>
       <r>   12.2612    1.0052 </r>
       <r>   13.3960   -0.0000 </r>
       <r>   22.7602    0.0000 </r>
       <r>   24.4743    0.0000 </r>
       <r>   24.4743    0.0000 </r>
       <r>   25.0115    0.0000 </r>
       <r>   26.1139    0.0000 </r>
       <r>   26.1384    0.0000 </r>
       <r>   26.1384    0.0000 </r>
       <r>   27.4234    0.0000 </r>
       <r>   35.3233    0.0000 </r>
       <r>   35.3233    0.0000 </r>
       <r>   35.9242    0.0000 </r>
       <r>   37.3274    0.0000 </r>
       <r>   39.0359    0.0000 </r>
       <r>   39.4615    0.0000 </r>
       <r>   40.4825    0.0000 </r>
       <r>   40.4825    0.0000 </r>
       <r>   45.9125    0.0000 </r>
       <r>   45.9125    0.0000 </r>
       <r>   46.0500    0.0000 </r>
       <r>   48.5553    0.0000 </r>
       <r>   49.3770    0.0000 </r>
       <r>   50.3245    0.0000 </r>
       <r>   51.2180    0.0000 </r>
       <r>   51.2180    0.0000 </r>
      </set>
      <set comment="kpoint 16">
       <r>    0.7909    1.0000 </r>
       <r>    5.3145    1.0000 </r>
       <r>    5.3145    1.0000 </r>
       <r>    5.3145    1.0000 </r>
       <r>    5.9852    1.0000 </r>
       <r>    5.9852    1.0000 </r>
       <r>    5.9852    1.0000 </r>
       <r>    7.9141    1.0000 </r>
       <r>    8.1921    1.0000 </r>
       <r>    8.1921    1.0000 </r>
       <r>    9.3781    1.0000 </r>
       <r>    9.3781    1.0000 </r>
       <r>    9.6530    1.0000 </r>
       <r>    9.6530    1.0000 </r>
       <r>    9.6530    1.0000 </r>
       <r>   10.0565    1.0000 </r>
       <r>   10.0565    1.0000 </r>
       <r>   10.0565    1.0000 </r>
       <r>   10.4922    1.0000 </r>
       <r>   10.4922    1.0000 </r>
       <r>   10.4922    1.0000 </r>
       <r>   13.8408   -0.0000 </r>
       <r>   13.8408   -0.0000 </r>
       <r>   13.8408   -0.0000 </r>
       <r>   23.2218    0.0000 </r>
       <r>   23.2218    0.0000 </r>
       <r>   23.2218    0.0000 </r>
       <r>   25.5493    0.0000 </r>
       <r>   25.5493    0.0000 </r>
       <r>   25.5493    0.0000 </r>
       <r>   28.9824    0.0000 </r>
       <r>   28.9824    0.0000 </r>
       <r>   28.9824    0.0000 </r>
       <r>   34.9971    0.0000 </r>
       <r>   34.9971    0.0000 </r>
       <r>   34.9971    0.0000 </r>
       <r>   35.3863    0.0000 </r>
       <r>   39.1106    0.0000 </r>
       <r>   41.0221    0.0000 </r>
       <r>   41.0221    0.0000 </r>
       <r>   41.0221    0.0000 </r>
       <r>   41.7554    0.0000 </r>
       <r>   41.7554    0.0000 </r>
       <r>   47.1845    0.0000 </r>
       <r>   47.3047    0.0000 </r>
       <r>   47.3047    0.0000 </r>
       <r>   54.0509    0.0000 </r>
       <r>   54.1791    0.0000 </r>
      </set>
      <set comment="kpoint 17">
       <r>    1.3359    1.0000 </r>
       <r>    5.3300    1.0000 </r>
       <r>    5.5931    1.0000 </r>
       <r>    5.5931    1.0000 </r>
       <r>    6.1555    1.0000 </r>
       <r>    6.1731    1.0000 </r>
       <r>    6.1731    1.0000 </r>
       <r>    7.7482    1.0000 </r>
       <r>    8.3036    1.0000 </r>
       <r>    8.3125    1.0000 </r>
       <r>    8.9261    1.0000 </r>
       <r>    8.9261    1.0000 </r>
       <r>    9.2100    1.0000 </r>
       <r>    9.2246    1.0000 </r>
       <r>    9.4911    1.0000 </r>
       <r>    9.8085    1.0000 </r>
       <r>    9.8507    1.0000 </r>
       <r>    9.8507    1.0000 </r>
       <r>   10.4105    1.0000 </r>
       <r>   10.4532    1.0000 </r>
       <r>   10.4532    1.0000 </r>
       <r>   12.1978    1.0003 </r>
       <r>   14.9360   -0.0000 </r>
       <r>   14.9360   -0.0000 </r>
       <r>   22.8656    0.0000 </r>
       <r>   22.8656    0.0000 </r>
       <r>   24.0415    0.0000 </r>
       <r>   24.0415    0.0000 </r>
       <r>   25.6120    0.0000 </r>
       <r>   26.5951    0.0000 </r>
       <r>   28.6650    0.0000 </r>
       <r>   28.6650    0.0000 </r>
       <r>   29.8120    0.0000 </r>
       <r>   33.5879    0.0000 </r>
       <r>   35.2217    0.0000 </r>
       <r>   36.5348    0.0000 </r>
       <r>   36.5348    0.0000 </r>
       <r>   38.0436    0.0000 </r>
       <r>   39.4496    0.0000 </r>
       <r>   41.3317    0.0000 </r>
       <r>   42.8537    0.0000 </r>
       <r>   43.7091    0.0000 </r>
       <r>   43.7091    0.0000 </r>
       <r>   45.5102    0.0000 </r>
       <r>   49.0577    0.0000 </r>
       <r>   49.3580    0.0000 </r>
       <r>   50.7403    0.0000 </r>
       <r>   55.3520    0.0000 </r>
      </set>
      <set comment="kpoint 18">
       <r>    2.2001    1.0000 </r>
       <r>    5.1151    1.0000 </r>
       <r>    5.9742    1.0000 </r>
       <r>    5.9742    1.0000 </r>
       <r>    6.4221    1.0000 </r>
       <r>    6.4721    1.0000 </r>
       <r>    6.4721    1.0000 </r>
       <r>    7.4656    1.0000 </r>
       <r>    8.1573    1.0000 </r>
       <r>    8.1573    1.0000 </r>
       <r>    8.4275    1.0000 </r>
       <r>    8.5131    1.0000 </r>
       <r>    8.6280    1.0000 </r>
       <r>    9.1178    1.0000 </r>
       <r>    9.4758    1.0000 </r>
       <r>    9.5698    1.0000 </r>
       <r>    9.5698    1.0000 </r>
       <r>    9.6613    1.0000 </r>
       <r>   10.2657    1.0000 </r>
       <r>   10.4177    1.0000 </r>
       <r>   10.4177    1.0000 </r>
       <r>   10.8254    1.0000 </r>
       <r>   16.2666    0.0000 </r>
       <r>   16.2666    0.0000 </r>
       <r>   21.2601    0.0000 </r>
       <r>   21.2601    0.0000 </r>
       <r>   24.1489    0.0000 </r>
       <r>   24.1489    0.0000 </r>
       <r>   27.1011    0.0000 </r>
       <r>   27.4692    0.0000 </r>
       <r>   27.4692    0.0000 </r>
       <r>   29.4310    0.0000 </r>
       <r>   31.1213    0.0000 </r>
       <r>   31.7756    0.0000 </r>
       <r>   35.6555    0.0000 </r>
       <r>   36.7312    0.0000 </r>
       <r>   37.0846    0.0000 </r>
       <r>   39.3296    0.0000 </r>
       <r>   39.3296    0.0000 </r>
       <r>   40.9158    0.0000 </r>
       <r>   41.9452    0.0000 </r>
       <r>   46.2454    0.0000 </r>
       <r>   46.8351    0.0000 </r>
       <r>   46.8351    0.0000 </r>
       <r>   48.5450    0.0000 </r>
       <r>   50.7545    0.0000 </r>
       <r>   51.3476    0.0000 </r>
       <r>   51.3476    0.0000 </r>
      </set>
      <set comment="kpoint 19">
       <r>    3.2892    1.0000 </r>
       <r>    4.3871    1.0000 </r>
       <r>    6.3013    1.0000 </r>
       <r>    6.3013    1.0000 </r>
       <r>    6.7563    1.0000 </r>
       <r>    6.8333    1.0000 </r>
       <r>    6.8333    1.0000 </r>
       <r>    7.1189    1.0000 </r>
       <r>    7.5148    1.0000 </r>
       <r>    7.5148    1.0000 </r>
       <r>    8.3091    1.0000 </r>
       <r>    8.3567    1.0000 </r>
       <r>    8.7878    1.0000 </r>
       <r>    9.1198    1.0000 </r>
       <r>    9.3277    1.0000 </r>
       <r>    9.3277    1.0000 </r>
       <r>    9.3531    1.0000 </r>
       <r>    9.8648    1.0000 </r>
       <r>    9.9222    1.0000 </r>
       <r>   10.0754    1.0000 </r>
       <r>   10.4025    1.0000 </r>
       <r>   10.4025    1.0000 </r>
       <r>   17.6151    0.0000 </r>
       <r>   17.6151    0.0000 </r>
       <r>   19.6931    0.0000 </r>
       <r>   19.6931    0.0000 </r>
       <r>   24.6393    0.0000 </r>
       <r>   24.6393    0.0000 </r>
       <r>   26.3921    0.0000 </r>
       <r>   26.3921    0.0000 </r>
       <r>   28.5004    0.0000 </r>
       <r>   30.0670    0.0000 </r>
       <r>   32.6523    0.0000 </r>
       <r>   32.8270    0.0000 </r>
       <r>   34.8435    0.0000 </r>
       <r>   35.1798    0.0000 </r>
       <r>   36.4768    0.0000 </r>
       <r>   38.2335    0.0000 </r>
       <r>   42.5672    0.0000 </r>
       <r>   42.5672    0.0000 </r>
       <r>   42.9865    0.0000 </r>
       <r>   44.5752    0.0000 </r>
       <r>   46.6641    0.0000 </r>
       <r>   46.6641    0.0000 </r>
       <r>   50.5933    0.0000 </r>
       <r>   50.9521    0.0000 </r>
       <r>   50.9521    0.0000 </r>
       <r>   52.4716    0.0000 </r>
      </set>
      <set comment="kpoint 20">
       <r>    1.8585    1.0000 </r>
       <r>    5.6237    1.0000 </r>
       <r>    5.6237    1.0000 </r>
       <r>    5.8331    1.0000 </r>
       <r>    6.3198    1.0000 </r>
       <r>    6.3288    1.0000 </r>
       <r>    6.3288    1.0000 </r>
       <r>    7.6645    1.0000 </r>
       <r>    8.3302    1.0000 </r>
       <r>    8.3614    1.0000 </r>
       <r>    8.5402    1.0000 </r>
       <r>    8.5402    1.0000 </r>
       <r>    8.5612    1.0000 </r>
       <r>    9.2262    1.0000 </r>
       <r>    9.5522    1.0000 </r>
       <r>    9.5942    1.0000 </r>
       <r>    9.6313    1.0000 </r>
       <r>    9.6313    1.0000 </r>
       <r>   10.3733    1.0000 </r>
       <r>   10.3733    1.0000 </r>
       <r>   10.3761    1.0000 </r>
       <r>   13.1381   -0.0000 </r>
       <r>   13.1381   -0.0000 </r>
       <r>   15.7749    0.0000 </r>
       <r>   20.9288    0.0000 </r>
       <r>   23.8986    0.0000 </r>
       <r>   23.8986    0.0000 </r>
       <r>   24.0595    0.0000 </r>
       <r>   26.4835    0.0000 </r>
       <r>   26.4835    0.0000 </r>
       <r>   29.4146    0.0000 </r>
       <r>   29.4146    0.0000 </r>
       <r>   30.5934    0.0000 </r>
       <r>   31.5081    0.0000 </r>
       <r>   35.7542    0.0000 </r>
       <r>   36.6543    0.0000 </r>
       <r>   36.8179    0.0000 </r>
       <r>   36.8179    0.0000 </r>
       <r>   40.6424    0.0000 </r>
       <r>   43.0010    0.0000 </r>
       <r>   43.9972    0.0000 </r>
       <r>   43.9972    0.0000 </r>
       <r>   45.4412    0.0000 </r>
       <r>   46.5979    0.0000 </r>
       <r>   46.6407    0.0000 </r>
       <r>   50.9190    0.0000 </r>
       <r>   50.9587    0.0000 </r>
       <r>   53.8781    0.0000 </r>
      </set>
      <set comment="kpoint 21">
       <r>    2.6823    1.0000 </r>
       <r>    5.4271    1.0000 </r>
       <r>    6.0272    1.0000 </r>
       <r>    6.1669    1.0000 </r>
       <r>    6.5279    1.0000 </r>
       <r>    6.5784    1.0000 </r>
       <r>    6.5954    1.0000 </r>
       <r>    7.4692    1.0000 </r>
       <r>    7.8861    1.0000 </r>
       <r>    8.0548    1.0000 </r>
       <r>    8.1370    1.0000 </r>
       <r>    8.3263    1.0000 </r>
       <r>    8.4941    1.0000 </r>
       <r>    9.2041    1.0000 </r>
       <r>    9.3111    1.0000 </r>
       <r>    9.3544    1.0000 </r>
       <r>    9.4263    1.0000 </r>
       <r>    9.7885    1.0000 </r>
       <r>   10.2063    1.0000 </r>
       <r>   10.2809    1.0000 </r>
       <r>   10.2840    1.0000 </r>
       <r>   11.5987    1.0000 </r>
       <r>   14.2538   -0.0000 </r>
       <r>   16.7420    0.0000 </r>
       <r>   19.2242    0.0000 </r>
       <r>   22.0155    0.0000 </r>
       <r>   24.5327    0.0000 </r>
       <r>   24.9802    0.0000 </r>
       <r>   26.7851    0.0000 </r>
       <r>   28.3144    0.0000 </r>
       <r>   29.4688    0.0000 </r>
       <r>   29.5793    0.0000 </r>
       <r>   30.4696    0.0000 </r>
       <r>   30.8308    0.0000 </r>
       <r>   34.8689    0.0000 </r>
       <r>   37.3511    0.0000 </r>
       <r>   37.3939    0.0000 </r>
       <r>   39.3859    0.0000 </r>
       <r>   39.6225    0.0000 </r>
       <r>   42.5106    0.0000 </r>
       <r>   44.5441    0.0000 </r>
       <r>   45.2036    0.0000 </r>
       <r>   46.5833    0.0000 </r>
       <r>   47.1857    0.0000 </r>
       <r>   49.7157    0.0000 </r>
       <r>   49.9316    0.0000 </r>
       <r>   50.4848    0.0000 </r>
       <r>   51.8334    0.0000 </r>
      </set>
      <set comment="kpoint 22">
       <r>    3.7110    1.0000 </r>
       <r>    4.7401    1.0000 </r>
       <r>    6.4220    1.0000 </r>
       <r>    6.5343    1.0000 </r>
       <r>    6.6344    1.0000 </r>
       <r>    6.7830    1.0000 </r>
       <r>    6.8827    1.0000 </r>
       <r>    7.1933    1.0000 </r>
       <r>    7.4718    1.0000 </r>
       <r>    7.6107    1.0000 </r>
       <r>    8.0206    1.0000 </r>
       <r>    8.1761    1.0000 </r>
       <r>    8.6974    1.0000 </r>
       <r>    8.9786    1.0000 </r>
       <r>    9.1788    1.0000 </r>
       <r>    9.2147    1.0000 </r>
       <r>    9.4521    1.0000 </r>
       <r>    9.8858    1.0000 </r>
       <r>   10.1112    1.0000 </r>
       <r>   10.2273    1.0000 </r>
       <r>   10.2288    1.0000 </r>
       <r>   10.6122    1.0000 </r>
       <r>   15.4608    0.0000 </r>
       <r>   16.6432    0.0000 </r>
       <r>   19.0484    0.0000 </r>
       <r>   20.3495    0.0000 </r>
       <r>   25.2894    0.0000 </r>
       <r>   26.2616    0.0000 </r>
       <r>   26.3018    0.0000 </r>
       <r>   27.8408    0.0000 </r>
       <r>   28.3468    0.0000 </r>
       <r>   29.3435    0.0000 </r>
       <r>   31.4838    0.0000 </r>
       <r>   33.1470    0.0000 </r>
       <r>   33.7237    0.0000 </r>
       <r>   36.9529    0.0000 </r>
       <r>   38.2564    0.0000 </r>
       <r>   39.8367    0.0000 </r>
       <r>   40.4556    0.0000 </r>
       <r>   42.3354    0.0000 </r>
       <r>   45.3509    0.0000 </r>
       <r>   45.4038    0.0000 </r>
       <r>   46.5048    0.0000 </r>
       <r>   47.4049    0.0000 </r>
       <r>   47.9147    0.0000 </r>
       <r>   50.1898    0.0000 </r>
       <r>   50.7606    0.0000 </r>
       <r>   52.0389    0.0000 </r>
      </set>
      <set comment="kpoint 23">
       <r>    3.4301    1.0000 </r>
       <r>    5.8367    1.0000 </r>
       <r>    5.8367    1.0000 </r>
       <r>    6.3282    1.0000 </r>
       <r>    6.6976    1.0000 </r>
       <r>    6.8319    1.0000 </r>
       <r>    6.8319    1.0000 </r>
       <r>    7.4225    1.0000 </r>
       <r>    7.6869    1.0000 </r>
       <r>    7.6869    1.0000 </r>
       <r>    7.8720    1.0000 </r>
       <r>    8.2260    1.0000 </r>
       <r>    8.5194    1.0000 </r>
       <r>    9.1173    1.0000 </r>
       <r>    9.1596    1.0000 </r>
       <r>    9.1596    1.0000 </r>
       <r>    9.1969    1.0000 </r>
       <r>   10.0643    1.0000 </r>
       <r>   10.0643    1.0000 </r>
       <r>   10.1265    1.0000 </r>
       <r>   10.1344    1.0000 </r>
       <r>   12.5307    0.0954 </r>
       <r>   12.5307    0.0954 </r>
       <r>   16.2295    0.0000 </r>
       <r>   18.8154    0.0000 </r>
       <r>   23.0395    0.0000 </r>
       <r>   23.0395    0.0000 </r>
       <r>   25.1368    0.0000 </r>
       <r>   27.5994    0.0000 </r>
       <r>   28.5464    0.0000 </r>
       <r>   28.5464    0.0000 </r>
       <r>   30.9023    0.0000 </r>
       <r>   30.9023    0.0000 </r>
       <r>   33.0026    0.0000 </r>
       <r>   33.0328    0.0000 </r>
       <r>   36.3354    0.0000 </r>
       <r>   40.1309    0.0000 </r>
       <r>   40.1309    0.0000 </r>
       <r>   40.4863    0.0000 </r>
       <r>   43.2199    0.0000 </r>
       <r>   44.3981    0.0000 </r>
       <r>   45.0830    0.0000 </r>
       <r>   46.0421    0.0000 </r>
       <r>   46.0421    0.0000 </r>
       <r>   49.9601    0.0000 </r>
       <r>   49.9601    0.0000 </r>
       <r>   51.2808    0.0000 </r>
       <r>   51.9189    0.0000 </r>
      </set>
      <set comment="kpoint 24">
       <r>    4.3392    1.0000 </r>
       <r>    5.2252    1.0000 </r>
       <r>    6.1897    1.0000 </r>
       <r>    6.3551    1.0000 </r>
       <r>    6.9162    1.0000 </r>
       <r>    7.0335    1.0000 </r>
       <r>    7.0966    1.0000 </r>
       <r>    7.2974    1.0000 </r>
       <r>    7.4806    1.0000 </r>
       <r>    7.6540    1.0000 </r>
       <r>    7.7634    1.0000 </r>
       <r>    8.0231    1.0000 </r>
       <r>    8.6257    1.0000 </r>
       <r>    8.8582    1.0000 </r>
       <r>    8.9601    1.0000 </r>
       <r>    8.9952    1.0000 </r>
       <r>    9.3783    1.0000 </r>
       <r>    9.7349    1.0000 </r>
       <r>    9.9808    1.0000 </r>
       <r>   10.0059    1.0000 </r>
       <r>   10.6187    1.0000 </r>
       <r>   11.3407    1.0000 </r>
       <r>   13.5921   -0.0000 </r>
       <r>   14.8420   -0.0000 </r>
       <r>   19.8816    0.0000 </r>
       <r>   21.3360    0.0000 </r>
       <r>   24.3260    0.0000 </r>
       <r>   25.8488    0.0000 </r>
       <r>   26.0226    0.0000 </r>
       <r>   27.1944    0.0000 </r>
       <r>   29.8529    0.0000 </r>
       <r>   31.3269    0.0000 </r>
       <r>   31.7202    0.0000 </r>
       <r>   32.8044    0.0000 </r>
       <r>   34.4714    0.0000 </r>
       <r>   38.1066    0.0000 </r>
       <r>   38.5268    0.0000 </r>
       <r>   40.8752    0.0000 </r>
       <r>   41.4648    0.0000 </r>
       <r>   41.8520    0.0000 </r>
       <r>   44.5580    0.0000 </r>
       <r>   45.0467    0.0000 </r>
       <r>   45.2769    0.0000 </r>
       <r>   47.5383    0.0000 </r>
       <r>   48.1625    0.0000 </r>
       <r>   49.6602    0.0000 </r>
       <r>   51.2958    0.0000 </r>
       <r>   52.0539    0.0000 </r>
      </set>
      <set comment="kpoint 25">
       <r>    5.0511    1.0000 </r>
       <r>    5.6996    1.0000 </r>
       <r>    5.6996    1.0000 </r>
       <r>    6.0694    1.0000 </r>
       <r>    7.2610    1.0000 </r>
       <r>    7.3464    1.0000 </r>
       <r>    7.3464    1.0000 </r>
       <r>    7.3828    1.0000 </r>
       <r>    7.5779    1.0000 </r>
       <r>    7.5779    1.0000 </r>
       <r>    7.6068    1.0000 </r>
       <r>    7.8433    1.0000 </r>
       <r>    8.5968    1.0000 </r>
       <r>    8.7418    1.0000 </r>
       <r>    8.7418    1.0000 </r>
       <r>    8.7669    1.0000 </r>
       <r>    9.4354    1.0000 </r>
       <r>    9.6811    1.0000 </r>
       <r>    9.6811    1.0000 </r>
       <r>    9.7901    1.0000 </r>
       <r>   11.2790    1.0000 </r>
       <r>   12.2087    1.0006 </r>
       <r>   12.2087    1.0006 </r>
       <r>   13.3369   -0.0000 </r>
       <r>   21.1110    0.0000 </r>
       <r>   22.5970    0.0000 </r>
       <r>   22.5970    0.0000 </r>
       <r>   24.1025    0.0000 </r>
       <r>   27.0264    0.0000 </r>
       <r>   28.3167    0.0000 </r>
       <r>   28.3167    0.0000 </r>
       <r>   29.6990    0.0000 </r>
       <r>   35.4272    0.0000 </r>
       <r>   35.4272    0.0000 </r>
       <r>   36.0920    0.0000 </r>
       <r>   37.2944    0.0000 </r>
       <r>   38.8240    0.0000 </r>
       <r>   39.5963    0.0000 </r>
       <r>   40.2800    0.0000 </r>
       <r>   40.2800    0.0000 </r>
       <r>   45.5569    0.0000 </r>
       <r>   45.5569    0.0000 </r>
       <r>   46.0508    0.0000 </r>
       <r>   46.9841    0.0000 </r>
       <r>   48.9110    0.0000 </r>
       <r>   49.2439    0.0000 </r>
       <r>   50.1136    0.0000 </r>
       <r>   50.1136    0.0000 </r>
      </set>
      <set comment="kpoint 26">
       <r>    2.3475    1.0000 </r>
       <r>    5.8271    1.0000 </r>
       <r>    5.8271    1.0000 </r>
       <r>    5.8271    1.0000 </r>
       <r>    6.4840    1.0000 </r>
       <r>    6.4840    1.0000 </r>
       <r>    6.4840    1.0000 </r>
       <r>    7.6447    1.0000 </r>
       <r>    8.2810    1.0000 </r>
       <r>    8.2810    1.0000 </r>
       <r>    8.2810    1.0000 </r>
       <r>    8.3301    1.0000 </r>
       <r>    8.3301    1.0000 </r>
       <r>    9.3017    1.0000 </r>
       <r>    9.3017    1.0000 </r>
       <r>    9.3017    1.0000 </r>
       <r>    9.4593    1.0000 </r>
       <r>    9.4593    1.0000 </r>
       <r>   10.4279    1.0000 </r>
       <r>   10.4279    1.0000 </r>
       <r>   10.4279    1.0000 </r>
       <r>   13.7752   -0.0000 </r>
       <r>   13.7752   -0.0000 </r>
       <r>   13.7752   -0.0000 </r>
       <r>   21.7222    0.0000 </r>
       <r>   21.7222    0.0000 </r>
       <r>   21.7222    0.0000 </r>
       <r>   26.8436    0.0000 </r>
       <r>   26.8436    0.0000 </r>
       <r>   26.8436    0.0000 </r>
       <r>   29.3144    0.0000 </r>
       <r>   31.3366    0.0000 </r>
       <r>   31.3366    0.0000 </r>
       <r>   31.3366    0.0000 </r>
       <r>   35.9577    0.0000 </r>
       <r>   35.9577    0.0000 </r>
       <r>   35.9577    0.0000 </r>
       <r>   37.9337    0.0000 </r>
       <r>   40.6699    0.0000 </r>
       <r>   40.6699    0.0000 </r>
       <r>   46.8796    0.0000 </r>
       <r>   46.8796    0.0000 </r>
       <r>   46.8796    0.0000 </r>
       <r>   47.1287    0.0000 </r>
       <r>   47.1287    0.0000 </r>
       <r>   47.5774    0.0000 </r>
       <r>   53.7020    0.0000 </r>
       <r>   53.7843    0.0000 </r>
      </set>
      <set comment="kpoint 27">
       <r>    3.1088    1.0000 </r>
       <r>    5.5855    1.0000 </r>
       <r>    6.0707    1.0000 </r>
       <r>    6.0707    1.0000 </r>
       <r>    6.7108    1.0000 </r>
       <r>    6.7108    1.0000 </r>
       <r>    6.7680    1.0000 </r>
       <r>    7.5487    1.0000 </r>
       <r>    7.9509    1.0000 </r>
       <r>    7.9509    1.0000 </r>
       <r>    8.0108    1.0000 </r>
       <r>    8.2929    1.0000 </r>
       <r>    8.3629    1.0000 </r>
       <r>    8.9822    1.0000 </r>
       <r>    9.0885    1.0000 </r>
       <r>    9.0885    1.0000 </r>
       <r>    9.4812    1.0000 </r>
       <r>    9.7418    1.0000 </r>
       <r>   10.3488    1.0000 </r>
       <r>   10.3488    1.0000 </r>
       <r>   10.3869    1.0000 </r>
       <r>   12.0032    1.0000 </r>
       <r>   14.5935   -0.0000 </r>
       <r>   14.5935   -0.0000 </r>
       <r>   19.9121    0.0000 </r>
       <r>   19.9121    0.0000 </r>
       <r>   22.7609    0.0000 </r>
       <r>   27.3333    0.0000 </r>
       <r>   27.4257    0.0000 </r>
       <r>   27.4257    0.0000 </r>
       <r>   30.0969    0.0000 </r>
       <r>   31.1062    0.0000 </r>
       <r>   31.1062    0.0000 </r>
       <r>   32.5342    0.0000 </r>
       <r>   36.4134    0.0000 </r>
       <r>   36.9141    0.0000 </r>
       <r>   37.6215    0.0000 </r>
       <r>   37.6215    0.0000 </r>
       <r>   38.2845    0.0000 </r>
       <r>   42.9146    0.0000 </r>
       <r>   43.8028    0.0000 </r>
       <r>   47.3934    0.0000 </r>
       <r>   47.9717    0.0000 </r>
       <r>   48.9759    0.0000 </r>
       <r>   48.9759    0.0000 </r>
       <r>   49.0370    0.0000 </r>
       <r>   51.3846    0.0000 </r>
       <r>   51.3846    0.0000 </r>
      </set>
      <set comment="kpoint 28">
       <r>    4.0392    1.0000 </r>
       <r>    4.9505    1.0000 </r>
       <r>    6.2626    1.0000 </r>
       <r>    6.2626    1.0000 </r>
       <r>    6.8459    1.0000 </r>
       <r>    6.8459    1.0000 </r>
       <r>    7.0910    1.0000 </r>
       <r>    7.3613    1.0000 </r>
       <r>    7.7781    1.0000 </r>
       <r>    7.7781    1.0000 </r>
       <r>    7.9642    1.0000 </r>
       <r>    8.1293    1.0000 </r>
       <r>    8.4856    1.0000 </r>
       <r>    8.6983    1.0000 </r>
       <r>    8.9409    1.0000 </r>
       <r>    8.9409    1.0000 </r>
       <r>    9.8602    1.0000 </r>
       <r>   10.0173    1.0000 </r>
       <r>   10.2436    1.0000 </r>
       <r>   10.2630    1.0000 </r>
       <r>   10.2630    1.0000 </r>
       <r>   10.6900    1.0000 </r>
       <r>   15.3024    0.0000 </r>
       <r>   15.3024    0.0000 </r>
       <r>   18.7180    0.0000 </r>
       <r>   18.7180    0.0000 </r>
       <r>   24.0543    0.0000 </r>
       <r>   25.5808    0.0000 </r>
       <r>   28.1443    0.0000 </r>
       <r>   28.1443    0.0000 </r>
       <r>   30.0478    0.0000 </r>
       <r>   30.0478    0.0000 </r>
       <r>   33.2414    0.0000 </r>
       <r>   34.1339    0.0000 </r>
       <r>   35.4829    0.0000 </r>
       <r>   36.0739    0.0000 </r>
       <r>   37.4570    0.0000 </r>
       <r>   39.8138    0.0000 </r>
       <r>   40.3787    0.0000 </r>
       <r>   40.3787    0.0000 </r>
       <r>   46.0820    0.0000 </r>
       <r>   46.0820    0.0000 </r>
       <r>   46.4846    0.0000 </r>
       <r>   48.1503    0.0000 </r>
       <r>   48.9987    0.0000 </r>
       <r>   49.1147    0.0000 </r>
       <r>   49.5411    0.0000 </r>
       <r>   50.5042    0.0000 </r>
      </set>
      <set comment="kpoint 29">
       <r>    3.7517    1.0000 </r>
       <r>    5.7503    1.0000 </r>
       <r>    5.7503    1.0000 </r>
       <r>    6.0409    1.0000 </r>
       <r>    6.9527    1.0000 </r>
       <r>    7.0534    1.0000 </r>
       <r>    7.0534    1.0000 </r>
       <r>    7.6385    1.0000 </r>
       <r>    7.8825    1.0000 </r>
       <r>    7.8825    1.0000 </r>
       <r>    8.0010    1.0000 </r>
       <r>    8.2284    1.0000 </r>
       <r>    8.3041    1.0000 </r>
       <r>    8.7913    1.0000 </r>
       <r>    8.7913    1.0000 </r>
       <r>    8.8163    1.0000 </r>
       <r>    9.5601    1.0000 </r>
       <r>    9.9973    1.0000 </r>
       <r>   10.2962    1.0000 </r>
       <r>   10.3197    1.0000 </r>
       <r>   10.3197    1.0000 </r>
       <r>   12.6788   -0.0068 </r>
       <r>   12.6788   -0.0068 </r>
       <r>   14.7848   -0.0000 </r>
       <r>   18.5650    0.0000 </r>
       <r>   20.8761    0.0000 </r>
       <r>   20.8761    0.0000 </r>
       <r>   25.3363    0.0000 </r>
       <r>   28.1083    0.0000 </r>
       <r>   30.5046    0.0000 </r>
       <r>   30.5046    0.0000 </r>
       <r>   32.3317    0.0000 </r>
       <r>   32.3317    0.0000 </r>
       <r>   33.6617    0.0000 </r>
       <r>   35.6789    0.0000 </r>
       <r>   36.4713    0.0000 </r>
       <r>   38.0936    0.0000 </r>
       <r>   38.0936    0.0000 </r>
       <r>   39.3354    0.0000 </r>
       <r>   42.4439    0.0000 </r>
       <r>   43.7058    0.0000 </r>
       <r>   45.5835    0.0000 </r>
       <r>   47.7037    0.0000 </r>
       <r>   47.7037    0.0000 </r>
       <r>   50.2763    0.0000 </r>
       <r>   50.3462    0.0000 </r>
       <r>   50.4396    0.0000 </r>
       <r>   51.4574    0.0000 </r>
      </set>
      <set comment="kpoint 30">
       <r>    4.4996    1.0000 </r>
       <r>    5.2069    1.0000 </r>
       <r>    5.8776    1.0000 </r>
       <r>    5.9710    1.0000 </r>
       <r>    7.1622    1.0000 </r>
       <r>    7.2213    1.0000 </r>
       <r>    7.4318    1.0000 </r>
       <r>    7.6448    1.0000 </r>
       <r>    7.9040    1.0000 </r>
       <r>    7.9255    1.0000 </r>
       <r>    8.0177    1.0000 </r>
       <r>    8.0597    1.0000 </r>
       <r>    8.3588    1.0000 </r>
       <r>    8.5326    1.0000 </r>
       <r>    8.6635    1.0000 </r>
       <r>    8.6709    1.0000 </r>
       <r>    9.7890    1.0000 </r>
       <r>   10.1366    1.0000 </r>
       <r>   10.2028    1.0000 </r>
       <r>   10.2060    1.0000 </r>
       <r>   10.4391    1.0000 </r>
       <r>   11.2513    1.0000 </r>
       <r>   13.5016   -0.0000 </r>
       <r>   14.3405   -0.0000 </r>
       <r>   18.4793    0.0000 </r>
       <r>   19.3997    0.0000 </r>
       <r>   22.1108    0.0000 </r>
       <r>   23.5977    0.0000 </r>
       <r>   29.0268    0.0000 </r>
       <r>   30.0775    0.0000 </r>
       <r>   32.3426    0.0000 </r>
       <r>   32.6095    0.0000 </r>
       <r>   33.3158    0.0000 </r>
       <r>   34.1389    0.0000 </r>
       <r>   34.9033    0.0000 </r>
       <r>   37.7781    0.0000 </r>
       <r>   38.5648    0.0000 </r>
       <r>   38.9965    0.0000 </r>
       <r>   40.1551    0.0000 </r>
       <r>   40.7994    0.0000 </r>
       <r>   44.5748    0.0000 </r>
       <r>   45.1353    0.0000 </r>
       <r>   46.2753    0.0000 </r>
       <r>   46.7232    0.0000 </r>
       <r>   46.7566    0.0000 </r>
       <r>   49.3252    0.0000 </r>
       <r>   51.1951    0.0000 </r>
       <r>   51.5335    0.0000 </r>
      </set>
      <set comment="kpoint 31">
       <r>    4.9924    1.0000 </r>
       <r>    5.4547    1.0000 </r>
       <r>    5.4547    1.0000 </r>
       <r>    5.7010    1.0000 </r>
       <r>    7.4709    1.0000 </r>
       <r>    7.6231    1.0000 </r>
       <r>    7.6231    1.0000 </r>
       <r>    7.8924    1.0000 </r>
       <r>    7.9666    1.0000 </r>
       <r>    8.0083    1.0000 </r>
       <r>    8.0083    1.0000 </r>
       <r>    8.1335    1.0000 </r>
       <r>    8.3121    1.0000 </r>
       <r>    8.4393    1.0000 </r>
       <r>    8.4393    1.0000 </r>
       <r>    8.4697    1.0000 </r>
       <r>    9.7923    1.0000 </r>
       <r>   10.0115    1.0000 </r>
       <r>   10.0115    1.0000 </r>
       <r>   10.0643    1.0000 </r>
       <r>   11.0633    1.0000 </r>
       <r>   12.0287    1.0000 </r>
       <r>   12.0287    1.0000 </r>
       <r>   13.0672   -0.0000 </r>
       <r>   19.2490    0.0000 </r>
       <r>   20.5010    0.0000 </r>
       <r>   20.5010    0.0000 </r>
       <r>   21.9054    0.0000 </r>
       <r>   30.0452    0.0000 </r>
       <r>   31.2884    0.0000 </r>
       <r>   31.2884    0.0000 </r>
       <r>   32.6284    0.0000 </r>
       <r>   35.7706    0.0000 </r>
       <r>   35.7706    0.0000 </r>
       <r>   36.5950    0.0000 </r>
       <r>   37.2608    0.0000 </r>
       <r>   38.3833    0.0000 </r>
       <r>   39.7545    0.0000 </r>
       <r>   39.7545    0.0000 </r>
       <r>   39.9724    0.0000 </r>
       <r>   44.7547    0.0000 </r>
       <r>   44.8502    0.0000 </r>
       <r>   44.8502    0.0000 </r>
       <r>   45.8454    0.0000 </r>
       <r>   47.3219    0.0000 </r>
       <r>   47.7594    0.0000 </r>
       <r>   48.4477    0.0000 </r>
       <r>   48.4477    0.0000 </r>
      </set>
      <set comment="kpoint 32">
       <r>    4.2088    1.0000 </r>
       <r>    5.6486    1.0000 </r>
       <r>    5.6486    1.0000 </r>
       <r>    5.6486    1.0000 </r>
       <r>    7.3322    1.0000 </r>
       <r>    7.3322    1.0000 </r>
       <r>    7.3322    1.0000 </r>
       <r>    7.9887    1.0000 </r>
       <r>    8.1423    1.0000 </r>
       <r>    8.1423    1.0000 </r>
       <r>    8.1423    1.0000 </r>
       <r>    8.1897    1.0000 </r>
       <r>    8.1897    1.0000 </r>
       <r>    8.5259    1.0000 </r>
       <r>    8.5259    1.0000 </r>
       <r>    8.5259    1.0000 </r>
       <r>    9.8992    1.0000 </r>
       <r>    9.8992    1.0000 </r>
       <r>   10.3799    1.0000 </r>
       <r>   10.3799    1.0000 </r>
       <r>   10.3799    1.0000 </r>
       <r>   12.9091   -0.0000 </r>
       <r>   12.9091   -0.0000 </r>
       <r>   12.9091   -0.0000 </r>
       <r>   19.2174    0.0000 </r>
       <r>   19.2174    0.0000 </r>
       <r>   19.2174    0.0000 </r>
       <r>   23.3562    0.0000 </r>
       <r>   31.3216    0.0000 </r>
       <r>   31.3216    0.0000 </r>
       <r>   31.3216    0.0000 </r>
       <r>   34.6997    0.0000 </r>
       <r>   34.6997    0.0000 </r>
       <r>   34.6997    0.0000 </r>
       <r>   36.6864    0.0000 </r>
       <r>   36.8734    0.0000 </r>
[...]
       <r>   45.3870    0.0000 </r>
       <r>   45.3870    0.0000 </r>
       <r>   45.5854    0.0000 </r>
       <r>   46.1632    0.0000 </r>
       <r>   46.9469    0.0000 </r>
       <r>   48.8882    0.0000 </r>
       <r>   48.8882    0.0000 </r>
      </set>
      <set comment="kpoint 34">
       <r>    4.9570    1.0000 </r>
       <r>    5.2435    1.0000 </r>
       <r>    5.2435    1.0000 </r>
       <r>    5.3681    1.0000 </r>
       <r>    7.7285    1.0000 </r>
       <r>    7.8156    1.0000 </r>
       <r>    7.8156    1.0000 </r>
       <r>    8.0142    1.0000 </r>
       <r>    8.1126    1.0000 </r>
       <r>    8.1923    1.0000 </r>
       <r>    8.1923    1.0000 </r>
       <r>    8.2183    1.0000 </r>
       <r>    8.7261    1.0000 </r>
       <r>    8.7261    1.0000 </r>
       <r>    8.7566    1.0000 </r>
       <r>    8.7856    1.0000 </r>
       <r>   10.0939    1.0000 </r>
       <r>   10.2636    1.0000 </r>
       <r>   10.2636    1.0000 </r>
       <r>   10.2701    1.0000 </r>
       <r>   10.6918    1.0000 </r>
       <r>   11.6790    1.0000 </r>
       <r>   11.6790    1.0000 </r>
       <r>   12.3724    1.0268 </r>
       <r>   18.2077    0.0000 </r>
       <r>   18.9518    0.0000 </r>
       <r>   18.9518    0.0000 </r>
       <r>   20.1162    0.0000 </r>
       <r>   33.0625    0.0000 </r>
       <r>   33.9637    0.0000 </r>
       <r>   33.9637    0.0000 </r>
       <r>   35.1464    0.0000 </r>
       <r>   36.6411    0.0000 </r>
       <r>   36.6411    0.0000 </r>
       <r>   37.4281    0.0000 </r>
       <r>   37.4913    0.0000 </r>
       <r>   38.3914    0.0000 </r>
       <r>   39.1290    0.0000 </r>
       <r>   39.1290    0.0000 </r>
       <r>   40.3747    0.0000 </r>
       <r>   42.9766    0.0000 </r>
       <r>   44.2201    0.0000 </r>
       <r>   44.2201    0.0000 </r>
       <r>   44.7520    0.0000 </r>
       <r>   45.4486    0.0000 </r>
       <r>   46.0954    0.0000 </r>
       <r>   46.3122    0.0000 </r>
       <r>   46.3122    0.0000 </r>
      </set>
      <set comment="kpoint 35">
       <r>    4.9922    1.0000 </r>
       <r>    5.1269    1.0000 </r>
       <r>    5.1269    1.0000 </r>
       <r>    5.1269    1.0000 </r>
       <r>    7.9310    1.0000 </r>
       <r>    7.9310    1.0000 </r>
       <r>    7.9310    1.0000 </r>
       <r>    8.0266    1.0000 </r>
       <r>    8.0266    1.0000 </r>
       <r>    8.0635    1.0000 </r>
       <r>    8.0635    1.0000 </r>
       <r>    8.0635    1.0000 </r>
       <r>    9.4212    1.0000 </r>
       <r>    9.4212    1.0000 </r>
       <r>    9.4212    1.0000 </r>
       <r>    9.7744    1.0000 </r>
       <r>   10.2903    1.0000 </r>
       <r>   10.2903    1.0000 </r>
       <r>   10.3517    1.0000 </r>
       <r>   10.3517    1.0000 </r>
       <r>   10.3517    1.0000 </r>
       <r>   11.2521    1.0000 </r>
       <r>   11.2521    1.0000 </r>
       <r>   11.2521    1.0000 </r>
       <r>   18.1342    0.0000 </r>
       <r>   18.1342    0.0000 </r>
       <r>   18.1342    0.0000 </r>
       <r>   18.8282    0.0000 </r>
       <r>   35.1595    0.0000 </r>
       <r>   35.1595    0.0000 </r>
       <r>   35.1595    0.0000 </r>
       <r>   35.8153    0.0000 </r>
       <r>   38.5609    0.0000 </r>
       <r>   38.5609    0.0000 </r>
       <r>   38.5609    0.0000 </r>
       <r>   38.7436    0.0000 </r>
       <r>   38.7436    0.0000 </r>
       <r>   38.7436    0.0000 </r>
       <r>   39.8307    0.0000 </r>
       <r>   39.8307    0.0000 </r>
       <r>   42.7370    0.0000 </r>
       <r>   42.7370    0.0000 </r>
       <r>   43.8491    0.0000 </r>
       <r>   43.8491    0.0000 </r>
       <r>   43.8491    0.0000 </r>
       <r>   43.8622    0.0000 </r>
       <r>   43.8622    0.0000 </r>
       <r>   43.8622    0.0000 </r>
      </set>
     </set>
    </set>
   </array>
  </eigenvalues>
  <separator name="orbital magnetization" >
   <v name="MAGDIPOLOUT">      0.00000000      0.00000000      0.00000000</v>
  </separator>
  <dos>
   <i name="efermi">     12.47403519 </i>
   <total>
    <array>
     <dimension dim="1">gridpoints</dimension>
     <dimension dim="2">spin</dimension>
     <field>energy</field>
     <field>total</field>
     <field>integrated</field>
     <set>
      <set comment="spin 1">
       <r>    -2.6474     0.0000     0.0000 </r>
       <r>    -2.4366     0.0000     0.0000 </r>
       <r>    -2.2257     0.0000     0.0000 </r>
       <r>    -2.0149     0.0000     0.0000 </r>
       <r>    -1.8041     0.0000     0.0000 </r>
       <r>    -1.5932     0.0000     0.0000 </r>
       <r>    -1.3824     0.0000     0.0000 </r>
       <r>    -1.1715     0.0000     0.0000 </r>
       <r>    -0.9607     0.0000     0.0000 </r>
       <r>    -0.7499    -0.0000    -0.0000 </r>
       <r>    -0.5390    -0.0000    -0.0000 </r>
       <r>    -0.3282    -0.0000    -0.0000 </r>
       <r>    -0.1174    -0.0000    -0.0000 </r>
       <r>     0.0935    -0.0004    -0.0001 </r>
       <r>     0.3043     0.0105     0.0021 </r>
       <r>     0.5152     0.0809     0.0192 </r>
       <r>     0.7260     0.1679     0.0546 </r>
       <r>     0.9368     0.1096     0.0777 </r>
       <r>     1.1477     0.1889     0.1175 </r>
       <r>     1.3585     0.4011     0.2021 </r>
       <r>     1.5694     0.0907     0.2212 </r>
       <r>     1.7802     0.1671     0.2564 </r>
       <r>     1.9910     0.4485     0.3510 </r>
       <r>     2.2019     0.4120     0.4379 </r>
       <r>     2.4127     0.2367     0.4878 </r>
       <r>     2.6235     0.3852     0.5690 </r>
       <r>     2.8344     0.5819     0.6917 </r>
       <r>     3.0452     0.0704     0.7065 </r>
       <r>     3.2561     0.7196     0.8582 </r>
       <r>     3.4669     0.6100     0.9868 </r>
       <r>     3.6777     0.5376     1.1002 </r>
       <r>     3.8886     0.7917     1.2671 </r>
       <r>     4.0994     0.2865     1.3275 </r>
       <r>     4.3103     0.8760     1.5122 </r>
       <r>     4.5211     1.3091     1.7882 </r>
       <r>     4.7319     0.9740     1.9936 </r>
       <r>     4.9428     0.8608     2.1751 </r>
       <r>     5.1536     2.3674     2.6742 </r>
       <r>     5.3644     4.3267     3.5864 </r>
       <r>     5.5753     3.1680     4.2544 </r>
       <r>     5.7861     3.7245     5.0396 </r>
       <r>     5.9970     5.4865     6.1964 </r>
       <r>     6.2078     5.8551     7.4309 </r>
       <r>     6.4186     6.3093     8.7611 </r>
       <r>     6.6295     6.3452    10.0989 </r>
       <r>     6.8403     5.3321    11.2231 </r>
       <r>     7.0511     4.9228    12.2611 </r>
       <r>     7.2620     6.0954    13.5462 </r>
       <r>     7.4728     6.0995    14.8322 </r>
       <r>     7.6837     8.5525    16.6354 </r>
       <r>     7.8945     6.6866    18.0452 </r>
       <r>     8.1053    10.4060    20.2392 </r>
       <r>     8.3162    10.5816    22.4702 </r>
       <r>     8.5270     9.1287    24.3948 </r>
       <r>     8.7379     7.1905    25.9109 </r>
       <r>     8.9487     6.3367    27.2469 </r>
       <r>     9.1595     7.7744    28.8860 </r>
       <r>     9.3704     8.7062    30.7216 </r>
       <r>     9.5812     8.7523    32.5670 </r>
       <r>     9.7920     7.2091    34.0869 </r>
       <r>    10.0029     8.3024    35.8374 </r>
       <r>    10.2137    10.3347    38.0163 </r>
       <r>    10.4246    12.7393    40.7022 </r>
       <r>    10.6354     6.2667    42.0235 </r>
       <r>    10.8462     1.6854    42.3789 </r>
       <r>    11.0571     0.2754    42.4369 </r>
       <r>    11.2679     1.0358    42.6553 </r>
       <r>    11.4787     1.9485    43.0661 </r>
       <r>    11.6896     1.1875    43.3165 </r>
       <r>    11.9004     0.5302    43.4283 </r>
       <r>    12.1113     0.9382    43.6261 </r>
       <r>    12.3221     1.3040    43.9010 </r>
       <r>    12.5329     0.8558    44.0815 </r>
       <r>    12.7438     0.9849    44.2891 </r>
       <r>    12.9546     0.5922    44.4140 </r>
       <r>    13.1655     1.4409    44.7178 </r>
       <r>    13.3763     0.7182    44.8692 </r>
       <r>    13.5871     1.3507    45.1540 </r>
       <r>    13.7980     0.8134    45.3255 </r>
       <r>    14.0088     0.3467    45.3986 </r>
       <r>    14.2196     0.5202    45.5083 </r>
       <r>    14.4305     1.1987    45.7610 </r>
       <r>    14.6413     0.7748    45.9244 </r>
       <r>    14.8522     1.0055    46.1364 </r>
       <r>    15.0630     1.2206    46.3937 </r>
       <r>    15.2738     0.1183    46.4187 </r>
       <r>    15.4847     1.2138    46.6746 </r>
       <r>    15.6955     0.3632    46.7512 </r>
       <r>    15.9063     0.3324    46.8212 </r>
       <r>    16.1172     0.5734    46.9421 </r>
       <r>    16.3280     0.9184    47.1358 </r>
       <r>    16.5389     0.0744    47.1515 </r>
       <r>    16.7497     1.1073    47.3849 </r>
       <r>    16.9605     0.6195    47.5155 </r>
       <r>    17.1714     0.1487    47.5469 </r>
       <r>    17.3822     0.1066    47.5694 </r>
       <r>    17.5931     0.7388    47.7251 </r>
       <r>    17.8039     0.5307    47.8370 </r>
       <r>    18.0147    -0.0221    47.8324 </r>
       <r>    18.2256     0.5818    47.9550 </r>
       <r>    18.4364     0.9979    48.1654 </r>
       <r>    18.6472     1.2812    48.4355 </r>
       <r>    18.8581     0.9233    48.6302 </r>
       <r>    19.0689     1.2446    48.8926 </r>
       <r>    19.2798     1.7229    49.2559 </r>
       <r>    19.4906     1.0256    49.4721 </r>
       <r>    19.7014     0.4114    49.5588 </r>
       <r>    19.9123     1.1379    49.7987 </r>
       <r>    20.1231     0.8735    49.9829 </r>
       <r>    20.3340     0.7032    50.1312 </r>
       <r>    20.5448     1.1462    50.3728 </r>
       <r>    20.7556     0.1262    50.3994 </r>
       <r>    20.9665     1.2214    50.6569 </r>
       <r>    21.1773     0.4600    50.7539 </r>
       <r>    21.3881     1.8421    51.1423 </r>
       <r>    21.5990     0.0303    51.1487 </r>
       <r>    21.8098     0.6225    51.2800 </r>
       <r>    22.0207     1.5270    51.6019 </r>
       <r>    22.2315     1.2750    51.8708 </r>
       <r>    22.4423     0.1762    51.9079 </r>
       <r>    22.6532     0.5701    52.0281 </r>
       <r>    22.8640     1.2335    52.2882 </r>
       <r>    23.0748     1.5187    52.6084 </r>
       <r>    23.2857     1.4942    52.9234 </r>
       <r>    23.4965     1.0637    53.1477 </r>
       <r>    23.7074     1.5563    53.4758 </r>
       <r>    23.9182     0.3687    53.5536 </r>
       <r>    24.1290     2.2579    54.0296 </r>
       <r>    24.3399     1.2861    54.3008 </r>
       <r>    24.5507     1.2045    54.5547 </r>
       <r>    24.7616     0.9564    54.7564 </r>
       <r>    24.9724     0.2838    54.8162 </r>
       <r>    25.1832     1.4441    55.1207 </r>
       <r>    25.3941     2.1222    55.5681 </r>
       <r>    25.6049     0.9838    55.7756 </r>
       <r>    25.8157     0.7559    55.9349 </r>
       <r>    26.0266     1.4563    56.2420 </r>
       <r>    26.2374     1.5013    56.5585 </r>
       <r>    26.4483     2.4951    57.0846 </r>
       <r>    26.6591     1.0088    57.2973 </r>
       <r>    26.8699     1.0253    57.5134 </r>
       <r>    27.0808     0.5468    57.6287 </r>
       <r>    27.2916     1.5930    57.9646 </r>
       <r>    27.5024     2.2162    58.4318 </r>
       <r>    27.7133     1.2408    58.6935 </r>
       <r>    27.9241     1.2765    58.9626 </r>
       <r>    28.1350     1.2333    59.2226 </r>
       <r>    28.3458     1.8963    59.6224 </r>
       <r>    28.5566     2.0457    60.0538 </r>
       <r>    28.7675     1.5459    60.3797 </r>
       <r>    28.9783     0.5612    60.4980 </r>
       <r>    29.1892     1.2489    60.7613 </r>
       <r>    29.4000     1.7972    61.1402 </r>
       <r>    29.6108     1.7570    61.5107 </r>
       <r>    29.8217     0.9474    61.7104 </r>
       <r>    30.0325     1.3918    62.0039 </r>
       <r>    30.2433     2.3396    62.4971 </r>
       <r>    30.4542     0.7590    62.6572 </r>
       <r>    30.6650     1.6527    63.0056 </r>
       <r>    30.8759     1.5584    63.3342 </r>
       <r>    31.0867     1.1460    63.5758 </r>
       <r>    31.2975     1.3281    63.8558 </r>
       <r>    31.5084     1.8331    64.2423 </r>
       <r>    31.7192     1.2605    64.5081 </r>
       <r>    31.9301     0.6062    64.6359 </r>
       <r>    32.1409     0.6386    64.7705 </r>
       <r>    32.3517     1.2044    65.0245 </r>
       <r>    32.5626     0.9171    65.2178 </r>
       <r>    32.7734     2.1744    65.6763 </r>
       <r>    32.9842     1.2410    65.9379 </r>
       <r>    33.1951     1.6672    66.2894 </r>
       <r>    33.4059     1.0629    66.5135 </r>
       <r>    33.6168     0.4545    66.6093 </r>
       <r>    33.8276     1.6713    66.9617 </r>
       <r>    34.0384     0.6192    67.0923 </r>
       <r>    34.2493     1.3409    67.3750 </r>
       <r>    34.4601     1.3834    67.6666 </r>
       <r>    34.6709     0.5454    67.7816 </r>
       <r>    34.8818     1.7904    68.1591 </r>
       <r>    35.0926     1.5376    68.4833 </r>
       <r>    35.3035     1.9697    68.8986 </r>
       <r>    35.5143     1.1378    69.1385 </r>
       <r>    35.7251     1.3492    69.4230 </r>
       <r>    35.9360     1.4716    69.7332 </r>
       <r>    36.1468     1.0321    69.9508 </r>
       <r>    36.3577     1.0829    70.1791 </r>
       <r>    36.5685     2.2729    70.6583 </r>
       <r>    36.7793     1.9224    71.0637 </r>
       <r>    36.9902     1.9800    71.4811 </r>
       <r>    37.2010     0.4779    71.5819 </r>
       <r>    37.4118     3.0896    72.2333 </r>
       <r>    37.6227     1.7231    72.5966 </r>
       <r>    37.8335     1.1018    72.8289 </r>
       <r>    38.0444     1.0144    73.0427 </r>
       <r>    38.2552     2.3030    73.5283 </r>
       <r>    38.4660     1.6687    73.8801 </r>
       <r>    38.6769     2.1029    74.3235 </r>
       <r>    38.8877     1.3664    74.6116 </r>
       <r>    39.0985     1.2080    74.8663 </r>
       <r>    39.3094     1.8642    75.2593 </r>
       <r>    39.5202     1.8119    75.6413 </r>
       <r>    39.7311     1.3793    75.9321 </r>
       <r>    39.9419     2.0701    76.3686 </r>
       <r>    40.1527     1.4730    76.6792 </r>
       <r>    40.3636     2.1075    77.1235 </r>
       <r>    40.5744     2.8917    77.7332 </r>
       <r>    40.7853     1.1131    77.9679 </r>
       <r>    40.9961     2.2633    78.4451 </r>
       <r>    41.2069     0.2968    78.5076 </r>
       <r>    41.4178     0.9826    78.7148 </r>
       <r>    41.6286     1.1306    78.9532 </r>
       <r>    41.8394     0.8347    79.1292 </r>
       <r>    42.0503     1.2191    79.3862 </r>
       <r>    42.2611     0.4206    79.4749 </r>
       <r>    42.4720     1.4541    79.7814 </r>
       <r>    42.6828     1.9123    80.1846 </r>
       <r>    42.8936     0.5574    80.3022 </r>
       <r>    43.1045     1.6986    80.6603 </r>
       <r>    43.3153     0.8618    80.8420 </r>
       <r>    43.5261     0.3672    80.9194 </r>
       <r>    43.7370     1.6557    81.2685 </r>
       <r>    43.9478     1.9991    81.6900 </r>
       <r>    44.1587     1.2898    81.9619 </r>
       <r>    44.3695     1.0054    82.1739 </r>
       <r>    44.5803     2.2104    82.6400 </r>
       <r>    44.7912     1.5314    82.9628 </r>
       <r>    45.0020     0.8466    83.1413 </r>
       <r>    45.2129     2.4056    83.6485 </r>
       <r>    45.4237     3.3293    84.3505 </r>
       <r>    45.6345     2.3124    84.8380 </r>
       <r>    45.8454     0.2514    84.8910 </r>
       <r>    46.0562     1.7710    85.2644 </r>
       <r>    46.2670     2.3519    85.7603 </r>
       <r>    46.4779     1.9376    86.1688 </r>
       <r>    46.6887     2.7603    86.7508 </r>
       <r>    46.8996     2.3669    87.2498 </r>
       <r>    47.1104     0.9351    87.4470 </r>
       <r>    47.3212     1.9932    87.8672 </r>
       <r>    47.5321     1.7665    88.2397 </r>
       <r>    47.7429     1.3817    88.5310 </r>
       <r>    47.9538     1.1885    88.7816 </r>
       <r>    48.1646     1.2200    89.0388 </r>
       <r>    48.3754     0.6367    89.1731 </r>
       <r>    48.5863     2.0941    89.6146 </r>
       <r>    48.7971     0.1813    89.6528 </r>
       <r>    49.0079     2.3695    90.1524 </r>
       <r>    49.2188     1.1474    90.3943 </r>
       <r>    49.4296     2.4489    90.9106 </r>
       <r>    49.6405     1.1254    91.1479 </r>
       <r>    49.8513     1.8391    91.5356 </r>
       <r>    50.0621     1.9816    91.9534 </r>
       <r>    50.2730     1.8785    92.3495 </r>
       <r>    50.4838     1.7554    92.7196 </r>
       <r>    50.6946     1.0376    92.9383 </r>
       <r>    50.9055     1.6305    93.2821 </r>
       <r>    51.1163     1.7031    93.6412 </r>
       <r>    51.3272     2.2631    94.1183 </r>
       <r>    51.5380     1.8993    94.5188 </r>
       <r>    51.7488     0.4848    94.6210 </r>
       <r>    51.9597     1.8423    95.0094 </r>
       <r>    52.1705     1.6695    95.3614 </r>
       <r>    52.3814     0.1022    95.3830 </r>
       <r>    52.5922     0.3776    95.4626 </r>
       <r>    52.8030     0.4091    95.5489 </r>
       <r>    53.0139     0.0127    95.5516 </r>
       <r>    53.2247     0.1397    95.5810 </r>
       <r>    53.4355    -0.0040    95.5802 </r>
       <r>    53.6464     0.0524    95.5912 </r>
       <r>    53.8572     0.5884    95.7153 </r>
       <r>    54.0681     0.3853    95.7965 </r>
       <r>    54.2789     0.2538    95.8500 </r>
       <r>    54.4897     0.0406    95.8586 </r>
       <r>    54.7006     0.0336    95.8656 </r>
       <r>    54.9114    -0.0003    95.8656 </r>
       <r>    55.1222    -0.0086    95.8638 </r>
       <r>    55.3331     0.3946    95.9470 </r>
       <r>    55.5439     0.2419    95.9980 </r>
       <r>    55.7548    -0.0034    95.9973 </r>
       <r>    55.9656    -0.0000    95.9973 </r>
       <r>    56.1764     0.0000    95.9973 </r>
       <r>    56.3873     0.0000    95.9973 </r>
       <r>    56.5981     0.0000    95.9973 </r>
       <r>    56.8090    -0.0000    95.9973 </r>
       <r>    57.0198    -0.0000    95.9973 </r>
       <r>    57.2306    -0.0000    95.9973 </r>
       <r>    57.4415    -0.0000    95.9973 </r>
       <r>    57.6523     0.0002    95.9973 </r>
       <r>    57.8631     0.0132    96.0001 </r>
       <r>    58.0740    -0.0004    96.0000 </r>
       <r>    58.2848    -0.0000    96.0000 </r>
       <r>    58.4957    -0.0000    96.0000 </r>
       <r>    58.7065     0.0000    96.0000 </r>
       <r>    58.9173     0.0000    96.0000 </r>
       <r>    59.1282     0.0000    96.0000 </r>
       <r>    59.3390     0.0000    96.0000 </r>
       <r>    59.5498     0.0000    96.0000 </r>
       <r>    59.7607     0.0000    96.0000 </r>
       <r>    59.9715     0.0000    96.0000 </r>
       <r>    60.1824     0.0000    96.0000 </r>
       <r>    60.3932     0.0000    96.0000 </r>
       <r>    60.6040     0.0000    96.0000 </r>
      </set>
     </set>
    </array>
   </total>
  </dos>
 </calculation>
 <structure name="finalpos" >
  <crystal>
   <varray name="basis" >
    <v>       3.24900000       0.00000000       0.00000000 </v>
    <v>       0.00000000       3.24900000       0.00000000 </v>
    <v>       0.00000000       0.00000000       3.24900000 </v>
   </varray>
   <i name="volume">     34.29644725 </i>
   <varray name="rec_basis" >
    <v>       0.30778701       0.00000000       0.00000000 </v>
    <v>       0.00000000       0.30778701       0.00000000 </v>
    <v>       0.00000000       0.00000000       0.30778701 </v>
   </varray>
  </crystal>
  <varray name="positions" >
   <v>       0.00000000       0.00000000       0.00000000 </v>
   <v>       0.00000000       0.50000000       0.50000000 </v>
   <v>       0.50000000       0.00000000       0.50000000 </v>
   <v>       0.50000000       0.50000000       0.00000000 </v>
  </varray>
 </structure>
</modeling>
