----- GAMESS execution script 'rungms' -----
This job is running on host crcfe02.crc.nd.edu
under operating system Linux at Sun Sep 29 10:43:28 EDT 2019
Available scratch disk space (Kbyte units) at beginning of the job is
Filesystem      1K-blocks  Used  Available Use% Mounted on
AFS            2147483647     0 2147483647   0% /afs
GAMESS temporary binary files will be written to /afs/crc.nd.edu/user/c/cdrisko
GAMESS supplementary output files will be written to /afs/crc.nd.edu/user/c/cdrisko/scr
Copying input file SO2.inp to your run's scratch directory...

 Distributed Data Interface kickoff program.
 Initiating 1 compute processes on 1 nodes to run the following command:
 /afs/crc.nd.edu/x86_64_linux/g/gamess/nov-2017/gamess/gamess.00.x SO2 

          ******************************************************
          *         GAMESS VERSION = 11 NOV 2017 (R3)         *
          *             FROM IOWA STATE UNIVERSITY             *
          * M.W.SCHMIDT, K.K.BALDRIDGE, J.A.BOATZ, S.T.ELBERT, *
          *   M.S.GORDON, J.H.JENSEN, S.KOSEKI, N.MATSUNAGA,   *
          *          K.A.NGUYEN, S.J.SU, T.L.WINDUS,           *
          *       TOGETHER WITH M.DUPUIS, J.A.MONTGOMERY       *
          *         J.COMPUT.CHEM.  14, 1347-1363(1993)        *
          **************** 64 BIT INTEL VERSION ****************

  SINCE 1993, STUDENTS AND POSTDOCS WORKING AT IOWA STATE UNIVERSITY
  AND ALSO IN THEIR VARIOUS JOBS AFTER LEAVING ISU HAVE MADE IMPORTANT
  CONTRIBUTIONS TO THE CODE:
     IVANA ADAMOVIC, CHRISTINE AIKENS, YURI ALEXEEV, POOJA ARORA,
     ANDREY ASADCHEV, ROB BELL, PRADIPTA BANDYOPADHYAY, JONATHAN BENTZ,
     BRETT BODE, KURT BRORSEN, CALEB CARLIN, GALINA CHABAN, WEI CHEN,
     CHEOL HO CHOI, PAUL DAY, ALBERT DEFUSCO, NUWAN DESILVA, TIM DUDLEY,
     DMITRI FEDOROV, ALEX FINDLATER, GRAHAM FLETCHER, MARK FREITAG,
     KURT GLAESEMANN, ANASTASIA GUININA,
     DAN KEMP, GRANT MERRILL, NORIYUKI MINEZAWA, JONATHAN MULLIN,
     TAKESHI NAGATA, SEAN NEDD, HEATHER NETZLOFF, BOSILJKA NJEGIC, RYAN OLSON,
     MIKE PAK, BUU PHAM,
     SPENCER PRUITT, LUKE ROSKOP, JIM SHOEMAKER, LYUDMILA SLIPCHENKO,
     TONY SMITH, SAROM SOK LEANG, JIE SONG, TETSUYA TAKETSUGU, SIMON WEBB,
     PENG XU, SOOHAENG YOO, FEDERICO ZAHARIEV

  ADDITIONAL CODE HAS BEEN PROVIDED BY COLLABORATORS IN OTHER GROUPS:
     IOWA STATE UNIVERSITY:
          JOE IVANIC, AARON WEST, LAIMUTIS BYTAUTAS, KLAUS RUEDENBERG
     UNIVERSITY OF TOKYO: KIMIHIKO HIRAO, TAKAHITO NAKAJIMA,
          TAKAO TSUNEDA, MUNEAKI KAMIYA, SUSUMU YANAGISAWA,
          KIYOSHI YAGI, MAHITO CHIBA, SEIKEN TOKURA, NAOAKI KAWAKAMI
     UNIVERSITY OF AARHUS: FRANK JENSEN
     UNIVERSITY OF IOWA: VISVALDAS KAIRYS, HUI LI
     NATIONAL INST. OF STANDARDS AND TECHNOLOGY: WALT STEVENS, DAVID GARMER
     UNIVERSITY OF PISA: BENEDETTA MENNUCCI, JACOPO TOMASI
     UNIVERSITY OF MEMPHIS: HENRY KURTZ, PRAKASHAN KORAMBATH
     UNIVERSITY OF ALBERTA: TOBY ZENG, MARIUSZ KLOBUKOWSKI
     UNIVERSITY OF NEW ENGLAND: MARK SPACKMAN
     MIE UNIVERSITY: HIROAKI UMEDA
     NAT. INST. OF ADVANCED INDUSTRIAL SCIENCE AND TECHNOLOGY: KAZUO KITAURA
     MICHIGAN STATE UNIVERSITY:
          KAROL KOWALSKI, MARTA WLOCH, JEFFREY GOUR, JESSE LUTZ,
          WEI LI, PIOTR PIECUCH
     UNIVERSITY OF SILESIA: MONIKA MUSIAL, STANISLAW KUCHARSKI
     FACULTES UNIVERSITAIRES NOTRE-DAME DE LA PAIX:
          OLIVIER QUINET, BENOIT CHAMPAGNE
     UNIVERSITY OF CALIFORNIA - SANTA BARBARA: BERNARD KIRTMAN
     INSTITUTE FOR MOLECULAR SCIENCE:
          KAZUYA ISHIMURA, MICHIO KATOUDA, AND SHIGERU NAGASE
     UNIVERSITY OF NOTRE DAME: ANNA POMOGAEVA, DAN CHIPMAN
     KYUSHU UNIVERSITY:
          HARUYUKI NAKANO,
          FENG LONG GU, JACEK KORCHOWIEC, MARCIN MAKOWSKI, AND YURIKO AOKI,
          HIROTOSHI MORI AND EISAKU MIYOSHI
     PENNSYLVANIA STATE UNIVERSITY:
          TZVETELIN IORDANOV, CHET SWALINA, JONATHAN SKONE,
          SHARON HAMMES-SCHIFFER
     WASEDA UNIVERSITY:
          MASATO KOBAYASHI, TOMOKO AKAMA, TSUGUKI TOUMA,
          TAKESHI YOSHIKAWA, YASUHIRO IKABATA, JUNJI SEINO,
          YUYA NAKAJIMA, HIROMI NAKAI
     NANJING UNIVERSITY: SHUHUA LI
     UNIVERSITY OF NEBRASKA:
          PEIFENG SU, DEJUN SI, NANDUN THELLAMUREGE, YALI WANG, HUI LI
     UNIVERSITY OF ZURICH: ROBERTO PEVERATI, KIM BALDRIDGE
     N. COPERNICUS UNIVERSITY AND JACKSON STATE UNIVERSITY:
          MARIA BARYSZ
     UNIVERSITY OF COPENHAGEN: Jimmy Kromann, CASPER STEINMANN
     TOKYO INSTITUTE OF TECHNOLOGY: HIROYA NAKATA
     NAGOYA UNIVERSITY: YOSHIO NISHIMOTO, STEPHAN IRLE
     MOSCOW STATE UNIVERSITY: VLADIMIR MIRONOV

 EXECUTION OF GAMESS BEGUN Sun Sep 29 10:43:28 2019

            ECHO OF THE FIRST FEW INPUT CARDS -
 INPUT CARD> $BASIS GBASIS=PCSEG-1 $END                                                     
 INPUT CARD> $CONTRL COORD=ZMT ISPHER=1 RUNTYP=ENERGY DFTTYP=PBE MULT=1 $END                
 INPUT CARD>                                                                                
 INPUT CARD> $DATA                                                                          
 INPUT CARD>Title SO2 single-point calculation template with Z-Matrix                       
 INPUT CARD>C1                                                                              
 INPUT CARD>S                                                                               
 INPUT CARD>O 1 1.30                                                                        
 INPUT CARD>O 1 1.30 2 135                                                                  
 INPUT CARD> $END                                                                           
    1000000 WORDS OF MEMORY AVAILABLE

     BASIS OPTIONS
     -------------
     GBASIS=PCSEG-1      IGAUSS=       0      POLAR=NONE    
     NDFUNC=       0     NFFUNC=       0     DIFFSP=       F
     NPFUNC=       0      DIFFS=       F     BASNAM=        


     RUN TITLE
     ---------
 Title SO2 single-point calculation template with Z-Matrix                       

 THE POINT GROUP OF THE MOLECULE IS C1      
 THE ORDER OF THE PRINCIPAL AXIS IS     0

 YOUR FULLY SUBSTITUTED Z-MATRIX IS
 S   
 O      1   1.3000000
 O      1   1.3000000  2  135.0000

 THE MOMENTS OF INERTIA ARE (AMU-ANGSTROM**2)
 IXX=     3.958   IYY=    46.145   IZZ=    50.103

 ATOM      ATOMIC                      COORDINATES (BOHR)
           CHARGE         X                   Y                   Z
 S          16.0     0.0000000000       -0.4701888831        0.0000000000
 O           8.0     2.2696429107        0.4699279922        0.0000000000
 O           8.0    -2.2696429107        0.4699279922        0.0000000000

          INTERNUCLEAR DISTANCES (ANGS.)
          ------------------------------

                1 S          2 O          3 O     

   1 S       0.0000000    1.3000000 *  1.3000000 *
   2 O       1.3000000 *  0.0000000    2.4020868 *
   3 O       1.3000000 *  2.4020868 *  0.0000000  

  * ... LESS THAN  3.000


     ATOMIC BASIS SET
     ----------------
 THE CONTRACTED PRIMITIVE FUNCTIONS HAVE BEEN UNNORMALIZED
 THE CONTRACTED BASIS FUNCTIONS ARE NOW NORMALIZED TO UNITY

  SHELL TYPE  PRIMITIVE        EXPONENT          CONTRACTION COEFFICIENT(S)

 S         

      1   S       1         49299.4000000    0.000677492991
      1   S       2          7395.8400000    0.005232317766
      1   S       3          1683.3000000    0.026769459077
      1   S       4           476.1440000    0.102869580705
      1   S       5           154.3290000    0.286438127414
      1   S       6            55.0288000    0.454278639081
      1   S       7            20.5029000    0.271743121997

      2   S       8            45.9596000   -0.088421914560
      2   S       9             4.9274000    0.564350486135
      2   S      10             1.9179900    0.505415953466

      3   S      11             0.3684980    1.000000000000

      4   S      12             0.1291650    1.000000000000

      5   P      13           451.6620000    0.003707705453
      5   P      14           106.0980000    0.029219352245
      5   P      15            33.6996000    0.124444551509
      5   P      16            12.3054000    0.321808587656
      5   P      17             4.7141200    0.462822172957
      5   P      18             1.7810500    0.266513371364

      6   P      19             0.8722350    0.349265132972
      6   P      20             0.3102780    0.717115018770

      7   P      21             0.1001940    1.000000000000

      8   D      22             0.5500000    1.000000000000

 O         

      9   S      23          2288.6400000    0.005451138222
      9   S      24           344.4160000    0.040718922842
      9   S      25            78.2538000    0.181369420873
      9   S      26            21.7195000    0.465536820246
      9   S      27             6.5590700    0.451211321214

     10   S      28            10.4656000   -0.150211201174
     10   S      29             0.9643510    1.052867983385

     11   S      30             0.2851270    1.000000000000

     12   P      31            17.0590000    0.068749256972
     12   P      32             3.6899900    0.351671941499
     12   P      33             0.9929960    0.724532099722

     13   P      34             0.2449240    1.000000000000

     14   D      35             1.0000000    1.000000000000

 O         

     15   S      36          2288.6400000    0.005451138222
     15   S      37           344.4160000    0.040718922842
     15   S      38            78.2538000    0.181369420873
     15   S      39            21.7195000    0.465536820246
     15   S      40             6.5590700    0.451211321214

     16   S      41            10.4656000   -0.150211201174
     16   S      42             0.9643510    1.052867983385

     17   S      43             0.2851270    1.000000000000

     18   P      44            17.0590000    0.068749256972
     18   P      45             3.6899900    0.351671941499
     18   P      46             0.9929960    0.724532099722

     19   P      47             0.2449240    1.000000000000

     20   D      48             1.0000000    1.000000000000

 TOTAL NUMBER OF BASIS SET SHELLS             =   20
 NUMBER OF CARTESIAN GAUSSIAN BASIS FUNCTIONS =   49
 NOTE: THIS RUN WILL RESTRICT THE MO VARIATION SPACE TO SPHERICAL HARMONICS.
 THE NUMBER OF ORBITALS KEPT IN THE VARIATIONAL SPACE WILL BE PRINTED LATER.
 NUMBER OF ELECTRONS                          =   32
 CHARGE OF MOLECULE                           =    0
 SPIN MULTIPLICITY                            =    1
 NUMBER OF OCCUPIED ORBITALS (ALPHA)          =   16
 NUMBER OF OCCUPIED ORBITALS (BETA )          =   16
 TOTAL NUMBER OF ATOMS                        =    3
 THE NUCLEAR REPULSION ENERGY IS      118.3063463648

     LEBEDEV GRID-BASED DFT OPTIONS
     ------------------------------
     DFTTYP=PBE     
     NRAD  =      96     NLEB  =     302
     NRAD0 =      24     NLEB0 =     110
     SWOFF =    5.00E-03 (PURE SCF -> DFT)
     SWITCH=    3.00E-04 (COARSE -> TIGHT GRID)
     THRESH=    0.00E+00 GTHRE=    1.00E+00

 GRIMME'S EMPIRICAL DISPERSION CORRECTION= F

     $CONTRL OPTIONS
     ---------------
 SCFTYP=RHF          RUNTYP=ENERGY       EXETYP=RUN     
 MPLEVL=       0     CITYP =NONE         CCTYP =NONE         VBTYP =NONE    
 DFTTYP=PBE          TDDFT =NONE    
 MULT  =       1     ICHARG=       0     NZVAR =       0     COORD =ZMT     
 PP    =NONE         RELWFN=NONE         LOCAL =NONE         NUMGRD=       F
 ISPHER=       1     NOSYM =       0     MAXIT =      30     UNITS =ANGS    
 PLTORB=       F     MOLPLT=       F     AIMPAC=       F     FRIEND=        
 NPRINT=       7     IREST =       0     GEOM  =INPUT   
 NORMF =       0     NORMP =       0     ITOL  =      20     ICUT  =       9
 INTTYP=BEST         GRDTYP=BEST         QMTTOL= 1.0E-06

     $SYSTEM OPTIONS
     ---------------
  REPLICATED MEMORY=     1000000 WORDS (ON EVERY NODE).
 DISTRIBUTED MEMDDI=           0 MILLION WORDS IN AGGREGATE,
 MEMDDI DISTRIBUTED OVER   1 PROCESSORS IS           0 WORDS/PROCESSOR.
 TOTAL MEMORY REQUESTED ON EACH PROCESSOR=     1000000 WORDS.
 TIMLIM=      525600.00 MINUTES, OR     365.0 DAYS.
 PARALL= F  BALTYP=  DLB     KDIAG=    0  COREFL= F
 MXSEQ2=     300 MXSEQ3=     150  mem10=         0

          ----------------
          PROPERTIES INPUT
          ----------------

     MOMENTS            FIELD           POTENTIAL          DENSITY
 IEMOM =       1   IEFLD =       0   IEPOT =       0   IEDEN =       0
 WHERE =COMASS     WHERE =NUCLEI     WHERE =NUCLEI     WHERE =NUCLEI  
 OUTPUT=BOTH       OUTPUT=BOTH       OUTPUT=BOTH       OUTPUT=BOTH    
 IEMINT=       0   IEFINT=       0                     IEDINT=       0
                                                       MORB  =       0
          EXTRAPOLATION IN EFFECT
          DIIS IN EFFECT
 ORBITAL PRINTING OPTION: NPREO=     1    49     2     1

     -------------------------------
     INTEGRAL TRANSFORMATION OPTIONS
     -------------------------------
     NWORD  =            0
     CUTOFF = 1.0E-09     MPTRAN =       0
     DIRTRF =       F     AOINTS =DUP     

          ----------------------
          INTEGRAL INPUT OPTIONS
          ----------------------
 NOPK  =       1 NORDER=       0 SCHWRZ=       F

   --- ENCODED Z MATRIX ---
 COORD  TYPE   I   J   K   L   M   N
    1      1    2   1
    2      1    3   1
    3      2    3   1   2

 THE DETERMINANT OF THE G MATRIX IS 10**(    -4)

 THE DETERMINANT OF THE G MATRIX IS 10**(    -4)
 * * * WARNING * * *
 YOUR B MATRIX HAS A SMALL DETERMINANT.
 THIS SUGGESTS YOU MAY HAVE BADLY CHOSEN COORDINATES.

     ------------------------------------------
     THE POINT GROUP IS C1 , NAXIS= 0, ORDER= 1
     ------------------------------------------

 -- VARIATIONAL SPACE WILL BE RESTRICTED TO PURE SPHERICAL HARMONICS ONLY --
 AFTER EXCLUDING CONTAMINANT COMBINATIONS FROM THE CARTESIAN GAUSSIAN BASIS
 SET, THE NUMBER OF SPHERICAL HARMONICS KEPT IN THE VARIATION SPACE IS   46

     DIMENSIONS OF THE SYMMETRY SUBSPACES ARE
 A   =   46

 ..... DONE SETTING UP THE RUN .....
 STEP CPU TIME =     0.04 TOTAL CPU TIME =          0.0 (      0.0 MIN)
 TOTAL WALL CLOCK TIME=          0.0 SECONDS, CPU UTILIZATION IS   100.00%

          ********************
          1 ELECTRON INTEGRALS
          ********************
 ...... END OF ONE-ELECTRON INTEGRALS ......
 STEP CPU TIME =     0.00 TOTAL CPU TIME =          0.0 (      0.0 MIN)
 TOTAL WALL CLOCK TIME=          0.0 SECONDS, CPU UTILIZATION IS   100.00%

          -------------
          GUESS OPTIONS
          -------------
          GUESS =HUCKEL            NORB  =       0          NORDER=       0
          MIX   =       F          PRTMO =       F          PUNMO =       F
          TOLZ  = 1.0E-08          TOLE  = 1.0E-05
          SYMDEN=       F          PURIFY=       F

 INITIAL GUESS ORBITALS GENERATED BY HUCKEL   ROUTINE.
 HUCKEL GUESS REQUIRES     21634 WORDS.

 STATISTICS FOR GENERATION OF SYMMETRY ORBITAL -Q- MATRIX
 NUMBER OF CARTESIAN ATOMIC ORBITALS=         49
 NUMBER OF SPHERICAL CONTAMINANTS DROPPED=     3
 NUMBER OF LINEARLY DEPENDENT MOS DROPPED=     0
 TOTAL NUMBER OF MOS IN VARIATION SPACE=      46

 SYMMETRIES FOR INITIAL GUESS ORBITALS FOLLOW.   BOTH SET(S).
    16 ORBITALS ARE OCCUPIED (    7 CORE ORBITALS).
     8=A        9=A       10=A       11=A       12=A       13=A       14=A   
    15=A       16=A       17=A       18=A       19=A       20=A       21=A   
    22=A       23=A       24=A       25=A       26=A   
 ...... END OF INITIAL ORBITAL SELECTION ......
 STEP CPU TIME =     0.00 TOTAL CPU TIME =          0.0 (      0.0 MIN)
 TOTAL WALL CLOCK TIME=          0.0 SECONDS, CPU UTILIZATION IS    80.00%

                    ----------------------
                    AO INTEGRAL TECHNOLOGY
                    ----------------------
     S,P,L SHELL ROTATED AXIS INTEGRALS, REPROGRAMMED BY
        KAZUYA ISHIMURA (IMS) AND JOSE SIERRA (SYNSTAR).
     S,P,D,L SHELL ROTATED AXIS INTEGRALS PROGRAMMED BY
        KAZUYA ISHIMURA (INSTITUTE FOR MOLECULAR SCIENCE).
     S,P,D,F,G SHELL TO TOTAL QUARTET ANGULAR MOMENTUM SUM 5,
        ERIC PROGRAM BY GRAHAM FLETCHER (ELORET AND NASA ADVANCED
        SUPERCOMPUTING DIVISION, AMES RESEARCH CENTER).
     S,P,D,F,G,L SHELL GENERAL RYS QUADRATURE PROGRAMMED BY
        MICHEL DUPUIS (PACIFIC NORTHWEST NATIONAL LABORATORY).

          --------------------
          2 ELECTRON INTEGRALS
          --------------------

 THE -PK- OPTION IS OFF, THE INTEGRALS ARE NOT IN SUPERMATRIX FORM.
 STORING   15000 INTEGRALS/RECORD ON DISK, USING 12 BYTES/INTEGRAL.
 TWO ELECTRON INTEGRAL EVALUATION REQUIRES   90606 WORDS OF MEMORY.
 II,JST,KST,LST =  1  1  1  1 NREC =         1 INTLOC =    1
 II,JST,KST,LST =  2  1  1  1 NREC =         1 INTLOC =    2
 II,JST,KST,LST =  3  1  1  1 NREC =         1 INTLOC =    7
 II,JST,KST,LST =  4  1  1  1 NREC =         1 INTLOC =   22
 II,JST,KST,LST =  5  1  1  1 NREC =         1 INTLOC =   56
 II,JST,KST,LST =  6  1  1  1 NREC =         1 INTLOC =  125
 II,JST,KST,LST =  7  1  1  1 NREC =         1 INTLOC =  329
 II,JST,KST,LST =  8  1  1  1 NREC =         1 INTLOC =  776
 II,JST,KST,LST =  9  1  1  1 NREC =         1 INTLOC = 2864
 II,JST,KST,LST = 10  1  1  1 NREC =         1 INTLOC = 5005
 II,JST,KST,LST = 11  1  1  1 NREC =         1 INTLOC = 7675
 II,JST,KST,LST = 12  1  1  1 NREC =         1 INTLOC =10793
 II,JST,KST,LST = 13  1  1  1 NREC =         2 INTLOC = 6734
 II,JST,KST,LST = 14  1  1  1 NREC =         3 INTLOC = 7009
 II,JST,KST,LST = 15  1  1  1 NREC =         6 INTLOC = 9063
 II,JST,KST,LST = 16  1  1  1 NREC =         7 INTLOC = 2205
 II,JST,KST,LST = 17  1  1  1 NREC =         7 INTLOC =14265
 II,JST,KST,LST = 18  1  1  1 NREC =         8 INTLOC =12772
 II,JST,KST,LST = 19  1  1  1 NREC =        11 INTLOC = 9401
 II,JST,KST,LST = 20  1  1  1 NREC =        15 INTLOC = 1934
 TOTAL NUMBER OF NONZERO TWO-ELECTRON INTEGRALS =              347391
         24 INTEGRAL RECORDS WERE STORED ON DISK FILE  8.
  ...... END OF TWO-ELECTRON INTEGRALS .....
 STEP CPU TIME =     0.11 TOTAL CPU TIME =          0.2 (      0.0 MIN)
 TOTAL WALL CLOCK TIME=          0.1 SECONDS, CPU UTILIZATION IS   100.00%

          --------------------------
               R-PBE SCF CALCULATION
          --------------------------

     NUCLEAR ENERGY =       118.3063463648
     MAXIT =   30     NPUNCH=    2
     EXTRAP=T  DAMP=F  SHIFT=F  RSTRCT=F  DIIS=T  DEM=F  SOSCF=F
         DENSITY MATRIX CONVERGENCE THRESHOLD=  1.00E-05
     COARSE -> FINE DFT GRID SWITCH THRESHOLD=  3.00E-04 (SWITCH IN $DFT)
                   HF -> DFT SWITCH THRESHOLD=  5.00E-03 (SWOFF IN $DFT)
     MEMORY REQUIRED FOR RHF ITERS=    183108 WORDS.

 DFT CODE IS SWITCHING FROM THE FINE GRID NRAD= 96,  NLEB=  302
                      TO THE COARSE GRID NRAD0= 24, NLEB0=  110

     EXCHANGE FUNCTIONAL   =PBE       
     CORRELATION FUNCTIONAL=PBE       
     DFT THRESHOLD         =.460E-07
     GRID CHANGE THRESHOLD =.300E-03
 FOR AN EULER-MACLAURIN QUADRATURE USING  96 RADIAL POINTS:
 SMALLEST GAUSSIAN PRIMITIVE EXPONENT=        0.1001940000 OF TYPE -P-
 ON ATOM NUMBER   1 HAS RADIAL NORMALIZATION=  1.000000
  LARGEST GAUSSIAN PRIMITIVE EXPONENT=    49299.4000000000 OF TYPE -S-
 ON ATOM NUMBER   1 HAS RADIAL NORMALIZATION=  1.000000
 DFT IS SWITCHED OFF, PERFORMING PURE SCF UNTIL SWOFF THRESHOLD IS REACHED.

 ITER EX DEM     TOTAL ENERGY        E CHANGE  DENSITY CHANGE    DIIS ERROR
   1  0  0     -545.8846568692  -545.8846568692   0.609434489   0.949396527
          * * *   INITIATING DIIS PROCEDURE   * * *
   2  1  0     -546.8856654386    -1.0010085694   0.417463293   0.202447567
   3  2  0     -546.9857841354    -0.1001186968   0.119241014   0.125980990
   4  3  0     -547.0312995460    -0.0455154105   0.066657431   0.014061021
   5  4  0     -547.0339379211    -0.0026383752   0.038400576   0.006405910
   6  5  0     -547.0343872043    -0.0004492831   0.009307624   0.001939115
   7  6  0     -547.0344303715    -0.0000431672   0.000415140   0.000214924
 CONVERGED TO SWOFF, SO DFT CALCULATION IS NOW SWITCHED ON.
          * * *   INITIATING DIIS PROCEDURE   * * *
   8  7  0     -548.0934494091    -1.0590190376   0.212172292   0.088084395
   9  8  0     -548.1104948205    -0.0170454115   0.156854273   0.052816986
  10  9  0     -548.1081219341     0.0023728864   0.066900316   0.055156236
  11 10  0     -548.1187101174    -0.0105881833   0.017361316   0.008043933
  12 11  0     -548.1188952941    -0.0001851767   0.000584285   0.000527376
  13 12  0     -548.1188958945    -0.0000006004   0.000088760   0.000028409
 DFT CODE IS SWITCHING BACK TO THE FINE GRID
          * * *   INITIATING DIIS PROCEDURE   * * *
  14 13  0     -548.1297387480    -0.0108428535   0.018892076   0.008118184
  15 14  0     -548.1299944056    -0.0002556576   0.005581434   0.002656075
  16 15  0     -548.1299854220     0.0000089836   0.003557350   0.003479977
  17 16  0     -548.1300117763    -0.0000263542   0.000569430   0.000619592
  18 17  0     -548.1300125461    -0.0000007698   0.000157967   0.000057150
  19 18  0     -548.1300125625    -0.0000000164   0.000039024   0.000007100
  20 19  0     -548.1300125627    -0.0000000002   0.000005699   0.000006480
  21 20  0     -548.1300125628    -0.0000000001   0.000004363   0.000002072

          -----------------
          DENSITY CONVERGED
          -----------------
     TIME TO FORM FOCK OPERATORS=       2.3 SECONDS (       0.1 SEC/ITER)
     TIME TO SOLVE SCF EQUATIONS=       0.0 SECONDS (       0.0 SEC/ITER)

 FINAL R-PBE ENERGY IS     -548.1300125628 AFTER  21 ITERATIONS
 DFT EXCHANGE + CORRELATION ENERGY =       -42.7931117542
 TOTAL ELECTRON NUMBER             =        31.9999840585

          ------------
          EIGENVECTORS
          ------------

                      1          2          3          4          5
                  -88.1992   -18.7913   -18.7913    -7.8259    -5.8530
                     A          A          A          A          A   
    1  S  1  S    0.997735  -0.000000  -0.000063  -0.308269  -0.000000
    2  S  1  S    0.008468   0.000000   0.000538   1.031079   0.000000
    3  S  1  S   -0.004130   0.000001   0.000767   0.029006  -0.000000
    4  S  1  S    0.000137   0.000007   0.008029  -0.005011  -0.000000
    5  S  1  X   -0.000000   0.000298  -0.000000  -0.000000   0.993461
    6  S  1  Y    0.000186  -0.000000  -0.000065   0.014880  -0.000000
    7  S  1  Z    0.000000   0.000000   0.000000   0.000000   0.000000
    8  S  1  X    0.000000  -0.000407   0.000000   0.000000   0.019733
    9  S  1  Y   -0.000722   0.000001   0.001012   0.001791  -0.000000
   10  S  1  Z    0.000000   0.000000   0.000000   0.000000   0.000000
   11  S  1  X    0.000000   0.004778  -0.000004   0.000000  -0.002139
   12  S  1  Y   -0.000051   0.000002   0.002781  -0.000270  -0.000000
   13  S  1  Z    0.000000   0.000000   0.000000   0.000000   0.000000
   14  S  1 XX   -0.000709  -0.000001  -0.001448   0.001290  -0.000000
   15  S  1 YY    0.000274   0.000001   0.000885  -0.000641   0.000000
   16  S  1 ZZ    0.000435   0.000000   0.000563  -0.000648   0.000000
   17  S  1 XY    0.000000  -0.001668   0.000001   0.000000   0.002258
   18  S  1 XZ    0.000000   0.000000   0.000000   0.000000   0.000000
   19  S  1 YZ    0.000000   0.000000   0.000000   0.000000   0.000000
   20  O  2  S   -0.000032   0.702794   0.701643  -0.000575  -0.001412
   21  O  2  S   -0.000125   0.024457   0.024640   0.000070   0.001577
   22  O  2  S    0.001269  -0.011209  -0.012602  -0.000977  -0.002457
   23  O  2  X   -0.000263  -0.001469  -0.001453  -0.000613  -0.002491
   24  O  2  Y   -0.000129  -0.000522  -0.000411  -0.000217  -0.001246
   25  O  2  Z    0.000000   0.000000   0.000000   0.000000   0.000000
   26  O  2  X   -0.000850   0.000983   0.003074   0.001192   0.001602
   27  O  2  Y   -0.000368   0.001314  -0.000006   0.000544   0.000728
   28  O  2  Z    0.000000   0.000000   0.000000   0.000000   0.000000
   29  O  2 XX    0.000252   0.000378  -0.000198   0.000980   0.001394
   30  O  2 YY   -0.000061  -0.000335   0.000241  -0.000393  -0.000319
   31  O  2 ZZ   -0.000191  -0.000043  -0.000043  -0.000587  -0.001075
   32  O  2 XY    0.000258  -0.000065   0.000265   0.000676   0.001545
   33  O  2 XZ    0.000000   0.000000   0.000000   0.000000   0.000000
   34  O  2 YZ    0.000000   0.000000   0.000000   0.000000   0.000000
   35  O  3  S   -0.000032  -0.701617   0.702820  -0.000575   0.001412
   36  O  3  S   -0.000125  -0.024415   0.024681   0.000070  -0.001577
   37  O  3  S    0.001269   0.011188  -0.012621  -0.000977   0.002457
   38  O  3  X    0.000263  -0.001467   0.001455   0.000613  -0.002491
   39  O  3  Y   -0.000129   0.000521  -0.000412  -0.000217   0.001246
   40  O  3  Z    0.000000   0.000000   0.000000   0.000000   0.000000
   41  O  3  X    0.000850   0.000978  -0.003076  -0.001192   0.001602
   42  O  3  Y   -0.000368  -0.001314  -0.000004   0.000544  -0.000728
   43  O  3  Z    0.000000   0.000000   0.000000   0.000000   0.000000
   44  O  3 XX    0.000252  -0.000378  -0.000197   0.000980  -0.001394
   45  O  3 YY   -0.000061   0.000335   0.000241  -0.000393   0.000319
   46  O  3 ZZ   -0.000191   0.000043  -0.000043  -0.000587   0.001075
   47  O  3 XY   -0.000258  -0.000065  -0.000264  -0.000676   0.001545
   48  O  3 XZ    0.000000   0.000000   0.000000   0.000000   0.000000
   49  O  3 YZ    0.000000   0.000000   0.000000   0.000000   0.000000

                      6          7          8          9         10
                   -5.8492    -5.8429    -1.1380    -1.0456    -0.5422
                     A          A          A          A          A   
    1  S  1  S    0.000000   0.004838   0.057626  -0.000000   0.056182
    2  S  1  S    0.000000  -0.016814  -0.346809   0.000001  -0.359339
    3  S  1  S    0.000000   0.001162   0.463011  -0.000002   0.562730
    4  S  1  S    0.000000   0.000937   0.043342  -0.000006   0.152940
    5  S  1  X    0.000000   0.000000  -0.000000  -0.182509   0.000000
    6  S  1  Y    0.000000   0.994555  -0.066852   0.000000   0.040636
    7  S  1  Z    0.994782   0.000000   0.000000   0.000000   0.000000
    8  S  1  X    0.000000   0.000000   0.000003   0.389221  -0.000001
    9  S  1  Y    0.000000   0.016638   0.133212  -0.000002  -0.097102
   10  S  1  Z    0.016475   0.000000   0.000000   0.000000   0.000000
   11  S  1  X    0.000000   0.000000   0.000002  -0.022216  -0.000001
   12  S  1  Y    0.000000  -0.002595  -0.019559  -0.000001  -0.048208
   13  S  1  Z   -0.003012   0.000000   0.000000   0.000000   0.000000
   14  S  1 XX    0.000000  -0.000608   0.073769  -0.000001  -0.007052
   15  S  1 YY    0.000000   0.001398  -0.026949   0.000000  -0.011394
   16  S  1 ZZ    0.000000  -0.000790  -0.046820   0.000001   0.018446
   17  S  1 XY    0.000000   0.000000   0.000001   0.089264  -0.000000
   18  S  1 XZ   -0.000000   0.000000   0.000000   0.000000   0.000000
   19  S  1 YZ    0.001149   0.000000   0.000000   0.000000   0.000000
   20  O  2  S    0.000000  -0.000574  -0.136435  -0.158376   0.111271
   21  O  2  S    0.000000   0.000907   0.270288   0.322223  -0.237853
   22  O  2  S    0.000000  -0.000914   0.195075   0.210537  -0.334936
   23  O  2  X    0.000000  -0.001328  -0.133243  -0.127085  -0.208991
   24  O  2  Y    0.000000  -0.000308  -0.043935  -0.054635  -0.139082
   25  O  2  Z    0.000245   0.000000   0.000000   0.000000   0.000000
   26  O  2  X    0.000000   0.000878  -0.023723   0.004458  -0.101771
   27  O  2  Y    0.000000  -0.000320  -0.002808   0.001682  -0.062660
   28  O  2  Z   -0.000450   0.000000   0.000000   0.000000   0.000000
   29  O  2 XX    0.000000   0.000871   0.016588   0.008377   0.008770
   30  O  2 YY    0.000000  -0.000473  -0.009261  -0.002055  -0.000988
   31  O  2 ZZ    0.000000  -0.000398  -0.007327  -0.006322  -0.007783
   32  O  2 XY    0.000000   0.000370   0.007187   0.011258   0.011850
   33  O  2 XZ   -0.000349   0.000000   0.000000   0.000000   0.000000
   34  O  2 YZ   -0.000209   0.000000   0.000000   0.000000   0.000000
   35  O  3  S    0.000000  -0.000574  -0.136435   0.158376   0.111272
   36  O  3  S    0.000000   0.000907   0.270286  -0.322226  -0.237854
   37  O  3  S    0.000000  -0.000914   0.195082  -0.210527  -0.334938
   38  O  3  X    0.000000   0.001328   0.133243  -0.127085   0.208992
   39  O  3  Y    0.000000  -0.000308  -0.043935   0.054635  -0.139083
   40  O  3  Z    0.000245   0.000000   0.000000   0.000000   0.000000
   41  O  3  X    0.000000  -0.000878   0.023726   0.004463   0.101772
   42  O  3  Y    0.000000  -0.000320  -0.002810  -0.001683  -0.062660
   43  O  3  Z   -0.000450   0.000000   0.000000   0.000000   0.000000
   44  O  3 XX    0.000000   0.000871   0.016589  -0.008376   0.008770
   45  O  3 YY    0.000000  -0.000473  -0.009261   0.002055  -0.000988
   46  O  3 ZZ    0.000000  -0.000398  -0.007327   0.006321  -0.007783
   47  O  3 XY    0.000000  -0.000370  -0.007187   0.011257  -0.011850
   48  O  3 XZ    0.000349   0.000000   0.000000   0.000000   0.000000
   49  O  3 YZ   -0.000209   0.000000   0.000000   0.000000   0.000000

                     11         12         13         14         15
                   -0.4952    -0.4814    -0.4523    -0.3753    -0.3548
                     A          A          A          A          A   
    1  S  1  S    0.000000  -0.003814   0.000000   0.000000   0.000000
    2  S  1  S    0.000000   0.024600  -0.000000   0.000000  -0.000000
    3  S  1  S    0.000000  -0.025939  -0.000000   0.000000   0.000001
    4  S  1  S    0.000000  -0.080635  -0.000001   0.000000   0.000004
    5  S  1  X    0.000000  -0.000000  -0.166490   0.000000  -0.007210
    6  S  1  Y    0.000000  -0.193815   0.000000   0.000000   0.000000
    7  S  1  Z   -0.210600   0.000000   0.000000  -0.000000   0.000000
    8  S  1  X    0.000000   0.000001   0.442406   0.000000   0.009323
    9  S  1  Y    0.000000   0.497927  -0.000001   0.000000   0.000000
   10  S  1  Z    0.544077   0.000000   0.000000   0.000000   0.000000
   11  S  1  X    0.000000   0.000000  -0.056392   0.000000   0.070471
   12  S  1  Y    0.000000   0.060909  -0.000000   0.000000   0.000001
   13  S  1  Z    0.079282   0.000000   0.000000  -0.000000   0.000000
   14  S  1 XX    0.000000  -0.077698  -0.000000   0.000000   0.000001
   15  S  1 YY    0.000000   0.086874  -0.000000   0.000000  -0.000000
   16  S  1 ZZ    0.000000  -0.009176   0.000000   0.000000  -0.000000
   17  S  1 XY    0.000000   0.000000   0.036571   0.000000  -0.159079
   18  S  1 XZ   -0.000000   0.000000   0.000000   0.166392   0.000000
   19  S  1 YZ    0.058438   0.000000   0.000000  -0.000000   0.000000
   20  O  2  S    0.000000   0.030587   0.076114   0.000000  -0.002742
   21  O  2  S    0.000000  -0.060655  -0.157123   0.000000   0.011011
   22  O  2  S    0.000000  -0.103084  -0.304661   0.000000   0.010799
   23  O  2  X    0.000000  -0.227611  -0.330170   0.000000   0.270342
   24  O  2  Y    0.000000   0.254487  -0.222708   0.000000  -0.378814
   25  O  2  Z    0.327068   0.000000   0.000000   0.458651   0.000000
   26  O  2  X    0.000000  -0.118246  -0.125304   0.000000   0.156631
   27  O  2  Y    0.000000   0.142927  -0.108266   0.000000  -0.258426
   28  O  2  Z    0.177538   0.000000   0.000000   0.303774   0.000000
   29  O  2 XX    0.000000   0.021208   0.010323   0.000000  -0.015803
   30  O  2 YY    0.000000  -0.015618   0.000072   0.000000   0.014971
   31  O  2 ZZ    0.000000  -0.005590  -0.010396   0.000000   0.000832
   32  O  2 XY    0.000000  -0.012028   0.017308   0.000000   0.018184
   33  O  2 XZ   -0.026770   0.000000   0.000000  -0.021423   0.000000
   34  O  2 YZ   -0.009714   0.000000   0.000000  -0.007723   0.000000
   35  O  3  S    0.000000   0.030586  -0.076114   0.000000   0.002742
   36  O  3  S    0.000000  -0.060655   0.157122   0.000000  -0.011010
   37  O  3  S    0.000000  -0.103082   0.304662   0.000000  -0.010803
   38  O  3  X    0.000000   0.227611  -0.330170   0.000000   0.270341
   39  O  3  Y    0.000000   0.254488   0.222707   0.000000   0.378814
   40  O  3  Z    0.327068   0.000000   0.000000  -0.458651   0.000000
   41  O  3  X    0.000000   0.118247  -0.125303   0.000000   0.156628
   42  O  3  Y    0.000000   0.142927   0.108266   0.000000   0.258427
   43  O  3  Z    0.177538   0.000000   0.000000  -0.303774   0.000000
   44  O  3 XX    0.000000   0.021208  -0.010323   0.000000   0.015803
   45  O  3 YY    0.000000  -0.015618  -0.000072   0.000000  -0.014971
   46  O  3 ZZ    0.000000  -0.005590   0.010396   0.000000  -0.000832
   47  O  3 XY    0.000000   0.012028   0.017308   0.000000   0.018184
   48  O  3 XZ    0.026770   0.000000   0.000000  -0.021423   0.000000
   49  O  3 YZ   -0.009714   0.000000   0.000000   0.007723   0.000000

                     16         17         18         19         20
                   -0.2497    -0.0997     0.0334     0.1282     0.2026
                     A          A          A          A          A   
    1  S  1  S    0.027625   0.000000   0.012442  -0.000000   0.000000
    2  S  1  S   -0.181884   0.000000  -0.084185   0.000001   0.000000
    3  S  1  S    0.210553   0.000000  -0.004055  -0.000007   0.000000
    4  S  1  S    0.696592   0.000000   1.094440  -0.000003   0.000000
    5  S  1  X    0.000000   0.000000  -0.000000  -0.063857   0.000000
    6  S  1  Y    0.138516   0.000000  -0.150167  -0.000000   0.000000
    7  S  1  Z    0.000000  -0.229568   0.000000   0.000000   0.250088
    8  S  1  X   -0.000000   0.000000   0.000001   0.214519   0.000000
    9  S  1  Y   -0.377544   0.000000   0.508201  -0.000002   0.000000
   10  S  1  Z    0.000000   0.710432   0.000000   0.000000  -0.974801
   11  S  1  X   -0.000001   0.000000  -0.000010   1.566180   0.000000
   12  S  1  Y   -0.065038   0.000000   0.813903   0.000004   0.000000
   13  S  1  Z    0.000000   0.459684   0.000000   0.000000   1.279035
   14  S  1 XX   -0.205001   0.000000  -0.160098  -0.000003   0.000000
   15  S  1 YY    0.103375   0.000000  -0.037157   0.000000   0.000000
   16  S  1 ZZ    0.101626   0.000000   0.197255   0.000003   0.000000
   17  S  1 XY   -0.000000   0.000000   0.000001  -0.136671   0.000000
   18  S  1 XZ    0.000000  -0.000000   0.000000   0.000000   0.000000
   19  S  1 YZ    0.000000  -0.072115   0.000000   0.000000  -0.073712
   20  O  2  S    0.023757   0.000000   0.058503   0.066422   0.000000
   21  O  2  S   -0.049961   0.000000  -0.121544  -0.114275   0.000000
   22  O  2  S   -0.125202   0.000000  -0.534458  -0.797090   0.000000
   23  O  2  X    0.161414   0.000000   0.259821  -0.031360   0.000000
   24  O  2  Y    0.333885   0.000000  -0.188527   0.168820   0.000000
   25  O  2  Z    0.000000  -0.386958   0.000000   0.000000  -0.001271
   26  O  2  X    0.091028   0.000000   0.311336  -0.010098   0.000000
   27  O  2  Y    0.243712   0.000000  -0.213000   0.202218   0.000000
   28  O  2  Z    0.000000  -0.370654   0.000000   0.000000  -0.074486
   29  O  2 XX   -0.007125   0.000000  -0.007712  -0.007747   0.000000
   30  O  2 YY    0.002598   0.000000  -0.002078   0.004181   0.000000
   31  O  2 ZZ    0.004528   0.000000   0.009790   0.003566   0.000000
   32  O  2 XY   -0.008166   0.000000  -0.005665  -0.007816   0.000000
   33  O  2 XZ    0.000000   0.002539   0.000000   0.000000   0.026175
   34  O  2 YZ    0.000000  -0.001869   0.000000   0.000000   0.008265
   35  O  3  S    0.023757   0.000000   0.058504  -0.066421   0.000000
   36  O  3  S   -0.049962   0.000000  -0.121548   0.114266   0.000000
   37  O  3  S   -0.125203   0.000000  -0.534465   0.797104   0.000000
   38  O  3  X   -0.161414   0.000000  -0.259823  -0.031365   0.000000
   39  O  3  Y    0.333884   0.000000  -0.188526  -0.168822   0.000000
   40  O  3  Z    0.000000  -0.386958   0.000000   0.000000  -0.001271
   41  O  3  X   -0.091028   0.000000  -0.311332  -0.010087   0.000000
   42  O  3  Y    0.243712   0.000000  -0.212998  -0.202224   0.000000
   43  O  3  Z    0.000000  -0.370654   0.000000   0.000000  -0.074486
   44  O  3 XX   -0.007125   0.000000  -0.007712   0.007748   0.000000
   45  O  3 YY    0.002598   0.000000  -0.002078  -0.004182   0.000000
   46  O  3 ZZ    0.004528   0.000000   0.009790  -0.003566   0.000000
   47  O  3 XY    0.008166   0.000000   0.005665  -0.007816   0.000000
   48  O  3 XZ    0.000000  -0.002539   0.000000   0.000000  -0.026175
   49  O  3 YZ    0.000000  -0.001869   0.000000   0.000000   0.008265

                     21         22         23         24         25
                    0.2259     0.3103     0.4412     0.5363     0.5483
                     A          A          A          A          A   
    1  S  1  S    0.021413  -0.066007   0.000000   0.000000   0.011978
    2  S  1  S   -0.155599   0.476696  -0.000001   0.000000  -0.091256
    3  S  1  S    0.555073  -1.623458   0.000007   0.000000   0.349643
    4  S  1  S   -0.674884   2.106752   0.000006   0.000000   0.172706
    5  S  1  X    0.000000  -0.000001  -0.243077   0.000000  -0.000000
    6  S  1  Y    0.257732   0.071760  -0.000000   0.000000  -0.023729
    7  S  1  Z    0.000000   0.000000   0.000000   0.010312   0.000000
    8  S  1  X    0.000000   0.000010   0.859675   0.000000   0.000002
    9  S  1  Y   -1.006366  -0.216428   0.000003   0.000000   0.115801
   10  S  1  Z    0.000000   0.000000   0.000000  -0.053857   0.000000
   11  S  1  X   -0.000001   0.000002  -0.829269   0.000000   0.000001
   12  S  1  Y    1.121394   0.403527   0.000001   0.000000   0.154948
   13  S  1  Z    0.000000   0.000000   0.000000   0.156668   0.000000
   14  S  1 XX    0.126556   0.379862   0.000002   0.000000  -0.034241
   15  S  1 YY   -0.083558  -0.123999  -0.000000   0.000000   0.846698
   16  S  1 ZZ   -0.042997  -0.255863  -0.000002   0.000000  -0.812457
   17  S  1 XY    0.000000   0.000002  -0.647252   0.000000   0.000001
   18  S  1 XZ    0.000000   0.000000   0.000000  -0.000000   0.000000
   19  S  1 YZ    0.000000   0.000000   0.000000   0.972699   0.000000
   20  O  2  S   -0.006730   0.006275   0.012674   0.000000   0.022165
   21  O  2  S    0.033597   0.052343  -0.099164   0.000000  -0.082382
   22  O  2  S    0.002712  -0.610960   0.297136   0.000000  -0.166372
   23  O  2  X   -0.059713  -0.269740   0.222135   0.000000   0.087709
   24  O  2  Y    0.026364  -0.077876   0.239190   0.000000  -0.199897
   25  O  2  Z    0.000000   0.000000   0.000000  -0.207124   0.000000
   26  O  2  X   -0.067580   0.120576  -0.086255   0.000000   0.220603
   27  O  2  Y   -0.045897   0.099626   0.115768   0.000000   0.056051
   28  O  2  Z    0.000000   0.000000   0.000000  -0.019810   0.000000
   29  O  2 XX   -0.014656  -0.047901   0.015698   0.000000   0.017072
   30  O  2 YY    0.015384   0.021701   0.012005   0.000000   0.022546
   31  O  2 ZZ   -0.000727   0.026200  -0.027703   0.000000  -0.039618
   32  O  2 XY    0.019804  -0.030229   0.041989   0.000000  -0.035679
   33  O  2 XZ    0.000000   0.000000   0.000000  -0.031631   0.000000
   34  O  2 YZ    0.000000   0.000000   0.000000   0.039945   0.000000
   35  O  3  S   -0.006730   0.006275  -0.012674   0.000000   0.022165
   36  O  3  S    0.033597   0.052337   0.099168   0.000000  -0.082383
   37  O  3  S    0.002712  -0.610941  -0.297149   0.000000  -0.166367
   38  O  3  X    0.059713   0.269737   0.222138   0.000000  -0.087711
   39  O  3  Y    0.026364  -0.077877  -0.239190   0.000000  -0.199897
   40  O  3  Z    0.000000   0.000000   0.000000  -0.207124   0.000000
   41  O  3  X    0.067580  -0.120561  -0.086266   0.000000  -0.220597
   42  O  3  Y   -0.045897   0.099621  -0.115764   0.000000   0.056049
   43  O  3  Z    0.000000   0.000000   0.000000  -0.019810   0.000000
   44  O  3 XX   -0.014656  -0.047900  -0.015698   0.000000   0.017072
   45  O  3 YY    0.015384   0.021701  -0.012005   0.000000   0.022546
   46  O  3 ZZ   -0.000727   0.026199   0.027703   0.000000  -0.039618
   47  O  3 XY   -0.019804   0.030229   0.041990   0.000000   0.035679
   48  O  3 XZ    0.000000   0.000000   0.000000   0.031631   0.000000
   49  O  3 YZ    0.000000   0.000000   0.000000   0.039945   0.000000

                     26         27         28         29         30
                    0.6090     0.6502     0.6552     0.7306     0.8099
                     A          A          A          A          A   
    1  S  1  S    0.033062  -0.000000   0.000000   0.000000   0.000000
    2  S  1  S   -0.268251   0.000000   0.000000   0.000000  -0.000002
    3  S  1  S    1.497835  -0.000009   0.000000   0.000000   0.000010
    4  S  1  S    0.757589  -0.000015   0.000000   0.000000  -0.000002
    5  S  1  X   -0.000002  -0.237655   0.000000   0.000000  -0.083205
    6  S  1  Y   -0.089538   0.000001   0.000000   0.000000  -0.000000
    7  S  1  Z    0.000000   0.000000  -0.000000  -0.000000   0.000000
    8  S  1  X    0.000013   1.441067   0.000000   0.000000   0.464093
    9  S  1  Y    0.579888  -0.000004   0.000000   0.000000   0.000001
   10  S  1  Z    0.000000   0.000000   0.000000   0.000000   0.000000
   11  S  1  X    0.000005  -0.176222   0.000000   0.000000  -0.389359
   12  S  1  Y    0.007377  -0.000003   0.000000   0.000000  -0.000017
   13  S  1  Z    0.000000   0.000000  -0.000000  -0.000000   0.000000
   14  S  1 XX    0.421849  -0.000002   0.000000   0.000000   0.000008
   15  S  1 YY   -0.276091   0.000000   0.000000   0.000000  -0.000009
   16  S  1 ZZ   -0.145758   0.000001   0.000000   0.000000   0.000001
   17  S  1 XY    0.000003   0.228485   0.000000   0.000000   0.265520
   18  S  1 XZ    0.000000   0.000000   1.008634   0.266466   0.000000
   19  S  1 YZ    0.000000   0.000000   0.000000  -0.000000   0.000000
   20  O  2  S    0.058441   0.057084   0.000000   0.000000  -0.001459
   21  O  2  S   -0.087979  -0.104302   0.000000   0.000000   0.095817
   22  O  2  S   -0.791402  -0.662896   0.000000   0.000000  -0.245791
   23  O  2  X   -0.317652  -0.166869   0.000000   0.000000  -0.183685
   24  O  2  Y    0.024462  -0.220270   0.000000   0.000000   0.563690
   25  O  2  Z    0.000000   0.000000  -0.294307   0.597171   0.000000
   26  O  2  X    1.187695   1.121437   0.000000   0.000000   0.661288
   27  O  2  Y    0.395908   0.627326   0.000000   0.000000  -0.648951
   28  O  2  Z    0.000000   0.000000  -0.167887  -0.831017   0.000000
   29  O  2 XX    0.001742   0.013857   0.000000   0.000000   0.038503
   30  O  2 YY   -0.008117   0.002028   0.000000   0.000000  -0.023479
   31  O  2 ZZ    0.006375  -0.015885   0.000000   0.000000  -0.015023
   32  O  2 XY    0.001351   0.028055   0.000000   0.000000  -0.015955
   33  O  2 XZ    0.000000   0.000000  -0.052638  -0.027535   0.000000
   34  O  2 YZ    0.000000   0.000000  -0.047862  -0.010692   0.000000
   35  O  3  S    0.058440  -0.057085   0.000000   0.000000   0.001458
   36  O  3  S   -0.087980   0.104303   0.000000   0.000000  -0.095807
   37  O  3  S   -0.791379   0.662913   0.000000   0.000000   0.245778
   38  O  3  X    0.317641  -0.166882   0.000000   0.000000  -0.183703
   39  O  3  Y    0.024463   0.220274   0.000000   0.000000  -0.563711
   40  O  3  Z    0.000000   0.000000   0.294306  -0.597171   0.000000
   41  O  3  X   -1.187663   1.121465   0.000000   0.000000   0.661302
   42  O  3  Y    0.395898  -0.627335   0.000000   0.000000   0.648994
   43  O  3  Z    0.000000   0.000000   0.167887   0.831017   0.000000
   44  O  3 XX    0.001742  -0.013857   0.000000   0.000000  -0.038503
   45  O  3 YY   -0.008117  -0.002028   0.000000   0.000000   0.023480
   46  O  3 ZZ    0.006375   0.015885   0.000000   0.000000   0.015023
   47  O  3 XY   -0.001351   0.028055   0.000000   0.000000  -0.015956
   48  O  3 XZ    0.000000   0.000000  -0.052638  -0.027535   0.000000
   49  O  3 YZ    0.000000   0.000000   0.047862   0.010692   0.000000

                     31         32         33         34         35
                    0.8119     0.8655     1.2358     1.2852     1.4565
                     A          A          A          A          A   
    1  S  1  S    0.009397   0.000000  -0.000000   0.027671  -0.000000
    2  S  1  S   -0.076953   0.000000   0.000002  -0.205089   0.000003
    3  S  1  S    0.418194   0.000000  -0.000007   0.286890  -0.000008
    4  S  1  S    0.007464   0.000000  -0.000033   0.940989  -0.000051
    5  S  1  X    0.000002   0.000000  -0.239388  -0.000002  -0.030768
    6  S  1  Y   -0.014774   0.000000   0.000001  -0.115954   0.000003
    7  S  1  Z    0.000000   0.006518   0.000000   0.000000   0.000000
    8  S  1  X   -0.000011   0.000000   0.970044   0.000015   0.514238
    9  S  1  Y    0.023725   0.000000  -0.000009   0.516950  -0.000015
   10  S  1  Z    0.000000  -0.121666   0.000000   0.000000   0.000000
   11  S  1  X    0.000009   0.000000   0.376399   0.000026   1.139068
   12  S  1  Y   -0.705834   0.000000  -0.000011   0.145342  -0.000014
   13  S  1  Z    0.000000  -0.758313   0.000000   0.000000   0.000000
   14  S  1 XX    0.280558   0.000000  -0.000008   1.111815  -0.000021
   15  S  1 YY   -0.343007   0.000000   0.000001  -0.407133   0.000006
   16  S  1 ZZ    0.062448   0.000000   0.000006  -0.704683   0.000015
   17  S  1 XY   -0.000007   0.000000   0.878694   0.000005  -0.015505
   18  S  1 XZ    0.000000  -0.000000   0.000000   0.000000   0.000000
   19  S  1 YZ    0.000000  -0.240853   0.000000   0.000000   0.000000
   20  O  2  S   -0.007767   0.000000   0.038296   0.033984  -0.079308
   21  O  2  S    0.107336   0.000000  -0.128841  -0.094045   1.292938
   22  O  2  S   -0.172041   0.000000  -0.719333  -0.834626  -2.155866
   23  O  2  X    0.247757   0.000000   0.665065   0.514764   0.037933
   24  O  2  Y   -0.513614   0.000000   0.074056   0.387918  -0.059384
   25  O  2  Z    0.000000  -0.607010   0.000000   0.000000   0.000000
   26  O  2  X   -0.145169   0.000000  -0.119241   0.058219   0.252886
   27  O  2  Y    0.988418   0.000000   0.047952  -0.051824   0.383699
   28  O  2  Z    0.000000   1.032223   0.000000   0.000000   0.000000
   29  O  2 XX   -0.012938   0.000000   0.113781  -0.019033   0.033338
   30  O  2 YY    0.012691   0.000000  -0.123859   0.087878   0.044829
   31  O  2 ZZ    0.000247   0.000000   0.010078  -0.068845  -0.078167
   32  O  2 XY    0.031613   0.000000  -0.008019   0.080218   0.127106
   33  O  2 XZ    0.000000   0.048412   0.000000   0.000000   0.000000
   34  O  2 YZ    0.000000   0.009151   0.000000   0.000000   0.000000
   35  O  3  S   -0.007767   0.000000  -0.038294   0.033987   0.079309
   36  O  3  S    0.107340   0.000000   0.128800  -0.094095  -1.292974
   37  O  3  S   -0.172052   0.000000   0.719415  -0.834533   2.155968
   38  O  3  X   -0.247749   0.000000   0.665073  -0.514751   0.037950
   39  O  3  Y   -0.513587   0.000000  -0.074064   0.387920   0.059369
   40  O  3  Z    0.000000  -0.607010   0.000000   0.000000   0.000000
   41  O  3  X    0.145139   0.000000  -0.119223  -0.058218   0.252911
   42  O  3  Y    0.988388   0.000000  -0.047948  -0.051841  -0.383696
   43  O  3  Z    0.000000   1.032222   0.000000   0.000000   0.000000
   44  O  3 XX   -0.012936   0.000000  -0.113782  -0.019033  -0.033342
   45  O  3 YY    0.012690   0.000000   0.123859   0.087877  -0.044831
   46  O  3 ZZ    0.000246   0.000000  -0.010078  -0.068844   0.078173
   47  O  3 XY   -0.031612   0.000000  -0.008019  -0.080215   0.127111
   48  O  3 XZ    0.000000  -0.048412   0.000000   0.000000   0.000000
   49  O  3 YZ    0.000000   0.009151   0.000000   0.000000   0.000000

                     36         37         38         39         40
                    1.4845     2.0192     2.0231     2.0574     2.0907
                     A          A          A          A          A   
    1  S  1  S   -0.001546   0.000000  -0.000000   0.000000   0.001358
    2  S  1  S    0.026970   0.000000   0.000000   0.000000  -0.005303
    3  S  1  S   -0.384721   0.000000  -0.000000   0.000000  -0.073674
    4  S  1  S   -1.896253   0.000000   0.000001   0.000000   0.005347
    5  S  1  X    0.000004   0.000000  -0.008087   0.000000  -0.000000
    6  S  1  Y    0.030469   0.000000  -0.000000   0.000000  -0.000856
    7  S  1  Z    0.000000  -0.000000   0.000000  -0.034479   0.000000
    8  S  1  X   -0.000019   0.000000   0.001638   0.000000   0.000001
    9  S  1  Y   -0.333919   0.000000   0.000000   0.000000  -0.022200
   10  S  1  Z    0.000000   0.000000   0.000000   0.161395   0.000000
   11  S  1  X   -0.000028   0.000000   0.028274   0.000000  -0.000001
   12  S  1  Y   -0.645948   0.000000   0.000000   0.000000   0.006479
   13  S  1  Z    0.000000  -0.000000   0.000000  -0.012824   0.000000
   14  S  1 XX   -0.032632   0.000000   0.000000   0.000000   0.128218
   15  S  1 YY   -0.055955   0.000000   0.000000   0.000000   0.107067
   16  S  1 ZZ    0.088587   0.000000  -0.000000   0.000000  -0.235285
   17  S  1 XY   -0.000012   0.000000  -0.033328   0.000000   0.000000
   18  S  1 XZ    0.000000   0.039803   0.000000  -0.000000   0.000000
   19  S  1 YZ    0.000000  -0.000000   0.000000  -0.098329   0.000000
   20  O  2  S    0.072964   0.000000   0.001422   0.000000   0.007741
   21  O  2  S   -1.297576   0.000000  -0.016493   0.000000  -0.103391
   22  O  2  S    2.286045   0.000000   0.018130   0.000000   0.067101
   23  O  2  X    0.030744   0.000000   0.029253   0.000000   0.066388
   24  O  2  Y   -0.050387   0.000000  -0.022339   0.000000   0.023975
   25  O  2  Z    0.000000   0.015418   0.000000   0.032177   0.000000
   26  O  2  X   -0.700089   0.000000  -0.060013   0.000000  -0.062381
   27  O  2  Y    0.018078   0.000000   0.032554   0.000000  -0.016556
   28  O  2  Z    0.000000  -0.028357   0.000000  -0.054101   0.000000
   29  O  2 XX   -0.162600   0.000000   0.221742   0.000000  -0.037704
   30  O  2 YY    0.116550   0.000000   0.385595   0.000000  -0.556548
   31  O  2 ZZ    0.046050   0.000000  -0.607338   0.000000   0.594252
   32  O  2 XY   -0.007376   0.000000  -0.351541   0.000000   0.243064
   33  O  2 XZ    0.000000   0.402245   0.000000  -0.007765   0.000000
   34  O  2 YZ    0.000000  -0.582493   0.000000   0.711189   0.000000
   35  O  3  S    0.072963   0.000000  -0.001422   0.000000   0.007741
   36  O  3  S   -1.297542   0.000000   0.016494   0.000000  -0.103390
   37  O  3  S    2.285959   0.000000  -0.018131   0.000000   0.067099
   38  O  3  X   -0.030764   0.000000   0.029253   0.000000  -0.066388
   39  O  3  Y   -0.050389   0.000000   0.022339   0.000000   0.023975
   40  O  3  Z    0.000000  -0.015418   0.000000   0.032177   0.000000
   41  O  3  X    0.700089   0.000000  -0.060014   0.000000   0.062382
   42  O  3  Y    0.018093   0.000000  -0.032555   0.000000  -0.016556
   43  O  3  Z    0.000000   0.028357   0.000000  -0.054101   0.000000
   44  O  3 XX   -0.162593   0.000000  -0.221742   0.000000  -0.037703
   45  O  3 YY    0.116545   0.000000  -0.385596   0.000000  -0.556548
   46  O  3 ZZ    0.046048   0.000000   0.607338   0.000000   0.594250
   47  O  3 XY    0.007372   0.000000  -0.351542   0.000000  -0.243065
   48  O  3 XZ    0.000000   0.402245   0.000000   0.007764   0.000000
   49  O  3 YZ    0.000000   0.582496   0.000000   0.711187   0.000000

                     41         42         43         44         45
                    2.2853     2.3549     2.5120     2.5798     2.8727
                     A          A          A          A          A   
    1  S  1  S    0.000000  -0.000000   0.000000  -0.003552   0.043404
    2  S  1  S    0.000000   0.000001   0.000000   0.052318  -0.430691
    3  S  1  S    0.000000  -0.000004   0.000000  -0.453417   2.045964
    4  S  1  S    0.000000   0.000001   0.000000  -0.398507   1.026770
    5  S  1  X    0.000000   0.020204   0.000000  -0.000001  -0.000002
    6  S  1  Y    0.000000   0.000000   0.000000   0.105174  -0.077701
    7  S  1  Z    0.094617   0.000000  -0.000000   0.000000   0.000000
    8  S  1  X    0.000000  -0.283180   0.000000   0.000009   0.000011
    9  S  1  Y    0.000000  -0.000001   0.000000  -0.620529   0.756423
   10  S  1  Z   -0.445819   0.000000   0.000000   0.000000   0.000000
   11  S  1  X    0.000000  -0.080037   0.000000  -0.000002   0.000002
   12  S  1  Y    0.000000   0.000001   0.000000  -0.197727   0.050169
   13  S  1  Z   -0.065690   0.000000  -0.000000   0.000000   0.000000
   14  S  1 XX    0.000000  -0.000000   0.000000   0.478792   0.966409
   15  S  1 YY    0.000000   0.000000   0.000000  -0.503707  -0.434166
   16  S  1 ZZ    0.000000   0.000000   0.000000   0.024915  -0.532243
   17  S  1 XY    0.000000   0.619460   0.000000   0.000002   0.000007
   18  S  1 XZ    0.000000   0.000000   0.744487   0.000000   0.000000
   19  S  1 YZ   -0.335828   0.000000   0.000000   0.000000   0.000000
   20  O  2  S    0.000000   0.016553   0.000000   0.013935   0.017294
   21  O  2  S    0.000000  -0.323796   0.000000  -0.408930   0.395615
   22  O  2  S    0.000000   0.356400   0.000000   0.665519  -1.703092
   23  O  2  X    0.000000   0.129118   0.000000   0.108164   0.228202
   24  O  2  Y    0.000000   0.078963   0.000000   0.028126   0.125294
   25  O  2  Z   -0.062367   0.000000  -0.013461   0.000000   0.000000
   26  O  2  X    0.000000  -0.095357   0.000000  -0.424206   0.861528
   27  O  2  Y    0.000000  -0.285356   0.000000   0.181429   0.427863
   28  O  2  Z    0.243440   0.000000  -0.251609   0.000000   0.000000
   29  O  2 XX    0.000000  -0.350419   0.000000   0.622320  -0.558656
   30  O  2 YY    0.000000   0.544136   0.000000  -0.470080   0.086918
   31  O  2 ZZ    0.000000  -0.193717   0.000000  -0.152239   0.471739
   32  O  2 XY    0.000000   0.514447   0.000000  -0.444896  -0.709379
   33  O  2 XZ   -0.758003   0.000000   0.677862   0.000000   0.000000
   34  O  2 YZ   -0.024883   0.000000   0.443995   0.000000   0.000000
   35  O  3  S    0.000000  -0.016553   0.000000   0.013935   0.017294
   36  O  3  S    0.000000   0.323796   0.000000  -0.408932   0.395616
   37  O  3  S    0.000000  -0.356399   0.000000   0.665529  -1.703079
   38  O  3  X    0.000000   0.129118   0.000000  -0.108163  -0.228196
   39  O  3  Y    0.000000  -0.078963   0.000000   0.028126   0.125293
   40  O  3  Z   -0.062366   0.000000   0.013461   0.000000   0.000000
   41  O  3  X    0.000000  -0.095355   0.000000   0.424216  -0.861521
   42  O  3  Y    0.000000   0.285355   0.000000   0.181427   0.427861
   43  O  3  Z    0.243440   0.000000   0.251609   0.000000   0.000000
   44  O  3 XX    0.000000   0.350423   0.000000   0.622328  -0.558647
   45  O  3 YY    0.000000  -0.544138   0.000000  -0.470084   0.086912
   46  O  3 ZZ    0.000000   0.193715   0.000000  -0.152244   0.471735
   47  O  3 XY    0.000000   0.514444   0.000000   0.444890   0.709376
   48  O  3 XZ    0.758004   0.000000   0.677862   0.000000   0.000000
   49  O  3 YZ   -0.024883   0.000000  -0.443995   0.000000   0.000000

                     46
                    2.9723
                     A   
    1  S  1  S   -0.000000
    2  S  1  S    0.000002
    3  S  1  S   -0.000007
    4  S  1  S   -0.000004
    5  S  1  X   -0.265609
    6  S  1  Y    0.000000
    7  S  1  Z    0.000000
    8  S  1  X    2.221617
    9  S  1  Y   -0.000001
   10  S  1  Z    0.000000
   11  S  1  X    0.122681
   12  S  1  Y    0.000001
   13  S  1  Z    0.000000
   14  S  1 XX   -0.000010
   15  S  1 YY    0.000006
   16  S  1 ZZ    0.000004
   17  S  1 XY    0.755377
   18  S  1 XZ    0.000000
   19  S  1 YZ    0.000000
   20  O  2  S    0.021099
   21  O  2  S    0.368098
   22  O  2  S   -1.710659
   23  O  2  X    0.240762
   24  O  2  Y    0.070900
   25  O  2  Z    0.000000
   26  O  2  X    0.969847
   27  O  2  Y    0.373027
   28  O  2  Z    0.000000
   29  O  2 XX   -0.793961
   30  O  2 YY    0.379300
   31  O  2 ZZ    0.414662
   32  O  2 XY   -0.489154
   33  O  2 XZ    0.000000
   34  O  2 YZ    0.000000
   35  O  3  S   -0.021099
   36  O  3  S   -0.368095
   37  O  3  S    1.710668
   38  O  3  X    0.240767
   39  O  3  Y   -0.070902
   40  O  3  Z    0.000000
   41  O  3  X    0.969850
   42  O  3  Y   -0.373033
   43  O  3  Z    0.000000
   44  O  3 XX    0.793961
   45  O  3 YY   -0.379295
   46  O  3 ZZ   -0.414666
   47  O  3 XY   -0.489166
   48  O  3 XZ    0.000000
   49  O  3 YZ    0.000000
 ...... END OF RHF CALCULATION ......
 STEP CPU TIME =     2.31 TOTAL CPU TIME =          2.5 (      0.0 MIN)
 TOTAL WALL CLOCK TIME=          2.5 SECONDS, CPU UTILIZATION IS    98.40%

     ---------------------------------------------------------------------
     PROPERTIES FOR THE PBE      DFT FUNCTIONAL (RHF  TYPE) DENSITY MATRIX
     ---------------------------------------------------------------------

          -----------------
          ENERGY COMPONENTS
          -----------------

         WAVEFUNCTION NORMALIZATION =       1.0000000000

                ONE ELECTRON ENERGY =    -989.9247217671
                TWO ELECTRON ENERGY =     323.4883628395
           NUCLEAR REPULSION ENERGY =     118.3063463648
                                      ------------------
                       TOTAL ENERGY =    -548.1300125628

 ELECTRON-ELECTRON POTENTIAL ENERGY =     323.4883628395
  NUCLEUS-ELECTRON POTENTIAL ENERGY =   -1538.7675695044
   NUCLEUS-NUCLEUS POTENTIAL ENERGY =     118.3063463648
                                      ------------------
             TOTAL POTENTIAL ENERGY =   -1096.9728603001
               TOTAL KINETIC ENERGY =     548.8428477373
                 VIRIAL RATIO (V/T) =       1.9987012035

          ---------------------------------------
          MULLIKEN AND LOWDIN POPULATION ANALYSES
          ---------------------------------------

     ATOMIC MULLIKEN POPULATION IN EACH MOLECULAR ORBITAL

                      1          2          3          4          5

                  2.000000   2.000000   2.000000   2.000000   2.000000

    1             1.999808   0.000609   0.001209   2.001195   1.999690
    2             0.000096   1.001371   0.997720  -0.000597   0.000155
    3             0.000096   0.998020   1.001071  -0.000597   0.000155

                      6          7          8          9         10

                  2.000000   2.000000   2.000000   2.000000   2.000000

    1             2.000034   1.999976   0.783528   0.625470   0.618477
    2            -0.000017   0.000012   0.608231   0.687271   0.690759
    3            -0.000017   0.000012   0.608241   0.687260   0.690764

                     11         12         13         14         15

                  2.000000   2.000000   2.000000   2.000000   2.000000

    1             0.930183   0.800727   0.289068   0.179266   0.188285
    2             0.534908   0.599636   0.855468   0.910368   0.905859
    3             0.534909   0.599637   0.855464   0.910367   0.905857

                     16

                  2.000000

    1             1.221279
    2             0.389361
    3             0.389360

               ----- POPULATIONS IN EACH AO -----
                             MULLIKEN      LOWDIN
              1  S  1  S      1.99977     1.99919
              2  S  1  S      1.99161     1.87565
              3  S  1  S      1.19984     0.57532
              4  S  1  S      0.76061     0.55646
              5  S  1  X      1.99484     1.96055
              6  S  1  Y      1.99525     1.96785
              7  S  1  Z      1.99369     1.95931
              8  S  1  X      0.86718     0.65020
              9  S  1  Y      1.03788     0.93648
             10  S  1  Z      0.81491     0.70300
             11  S  1  X      0.03446     0.19649
             12  S  1  Y      0.10260     0.24102
             13  S  1  Z      0.10270     0.21627
             14  S  1 XX      0.07275     0.40934
             15  S  1 YY      0.26589     0.33029
             16  S  1 ZZ      0.20664     0.29356
             17  S  1 XY      0.17927     0.24096
             18  S  1 XZ      0.01892     0.22288
             19  S  1 YZ      0.00000     0.01838
             20  O  2  S      1.99537     1.97216
             21  O  2  S      0.93486     0.67082
             22  O  2  S      0.80785     0.48482
             23  O  2  X      0.99050     0.95750
             24  O  2  Y      1.08548     1.05122
             25  O  2  Z      0.89484     0.84678
             26  O  2  X      0.34166     0.51719
             27  O  2  Y      0.55831     0.62069
             28  O  2  Z      0.53945     0.57815
             29  O  2 XX      0.00283     0.21337
             30  O  2 YY      0.00970     0.18845
             31  O  2 ZZ      0.00878     0.18953
             32  O  2 XY      0.00957     0.01756
             33  O  2 XZ      0.00139     0.01325
             34  O  2 YZ      0.00000     0.00189
             35  O  3  S      1.99537     1.97216
             36  O  3  S      0.93486     0.67082
             37  O  3  S      0.80785     0.48482
             38  O  3  X      0.99050     0.95750
             39  O  3  Y      1.08548     1.05121
             40  O  3  Z      0.89484     0.84678
             41  O  3  X      0.34166     0.51719
             42  O  3  Y      0.55831     0.62069
             43  O  3  Z      0.53945     0.57815
             44  O  3 XX      0.00283     0.21337
             45  O  3 YY      0.00970     0.18845
             46  O  3 ZZ      0.00878     0.18953
             47  O  3 XY      0.00957     0.01756
             48  O  3 XZ      0.00139     0.01325
             49  O  3 YZ      0.00000     0.00189

          ----- MULLIKEN ATOMIC OVERLAP POPULATIONS -----
          (OFF-DIAGONAL ELEMENTS NEED TO BE MULTIPLIED BY 2)

             1           2           3

    1   14.8970022
    2    0.3709002   7.8156762
    3    0.3709013  -0.0059776   7.8156739

          TOTAL MULLIKEN AND LOWDIN ATOMIC POPULATIONS
       ATOM         MULL.POP.    CHARGE          LOW.POP.     CHARGE
    1 S            15.638804    0.361196        15.353223    0.646777
    2 O             8.180599   -0.180599         8.323389   -0.323389
    3 O             8.180598   -0.180598         8.323388   -0.323388

          MULLIKEN SPHERICAL HARMONIC POPULATIONS
       ATOM           S       P       D      F      G      H      I    TOTAL
    1 S             5.95    8.94    0.74   0.00   0.00   0.00   0.00   15.64
    2 O             3.74    4.41    0.03   0.00   0.00   0.00   0.00    8.18
    3 O             3.74    4.41    0.03   0.00   0.00   0.00   0.00    8.18

          -------------------------------
          BOND ORDER AND VALENCE ANALYSIS     BOND ORDER THRESHOLD=0.050
          -------------------------------

                   BOND                       BOND                       BOND
  ATOM PAIR DIST  ORDER      ATOM PAIR DIST  ORDER      ATOM PAIR DIST  ORDER
    1   2  1.300  2.067        1   3  1.300  2.067        2   3  2.402  0.151

                       TOTAL       BONDED        FREE
      ATOM            VALENCE     VALENCE     VALENCE
    1 S                 4.133       4.133       0.000
    2 O                 2.217       2.217      -0.000
    3 O                 2.217       2.217       0.000

          ---------------------
          ELECTROSTATIC MOMENTS
          ---------------------

 POINT   1           X           Y           Z (BOHR)    CHARGE
                -0.000000   -0.000000    0.000000       -0.00 (A.U.)
         DX          DY          DZ         /D/  (DEBYE)
    -0.000001   -0.366741    0.000000    0.366741
 ...... END OF PROPERTY EVALUATION ......
 STEP CPU TIME =     0.01 TOTAL CPU TIME =          2.5 (      0.0 MIN)
 TOTAL WALL CLOCK TIME=          2.5 SECONDS, CPU UTILIZATION IS    98.80%
                580000  WORDS OF DYNAMIC MEMORY USED
 EXECUTION OF GAMESS TERMINATED NORMALLY Sun Sep 29 10:43:31 2019
 DDI: 263640 bytes (0.3 MB / 0 MWords) used by master data server.

 ----------------------------------------
 CPU timing information for all processes
 ========================================
 0: 2.402 + 0.72 = 2.475
 ----------------------------------------
 ddikick.x: exited gracefully.
----- accounting info -----
Files used on the master node crcfe02.crc.nd.edu were:
-rw-r--r-- 1 cdrisko campus     208 Sep 29 10:43 /afs/crc.nd.edu/user/c/cdrisko/SO2.F05
-rw-r--r-- 1 cdrisko campus   37566 Sep 29 10:43 /afs/crc.nd.edu/user/c/cdrisko/SO2.F07
-rw-r--r-- 1 cdrisko campus 4320384 Sep 29 10:43 /afs/crc.nd.edu/user/c/cdrisko/SO2.F08
-rw-r--r-- 1 cdrisko campus 1766880 Sep 29 10:43 /afs/crc.nd.edu/user/c/cdrisko/SO2.F10
Sun Sep 29 10:43:34 EDT 2019
0.430u 0.248s 0:06.15 10.8%	0+0k 0+24io 0pf+0w
