----- GAMESS execution script 'rungms' -----
This job is running on host crcfe02.crc.nd.edu
under operating system Linux at Sun Sep 29 10:53:15 EDT 2019
Available scratch disk space (Kbyte units) at beginning of the job is
Filesystem      1K-blocks  Used  Available Use% Mounted on
AFS            2147483647     0 2147483647   0% /afs
GAMESS temporary binary files will be written to /afs/crc.nd.edu/user/c/cdrisko
GAMESS supplementary output files will be written to /afs/crc.nd.edu/user/c/cdrisko/scr
Copying input file SO2.inp to your run's scratch directory...

 Distributed Data Interface kickoff program.
 Initiating 1 compute processes on 1 nodes to run the following command:
 /afs/crc.nd.edu/x86_64_linux/g/gamess/nov-2017/gamess/gamess.00.x SO2 

          ******************************************************
          *         GAMESS VERSION = 11 NOV 2017 (R3)         *
          *             FROM IOWA STATE UNIVERSITY             *
          * M.W.SCHMIDT, K.K.BALDRIDGE, J.A.BOATZ, S.T.ELBERT, *
          *   M.S.GORDON, J.H.JENSEN, S.KOSEKI, N.MATSUNAGA,   *
          *          K.A.NGUYEN, S.J.SU, T.L.WINDUS,           *
          *       TOGETHER WITH M.DUPUIS, J.A.MONTGOMERY       *
          *         J.COMPUT.CHEM.  14, 1347-1363(1993)        *
          **************** 64 BIT INTEL VERSION ****************

  SINCE 1993, STUDENTS AND POSTDOCS WORKING AT IOWA STATE UNIVERSITY
  AND ALSO IN THEIR VARIOUS JOBS AFTER LEAVING ISU HAVE MADE IMPORTANT
  CONTRIBUTIONS TO THE CODE:
     IVANA ADAMOVIC, CHRISTINE AIKENS, YURI ALEXEEV, POOJA ARORA,
     ANDREY ASADCHEV, ROB BELL, PRADIPTA BANDYOPADHYAY, JONATHAN BENTZ,
     BRETT BODE, KURT BRORSEN, CALEB CARLIN, GALINA CHABAN, WEI CHEN,
     CHEOL HO CHOI, PAUL DAY, ALBERT DEFUSCO, NUWAN DESILVA, TIM DUDLEY,
     DMITRI FEDOROV, ALEX FINDLATER, GRAHAM FLETCHER, MARK FREITAG,
     KURT GLAESEMANN, ANASTASIA GUININA,
     DAN KEMP, GRANT MERRILL, NORIYUKI MINEZAWA, JONATHAN MULLIN,
     TAKESHI NAGATA, SEAN NEDD, HEATHER NETZLOFF, BOSILJKA NJEGIC, RYAN OLSON,
     MIKE PAK, BUU PHAM,
     SPENCER PRUITT, LUKE ROSKOP, JIM SHOEMAKER, LYUDMILA SLIPCHENKO,
     TONY SMITH, SAROM SOK LEANG, JIE SONG, TETSUYA TAKETSUGU, SIMON WEBB,
     PENG XU, SOOHAENG YOO, FEDERICO ZAHARIEV

  ADDITIONAL CODE HAS BEEN PROVIDED BY COLLABORATORS IN OTHER GROUPS:
     IOWA STATE UNIVERSITY:
          JOE IVANIC, AARON WEST, LAIMUTIS BYTAUTAS, KLAUS RUEDENBERG
     UNIVERSITY OF TOKYO: KIMIHIKO HIRAO, TAKAHITO NAKAJIMA,
          TAKAO TSUNEDA, MUNEAKI KAMIYA, SUSUMU YANAGISAWA,
          KIYOSHI YAGI, MAHITO CHIBA, SEIKEN TOKURA, NAOAKI KAWAKAMI
     UNIVERSITY OF AARHUS: FRANK JENSEN
     UNIVERSITY OF IOWA: VISVALDAS KAIRYS, HUI LI
     NATIONAL INST. OF STANDARDS AND TECHNOLOGY: WALT STEVENS, DAVID GARMER
     UNIVERSITY OF PISA: BENEDETTA MENNUCCI, JACOPO TOMASI
     UNIVERSITY OF MEMPHIS: HENRY KURTZ, PRAKASHAN KORAMBATH
     UNIVERSITY OF ALBERTA: TOBY ZENG, MARIUSZ KLOBUKOWSKI
     UNIVERSITY OF NEW ENGLAND: MARK SPACKMAN
     MIE UNIVERSITY: HIROAKI UMEDA
     NAT. INST. OF ADVANCED INDUSTRIAL SCIENCE AND TECHNOLOGY: KAZUO KITAURA
     MICHIGAN STATE UNIVERSITY:
          KAROL KOWALSKI, MARTA WLOCH, JEFFREY GOUR, JESSE LUTZ,
          WEI LI, PIOTR PIECUCH
     UNIVERSITY OF SILESIA: MONIKA MUSIAL, STANISLAW KUCHARSKI
     FACULTES UNIVERSITAIRES NOTRE-DAME DE LA PAIX:
          OLIVIER QUINET, BENOIT CHAMPAGNE
     UNIVERSITY OF CALIFORNIA - SANTA BARBARA: BERNARD KIRTMAN
     INSTITUTE FOR MOLECULAR SCIENCE:
          KAZUYA ISHIMURA, MICHIO KATOUDA, AND SHIGERU NAGASE
     UNIVERSITY OF NOTRE DAME: ANNA POMOGAEVA, DAN CHIPMAN
     KYUSHU UNIVERSITY:
          HARUYUKI NAKANO,
          FENG LONG GU, JACEK KORCHOWIEC, MARCIN MAKOWSKI, AND YURIKO AOKI,
          HIROTOSHI MORI AND EISAKU MIYOSHI
     PENNSYLVANIA STATE UNIVERSITY:
          TZVETELIN IORDANOV, CHET SWALINA, JONATHAN SKONE,
          SHARON HAMMES-SCHIFFER
     WASEDA UNIVERSITY:
          MASATO KOBAYASHI, TOMOKO AKAMA, TSUGUKI TOUMA,
          TAKESHI YOSHIKAWA, YASUHIRO IKABATA, JUNJI SEINO,
          YUYA NAKAJIMA, HIROMI NAKAI
     NANJING UNIVERSITY: SHUHUA LI
     UNIVERSITY OF NEBRASKA:
          PEIFENG SU, DEJUN SI, NANDUN THELLAMUREGE, YALI WANG, HUI LI
     UNIVERSITY OF ZURICH: ROBERTO PEVERATI, KIM BALDRIDGE
     N. COPERNICUS UNIVERSITY AND JACKSON STATE UNIVERSITY:
          MARIA BARYSZ
     UNIVERSITY OF COPENHAGEN: Jimmy Kromann, CASPER STEINMANN
     TOKYO INSTITUTE OF TECHNOLOGY: HIROYA NAKATA
     NAGOYA UNIVERSITY: YOSHIO NISHIMOTO, STEPHAN IRLE
     MOSCOW STATE UNIVERSITY: VLADIMIR MIRONOV

 EXECUTION OF GAMESS BEGUN Sun Sep 29 10:53:16 2019

            ECHO OF THE FIRST FEW INPUT CARDS -
 INPUT CARD> $BASIS GBASIS=PCSEG-1 $END                                                     
 INPUT CARD> $CONTRL COORD=ZMT ISPHER=1 RUNTYP=ENERGY DFTTYP=PBE MULT=1 $END                
 INPUT CARD>                                                                                
 INPUT CARD> $DATA                                                                          
 INPUT CARD>Title SO2 single-point calculation template with Z-Matrix                       
 INPUT CARD>C1                                                                              
 INPUT CARD>S                                                                               
 INPUT CARD>O 1 1.65                                                                        
 INPUT CARD>O 1 1.65 2 140                                                                  
 INPUT CARD> $END                                                                           
    1000000 WORDS OF MEMORY AVAILABLE

     BASIS OPTIONS
     -------------
     GBASIS=PCSEG-1      IGAUSS=       0      POLAR=NONE    
     NDFUNC=       0     NFFUNC=       0     DIFFSP=       F
     NPFUNC=       0      DIFFS=       F     BASNAM=        


     RUN TITLE
     ---------
 Title SO2 single-point calculation template with Z-Matrix                       

 THE POINT GROUP OF THE MOLECULE IS C1      
 THE ORDER OF THE PRINCIPAL AXIS IS     0

 YOUR FULLY SUBSTITUTED Z-MATRIX IS
 S   
 O      1   1.6500000
 O      1   1.6500000  2  140.0000

 THE MOMENTS OF INERTIA ARE (AMU-ANGSTROM**2)
 IXX=     5.093   IYY=    76.904   IZZ=    81.997

 ATOM      ATOMIC                      COORDINATES (BOHR)
           CHARGE         X                   Y                   Z
 S          16.0     0.0000000000       -0.5333655640        0.0000000000
 O           8.0     2.9300065838        0.5330696187        0.0000000000
 O           8.0    -2.9300065838        0.5330696187        0.0000000000

          INTERNUCLEAR DISTANCES (ANGS.)
          ------------------------------

                1 S          2 O          3 O     

   1 S       0.0000000    1.6500000 *  1.6500000 *
   2 O       1.6500000 *  0.0000000    3.1009856  
   3 O       1.6500000 *  3.1009856    0.0000000  

  * ... LESS THAN  3.000


     ATOMIC BASIS SET
     ----------------
 THE CONTRACTED PRIMITIVE FUNCTIONS HAVE BEEN UNNORMALIZED
 THE CONTRACTED BASIS FUNCTIONS ARE NOW NORMALIZED TO UNITY

  SHELL TYPE  PRIMITIVE        EXPONENT          CONTRACTION COEFFICIENT(S)

 S         

      1   S       1         49299.4000000    0.000677492991
      1   S       2          7395.8400000    0.005232317766
      1   S       3          1683.3000000    0.026769459077
      1   S       4           476.1440000    0.102869580705
      1   S       5           154.3290000    0.286438127414
      1   S       6            55.0288000    0.454278639081
      1   S       7            20.5029000    0.271743121997

      2   S       8            45.9596000   -0.088421914560
      2   S       9             4.9274000    0.564350486135
      2   S      10             1.9179900    0.505415953466

      3   S      11             0.3684980    1.000000000000

      4   S      12             0.1291650    1.000000000000

      5   P      13           451.6620000    0.003707705453
      5   P      14           106.0980000    0.029219352245
      5   P      15            33.6996000    0.124444551509
      5   P      16            12.3054000    0.321808587656
      5   P      17             4.7141200    0.462822172957
      5   P      18             1.7810500    0.266513371364

      6   P      19             0.8722350    0.349265132972
      6   P      20             0.3102780    0.717115018770

      7   P      21             0.1001940    1.000000000000

      8   D      22             0.5500000    1.000000000000

 O         

      9   S      23          2288.6400000    0.005451138222
      9   S      24           344.4160000    0.040718922842
      9   S      25            78.2538000    0.181369420873
      9   S      26            21.7195000    0.465536820246
      9   S      27             6.5590700    0.451211321214

     10   S      28            10.4656000   -0.150211201174
     10   S      29             0.9643510    1.052867983385

     11   S      30             0.2851270    1.000000000000

     12   P      31            17.0590000    0.068749256972
     12   P      32             3.6899900    0.351671941499
     12   P      33             0.9929960    0.724532099722

     13   P      34             0.2449240    1.000000000000

     14   D      35             1.0000000    1.000000000000

 O         

     15   S      36          2288.6400000    0.005451138222
     15   S      37           344.4160000    0.040718922842
     15   S      38            78.2538000    0.181369420873
     15   S      39            21.7195000    0.465536820246
     15   S      40             6.5590700    0.451211321214

     16   S      41            10.4656000   -0.150211201174
     16   S      42             0.9643510    1.052867983385

     17   S      43             0.2851270    1.000000000000

     18   P      44            17.0590000    0.068749256972
     18   P      45             3.6899900    0.351671941499
     18   P      46             0.9929960    0.724532099722

     19   P      47             0.2449240    1.000000000000

     20   D      48             1.0000000    1.000000000000

 TOTAL NUMBER OF BASIS SET SHELLS             =   20
 NUMBER OF CARTESIAN GAUSSIAN BASIS FUNCTIONS =   49
 NOTE: THIS RUN WILL RESTRICT THE MO VARIATION SPACE TO SPHERICAL HARMONICS.
 THE NUMBER OF ORBITALS KEPT IN THE VARIATIONAL SPACE WILL BE PRINTED LATER.
 NUMBER OF ELECTRONS                          =   32
 CHARGE OF MOLECULE                           =    0
 SPIN MULTIPLICITY                            =    1
 NUMBER OF OCCUPIED ORBITALS (ALPHA)          =   16
 NUMBER OF OCCUPIED ORBITALS (BETA )          =   16
 TOTAL NUMBER OF ATOMS                        =    3
 THE NUCLEAR REPULSION ENERGY IS       93.0241291687

     LEBEDEV GRID-BASED DFT OPTIONS
     ------------------------------
     DFTTYP=PBE     
     NRAD  =      96     NLEB  =     302
     NRAD0 =      24     NLEB0 =     110
     SWOFF =    5.00E-03 (PURE SCF -> DFT)
     SWITCH=    3.00E-04 (COARSE -> TIGHT GRID)
     THRESH=    0.00E+00 GTHRE=    1.00E+00

 GRIMME'S EMPIRICAL DISPERSION CORRECTION= F

     $CONTRL OPTIONS
     ---------------
 SCFTYP=RHF          RUNTYP=ENERGY       EXETYP=RUN     
 MPLEVL=       0     CITYP =NONE         CCTYP =NONE         VBTYP =NONE    
 DFTTYP=PBE          TDDFT =NONE    
 MULT  =       1     ICHARG=       0     NZVAR =       0     COORD =ZMT     
 PP    =NONE         RELWFN=NONE         LOCAL =NONE         NUMGRD=       F
 ISPHER=       1     NOSYM =       0     MAXIT =      30     UNITS =ANGS    
 PLTORB=       F     MOLPLT=       F     AIMPAC=       F     FRIEND=        
 NPRINT=       7     IREST =       0     GEOM  =INPUT   
 NORMF =       0     NORMP =       0     ITOL  =      20     ICUT  =       9
 INTTYP=BEST         GRDTYP=BEST         QMTTOL= 1.0E-06

     $SYSTEM OPTIONS
     ---------------
  REPLICATED MEMORY=     1000000 WORDS (ON EVERY NODE).
 DISTRIBUTED MEMDDI=           0 MILLION WORDS IN AGGREGATE,
 MEMDDI DISTRIBUTED OVER   1 PROCESSORS IS           0 WORDS/PROCESSOR.
 TOTAL MEMORY REQUESTED ON EACH PROCESSOR=     1000000 WORDS.
 TIMLIM=      525600.00 MINUTES, OR     365.0 DAYS.
 PARALL= F  BALTYP=  DLB     KDIAG=    0  COREFL= F
 MXSEQ2=     300 MXSEQ3=     150  mem10=         0

          ----------------
          PROPERTIES INPUT
          ----------------

     MOMENTS            FIELD           POTENTIAL          DENSITY
 IEMOM =       1   IEFLD =       0   IEPOT =       0   IEDEN =       0
 WHERE =COMASS     WHERE =NUCLEI     WHERE =NUCLEI     WHERE =NUCLEI  
 OUTPUT=BOTH       OUTPUT=BOTH       OUTPUT=BOTH       OUTPUT=BOTH    
 IEMINT=       0   IEFINT=       0                     IEDINT=       0
                                                       MORB  =       0
          EXTRAPOLATION IN EFFECT
          DIIS IN EFFECT
 ORBITAL PRINTING OPTION: NPREO=     1    49     2     1

     -------------------------------
     INTEGRAL TRANSFORMATION OPTIONS
     -------------------------------
     NWORD  =            0
     CUTOFF = 1.0E-09     MPTRAN =       0
     DIRTRF =       F     AOINTS =DUP     

          ----------------------
          INTEGRAL INPUT OPTIONS
          ----------------------
 NOPK  =       1 NORDER=       0 SCHWRZ=       F

   --- ENCODED Z MATRIX ---
 COORD  TYPE   I   J   K   L   M   N
    1      1    2   1
    2      1    3   1
    3      2    3   1   2

 THE DETERMINANT OF THE G MATRIX IS 10**(    -4)

 THE DETERMINANT OF THE G MATRIX IS 10**(    -4)
 * * * WARNING * * *
 YOUR B MATRIX HAS A SMALL DETERMINANT.
 THIS SUGGESTS YOU MAY HAVE BADLY CHOSEN COORDINATES.

     ------------------------------------------
     THE POINT GROUP IS C1 , NAXIS= 0, ORDER= 1
     ------------------------------------------

 -- VARIATIONAL SPACE WILL BE RESTRICTED TO PURE SPHERICAL HARMONICS ONLY --
 AFTER EXCLUDING CONTAMINANT COMBINATIONS FROM THE CARTESIAN GAUSSIAN BASIS
 SET, THE NUMBER OF SPHERICAL HARMONICS KEPT IN THE VARIATION SPACE IS   46

     DIMENSIONS OF THE SYMMETRY SUBSPACES ARE
 A   =   46

 ..... DONE SETTING UP THE RUN .....
 STEP CPU TIME =     0.04 TOTAL CPU TIME =          0.0 (      0.0 MIN)
 TOTAL WALL CLOCK TIME=          0.1 SECONDS, CPU UTILIZATION IS    80.00%

          ********************
          1 ELECTRON INTEGRALS
          ********************
 ...... END OF ONE-ELECTRON INTEGRALS ......
 STEP CPU TIME =     0.00 TOTAL CPU TIME =          0.0 (      0.0 MIN)
 TOTAL WALL CLOCK TIME=          0.1 SECONDS, CPU UTILIZATION IS    80.00%

          -------------
          GUESS OPTIONS
          -------------
          GUESS =HUCKEL            NORB  =       0          NORDER=       0
          MIX   =       F          PRTMO =       F          PUNMO =       F
          TOLZ  = 1.0E-08          TOLE  = 1.0E-05
          SYMDEN=       F          PURIFY=       F

 INITIAL GUESS ORBITALS GENERATED BY HUCKEL   ROUTINE.
 HUCKEL GUESS REQUIRES     21634 WORDS.

 STATISTICS FOR GENERATION OF SYMMETRY ORBITAL -Q- MATRIX
 NUMBER OF CARTESIAN ATOMIC ORBITALS=         49
 NUMBER OF SPHERICAL CONTAMINANTS DROPPED=     3
 NUMBER OF LINEARLY DEPENDENT MOS DROPPED=     0
 TOTAL NUMBER OF MOS IN VARIATION SPACE=      46

 SYMMETRIES FOR INITIAL GUESS ORBITALS FOLLOW.   BOTH SET(S).
    16 ORBITALS ARE OCCUPIED (    7 CORE ORBITALS).
     8=A        9=A       10=A       11=A       12=A       13=A       14=A   
    15=A       16=A       17=A       18=A       19=A       20=A       21=A   
    22=A       23=A       24=A       25=A       26=A   
 ...... END OF INITIAL ORBITAL SELECTION ......
 STEP CPU TIME =     0.01 TOTAL CPU TIME =          0.0 (      0.0 MIN)
 TOTAL WALL CLOCK TIME=          0.1 SECONDS, CPU UTILIZATION IS   100.00%

                    ----------------------
                    AO INTEGRAL TECHNOLOGY
                    ----------------------
     S,P,L SHELL ROTATED AXIS INTEGRALS, REPROGRAMMED BY
        KAZUYA ISHIMURA (IMS) AND JOSE SIERRA (SYNSTAR).
     S,P,D,L SHELL ROTATED AXIS INTEGRALS PROGRAMMED BY
        KAZUYA ISHIMURA (INSTITUTE FOR MOLECULAR SCIENCE).
     S,P,D,F,G SHELL TO TOTAL QUARTET ANGULAR MOMENTUM SUM 5,
        ERIC PROGRAM BY GRAHAM FLETCHER (ELORET AND NASA ADVANCED
        SUPERCOMPUTING DIVISION, AMES RESEARCH CENTER).
     S,P,D,F,G,L SHELL GENERAL RYS QUADRATURE PROGRAMMED BY
        MICHEL DUPUIS (PACIFIC NORTHWEST NATIONAL LABORATORY).

          --------------------
          2 ELECTRON INTEGRALS
          --------------------

 THE -PK- OPTION IS OFF, THE INTEGRALS ARE NOT IN SUPERMATRIX FORM.
 STORING   15000 INTEGRALS/RECORD ON DISK, USING 12 BYTES/INTEGRAL.
 TWO ELECTRON INTEGRAL EVALUATION REQUIRES   90606 WORDS OF MEMORY.
 II,JST,KST,LST =  1  1  1  1 NREC =         1 INTLOC =    1
 II,JST,KST,LST =  2  1  1  1 NREC =         1 INTLOC =    2
 II,JST,KST,LST =  3  1  1  1 NREC =         1 INTLOC =    7
 II,JST,KST,LST =  4  1  1  1 NREC =         1 INTLOC =   22
 II,JST,KST,LST =  5  1  1  1 NREC =         1 INTLOC =   56
 II,JST,KST,LST =  6  1  1  1 NREC =         1 INTLOC =  125
 II,JST,KST,LST =  7  1  1  1 NREC =         1 INTLOC =  329
 II,JST,KST,LST =  8  1  1  1 NREC =         1 INTLOC =  776
 II,JST,KST,LST =  9  1  1  1 NREC =         1 INTLOC = 2864
 II,JST,KST,LST = 10  1  1  1 NREC =         1 INTLOC = 4871
 II,JST,KST,LST = 11  1  1  1 NREC =         1 INTLOC = 7524
 II,JST,KST,LST = 12  1  1  1 NREC =         1 INTLOC =10635
 II,JST,KST,LST = 13  1  1  1 NREC =         2 INTLOC = 6497
 II,JST,KST,LST = 14  1  1  1 NREC =         3 INTLOC = 6736
 II,JST,KST,LST = 15  1  1  1 NREC =         6 INTLOC = 8573
 II,JST,KST,LST = 16  1  1  1 NREC =         7 INTLOC =  364
 II,JST,KST,LST = 17  1  1  1 NREC =         7 INTLOC =10527
 II,JST,KST,LST = 18  1  1  1 NREC =         8 INTLOC = 8758
 II,JST,KST,LST = 19  1  1  1 NREC =        10 INTLOC =13163
 II,JST,KST,LST = 20  1  1  1 NREC =        14 INTLOC = 3876
 TOTAL NUMBER OF NONZERO TWO-ELECTRON INTEGRALS =              314753
         21 INTEGRAL RECORDS WERE STORED ON DISK FILE  8.
  ...... END OF TWO-ELECTRON INTEGRALS .....
 STEP CPU TIME =     0.10 TOTAL CPU TIME =          0.2 (      0.0 MIN)
 TOTAL WALL CLOCK TIME=          0.2 SECONDS, CPU UTILIZATION IS    93.75%

          --------------------------
               R-PBE SCF CALCULATION
          --------------------------

     NUCLEAR ENERGY =        93.0241291687
     MAXIT =   30     NPUNCH=    2
     EXTRAP=T  DAMP=F  SHIFT=F  RSTRCT=F  DIIS=T  DEM=F  SOSCF=F
         DENSITY MATRIX CONVERGENCE THRESHOLD=  1.00E-05
     COARSE -> FINE DFT GRID SWITCH THRESHOLD=  3.00E-04 (SWITCH IN $DFT)
                   HF -> DFT SWITCH THRESHOLD=  5.00E-03 (SWOFF IN $DFT)
     MEMORY REQUIRED FOR RHF ITERS=    183108 WORDS.

 DFT CODE IS SWITCHING FROM THE FINE GRID NRAD= 96,  NLEB=  302
                      TO THE COARSE GRID NRAD0= 24, NLEB0=  110

     EXCHANGE FUNCTIONAL   =PBE       
     CORRELATION FUNCTIONAL=PBE       
     DFT THRESHOLD         =.460E-07
     GRID CHANGE THRESHOLD =.300E-03
 FOR AN EULER-MACLAURIN QUADRATURE USING  96 RADIAL POINTS:
 SMALLEST GAUSSIAN PRIMITIVE EXPONENT=        0.1001940000 OF TYPE -P-
 ON ATOM NUMBER   1 HAS RADIAL NORMALIZATION=  1.000000
  LARGEST GAUSSIAN PRIMITIVE EXPONENT=    49299.4000000000 OF TYPE -S-
 ON ATOM NUMBER   1 HAS RADIAL NORMALIZATION=  1.000000
 DFT IS SWITCHED OFF, PERFORMING PURE SCF UNTIL SWOFF THRESHOLD IS REACHED.

 ITER EX DEM     TOTAL ENERGY        E CHANGE  DENSITY CHANGE    DIIS ERROR
   1  0  0     -545.9677638551  -545.9677638551   0.703556852   0.933604799
          * * *   INITIATING DIIS PROCEDURE   * * *
   2  1  0     -546.4928419658    -0.5250781107   0.781618607   0.349201883
   3  2  0     -546.4964312682    -0.0035893023   0.308263817   0.342852148
   4  3  0     -546.9780232681    -0.4815920000   0.047658922   0.012101199
   5  4  0     -546.9794461093    -0.0014228411   0.010813554   0.005057734
   6  5  0     -546.9797187268    -0.0002726175   0.004699709   0.002358665
 CONVERGED TO SWOFF, SO DFT CALCULATION IS NOW SWITCHED ON.
          * * *   INITIATING DIIS PROCEDURE   * * *
   7  6  0     -548.1419110074    -1.1621922806   0.476705655   0.104726950
   8  7  0     -548.1247913176     0.0171196897   0.409731061   0.144180657
   9  8  0     -548.1376592982    -0.0128679805   0.129136271   0.139364546
  10  9  0     -548.1901237512    -0.0524644530   0.034068605   0.014149113
  11 10  0     -548.1909907042    -0.0008669530   0.003056523   0.001600615
  12 11  0     -548.1909997514    -0.0000090473   0.000740513   0.000349382
  13 12  0     -548.1910002742    -0.0000005228   0.000156026   0.000040785
 DFT CODE IS SWITCHING BACK TO THE FINE GRID
          * * *   INITIATING DIIS PROCEDURE   * * *
  14 13  0     -548.1970929760    -0.0060927018   0.018733869   0.011131891
  15 14  0     -548.1970649546     0.0000280213   0.022653892   0.008852870
  16 15  0     -548.1970054125     0.0000595422   0.012736321   0.009891833
  17 16  0     -548.1971312994    -0.0001258870   0.007070515   0.010463558
  18 17  0     -548.1973100467    -0.0001787473   0.000899574   0.001320608
  19 18  0     -548.1973137685    -0.0000037217   0.000227991   0.000102613
  20 19  0     -548.1973138129    -0.0000000444   0.000034540   0.000015633
  21 20  0     -548.1973138137    -0.0000000008   0.000005647   0.000003489
  22 21  0     -548.1973138137    -0.0000000000   0.000000418   0.000000286

          -----------------
          DENSITY CONVERGED
          -----------------
     TIME TO FORM FOCK OPERATORS=       2.4 SECONDS (       0.1 SEC/ITER)
     TIME TO SOLVE SCF EQUATIONS=       0.0 SECONDS (       0.0 SEC/ITER)

 FINAL R-PBE ENERGY IS     -548.1973138137 AFTER  22 ITERATIONS
 DFT EXCHANGE + CORRELATION ENERGY =       -42.2878053828
 TOTAL ELECTRON NUMBER             =        32.0000017487

          ------------
          EIGENVECTORS
          ------------

                      1          2          3          4          5
                  -88.2320   -18.8285   -18.8285    -7.8436    -5.8703
                     A          A          A          A          A   
    1  S  1  S    0.997762  -0.000000   0.000001  -0.308393  -0.000000
    2  S  1  S    0.008222  -0.000000  -0.000094   1.031812   0.000000
    3  S  1  S   -0.002890  -0.000000  -0.000261   0.027544   0.000000
    4  S  1  S    0.000910   0.000003   0.006203  -0.005500  -0.000000
    5  S  1  X   -0.000000   0.000168  -0.000000  -0.000000   0.994672
    6  S  1  Y    0.000108  -0.000000  -0.000089   0.010994  -0.000001
    7  S  1  Z    0.000000   0.000000   0.000000   0.000000   0.000000
    8  S  1  X    0.000000  -0.001931   0.000001   0.000000   0.017171
    9  S  1  Y   -0.000199   0.000000   0.000848   0.000985  -0.000000
   10  S  1  Z    0.000000   0.000000   0.000000   0.000000   0.000000
   11  S  1  X    0.000000  -0.004948   0.000002  -0.000000  -0.002371
   12  S  1  Y    0.000007   0.000001   0.001799  -0.000182   0.000000
   13  S  1  Z    0.000000   0.000000   0.000000   0.000000   0.000000
   14  S  1 XX   -0.000240   0.000000   0.000846   0.000909  -0.000000
   15  S  1 YY    0.000096  -0.000000  -0.000242  -0.000442  -0.000000
   16  S  1 ZZ    0.000144  -0.000000  -0.000604  -0.000467   0.000000
   17  S  1 XY    0.000000  -0.000577   0.000000  -0.000000   0.001220
   18  S  1 XZ    0.000000   0.000000   0.000000   0.000000   0.000000
   19  S  1 YZ    0.000000   0.000000   0.000000   0.000000   0.000000
   20  O  2  S   -0.000010  -0.702002   0.702656   0.000018  -0.000126
   21  O  2  S   -0.000142  -0.023758   0.023498   0.000048  -0.000083
   22  O  2  S    0.000265   0.011563  -0.010551  -0.000472  -0.000827
   23  O  2  X   -0.000003   0.000726  -0.000915   0.000225  -0.000007
   24  O  2  Y   -0.000000   0.000373  -0.000125   0.000075   0.000016
   25  O  2  Z    0.000000   0.000000   0.000000   0.000000   0.000000
   26  O  2  X   -0.000345  -0.001942   0.002746   0.000925   0.001115
   27  O  2  Y   -0.000132  -0.001339   0.000327   0.000384   0.000401
   28  O  2  Z    0.000000   0.000000   0.000000   0.000000   0.000000
   29  O  2 XX    0.000184   0.000185  -0.000330  -0.000311   0.000314
   30  O  2 YY   -0.000069  -0.000038   0.000133   0.000113  -0.000116
   31  O  2 ZZ   -0.000115  -0.000147   0.000197   0.000198  -0.000198
   32  O  2 XY    0.000132   0.000203  -0.000157  -0.000237   0.000222
   33  O  2 XZ    0.000000   0.000000   0.000000   0.000000   0.000000
   34  O  2 YZ    0.000000   0.000000   0.000000   0.000000   0.000000
   35  O  3  S   -0.000010   0.702657   0.702001   0.000018   0.000126
   36  O  3  S   -0.000142   0.023780   0.023476   0.000048   0.000083
   37  O  3  S    0.000265  -0.011572  -0.010541  -0.000472   0.000827
   38  O  3  X    0.000003   0.000727   0.000914  -0.000225  -0.000007
   39  O  3  Y   -0.000000  -0.000373  -0.000124   0.000075  -0.000016
   40  O  3  Z    0.000000   0.000000   0.000000   0.000000   0.000000
   41  O  3  X    0.000345  -0.001944  -0.002744  -0.000925   0.001115
   42  O  3  Y   -0.000132   0.001339   0.000325   0.000384  -0.000401
   43  O  3  Z    0.000000   0.000000   0.000000   0.000000   0.000000
   44  O  3 XX    0.000184  -0.000185  -0.000330  -0.000311  -0.000314
   45  O  3 YY   -0.000069   0.000038   0.000133   0.000113   0.000116
   46  O  3 ZZ   -0.000115   0.000147   0.000197   0.000198   0.000198
   47  O  3 XY   -0.000132   0.000203   0.000156   0.000237   0.000222
   48  O  3 XZ    0.000000   0.000000   0.000000   0.000000   0.000000
   49  O  3 YZ    0.000000   0.000000   0.000000   0.000000   0.000000

                      6          7          8          9         10
                   -5.8681    -5.8647    -0.9725    -0.9237    -0.6259
                     A          A          A          A          A   
    1  S  1  S    0.000000   0.003439   0.046276   0.000000   0.070762
    2  S  1  S    0.000000  -0.011840  -0.285946  -0.000000  -0.452009
    3  S  1  S    0.000000   0.000139   0.403393  -0.000001   0.689890
    4  S  1  S    0.000000   0.000297   0.082730   0.000003   0.254966
    5  S  1  X    0.000000   0.000001  -0.000000   0.103621  -0.000000
    6  S  1  Y    0.000000   0.994989  -0.036186  -0.000000   0.008351
    7  S  1  Z    0.995033   0.000000   0.000000   0.000000   0.000000
    8  S  1  X    0.000000   0.000000   0.000001  -0.232666   0.000000
    9  S  1  Y    0.000000   0.015654   0.082557   0.000000  -0.013208
   10  S  1  Z    0.015698   0.000000   0.000000   0.000000   0.000000
   11  S  1  X    0.000000  -0.000000   0.000003   0.008341  -0.000001
   12  S  1  Y    0.000000  -0.002923  -0.007615   0.000001  -0.019743
   13  S  1  Z   -0.003063   0.000000   0.000000   0.000000   0.000000
   14  S  1 XX    0.000000  -0.000263   0.049252   0.000001  -0.015190
   15  S  1 YY    0.000000   0.000731  -0.019457  -0.000000   0.002922
   16  S  1 ZZ    0.000000  -0.000467  -0.029795  -0.000000   0.012268
   17  S  1 XY    0.000000   0.000000   0.000000  -0.044080  -0.000000
   18  S  1 XZ   -0.000000   0.000000   0.000000   0.000000   0.000000
   19  S  1 YZ    0.000659   0.000000   0.000000   0.000000   0.000000
   20  O  2  S    0.000000  -0.000053  -0.141762   0.164812   0.111838
   21  O  2  S    0.000000  -0.000086   0.291634  -0.341464  -0.238979
   22  O  2  S    0.000000  -0.000046   0.277713  -0.332075  -0.301994
   23  O  2  X    0.000000  -0.000028  -0.087883   0.079851  -0.129026
   24  O  2  Y    0.000000  -0.000063  -0.028423   0.027782  -0.046766
   25  O  2  Z   -0.000065   0.000000   0.000000   0.000000   0.000000
   26  O  2  X    0.000000   0.000329  -0.038667   0.027910  -0.060669
   27  O  2  Y    0.000000  -0.000019  -0.010070   0.011111  -0.017250
   28  O  2  Z   -0.000073   0.000000   0.000000   0.000000   0.000000
   29  O  2 XX    0.000000   0.000077   0.009443  -0.007882   0.005845
   30  O  2 YY    0.000000   0.000023  -0.005559   0.004675  -0.001145
   31  O  2 ZZ    0.000000  -0.000101  -0.003883   0.003208  -0.004701
   32  O  2 XY    0.000000   0.000265   0.004053  -0.004774   0.004646
   33  O  2 XZ    0.000169   0.000000   0.000000   0.000000   0.000000
   34  O  2 YZ    0.000052   0.000000   0.000000   0.000000   0.000000
   35  O  3  S    0.000000  -0.000053  -0.141762  -0.164812   0.111839
   36  O  3  S    0.000000  -0.000086   0.291632   0.341465  -0.238980
   37  O  3  S    0.000000  -0.000046   0.277718   0.332071  -0.301995
   38  O  3  X    0.000000   0.000028   0.087882   0.079852   0.129027
   39  O  3  Y    0.000000  -0.000063  -0.028423  -0.027781  -0.046766
   40  O  3  Z   -0.000065   0.000000   0.000000   0.000000   0.000000
   41  O  3  X    0.000000  -0.000329   0.038668   0.027908   0.060669
   42  O  3  Y    0.000000  -0.000019  -0.010071  -0.011111  -0.017250
   43  O  3  Z   -0.000073   0.000000   0.000000   0.000000   0.000000
   44  O  3 XX    0.000000   0.000077   0.009443   0.007882   0.005845
   45  O  3 YY    0.000000   0.000023  -0.005559  -0.004675  -0.001145
   46  O  3 ZZ    0.000000  -0.000101  -0.003883  -0.003208  -0.004701
   47  O  3 XY    0.000000  -0.000265  -0.004053  -0.004774  -0.004646
   48  O  3 XZ   -0.000169   0.000000   0.000000   0.000000   0.000000
   49  O  3 YZ    0.000052   0.000000   0.000000   0.000000   0.000000

                     11         12         13         14         15
                   -0.4438    -0.4078    -0.4050    -0.3249    -0.3142
                     A          A          A          A          A   
    1  S  1  S    0.000000   0.000000  -0.010792   0.000000   0.000000
    2  S  1  S   -0.000000   0.000000   0.068951   0.000000  -0.000000
    3  S  1  S    0.000000   0.000000  -0.092736   0.000000   0.000001
    4  S  1  S   -0.000002   0.000000  -0.127043   0.000000  -0.000002
    5  S  1  X   -0.182793   0.000000  -0.000000   0.000000   0.019990
    6  S  1  Y    0.000000   0.000000  -0.214790   0.000000  -0.000000
    7  S  1  Z    0.000000  -0.215963   0.000000  -0.000000   0.000000
    8  S  1  X    0.491096   0.000000   0.000000   0.000000  -0.053946
    9  S  1  Y   -0.000000   0.000000   0.579538   0.000000   0.000000
   10  S  1  Z    0.000000   0.585586   0.000000   0.000000   0.000000
   11  S  1  X   -0.007163   0.000000   0.000002   0.000000  -0.078055
   12  S  1  Y   -0.000000   0.000000   0.151905   0.000000  -0.000001
   13  S  1  Z    0.000000   0.170500   0.000000  -0.000000   0.000000
   14  S  1 XX   -0.000000   0.000000  -0.016968   0.000000  -0.000000
   15  S  1 YY    0.000000   0.000000   0.036705   0.000000   0.000000
   16  S  1 ZZ    0.000000   0.000000  -0.019736   0.000000   0.000000
   17  S  1 XY    0.039205   0.000000   0.000000   0.000000   0.095135
   18  S  1 XZ    0.000000  -0.000000   0.000000   0.101223   0.000000
   19  S  1 YZ    0.000000   0.032826   0.000000   0.000000   0.000000
   20  O  2  S    0.066519   0.000000   0.015423   0.000000  -0.001744
   21  O  2  S   -0.144588   0.000000  -0.033048   0.000000   0.001309
   22  O  2  S   -0.203936   0.000000  -0.053825   0.000000   0.034306
   23  O  2  X   -0.337128   0.000000  -0.215044   0.000000  -0.217076
   24  O  2  Y   -0.146319   0.000000   0.209234   0.000000   0.413759
   25  O  2  Z    0.000000   0.299122   0.000000   0.467805   0.000000
   26  O  2  X   -0.178570   0.000000  -0.134408   0.000000  -0.151235
   27  O  2  Y   -0.085420   0.000000   0.133107   0.000000   0.290855
   28  O  2  Z    0.000000   0.185318   0.000000   0.332731   0.000000
   29  O  2 XX    0.010330   0.000000   0.014096   0.000000   0.008306
   30  O  2 YY   -0.002515   0.000000  -0.010335   0.000000  -0.008902
   31  O  2 ZZ   -0.007815   0.000000  -0.003761   0.000000   0.000597
   32  O  2 XY    0.010438   0.000000  -0.008866   0.000000  -0.013192
   33  O  2 XZ    0.000000  -0.016384   0.000000  -0.015669   0.000000
   34  O  2 YZ    0.000000  -0.005403   0.000000  -0.005743   0.000000
   35  O  3  S   -0.066519   0.000000   0.015423   0.000000   0.001744
   36  O  3  S    0.144586   0.000000  -0.033049   0.000000  -0.001310
   37  O  3  S    0.203938   0.000000  -0.053823   0.000000  -0.034305
   38  O  3  X   -0.337127   0.000000   0.215045   0.000000  -0.217076
   39  O  3  Y    0.146319   0.000000   0.209234   0.000000  -0.413759
   40  O  3  Z    0.000000   0.299123   0.000000  -0.467805   0.000000
   41  O  3  X   -0.178568   0.000000   0.134409   0.000000  -0.151234
   42  O  3  Y    0.085420   0.000000   0.133106   0.000000  -0.290855
   43  O  3  Z    0.000000   0.185318   0.000000  -0.332731   0.000000
   44  O  3 XX   -0.010330   0.000000   0.014096   0.000000  -0.008306
   45  O  3 YY    0.002515   0.000000  -0.010335   0.000000   0.008902
   46  O  3 ZZ    0.007815   0.000000  -0.003761   0.000000  -0.000597
   47  O  3 XY    0.010438   0.000000   0.008866   0.000000  -0.013192
   48  O  3 XZ    0.000000   0.016384   0.000000  -0.015669   0.000000
   49  O  3 YZ    0.000000  -0.005403   0.000000   0.005743   0.000000

                     16         17         18         19         20
                   -0.2774    -0.2083    -0.1406     0.0271     0.2175
                     A          A          A          A          A   
    1  S  1  S    0.024035   0.000000   0.023063  -0.000000   0.000000
    2  S  1  S   -0.156000   0.000000  -0.153776   0.000000   0.000000
    3  S  1  S    0.201030   0.000000   0.236805  -0.000002   0.000000
    4  S  1  S    0.411012   0.000000   0.379382  -0.000001   0.000000
    5  S  1  X   -0.000000   0.000000  -0.000000  -0.214889   0.000000
    6  S  1  Y    0.085837   0.000000  -0.203725  -0.000000   0.000000
    7  S  1  Z    0.000000  -0.222501   0.000000   0.000000   0.249509
    8  S  1  X    0.000000   0.000000   0.000001   0.674692   0.000000
    9  S  1  Y   -0.238287   0.000000   0.615404  -0.000000   0.000000
   10  S  1  Z    0.000000   0.651377   0.000000   0.000000  -0.989154
   11  S  1  X   -0.000002   0.000000  -0.000007   0.947398   0.000000
   12  S  1  Y   -0.016748   0.000000   0.346951   0.000001   0.000000
   13  S  1  Z    0.000000   0.258531   0.000000   0.000000   1.309731
   14  S  1 XX   -0.139051   0.000000  -0.115171  -0.000003   0.000000
   15  S  1 YY    0.074085   0.000000   0.025668   0.000001   0.000000
   16  S  1 ZZ    0.064966   0.000000   0.089503   0.000002   0.000000
   17  S  1 XY    0.000000   0.000000   0.000000  -0.163801   0.000000
   18  S  1 XZ    0.000000   0.000000   0.000000   0.000000  -0.000000
   19  S  1 YZ    0.000000  -0.024100   0.000000   0.000000  -0.074287
   20  O  2  S    0.002961   0.000000   0.030063   0.063775   0.000000
   21  O  2  S   -0.006509   0.000000  -0.068306  -0.128404   0.000000
   22  O  2  S   -0.054237   0.000000  -0.189043  -0.541598   0.000000
   23  O  2  X    0.210951   0.000000   0.372478   0.203879   0.000000
   24  O  2  Y    0.398176   0.000000  -0.161833   0.229662   0.000000
   25  O  2  Z    0.000000  -0.396296   0.000000   0.000000  -0.067750
   26  O  2  X    0.151551   0.000000   0.308109   0.251640   0.000000
   27  O  2  Y    0.284259   0.000000  -0.127012   0.208462   0.000000
   28  O  2  Z    0.000000  -0.302948   0.000000   0.000000  -0.127343
   29  O  2 XX   -0.001451   0.000000   0.000661  -0.003410   0.000000
   30  O  2 YY   -0.001838   0.000000  -0.001970   0.005340   0.000000
   31  O  2 ZZ    0.003289   0.000000   0.001309  -0.001930   0.000000
   32  O  2 XY   -0.009332   0.000000  -0.003672   0.007214   0.000000
   33  O  2 XZ    0.000000   0.001183   0.000000   0.000000   0.013539
   34  O  2 YZ    0.000000  -0.000026   0.000000   0.000000   0.003537
   35  O  3  S    0.002961   0.000000   0.030064  -0.063774   0.000000
   36  O  3  S   -0.006509   0.000000  -0.068307   0.128397   0.000000
   37  O  3  S   -0.054238   0.000000  -0.189049   0.541605   0.000000
   38  O  3  X   -0.210952   0.000000  -0.372480   0.203873   0.000000
   39  O  3  Y    0.398176   0.000000  -0.161832  -0.229663   0.000000
   40  O  3  Z    0.000000  -0.396296   0.000000   0.000000  -0.067751
   41  O  3  X   -0.151551   0.000000  -0.308110   0.251645   0.000000
   42  O  3  Y    0.284260   0.000000  -0.127010  -0.208464   0.000000
   43  O  3  Z    0.000000  -0.302948   0.000000   0.000000  -0.127343
   44  O  3 XX   -0.001451   0.000000   0.000661   0.003410   0.000000
   45  O  3 YY   -0.001838   0.000000  -0.001970  -0.005340   0.000000
   46  O  3 ZZ    0.003289   0.000000   0.001309   0.001930   0.000000
   47  O  3 XY    0.009332   0.000000   0.003672   0.007214   0.000000
   48  O  3 XZ    0.000000  -0.001183   0.000000   0.000000  -0.013539
   49  O  3 YZ    0.000000  -0.000026   0.000000   0.000000   0.003537

                     21         22         23         24         25
                    0.2238     0.2358     0.2534     0.4893     0.5006
                     A          A          A          A          A   
    1  S  1  S    0.006925  -0.067460  -0.000002   0.000000   0.000000
    2  S  1  S   -0.049664   0.496575   0.000012   0.000000   0.000000
    3  S  1  S    0.130358  -1.907703  -0.000045   0.000000   0.000000
    4  S  1  S   -0.025884   2.162678   0.000043   0.000000   0.000000
    5  S  1  X   -0.000002  -0.000007   0.278099   0.000000   0.000000
    6  S  1  Y    0.248464   0.005051   0.000002   0.000000   0.000000
    7  S  1  Z    0.000000   0.000000   0.000000   0.000000   0.023193
    8  S  1  X    0.000008   0.000028  -1.072207   0.000000   0.000000
    9  S  1  Y   -0.982607  -0.015799  -0.000008   0.000000   0.000000
   10  S  1  Z    0.000000   0.000000   0.000000  -0.000000  -0.092499
   11  S  1  X   -0.000009  -0.000034   1.491122   0.000000   0.000000
   12  S  1  Y    1.333862   0.228400   0.000012   0.000000   0.000000
   13  S  1  Z    0.000000   0.000000   0.000000   0.000000   0.060370
   14  S  1 XX    0.075752  -0.051083  -0.000005   0.000000   0.000000
   15  S  1 YY   -0.100535   0.003408   0.000001   0.000000   0.000000
   16  S  1 ZZ    0.024783   0.047676   0.000004   0.000000   0.000000
   17  S  1 XY    0.000000   0.000000   0.075457   0.000000   0.000000
   18  S  1 XZ    0.000000   0.000000   0.000000   0.846819   0.000001
   19  S  1 YZ    0.000000   0.000000   0.000000  -0.000002   0.967977
   20  O  2  S    0.006946   0.019513   0.009963   0.000000   0.000000
   21  O  2  S    0.003611  -0.023655   0.036411   0.000000   0.000000
   22  O  2  S   -0.163597  -0.374734  -0.466509   0.000000   0.000000
   23  O  2  X   -0.038452  -0.113256  -0.257499   0.000000   0.000000
   24  O  2  Y   -0.072578  -0.092748  -0.070389   0.000000   0.000000
   25  O  2  Z    0.000000   0.000000   0.000000  -0.359367  -0.158879
   26  O  2  X    0.046732   0.142944  -0.055597   0.000000   0.000000
   27  O  2  Y   -0.112986   0.027660   0.022368   0.000000   0.000000
   28  O  2  Z    0.000000   0.000000   0.000000   0.167156   0.078298
   29  O  2 XX   -0.016811  -0.029257  -0.027533   0.000000   0.000000
   30  O  2 YY    0.010511   0.009895   0.008085   0.000000   0.000000
   31  O  2 ZZ    0.006300   0.019362   0.019448   0.000000   0.000000
   32  O  2 XY    0.005800  -0.022599  -0.025912   0.000000   0.000000
   33  O  2 XZ    0.000000   0.000000   0.000000  -0.055714  -0.029799
   34  O  2 YZ    0.000000   0.000000   0.000000  -0.027489   0.012986
   35  O  3  S    0.006946   0.019514  -0.009961   0.000000   0.000000
   36  O  3  S    0.003609  -0.023659  -0.036422   0.000000   0.000000
   37  O  3  S   -0.163600  -0.374748   0.466505   0.000000   0.000000
   38  O  3  X    0.038454   0.113264  -0.257499   0.000000   0.000000
   39  O  3  Y   -0.072580  -0.092751   0.070383   0.000000   0.000000
   40  O  3  Z    0.000000   0.000000   0.000000   0.359367  -0.158878
   41  O  3  X   -0.046729  -0.142934  -0.055592   0.000000   0.000000
   42  O  3  Y   -0.112986   0.027660  -0.022370   0.000000   0.000000
   43  O  3  Z    0.000000   0.000000   0.000000  -0.167156   0.078298
   44  O  3 XX   -0.016811  -0.029259   0.027532   0.000000   0.000000
   45  O  3 YY    0.010511   0.009896  -0.008085   0.000000   0.000000
   46  O  3 ZZ    0.006300   0.019363  -0.019447   0.000000   0.000000
   47  O  3 XY   -0.005800   0.022600  -0.025912   0.000000   0.000000
   48  O  3 XZ    0.000000   0.000000   0.000000  -0.055714   0.029798
   49  O  3 YZ    0.000000   0.000000   0.000000   0.027489   0.012986

                     26         27         28         29         30
                    0.5016     0.5991     0.6734     0.7828     0.7895
                     A          A          A          A          A   
    1  S  1  S    0.000227  -0.000000   0.008660   0.000000   0.000000
    2  S  1  S   -0.001339   0.000000  -0.067967   0.000000   0.000000
    3  S  1  S   -0.001941   0.000000   0.135025  -0.000001   0.000000
    4  S  1  S    0.007874  -0.000008   0.814229  -0.000006   0.000000
    5  S  1  X   -0.000000  -0.098540  -0.000000  -0.061747   0.000000
    6  S  1  Y    0.025260   0.000000  -0.055874   0.000000   0.000000
    7  S  1  Z    0.000000   0.000000   0.000000   0.000000   0.000000
    8  S  1  X    0.000000   0.446961   0.000004   0.425004   0.000000
    9  S  1  Y   -0.101315  -0.000002   0.275494  -0.000001   0.000000
   10  S  1  Z    0.000000   0.000000   0.000000   0.000000  -0.000000
   11  S  1  X   -0.000000   0.332872   0.000006  -0.239244   0.000000
   12  S  1  Y    0.071435  -0.000002   0.142917   0.000000   0.000000
   13  S  1  Z    0.000000   0.000000   0.000000   0.000000  -0.000000
   14  S  1 XX   -0.101029  -0.000003   0.770959  -0.000003   0.000000
   15  S  1 YY    0.877603   0.000001  -0.244948   0.000002   0.000000
   16  S  1 ZZ   -0.776574   0.000002  -0.526011   0.000001   0.000000
   17  S  1 XY    0.000000   0.845355   0.000004   0.248398   0.000000
   18  S  1 XZ    0.000000   0.000000   0.000000   0.000000  -0.547497
   19  S  1 YZ    0.000000   0.000000   0.000000   0.000000  -0.000000
   20  O  2  S    0.000700   0.060951   0.076554   0.011105   0.000000
   21  O  2  S   -0.003230  -0.237481  -0.328225  -0.012178   0.000000
   22  O  2  S   -0.005306  -0.190785  -0.156821  -0.037090   0.000000
   23  O  2  X    0.059117   0.077697  -0.270254  -0.484470   0.000000
   24  O  2  Y   -0.168226  -0.284784   0.079200   0.349167   0.000000
   25  O  2  Z    0.000000   0.000000   0.000000   0.000000  -0.544817
   26  O  2  X   -0.031889   0.379018   0.820017   0.790164   0.000000
   27  O  2  Y    0.080570   0.360265   0.129653  -0.379399   0.000000
   28  O  2  Z    0.000000   0.000000   0.000000   0.000000   0.754767
   29  O  2 XX    0.015190   0.046310   0.008924   0.045353   0.000000
   30  O  2 YY    0.002904  -0.040246   0.009793  -0.024346   0.000000
   31  O  2 ZZ   -0.018093  -0.006065  -0.018718  -0.021007   0.000000
   32  O  2 XY   -0.028010  -0.023751   0.030366   0.008935   0.000000
   33  O  2 XZ    0.000000   0.000000   0.000000   0.000000   0.057996
   34  O  2 YZ    0.000000   0.000000   0.000000   0.000000   0.026724
   35  O  3  S    0.000700  -0.060952   0.076553  -0.011106   0.000000
   36  O  3  S   -0.003231   0.237480  -0.328223   0.012191   0.000000
   37  O  3  S   -0.005306   0.190793  -0.156813   0.037083   0.000000
   38  O  3  X   -0.059117   0.077692   0.270243  -0.484478   0.000000
   39  O  3  Y   -0.168226   0.284785   0.079199  -0.349160   0.000000
   40  O  3  Z    0.000000   0.000000   0.000000   0.000000   0.544816
   41  O  3  X    0.031890   0.379030  -0.819998   0.790177   0.000000
   42  O  3  Y    0.080570  -0.360267   0.129652   0.379388   0.000000
   43  O  3  Z    0.000000   0.000000   0.000000   0.000000  -0.754766
   44  O  3 XX    0.015189  -0.046310   0.008924  -0.045353   0.000000
   45  O  3 YY    0.002904   0.040246   0.009794   0.024345   0.000000
   46  O  3 ZZ   -0.018093   0.006065  -0.018717   0.021007   0.000000
   47  O  3 XY    0.028010  -0.023751  -0.030366   0.008936   0.000000
   48  O  3 XZ    0.000000   0.000000   0.000000   0.000000   0.057996
   49  O  3 YZ    0.000000   0.000000   0.000000   0.000000  -0.026724

                     31         32         33         34         35
                    0.8257     0.8352     0.8422     0.8869     1.4176
                     A          A          A          A          A   
    1  S  1  S    0.009623   0.000000   0.000000  -0.008727  -0.002781
    2  S  1  S   -0.082158  -0.000000   0.000000   0.077987   0.027812
    3  S  1  S    0.403395   0.000001   0.000000  -0.484176   0.179324
    4  S  1  S   -0.066047  -0.000000   0.000000   0.391294  -1.564095
    5  S  1  X   -0.000000   0.031116   0.000000   0.000000  -0.000003
    6  S  1  Y   -0.009176  -0.000000   0.000000  -0.013984   0.034929
    7  S  1  Z    0.000000   0.000000  -0.000411   0.000000   0.000000
    8  S  1  X    0.000002  -0.317948   0.000000  -0.000001   0.000019
    9  S  1  Y    0.092127   0.000000   0.000000   0.001633  -0.217748
   10  S  1  Z    0.000000   0.000000   0.003264   0.000000   0.000000
   11  S  1  X   -0.000001   0.148261   0.000000   0.000001   0.000028
   12  S  1  Y   -0.469683  -0.000000   0.000000  -0.162919  -0.468788
   13  S  1  Z    0.000000   0.000000  -0.542057   0.000000   0.000000
   14  S  1 XX   -0.013824  -0.000001   0.000000   0.758416  -0.372027
   15  S  1 YY   -0.199210   0.000000   0.000000  -0.398461   0.104104
   16  S  1 ZZ    0.213034   0.000000   0.000000  -0.359956   0.267923
   17  S  1 XY    0.000001   0.536209   0.000000   0.000000   0.000007
   18  S  1 XZ    0.000000   0.000000   0.000000   0.000000   0.000000
   19  S  1 YZ    0.000000   0.000000  -0.245850   0.000000   0.000000
   20  O  2  S   -0.005914  -0.007235   0.000000   0.011759   0.073526
   21  O  2  S    0.061441   0.095797   0.000000   0.035897  -1.181857
   22  O  2  S   -0.011317  -0.147048   0.000000  -0.216298   1.769340
   23  O  2  X   -0.121299   0.384303   0.000000   0.543998   0.136042
   24  O  2  Y   -0.611175   0.432674   0.000000  -0.058201  -0.057102
   25  O  2  Z    0.000000   0.000000  -0.620438   0.000000   0.000000
   26  O  2  X    0.155260  -0.412572   0.000000  -0.461457  -0.704945
   27  O  2  Y    0.842300  -0.593754   0.000000   0.277096  -0.020183
   28  O  2  Z    0.000000   0.000000   0.888316   0.000000   0.000000
   29  O  2 XX    0.010416   0.016588   0.000000  -0.030857  -0.148387
   30  O  2 YY   -0.004214  -0.031885   0.000000   0.037423   0.057955
   31  O  2 ZZ   -0.006202   0.015297   0.000000  -0.006565   0.090432
   32  O  2 XY    0.031660  -0.054894   0.000000   0.054413  -0.070851
   33  O  2 XZ    0.000000   0.000000   0.033175   0.000000   0.000000
   34  O  2 YZ    0.000000   0.000000   0.003258   0.000000   0.000000
   35  O  3  S   -0.005914   0.007235   0.000000   0.011760   0.073531
   36  O  3  S    0.061446  -0.095803   0.000000   0.035889  -1.181938
   37  O  3  S   -0.011322   0.147053   0.000000  -0.216289   1.769460
   38  O  3  X    0.121292   0.384307   0.000000  -0.543994  -0.136047
   39  O  3  Y   -0.611177  -0.432675   0.000000  -0.058202  -0.057096
   40  O  3  Z    0.000000   0.000000  -0.620439   0.000000   0.000000
   41  O  3  X   -0.155250  -0.412577   0.000000   0.461452   0.704977
   42  O  3  Y    0.842303   0.593756   0.000000   0.277097  -0.020204
   43  O  3  Z    0.000000   0.000000   0.888317   0.000000   0.000000
   44  O  3 XX    0.010415  -0.016588   0.000000  -0.030857  -0.148395
   45  O  3 YY   -0.004214   0.031885   0.000000   0.037423   0.057958
   46  O  3 ZZ   -0.006201  -0.015297   0.000000  -0.006566   0.090437
   47  O  3 XY   -0.031660  -0.054894   0.000000  -0.054414   0.070858
   48  O  3 XZ    0.000000   0.000000  -0.033175   0.000000   0.000000
   49  O  3 YZ    0.000000   0.000000   0.003258   0.000000   0.000000

                     36         37         38         39         40
                    1.4753     2.0699     2.0700     2.0752     2.0789
                     A          A          A          A          A   
    1  S  1  S   -0.000000   0.000000   0.000000   0.000000  -0.000904
    2  S  1  S    0.000002  -0.000000   0.000000   0.000000   0.007108
    3  S  1  S    0.000001   0.000000   0.000000   0.000000  -0.025435
    4  S  1  S   -0.000044  -0.000000   0.000000   0.000000   0.014994
    5  S  1  X    0.075479  -0.000863   0.000000   0.000000  -0.000000
    6  S  1  Y    0.000001  -0.000000   0.000000   0.000000   0.005053
    7  S  1  Z    0.000000   0.000000  -0.000000  -0.017319   0.000000
    8  S  1  X   -0.478626   0.001475   0.000000   0.000000   0.000000
    9  S  1  Y   -0.000008   0.000000   0.000000   0.000000  -0.019195
   10  S  1  Z    0.000000   0.000000   0.000000   0.056425   0.000000
   11  S  1  X   -1.150235   0.012486   0.000000   0.000000  -0.000000
   12  S  1  Y   -0.000013   0.000000   0.000000   0.000000   0.005582
   13  S  1  Z    0.000000   0.000000  -0.000000   0.017956   0.000000
   14  S  1 XX   -0.000010   0.000000   0.000000   0.000000   0.019231
   15  S  1 YY    0.000002   0.000000   0.000000   0.000000   0.041177
   16  S  1 ZZ    0.000007  -0.000000   0.000000   0.000000  -0.060407
   17  S  1 XY   -0.248806  -0.027385   0.000000   0.000000  -0.000000
   18  S  1 XZ    0.000000   0.000000   0.023959  -0.000000   0.000000
   19  S  1 YZ    0.000000   0.000000  -0.000000  -0.014800   0.000000
   20  O  2  S    0.076648  -0.001024   0.000000   0.000000   0.001360
   21  O  2  S   -1.248399   0.008187   0.000000   0.000000  -0.006685
   22  O  2  S    1.961560  -0.009522   0.000000   0.000000  -0.000928
   23  O  2  X    0.031027   0.000587   0.000000   0.000000   0.009078
   24  O  2  Y    0.109868  -0.006937   0.000000   0.000000   0.001565
   25  O  2  Z    0.000000   0.000000   0.004490   0.015509   0.000000
   26  O  2  X   -0.417116  -0.004579   0.000000   0.000000  -0.007155
   27  O  2  Y   -0.361052   0.009911   0.000000   0.000000  -0.002087
   28  O  2  Z    0.000000   0.000000  -0.007374  -0.025013   0.000000
   29  O  2 XX   -0.124157   0.144163   0.000000   0.000000  -0.015562
   30  O  2 YY    0.049224   0.463970   0.000000   0.000000  -0.580826
   31  O  2 ZZ    0.074933  -0.608133   0.000000   0.000000   0.596388
   32  O  2 XY   -0.093126  -0.310268   0.000000   0.000000   0.194400
   33  O  2 XZ    0.000000   0.000000   0.332271   0.030960   0.000000
   34  O  2 YZ    0.000000   0.000000  -0.624286   0.707209   0.000000
   35  O  3  S   -0.076644   0.001024   0.000000   0.000000   0.001360
   36  O  3  S    1.248323  -0.008187   0.000000   0.000000  -0.006685
   37  O  3  S   -1.961450   0.009522   0.000000   0.000000  -0.000928
   38  O  3  X    0.031016   0.000587   0.000000   0.000000  -0.009078
   39  O  3  Y   -0.109870   0.006937   0.000000   0.000000   0.001565
   40  O  3  Z    0.000000   0.000000  -0.004490   0.015509   0.000000
   41  O  3  X   -0.417069  -0.004579   0.000000   0.000000   0.007155
   42  O  3  Y    0.361050  -0.009911   0.000000   0.000000  -0.002087
   43  O  3  Z    0.000000   0.000000   0.007374  -0.025013   0.000000
   44  O  3 XX    0.124145  -0.144164   0.000000   0.000000  -0.015562
   45  O  3 YY   -0.049219  -0.463972   0.000000   0.000000  -0.580824
   46  O  3 ZZ   -0.074926   0.608136   0.000000   0.000000   0.596386
   47  O  3 XY   -0.093121  -0.310269   0.000000   0.000000  -0.194399
   48  O  3 XZ    0.000000   0.000000   0.332272  -0.030961   0.000000
   49  O  3 YZ    0.000000   0.000000   0.624290   0.707206   0.000000

                     41         42         43         44         45
                    2.1029     2.1506     2.1620     2.2089     2.5692
                     A          A          A          A          A   
    1  S  1  S    0.000000  -0.000000  -0.005445   0.000000  -0.000000
    2  S  1  S    0.000000   0.000000   0.042844   0.000000   0.000000
    3  S  1  S    0.000000  -0.000001  -0.103794   0.000000   0.000000
    4  S  1  S    0.000000   0.000000  -0.146348   0.000000  -0.000004
    5  S  1  X    0.000000   0.045449  -0.000000   0.000000  -0.195513
    6  S  1  Y    0.000000   0.000000   0.054194   0.000000   0.000000
    7  S  1  Z   -0.041748   0.000000   0.000000  -0.000000   0.000000
    8  S  1  X    0.000000  -0.208907   0.000001   0.000000   0.951003
    9  S  1  Y    0.000000  -0.000001  -0.201077   0.000000  -0.000001
   10  S  1  Z    0.134845   0.000000   0.000000   0.000000   0.000000
   11  S  1  X    0.000000  -0.023070  -0.000001   0.000000   0.171940
   12  S  1  Y    0.000000  -0.000000  -0.109938   0.000000  -0.000001
   13  S  1  Z    0.067414   0.000000   0.000000  -0.000000   0.000000
   14  S  1 XX    0.000000   0.000001   0.118252   0.000000  -0.000002
   15  S  1 YY    0.000000  -0.000001  -0.185950   0.000000   0.000001
   16  S  1 ZZ    0.000000   0.000000   0.067698   0.000000   0.000001
   17  S  1 XY    0.000000   0.237825  -0.000001   0.000000   0.456693
   18  S  1 XZ   -0.000000   0.000000   0.000000   0.367800   0.000000
   19  S  1 YZ    0.149998   0.000000   0.000000   0.000000   0.000000
   20  O  2  S    0.000000   0.006965   0.009339   0.000000  -0.007935
   21  O  2  S    0.000000  -0.102196  -0.148086   0.000000   0.423047
   22  O  2  S    0.000000   0.139494   0.218074   0.000000  -0.819931
   23  O  2  X    0.000000   0.036617   0.071939   0.000000  -0.050032
   24  O  2  Y    0.000000   0.052644  -0.034923   0.000000  -0.019640
   25  O  2  Z    0.047229   0.000000   0.000000   0.040361   0.000000
   26  O  2  X    0.000000  -0.067558  -0.165749   0.000000   0.511017
   27  O  2  Y    0.000000  -0.107596   0.078004   0.000000   0.173003
   28  O  2  Z   -0.090977   0.000000   0.000000  -0.103975   0.000000
   29  O  2 XX    0.000000  -0.267852   0.506959   0.000000  -0.696301
   30  O  2 YY    0.000000   0.431275  -0.383033   0.000000   0.344951
   31  O  2 ZZ    0.000000  -0.163423  -0.123926   0.000000   0.351351
   32  O  2 XY    0.000000   0.564175  -0.480915   0.000000  -0.322356
   33  O  2 XZ    0.713472   0.000000   0.000000   0.636665   0.000000
   34  O  2 YZ   -0.026701   0.000000   0.000000   0.336151   0.000000
   35  O  3  S    0.000000  -0.006965   0.009339   0.000000   0.007935
   36  O  3  S    0.000000   0.102195  -0.148086   0.000000  -0.423049
   37  O  3  S    0.000000  -0.139492   0.218073   0.000000   0.819936
   38  O  3  X    0.000000   0.036617  -0.071939   0.000000  -0.050032
   39  O  3  Y    0.000000  -0.052644  -0.034923   0.000000   0.019640
   40  O  3  Z    0.047229   0.000000   0.000000  -0.040361   0.000000
   41  O  3  X    0.000000  -0.067557   0.165750   0.000000   0.511020
   42  O  3  Y    0.000000   0.107596   0.078004   0.000000  -0.173004
   43  O  3  Z   -0.090977   0.000000   0.000000   0.103975   0.000000
   44  O  3 XX    0.000000   0.267857   0.506957   0.000000   0.696304
   45  O  3 YY    0.000000  -0.431279  -0.383029   0.000000  -0.344951
   46  O  3 ZZ    0.000000   0.163422  -0.123927   0.000000  -0.351353
   47  O  3 XY    0.000000   0.564179   0.480910   0.000000  -0.322359
   48  O  3 XZ   -0.713472   0.000000   0.000000   0.636665   0.000000
   49  O  3 YZ   -0.026700   0.000000   0.000000  -0.336151   0.000000

                     46
                    2.6016
                     A   
    1  S  1  S   -0.029213
    2  S  1  S    0.223870
    3  S  1  S   -0.477868
    4  S  1  S   -0.761792
    5  S  1  X    0.000000
    6  S  1  Y    0.068604
    7  S  1  Z    0.000000
    8  S  1  X   -0.000002
    9  S  1  Y   -0.346926
   10  S  1  Z    0.000000
   11  S  1  X   -0.000004
   12  S  1  Y   -0.072825
   13  S  1  Z    0.000000
   14  S  1 XX   -0.691443
   15  S  1 YY    0.296551
   16  S  1 ZZ    0.394892
   17  S  1 XY   -0.000002
   18  S  1 XZ    0.000000
   19  S  1 YZ    0.000000
   20  O  2  S    0.006179
   21  O  2  S   -0.468979
   22  O  2  S    0.921964
   23  O  2  X    0.043513
   24  O  2  Y    0.015501
   25  O  2  Z    0.000000
   26  O  2  X   -0.554597
   27  O  2  Y   -0.217029
   28  O  2  Z    0.000000
   29  O  2 XX    0.546463
   30  O  2 YY   -0.152759
   31  O  2 ZZ   -0.393705
   32  O  2 XY    0.537655
   33  O  2 XZ    0.000000
   34  O  2 YZ    0.000000
   35  O  3  S    0.006179
   36  O  3  S   -0.468975
   37  O  3  S    0.921954
   38  O  3  X   -0.043513
   39  O  3  Y    0.015501
   40  O  3  Z    0.000000
   41  O  3  X    0.554595
   42  O  3  Y   -0.217027
   43  O  3  Z    0.000000
   44  O  3 XX    0.546460
   45  O  3 YY   -0.152757
   46  O  3 ZZ   -0.393703
   47  O  3 XY   -0.537654
   48  O  3 XZ    0.000000
   49  O  3 YZ    0.000000
 ...... END OF RHF CALCULATION ......
 STEP CPU TIME =     2.48 TOTAL CPU TIME =          2.6 (      0.0 MIN)
 TOTAL WALL CLOCK TIME=          2.7 SECONDS, CPU UTILIZATION IS    98.50%

     ---------------------------------------------------------------------
     PROPERTIES FOR THE PBE      DFT FUNCTIONAL (RHF  TYPE) DENSITY MATRIX
     ---------------------------------------------------------------------

          -----------------
          ENERGY COMPONENTS
          -----------------

         WAVEFUNCTION NORMALIZATION =       1.0000000000

                ONE ELECTRON ENERGY =    -940.3433218060
                TWO ELECTRON ENERGY =     299.1218788235
           NUCLEAR REPULSION ENERGY =      93.0241291687
                                      ------------------
                       TOTAL ENERGY =    -548.1973138137

 ELECTRON-ELECTRON POTENTIAL ENERGY =     299.1218788235
  NUCLEUS-ELECTRON POTENTIAL ENERGY =   -1487.1716408555
   NUCLEUS-NUCLEUS POTENTIAL ENERGY =      93.0241291687
                                      ------------------
             TOTAL POTENTIAL ENERGY =   -1095.0256328633
               TOTAL KINETIC ENERGY =     546.8283190495
                 VIRIAL RATIO (V/T) =       2.0025035184

          ---------------------------------------
          MULLIKEN AND LOWDIN POPULATION ANALYSES
          ---------------------------------------

     ATOMIC MULLIKEN POPULATION IN EACH MOLECULAR ORBITAL

                      1          2          3          4          5

                  2.000000   2.000000   2.000000   2.000000   2.000000

    1             1.999970   0.001023   0.000720   2.000653   2.000366
    2             0.000015   0.998557   1.000572  -0.000326  -0.000183
    3             0.000015   1.000420   0.998709  -0.000326  -0.000183

                      6          7          8          9         10

                  2.000000   2.000000   2.000000   2.000000   2.000000

    1             2.000009   2.000035   0.601514   0.265608   1.088337
    2            -0.000004  -0.000017   0.699240   0.867199   0.455830
    3            -0.000004  -0.000017   0.699246   0.867193   0.455833

                     11         12         13         14         15

                  2.000000   2.000000   2.000000   2.000000   2.000000

    1             0.526080   1.098084   1.087540   0.061920   0.089780
    2             0.736962   0.450958   0.456229   0.969041   0.955111
    3             0.736958   0.450958   0.456231   0.969040   0.955109

                     16

                  2.000000

    1             0.474325
    2             0.762837
    3             0.762838

               ----- POPULATIONS IN EACH AO -----
                             MULLIKEN      LOWDIN
              1  S  1  S      1.99984     1.99929
              2  S  1  S      1.99271     1.88961
              3  S  1  S      1.36383     0.69787
              4  S  1  S      0.57274     0.47663
              5  S  1  X      1.99354     1.95628
              6  S  1  Y      1.99459     1.96464
              7  S  1  Z      1.99386     1.96045
              8  S  1  X      0.79648     0.67486
              9  S  1  Y      0.97963     0.90049
             10  S  1  Z      0.86038     0.77783
             11  S  1  X      0.01359     0.19550
             12  S  1  Y      0.19756     0.32294
             13  S  1  Z      0.23880     0.34473
             14  S  1 XX      0.03718     0.31881
             15  S  1 YY      0.11501     0.31348
             16  S  1 ZZ      0.07925     0.31632
             17  S  1 XY      0.06192     0.09357
             18  S  1 XZ      0.00505     0.07309
             19  S  1 YZ      0.00000     0.00483
             20  O  2  S      1.99569     1.97295
             21  O  2  S      0.96725     0.71097
             22  O  2  S      0.97015     0.54870
             23  O  2  X      0.80701     0.76742
             24  O  2  Y      1.07907     1.04793
             25  O  2  Z      0.84407     0.81049
             26  O  2  X      0.43290     0.55139
             27  O  2  Y      0.67041     0.70953
             28  O  2  Z      0.57223     0.60424
             29  O  2 XX      0.00153     0.21310
             30  O  2 YY      0.00444     0.20349
             31  O  2 ZZ      0.00356     0.20843
             32  O  2 XY      0.00329     0.00593
             33  O  2 XZ      0.00040     0.00427
             34  O  2 YZ      0.00000     0.00052
             35  O  3  S      1.99569     1.97295
             36  O  3  S      0.96725     0.71097
             37  O  3  S      0.97015     0.54870
             38  O  3  X      0.80701     0.76742
             39  O  3  Y      1.07907     1.04793
             40  O  3  Z      0.84407     0.81049
             41  O  3  X      0.43290     0.55139
             42  O  3  Y      0.67041     0.70953
             43  O  3  Z      0.57223     0.60424
             44  O  3 XX      0.00153     0.21310
             45  O  3 YY      0.00444     0.20349
             46  O  3 ZZ      0.00356     0.20843
             47  O  3 XY      0.00329     0.00593
             48  O  3 XZ      0.00040     0.00427
             49  O  3 YZ      0.00000     0.00052

          ----- MULLIKEN ATOMIC OVERLAP POPULATIONS -----
          (OFF-DIAGONAL ELEMENTS NEED TO BE MULTIPLIED BY 2)

             1           2           3

    1   14.8314477
    2    0.2322591   8.1220849
    3    0.2322569  -0.0023260   8.1220874

          TOTAL MULLIKEN AND LOWDIN ATOMIC POPULATIONS
       ATOM         MULL.POP.    CHARGE          LOW.POP.     CHARGE
    1 S            15.295964    0.704036        15.281236    0.718764
    2 O             8.352018   -0.352018         8.359382   -0.359382
    3 O             8.352018   -0.352018         8.359382   -0.359382

          MULLIKEN SPHERICAL HARMONIC POPULATIONS
       ATOM           S       P       D      F      G      H      I    TOTAL
    1 S             5.93    9.07    0.30   0.00   0.00   0.00   0.00   15.30
    2 O             3.93    4.41    0.01   0.00   0.00   0.00   0.00    8.35
    3 O             3.93    4.41    0.01   0.00   0.00   0.00   0.00    8.35

          -------------------------------
          BOND ORDER AND VALENCE ANALYSIS     BOND ORDER THRESHOLD=0.050
          -------------------------------

                   BOND                       BOND                       BOND
  ATOM PAIR DIST  ORDER      ATOM PAIR DIST  ORDER      ATOM PAIR DIST  ORDER
    1   2  1.650  1.713        1   3  1.650  1.713        2   3  3.101  0.432

                       TOTAL       BONDED        FREE
      ATOM            VALENCE     VALENCE     VALENCE
    1 S                 3.426       3.426       0.000
    2 O                 2.145       2.145      -0.000
    3 O                 2.145       2.145      -0.000

          ---------------------
          ELECTROSTATIC MOMENTS
          ---------------------

 POINT   1           X           Y           Z (BOHR)    CHARGE
                 0.000000    0.000000    0.000000        0.00 (A.U.)
         DX          DY          DZ         /D/  (DEBYE)
     0.000000   -1.099573    0.000000    1.099573
 ...... END OF PROPERTY EVALUATION ......
 STEP CPU TIME =     0.00 TOTAL CPU TIME =          2.6 (      0.0 MIN)
 TOTAL WALL CLOCK TIME=          2.7 SECONDS, CPU UTILIZATION IS    98.50%
                580000  WORDS OF DYNAMIC MEMORY USED
 EXECUTION OF GAMESS TERMINATED NORMALLY Sun Sep 29 10:53:18 2019
 DDI: 263640 bytes (0.3 MB / 0 MWords) used by master data server.

 ----------------------------------------
 CPU timing information for all processes
 ========================================
 0: 2.552 + 0.87 = 2.640
 ----------------------------------------
 ddikick.x: exited gracefully.
----- accounting info -----
Files used on the master node crcfe02.crc.nd.edu were:
-rw-r--r-- 1 cdrisko campus     208 Sep 29 10:53 /afs/crc.nd.edu/user/c/cdrisko/SO2.F05
-rw-r--r-- 1 cdrisko campus   37566 Sep 29 10:53 /afs/crc.nd.edu/user/c/cdrisko/SO2.F07
-rw-r--r-- 1 cdrisko campus 3780336 Sep 29 10:53 /afs/crc.nd.edu/user/c/cdrisko/SO2.F08
-rw-r--r-- 1 cdrisko campus 1766880 Sep 29 10:53 /afs/crc.nd.edu/user/c/cdrisko/SO2.F10
Sun Sep 29 10:53:21 EDT 2019
0.442u 0.247s 0:06.32 10.7%	0+0k 0+24io 0pf+0w
