   4   4   0   0
  0.1176147E+02  0.3610000E-09  0.3610000E-09  0.3610000E-09  0.5000000E-15
  1.000000000000000E-004
  CAR 
 unknown system                          
     46.29799582     -4.03253080  301      7.61784864      1.00000000
     -4.033  0.0000E+00  0.0000E+00
     -3.865  0.0000E+00  0.0000E+00
     -3.697  0.0000E+00  0.0000E+00
     -3.529  0.0000E+00  0.0000E+00
     -3.361  0.0000E+00  0.0000E+00
     -3.194  0.0000E+00  0.0000E+00
     -3.026  0.0000E+00  0.0000E+00
     -2.858  0.0000E+00  0.0000E+00
     -2.690 -0.1729E-38 -0.2901E-39
     -2.523 -0.5131E-26 -0.8608E-27
     -2.355 -0.5213E-16 -0.8746E-17
     -2.187 -0.1670E-08 -0.2802E-09
     -2.019 -0.1595E-03 -0.2676E-04
     -1.852 -0.1344E-01 -0.2281E-02
     -1.684  0.4218E+00  0.6848E-01
     -1.516  0.3460E-01  0.7428E-01
     -1.348 -0.1251E-02  0.7407E-01
     -1.180 -0.6868E-07  0.7407E-01
     -1.013 -0.1772E-13  0.7407E-01
     -0.845 -0.9840E-07  0.7407E-01
     -0.677 -0.3496E-02  0.7349E-01
     -0.509  0.3480E-01  0.7933E-01
     -0.342  0.2641E+01  0.5224E+00
     -0.174 -0.2071E-01  0.5189E+00
     -0.006 -0.2309E-02  0.5185E+00
      0.162 -0.4658E-07  0.5185E+00
      0.329 -0.2715E-07  0.5185E+00
      0.497 -0.2284E-02  0.5181E+00
      0.665 -0.1469E+00  0.4935E+00
      0.833  0.5126E+01  0.1354E+01
      1.001  0.3341E+00  0.1410E+01
      1.168 -0.1303E-01  0.1407E+01
      1.336 -0.4219E-03  0.1407E+01
      1.504 -0.1234E+00  0.1387E+01
      1.672  0.2985E+01  0.1887E+01
      1.839  0.6929E+00  0.2004E+01
      2.007 -0.2188E-01  0.2000E+01
      2.175 -0.6037E-01  0.1990E+01
      2.343  0.1546E+01  0.2249E+01
      2.510  0.1204E+01  0.2451E+01
      2.678  0.3415E-01  0.2457E+01
      2.846  0.8935E+00  0.2607E+01
      3.014  0.9418E+01  0.4187E+01
      3.182  0.1289E+02  0.6350E+01
      3.349  0.5924E+01  0.7344E+01
      3.517  0.1260E+01  0.7555E+01
      3.685  0.1223E+02  0.9607E+01
      3.853  0.1384E+02  0.1193E+02
      4.020  0.1546E+01  0.1219E+02
      4.188  0.6943E+01  0.1335E+02
      4.356  0.1965E+02  0.1665E+02
      4.524  0.6985E+01  0.1782E+02
      4.691  0.1638E+02  0.2057E+02
      4.859  0.1986E+02  0.2390E+02
      5.027  0.1650E+02  0.2667E+02
      5.195  0.9877E+01  0.2833E+02
      5.363  0.2785E+01  0.2879E+02
      5.530  0.1432E+02  0.3120E+02
      5.698  0.2327E+02  0.3510E+02
      5.866  0.1797E+02  0.3812E+02
      6.034  0.1279E+02  0.4026E+02
      6.201  0.1219E+02  0.4231E+02
      6.369  0.8646E+00  0.4245E+02
      6.537 -0.3407E-01  0.4244E+02
      6.705 -0.2776E-05  0.4244E+02
      6.872 -0.5906E-12  0.4244E+02
      7.040 -0.1351E-10  0.4244E+02
      7.208 -0.2511E-04  0.4244E+02
      7.376 -0.1113E+00  0.4243E+02
      7.543  0.3369E+01  0.4299E+02
      7.711  0.7658E+01  0.4428E+02
      7.879 -0.3412E+00  0.4422E+02
      8.047  0.5305E+00  0.4431E+02
      8.215  0.1035E+02  0.4604E+02
      8.382 -0.2603E+00  0.4600E+02
      8.550 -0.5363E-02  0.4600E+02
      8.718 -0.1179E-06  0.4600E+02
      8.886 -0.1689E-02  0.4600E+02
      9.053  0.1467E-01  0.4600E+02
      9.221  0.1321E+01  0.4622E+02
      9.389 -0.8374E-02  0.4622E+02
      9.557 -0.1197E-02  0.4622E+02
      9.724 -0.2483E-07  0.4622E+02
      9.892 -0.1471E-14  0.4622E+02
     10.060 -0.4612E-29  0.4622E+02
     10.228 -0.3491E-18  0.4622E+02
     10.396 -0.8546E-10  0.4622E+02
     10.563 -0.6602E-04  0.4622E+02
     10.731 -0.1075E+00  0.4620E+02
     10.899  0.2834E+01  0.4668E+02
     11.067  0.2671E+01  0.4713E+02
     11.234 -0.9938E-01  0.4711E+02
     11.402 -0.1805E-02  0.4711E+02
     11.570 -0.1670E+00  0.4708E+02
     11.738  0.5026E+01  0.4793E+02
     11.905  0.4577E+00  0.4800E+02
     12.073 -0.1609E-01  0.4800E+02
     12.241 -0.1002E-05  0.4800E+02
     12.409 -0.4860E-02  0.4800E+02
     12.577 -0.2817E+00  0.4795E+02
     12.744  0.1029E+02  0.4968E+02
     12.912  0.6141E+00  0.4978E+02
     13.080 -0.2476E-01  0.4978E+02
     13.248 -0.6349E-04  0.4978E+02
     13.415 -0.1054E+00  0.4976E+02
     13.583  0.2792E+01  0.5023E+02
     13.751  0.2714E+01  0.5068E+02
     13.919 -0.1015E+00  0.5067E+02
     14.086 -0.5613E-04  0.5067E+02
     14.254 -0.6758E-10  0.5067E+02
     14.422 -0.2414E-05  0.5067E+02
     14.590 -0.1239E-01  0.5066E+02
     14.758  0.3813E+00  0.5073E+02
     14.925  0.9975E+00  0.5090E+02
     15.093 -0.5383E-01  0.5089E+02
     15.261  0.2938E+00  0.5094E+02
     15.429  0.5157E+01  0.5180E+02
     15.596 -0.1377E+00  0.5178E+02
     15.764 -0.2507E-02  0.5178E+02
     15.932 -0.1602E-01  0.5178E+02
     16.100  0.3929E+00  0.5184E+02
     16.267  0.6588E+01  0.5295E+02
     16.435  0.7241E+01  0.5416E+02
     16.603 -0.7144E-01  0.5415E+02
     16.771 -0.5861E-02  0.5415E+02
     16.939 -0.1399E-06  0.5415E+02
     17.106 -0.4350E-13  0.5415E+02
     17.274 -0.3439E-06  0.5415E+02
     17.442 -0.9466E-02  0.5415E+02
     17.610  0.1812E+00  0.5418E+02
     17.777  0.4952E+01  0.5501E+02
     17.945  0.6810E+01  0.5615E+02
     18.113  0.4103E+01  0.5684E+02
     18.281 -0.1416E+00  0.5681E+02
     18.448 -0.4434E-04  0.5681E+02
     18.616 -0.1603E-03  0.5681E+02
     18.784 -0.2298E+00  0.5678E+02
     18.952  0.5959E+01  0.5778E+02
     19.120  0.5052E+01  0.5862E+02
     19.287 -0.1847E+00  0.5859E+02
     19.455 -0.8692E-04  0.5859E+02
     19.623 -0.8952E-10  0.5859E+02
     19.791 -0.6671E-39  0.5859E+02
     19.958 -0.3228E-26  0.5859E+02
     20.126 -0.5358E-16  0.5859E+02
     20.294 -0.2825E-08  0.5859E+02
     20.462 -0.4514E-03  0.5859E+02
     20.629 -0.9342E-01  0.5858E+02
     20.797  0.2347E+01  0.5897E+02
     20.965  0.4092E+00  0.5904E+02
     21.133 -0.3639E-01  0.5903E+02
     21.301  0.7253E+00  0.5915E+02
     21.468  0.2033E+01  0.5950E+02
     21.636 -0.8807E-01  0.5948E+02
     21.804 -0.1246E+00  0.5946E+02
     21.972  0.5191E+01  0.6033E+02
     22.139  0.2441E+00  0.6037E+02
     22.307 -0.3848E+00  0.6031E+02
     22.475  0.9143E+01  0.6184E+02
     22.643  0.8317E+01  0.6324E+02
     22.810  0.4265E+01  0.6395E+02
     22.978 -0.1572E+00  0.6393E+02
     23.146 -0.2234E-02  0.6393E+02
     23.314 -0.3700E+00  0.6386E+02
     23.481  0.9581E+01  0.6547E+02
     23.649  0.1434E+01  0.6571E+02
     23.817 -0.4610E-01  0.6570E+02
     23.985 -0.4472E-04  0.6570E+02
     24.153 -0.9024E-01  0.6569E+02
     24.320  0.2482E+01  0.6610E+02
     24.488  0.3024E+01  0.6661E+02
     24.656 -0.1172E+00  0.6659E+02
     24.824 -0.8500E-04  0.6659E+02
     24.991 -0.6763E-03  0.6659E+02
     25.159 -0.3228E-01  0.6659E+02
     25.327  0.1295E+01  0.6680E+02
     25.495  0.6526E-01  0.6682E+02
     25.662 -0.2820E+00  0.6677E+02
     25.830  0.7232E+01  0.6798E+02
     25.998  0.6537E+01  0.6908E+02
     26.166 -0.2438E+00  0.6904E+02
     26.334 -0.1701E-03  0.6904E+02
     26.501 -0.3144E-09  0.6904E+02
     26.669 -0.1388E-26  0.6904E+02
     26.837 -0.3204E-16  0.6904E+02
     27.005 -0.2369E-08  0.6904E+02
     27.172 -0.5503E-03  0.6904E+02
     27.340 -0.2488E+00  0.6900E+02
     27.508  0.6321E+01  0.7006E+02
     27.676  0.4627E+01  0.7083E+02
     27.843  0.1532E+01  0.7109E+02
     28.011  0.6336E+01  0.7215E+02
     28.179  0.6876E+01  0.7331E+02
     28.347 -0.2779E+00  0.7326E+02
     28.515  0.2103E-01  0.7326E+02
     28.682  0.2644E+01  0.7371E+02
     28.850 -0.1045E-01  0.7370E+02
     29.018 -0.2527E-02  0.7370E+02
     29.186 -0.5561E-03  0.7370E+02
     29.353 -0.1873E+00  0.7367E+02
     29.521  0.4651E+01  0.7445E+02
     29.689  0.1779E+01  0.7475E+02
     29.857 -0.1268E+00  0.7473E+02
     30.024  0.2030E+01  0.7507E+02
     30.192  0.5331E+01  0.7596E+02
     30.360  0.2168E+00  0.7600E+02
     30.528 -0.4914E-02  0.7600E+02
     30.696 -0.3625E-03  0.7600E+02
     30.863 -0.9368E-08  0.7600E+02
     31.031 -0.5355E-03  0.7600E+02
     31.199 -0.1823E+00  0.7597E+02
     31.367  0.4370E+01  0.7670E+02
     31.534  0.1147E+01  0.7689E+02
     31.702 -0.3625E-01  0.7689E+02
     31.870 -0.4881E-05  0.7689E+02
     32.038 -0.3587E-03  0.7689E+02
     32.205 -0.3528E+00  0.7683E+02
     32.373  0.8970E+01  0.7833E+02
     32.541  0.7562E+01  0.7960E+02
     32.709 -0.2880E+00  0.7955E+02
     32.877 -0.9408E-01  0.7954E+02
     33.044  0.6136E+01  0.8057E+02
     33.212  0.1044E+01  0.8074E+02
     33.380  0.2285E+01  0.8113E+02
     33.548 -0.9410E-01  0.8111E+02
     33.715 -0.4381E+00  0.8104E+02
     33.883  0.1073E+02  0.8284E+02
     34.051  0.5804E+01  0.8381E+02
     34.219 -0.4056E+00  0.8374E+02
     34.386  0.5532E+01  0.8467E+02
     34.554  0.7325E+01  0.8590E+02
     34.722 -0.2902E+00  0.8585E+02
     34.890 -0.3461E-03  0.8585E+02
     35.058 -0.7179E-06  0.8585E+02
     35.225 -0.7028E-02  0.8585E+02
     35.393  0.2225E+00  0.8589E+02
     35.561  0.1156E+01  0.8608E+02
     35.729 -0.4675E-01  0.8607E+02
     35.896 -0.2004E-03  0.8607E+02
     36.064 -0.1160E-08  0.8607E+02
     36.232 -0.3015E-05  0.8607E+02
     36.400 -0.2881E-01  0.8607E+02
     36.567  0.9127E+00  0.8622E+02
     36.735  0.4440E+01  0.8697E+02
     36.903  0.3688E+01  0.8759E+02
     37.071  0.1638E+01  0.8786E+02
     37.239 -0.5387E-01  0.8785E+02
     37.406 -0.8079E-03  0.8785E+02
     37.574 -0.1347E+00  0.8783E+02
     37.742  0.3312E+01  0.8838E+02
     37.910  0.1098E+02  0.9023E+02
     38.077  0.5993E+00  0.9033E+02
     38.245  0.1545E+02  0.9292E+02
     38.413  0.1652E+01  0.9320E+02
     38.581 -0.6779E-01  0.9319E+02
     38.748 -0.1208E-04  0.9319E+02
     38.916 -0.5228E-04  0.9319E+02
     39.084 -0.1541E-01  0.9318E+02
     39.252  0.3727E+00  0.9325E+02
     39.419  0.8700E-01  0.9326E+02
     39.587 -0.2741E-02  0.9326E+02
     39.755 -0.3312E-06  0.9326E+02
     39.923 -0.1011E-12  0.9326E+02
     40.091 -0.1404E-16  0.9326E+02
     40.258 -0.1071E-08  0.9326E+02
     40.426 -0.2505E-03  0.9326E+02
     40.594 -0.9044E-01  0.9324E+02
     40.762  0.2163E+01  0.9361E+02
     40.929  0.3831E+00  0.9367E+02
     41.097  0.5409E+01  0.9458E+02
     41.265  0.5552E+01  0.9551E+02
     41.433  0.1115E+01  0.9570E+02
     41.600  0.1418E+01  0.9593E+02
     41.768 -0.5380E-01  0.9593E+02
     41.936 -0.3309E-04  0.9593E+02
     42.104 -0.4288E-10  0.9593E+02
     42.272  0.0000E+00  0.9593E+02
     42.439  0.0000E+00  0.9593E+02
     42.607  0.0000E+00  0.9593E+02
     42.775  0.0000E+00  0.9593E+02
     42.943  0.0000E+00  0.9593E+02
     43.110 -0.7647E-35  0.9593E+02
     43.278 -0.4833E-23  0.9593E+02
     43.446 -0.1008E-13  0.9593E+02
     43.614 -0.6868E-07  0.9593E+02
     43.781 -0.1251E-02  0.9593E+02
     43.949  0.3460E-01  0.9593E+02
     44.117  0.4218E+00  0.9600E+02
     44.285 -0.1344E-01  0.9600E+02
     44.453 -0.1595E-03  0.9600E+02
     44.620 -0.1670E-08  0.9600E+02
     44.788 -0.9804E-16  0.9600E+02
     44.956  0.0000E+00  0.9600E+02
     45.124  0.0000E+00  0.9600E+02
     45.291  0.0000E+00  0.9600E+02
     45.459  0.0000E+00  0.9600E+02
     45.627  0.0000E+00  0.9600E+02
     45.795  0.0000E+00  0.9600E+02
     45.962  0.0000E+00  0.9600E+02
     46.130  0.0000E+00  0.9600E+02
     46.298  0.0000E+00  0.9600E+02
