    4    4    1    1
  0.1176147E+02  0.3610000E-09  0.3610000E-09  0.3610000E-09  0.5000000E-15
  1.000000000000000E-004
  CAR 
 unknown system                          
     44      4     48
 
  0.0000000E+00  0.0000000E+00  0.0000000E+00  0.3703704E-01
    1       -1.744780   1.000000
    2        2.743568   1.000000
    3        2.743568   1.000000
    4        2.743568   1.000000
    5        3.204593   1.000000
    6        3.204593   1.000000
    7        3.204593   1.000000
    8        4.609081   1.000000
    9        4.609081   1.000000
   10        4.609081   1.000000
   11        5.440037   1.000000
   12        5.440037   1.000000
   13        5.992502   1.000000
   14        5.992502   1.000000
   15        5.992502   1.000000
   16        6.150473   1.000000
   17        6.150473   1.000000
   18        6.150473   1.000000
   19        6.150473   1.000000
   20        6.150473   1.000000
   21        6.150473   1.000000
   22        9.133466  -0.000000
   23        9.133466  -0.000000
   24        9.133466  -0.000000
   25       14.784795   0.000000
   26       14.784795   0.000000
   27       14.784795   0.000000
   28       20.750669   0.000000
   29       20.750669   0.000000
   30       20.750669   0.000000
   31       20.750669   0.000000
   32       20.750669   0.000000
   33       20.750669   0.000000
   34       25.258941   0.000000
   35       25.258941   0.000000
   36       25.258941   0.000000
   37       27.966420   0.000000
   38       27.966420   0.000000
   39       27.966420   0.000000
   40       30.270216   0.000000
   41       32.940316   0.000000
   42       32.940316   0.000000
   43       32.940316   0.000000
   44       35.437365   0.000000
   45       35.437365   0.000000
   46       35.437365   0.000000
   47       39.211907   0.000000
   48       44.010245   0.000000
 
  0.3333333E+00  0.0000000E+00  0.0000000E+00  0.2222222E+00
    1       -0.430113   1.000000
    2        2.335469   1.000000
    3        3.258707   1.000000
    4        3.258707   1.000000
    5        3.540408   1.000000
    6        3.594270   1.000000
    7        3.594270   1.000000
    8        4.241797   1.000000
    9        4.806635   1.000000
   10        4.806635   1.000000
   11        4.919670   1.000000
   12        4.919670   1.000000
   13        5.129752   1.000000
   14        5.554872   1.000000
   15        5.575013   1.000000
   16        5.588030   1.000000
   17        5.588030   1.000000
   18        5.676853   1.000000
   19        5.676853   1.000000
   20        5.851612   1.000000
   21        6.151361   1.000000
   22        6.151361   1.000000
   23       11.678443   0.000000
   24       11.678443   0.000000
   25       15.327272   0.000000
   26       15.327272   0.000000
   27       16.351700   0.000000
   28       16.351700   0.000000
   29       17.681860   0.000000
   30       17.681860   0.000000
   31       21.329596   0.000000
   32       22.646902   0.000000
   33       22.646902   0.000000
   34       25.850470   0.000000
   35       27.471126   0.000000
   36       27.471126   0.000000
   37       27.820158   0.000000
   38       28.595792   0.000000
   39       29.511955   0.000000
   40       31.329652   0.000000
   41       31.329652   0.000000
   42       33.256011   0.000000
   43       33.880361   0.000000
   44       33.880361   0.000000
   45       40.725876   0.000000
   46       41.124813   0.000000
   47       41.124819   0.000000
   48       41.434479   0.000000
 
  0.3333333E+00  0.3333333E+00  0.0000000E+00  0.4444444E+00
    1        0.768201   1.000000
    2        3.086927   1.000000
    3        3.086927   1.000000
    4        3.577035   1.000000
    5        3.747092   1.000000
    6        3.811128   1.000000
    7        3.811128   1.000000
    8        4.182870   1.000000
    9        4.329529   1.000000
   10        4.329529   1.000000
   11        4.476742   1.000000
   12        4.718276   1.000000
   13        5.033456   1.000000
   14        5.140629   1.000000
   15        5.366413   1.000000
   16        5.485210   1.000000
   17        5.485210   1.000000
   18        5.675862   1.000000
   19        5.675862   1.000000
   20        5.807235   1.000000
   21        5.915800   1.000000
   22        7.566949   0.875000
   23        7.566949   0.875000
   24       10.897128   0.000000
   25       13.582327   0.000000
   26       16.159087   0.000000
   27       17.930078   0.000000
   28       17.930078   0.000000
   29       18.946931   0.000000
   30       18.946931   0.000000
   31       21.902766   0.000000
   32       22.427959   0.000000
   33       22.427959   0.000000
   34       22.611365   0.000000
   35       24.326085   0.000000
   36       27.525161   0.000000
   37       32.356029   0.000000
   38       32.356029   0.000000
   39       32.392503   0.000000
   40       32.991517   0.000000
   41       33.857458   0.000000
   42       33.857458   0.000000
   43       34.375998   0.000000
   44       36.611057   0.000000
   45       36.878428   0.000000
   46       38.137373   0.000000
   47       38.137373   0.000000
   48       41.071625   0.000000
 
  0.3333333E+00  0.3333333E+00  0.3333333E+00  0.2962963E+00
    1        1.631648   1.000000
    2        2.971011   1.000000
    3        2.971011   1.000000
    4        2.971011   1.000000
    5        4.203963   1.000000
    6        4.203963   1.000000
    7        4.203963   1.000000
    8        4.603975   1.000000
    9        4.688263   1.000000
   10        4.688263   1.000000
   11        4.688263   1.000000
   12        4.690298   1.000000
   13        4.690298   1.000000
   14        4.901525   1.000000
   15        4.901525   1.000000
   16        4.901525   1.000000
   17        5.737784   1.000000
   18        5.737784   1.000000
   19        6.027892   1.000000
   20        6.027892   1.000000
   21        6.027892   1.000000
   22        8.114617  -0.000000
   23        8.114617  -0.000000
   24        8.114617  -0.000000
   25       12.678501   0.000000
   26       12.678501   0.000000
   27       12.678501   0.000000
   28       16.276427   0.000000
   29       23.431684   0.000000
   30       23.431684   0.000000
   31       23.431684   0.000000
   32       25.821594   0.000000
   33       25.821594   0.000000
   34       25.821594   0.000000
   35       28.023831   0.000000
   36       28.023831   0.000000
   37       28.023831   0.000000
   38       29.477940   0.000000
   39       30.051785   0.000000
   40       30.051785   0.000000
   41       34.409132   0.000000
   42       34.409132   0.000000
   43       37.689996   0.000000
   44       37.823201   0.000000
   45       37.823201   0.000000
   46       37.823201   0.000000
   47       38.216892   0.000000
   48       38.216892   0.000000
