       N       E                     dE             d eps       ncg     rms          rms(c)
DAV:   1     0.138538403641E+03    0.13854E+03   -0.16840E+04   456   0.137E+03
DAV:   2    -0.135046277294E+02   -0.15204E+03   -0.13972E+03   384   0.197E+02
DAV:   3    -0.178846478345E+02   -0.43800E+01   -0.43415E+01   552   0.381E+01
DAV:   4    -0.179155359591E+02   -0.30888E-01   -0.30887E-01   408   0.273E+00
DAV:   5    -0.179159551294E+02   -0.41917E-03   -0.41917E-03   576   0.344E-01    0.156E+01
DAV:   6    -0.159581394482E+02    0.19578E+01   -0.34144E+01   456   0.717E+01    0.806E+00
DAV:   7    -0.144107167734E+02    0.15474E+01   -0.58716E+00   456   0.292E+01    0.105E+00
DAV:   8    -0.143735150881E+02    0.37202E-01   -0.29915E-02   528   0.154E+00    0.740E-01
DAV:   9    -0.143639733306E+02    0.95418E-02   -0.29166E-02   504   0.192E+00    0.264E-02
DAV:  10    -0.143640201410E+02   -0.46810E-04   -0.16303E-04   408   0.715E-02
   1 F= -.14364020E+02 E0= -.14360912E+02  d E =-.932459E-02
