 vasp.5.4.1 05Feb16 (build Feb 08 2018 09:21:51) complex                        
  
 executed on             LinuxIFC date 2019.11.21  13:18:31
 running on   24 total cores
 distrk:  each k-point on   24 cores,    1 groups
 distr:  one band on NCORES_PER_BAND=   1 cores,   24 groups


--------------------------------------------------------------------------------------------------------


 INCAR:
 POTCAR:    PAW_PBE Cu 22Jun2005                  

 ----------------------------------------------------------------------------- 
|                                                                             |
|           W    W    AA    RRRRR   N    N  II  N    N   GGGG   !!!           |
|           W    W   A  A   R    R  NN   N  II  NN   N  G    G  !!!           |
|           W    W  A    A  R    R  N N  N  II  N N  N  G       !!!           |
|           W WW W  AAAAAA  RRRRR   N  N N  II  N  N N  G  GGG   !            |
|           WW  WW  A    A  R   R   N   NN  II  N   NN  G    G                |
|           W    W  A    A  R    R  N    N  II  N    N   GGGG   !!!           |
|                                                                             |
|      For optimal performance we recommend to set                            |
|        NCORE= 4 - approx SQRT( number of cores)                             |
|      NCORE specifies how many cores store one orbital (NPAR=cpu/NCORE).     |
|      This setting can  greatly improve the performance of VASP for DFT.     |
|      The default, NPAR=number of cores might be grossly inefficient         |
|      on modern multi-core architectures or massively parallel machines.     |
|      Do your own testing !!!!                                               |
|      Unfortunately you need to use the default for GW and RPA calculations. |
|      (for HF NCORE is supported but not extensively tested yet)             |
|                                                                             |
 ----------------------------------------------------------------------------- 

 POTCAR:    PAW_PBE Cu 22Jun2005                  
   VRHFIN =Cu: d10 p1                                                           
   LEXCH  = PE                                                                  
   EATOM  =  1390.9808 eV,  102.2342 Ry                                         
                                                                                
   TITEL  = PAW_PBE Cu 22Jun2005                                                
   LULTRA =        F    use ultrasoft PP ?                                      
   IUNSCR =        1    unscreen: 0-lin 1-nonlin 2-no                           
   RPACOR =    2.000    partial core radius                                     
   POMASS =   63.546; ZVAL   =   11.000    mass and valenz                      
   RCORE  =    2.300    outmost cutoff radius                                   
   RWIGS  =    2.200; RWIGS  =    1.164    wigner-seitz radius (au A)           
   ENMAX  =  295.446; ENMIN  =  221.585 eV                                      
   ICORE  =        3    local potential                                         
   LCOR   =        T    correct aug charges                                     
   LPAW   =        T    paw PP                                                  
   EAUG   =  586.980                                                            
   DEXC   =    0.000                                                            
   RMAX   =    2.344    core radius for proj-oper                               
   RAUG   =    1.300    factor for augmentation sphere                          
   RDEP   =    2.302    radius for radial grids                                 
   RDEPT  =    1.771    core radius for aug-charge                              
                                                                                
   Atomic configuration                                                         
    9 entries                                                                   
     n  l   j            E        occ.                                          
     1  0  0.50     -8850.2468   2.0000                                         
     2  0  0.50     -1062.3498   2.0000                                         
     2  1  1.50      -916.8226   6.0000                                         
     3  0  0.50      -114.6929   2.0000                                         
     3  1  1.50       -72.1325   6.0000                                         
     3  2  2.50        -5.0394  10.0000                                         
     4  0  0.50        -4.6097   1.0000                                         
     4  1  0.50        -4.0817   0.0000                                         
     4  3  2.50        -1.3606   0.0000                                         
   Description                                                                  
     l       E           TYP  RCUT    TYP  RCUT                                 
     2     -5.0393973     23  2.200                                             
     2     10.8846608     23  2.200                                             
     0     -4.6097109     23  2.200                                             
     0      8.2520465     23  2.200                                             
     1     -2.7211652     23  2.200                                             
     1     21.7055443     23  2.200                                             
     3      2.7211652     23  2.300                                             
  local pseudopotential read in
  partial core-charges read in
  partial kinetic energy density read in
  atomic valenz-charges read in
  non local Contribution for L=           2  read in
    real space projection operators read in
  non local Contribution for L=           2  read in
    real space projection operators read in
  non local Contribution for L=           0  read in
    real space projection operators read in
  non local Contribution for L=           0  read in
    real space projection operators read in
  non local Contribution for L=           1  read in
    real space projection operators read in
  non local Contribution for L=           1  read in
    real space projection operators read in
    PAW grid and wavefunctions read in
 
   number of l-projection  operators is LMAX  =           6
   number of lm-projection operators is LMMAX =          18
 
  PAW_PBE Cu 22Jun2005                  :
 energy of atom  1       EATOM=-1390.9808
 kinetic energy error for atom=    0.0232 (will be added to EATOM!!)
 
 
 POSCAR: Cu                                      
  positions in cartesian coordinates
  No initial velocities read in
 exchange correlation table for  LEXCH =        8
   RHO(1)=    0.500       N(1)  =     2000
   RHO(2)=  100.500       N(2)  =     4000
 


--------------------------------------------------------------------------------------------------------


 ion  position               nearest neighbor table
   1  0.000  0.000  0.000-   2 2.55   3 2.55   4 2.55   2 2.55   3 2.55   2 2.55   4 2.55   2 2.55
                             3 2.55   4 2.55   3 2.55   4 2.55
   2  0.000  0.500  0.500-   1 2.55   3 2.55   4 2.55   1 2.55   4 2.55   1 2.55   3 2.55   1 2.55
                             3 2.55   4 2.55   4 2.55   3 2.55
   3  0.500  0.000  0.500-   1 2.55   2 2.55   4 2.55   1 2.55   4 2.55   2 2.55   4 2.55   4 2.55
                             1 2.55   2 2.55   1 2.55   2 2.55
   4  0.500  0.500  0.000-   1 2.55   2 2.55   3 2.55   2 2.55   3 2.55   1 2.55   3 2.55   3 2.55
                             1 2.55   2 2.55   2 2.55   1 2.55
 
  LATTYP: Found a simple cubic cell.
 ALAT       =     3.6100000000
  
  Lattice vectors:
  
 A1 = (   3.6100000000,   0.0000000000,   0.0000000000)
 A2 = (   0.0000000000,   3.6100000000,   0.0000000000)
 A3 = (   0.0000000000,   0.0000000000,   3.6100000000)


Analysis of symmetry for initial positions (statically):
=====================================================================
 Subroutine PRICEL returns following result:
 
  LATTYP: Found a face centered cubic cell.
 ALAT       =     3.6100000000
  
  Lattice vectors:
  
 A1 = (   1.8050000000,   1.8050000000,  -0.0000000000)
 A2 = (   1.8050000000,   0.0000000000,  -1.8050000000)
 A3 = (   0.0000000000,   1.8050000000,  -1.8050000000)
 
   4 primitive cells build up your supercell.
 

 Routine SETGRP: Setting up the symmetry group for a 
 simple cubic supercell.


 Subroutine GETGRP returns: Found 48 space group operations
 (whereof 48 operations were pure point group operations)
 out of a pool of 48 trial point group operations.


The static configuration has the point symmetry O_h .


Analysis of symmetry for dynamics (positions and initial velocities):
=====================================================================
 Subroutine PRICEL returns following result:
 
  LATTYP: Found a face centered cubic cell.
 ALAT       =     3.6100000000
  
  Lattice vectors:
  
 A1 = (   1.8050000000,   1.8050000000,  -0.0000000000)
 A2 = (   1.8050000000,   0.0000000000,  -1.8050000000)
 A3 = (   0.0000000000,   1.8050000000,  -1.8050000000)
 
   4 primitive cells build up your supercell.
 

 Routine SETGRP: Setting up the symmetry group for a 
 simple cubic supercell.


 Subroutine GETGRP returns: Found 48 space group operations
 (whereof 48 operations were pure point group operations)
 out of a pool of 48 trial point group operations.


The dynamic configuration has the point symmetry O_h .


 Subroutine INISYM returns: Found 48 space group operations
 (whereof 48 operations are pure point group operations),
 and found     4 'primitive' translations

 
 
 KPOINTS: KPOINTS created by Atomic Simulation Env

Automatic generation of k-mesh.
Space group operators:
 irot       det(A)        alpha          n_x          n_y          n_z        tau_x        tau_y        tau_z
    1     1.000000     0.000000     1.000000     0.000000     0.000000     0.000000     0.000000     0.000000
    2    -1.000000     0.000000     1.000000     0.000000     0.000000     0.000000     0.000000     0.000000
    3     1.000000   120.000000    -0.577350    -0.577350    -0.577350     0.000000     0.000000     0.000000
    4    -1.000000   120.000000    -0.577350    -0.577350    -0.577350     0.000000     0.000000     0.000000
    5     1.000000   120.000000     0.577350     0.577350     0.577350     0.000000     0.000000     0.000000
    6    -1.000000   120.000000     0.577350     0.577350     0.577350     0.000000     0.000000     0.000000
    7     1.000000    90.000000     0.000000     0.000000    -1.000000     0.000000     0.000000     0.000000
    8    -1.000000    90.000000     0.000000     0.000000    -1.000000     0.000000     0.000000     0.000000
    9     1.000000   180.000000     0.000000     0.707107     0.707107     0.000000     0.000000     0.000000
   10    -1.000000   180.000000     0.000000     0.707107     0.707107     0.000000     0.000000     0.000000
   11     1.000000    90.000000     0.000000     1.000000     0.000000     0.000000     0.000000     0.000000
   12    -1.000000    90.000000     0.000000     1.000000     0.000000     0.000000     0.000000     0.000000
   13     1.000000   179.999999     0.000000     0.000000     1.000000     0.000000     0.000000     0.000000
   14    -1.000000   179.999999     0.000000     0.000000     1.000000     0.000000     0.000000     0.000000
   15     1.000000   120.000000    -0.577350     0.577350     0.577350     0.000000     0.000000     0.000000
   16    -1.000000   120.000000    -0.577350     0.577350     0.577350     0.000000     0.000000     0.000000
   17     1.000000   120.000000    -0.577350     0.577350    -0.577350     0.000000     0.000000     0.000000
   18    -1.000000   120.000000    -0.577350     0.577350    -0.577350     0.000000     0.000000     0.000000
   19     1.000000    90.000000     0.000000     0.000000     1.000000     0.000000     0.000000     0.000000
   20    -1.000000    90.000000     0.000000     0.000000     1.000000     0.000000     0.000000     0.000000
   21     1.000000    90.000000    -1.000000     0.000000     0.000000     0.000000     0.000000     0.000000
   22    -1.000000    90.000000    -1.000000     0.000000     0.000000     0.000000     0.000000     0.000000
   23     1.000000   180.000000     0.707107     0.000000     0.707107     0.000000     0.000000     0.000000
   24    -1.000000   180.000000     0.707107     0.000000     0.707107     0.000000     0.000000     0.000000
   25     1.000000   120.000000     0.577350    -0.577350     0.577350     0.000000     0.000000     0.000000
   26    -1.000000   120.000000     0.577350    -0.577350     0.577350     0.000000     0.000000     0.000000
   27     1.000000   120.000000    -0.577350    -0.577350     0.577350     0.000000     0.000000     0.000000
   28    -1.000000   120.000000    -0.577350    -0.577350     0.577350     0.000000     0.000000     0.000000
   29     1.000000   180.000000     1.000000     0.000000     0.000000     0.000000     0.000000     0.000000
   30    -1.000000   180.000000     1.000000     0.000000     0.000000     0.000000     0.000000     0.000000
   31     1.000000    90.000000     0.000000    -1.000000     0.000000     0.000000     0.000000     0.000000
   32    -1.000000    90.000000     0.000000    -1.000000     0.000000     0.000000     0.000000     0.000000
   33     1.000000   180.000000     0.707107     0.707107     0.000000     0.000000     0.000000     0.000000
   34    -1.000000   180.000000     0.707107     0.707107     0.000000     0.000000     0.000000     0.000000
   35     1.000000    90.000000     1.000000     0.000000     0.000000     0.000000     0.000000     0.000000
   36    -1.000000    90.000000     1.000000     0.000000     0.000000     0.000000     0.000000     0.000000
   37     1.000000   120.000000     0.577350    -0.577350    -0.577350     0.000000     0.000000     0.000000
   38    -1.000000   120.000000     0.577350    -0.577350    -0.577350     0.000000     0.000000     0.000000
   39     1.000000   180.000000     0.000000     1.000000     0.000000     0.000000     0.000000     0.000000
   40    -1.000000   180.000000     0.000000     1.000000     0.000000     0.000000     0.000000     0.000000
   41     1.000000   120.000000     0.577350     0.577350    -0.577350     0.000000     0.000000     0.000000
   42    -1.000000   120.000000     0.577350     0.577350    -0.577350     0.000000     0.000000     0.000000
   43     1.000000   180.000000     0.000000    -0.707107     0.707107     0.000000     0.000000     0.000000
   44    -1.000000   180.000000     0.000000    -0.707107     0.707107     0.000000     0.000000     0.000000
   45     1.000000   180.000000     0.707107    -0.707107     0.000000     0.000000     0.000000     0.000000
   46    -1.000000   180.000000     0.707107    -0.707107     0.000000     0.000000     0.000000     0.000000
   47     1.000000   180.000000     0.707107     0.000000    -0.707107     0.000000     0.000000     0.000000
   48    -1.000000   180.000000     0.707107     0.000000    -0.707107     0.000000     0.000000     0.000000
 
 Subroutine IBZKPT returns following result:
 ===========================================
 
 Found      4 irreducible k-points:
 
 Following reciprocal coordinates:
            Coordinates               Weight
  0.000000  0.000000  0.000000      1.000000
  0.333333  0.000000  0.000000      6.000000
  0.333333  0.333333  0.000000     12.000000
  0.333333  0.333333  0.333333      8.000000
 
 Following cartesian coordinates:
            Coordinates               Weight
  0.000000  0.000000  0.000000      1.000000
  0.092336  0.000000  0.000000      6.000000
  0.092336  0.092336  0.000000     12.000000
  0.092336  0.092336  0.092336      8.000000
 


--------------------------------------------------------------------------------------------------------




 Dimension of arrays:
   k-points           NKPTS =      4   k-points in BZ     NKDIM =      4   number of bands    NBANDS=     48
   number of dos      NEDOS =    301   number of ions     NIONS =      4
   non local maximal  LDIM  =      6   non local SUM 2l+1 LMDIM =     18
   total plane-waves  NPLWV =   5832
   max r-space proj   IRMAX =      1   max aug-charges    IRDMAX=   3790
   dimension x,y,z NGX =    18 NGY =   18 NGZ =   18
   dimension x,y,z NGXF=    36 NGYF=   36 NGZF=   36
   support grid    NGXF=    36 NGYF=   36 NGZF=   36
   ions per type =               4
 NGX,Y,Z   is equivalent  to a cutoff of   8.29,  8.29,  8.29 a.u.
 NGXF,Y,Z  is equivalent  to a cutoff of  16.58, 16.58, 16.58 a.u.


 I would recommend the setting:
   dimension x,y,z NGX =    18 NGY =   18 NGZ =   18
 SYSTEM =  unknown system                          
 POSCAR =  Cu                                      

 Startparameter for this run:
   NWRITE =      2    write-flag & timer
   PREC   = normal    normal or accurate (medium, high low for compatibility)
   ISTART =      0    job   : 0-new  1-cont  2-samecut
   ICHARG =      2    charge: 1-file 2-atom 10-const
   ISPIN  =      1    spin polarized calculation?
   LNONCOLLINEAR =      F non collinear calculations
   LSORBIT =      F    spin-orbit coupling
   INIWAV =      1    electr: 0-lowe 1-rand  2-diag
   LASPH  =      F    aspherical Exc in radial PAW
   METAGGA=      F    non-selfconsistent MetaGGA calc.

 Electronic Relaxation 1
   ENCUT  =  400.0 eV  29.40 Ry    5.42 a.u.   5.89  5.89  5.89*2*pi/ulx,y,z
   ENINI  =  400.0     initial cutoff
   ENAUG  =  587.0 eV  augmentation charge cutoff
   NELM   =     60;   NELMIN=  2; NELMDL= -5     # of ELM steps 
   EDIFF  = 0.1E-03   stopping-criterion for ELM
   LREAL  =      F    real-space projection
   NLSPLINE    = F    spline interpolate recip. space projectors
   LCOMPAT=      F    compatible to vasp.4.4
   GGA_COMPAT  = T    GGA compatible to vasp.4.4-vasp.4.6
   LMAXPAW     = -100 max onsite density
   LMAXMIX     =    2 max onsite mixed and CHGCAR
   VOSKOWN=      0    Vosko Wilk Nusair interpolation
   ROPT   =    0.00000
 Ionic relaxation
   EDIFFG = 0.1E-02   stopping-criterion for IOM
   NSW    =      0    number of steps for IOM
   NBLOCK =      1;   KBLOCK =      1    inner block; outer block 
   IBRION =     -1    ionic relax: 0-MD 1-quasi-New 2-CG
   NFREE  =      0    steps in history (QN), initial steepest desc. (CG)
   ISIF   =      2    stress and relaxation
   IWAVPR =     10    prediction:  0-non 1-charg 2-wave 3-comb
   ISYM   =      2    0-nonsym 1-usesym 2-fastsym
   LCORR  =      T    Harris-Foulkes like correction to forces

   POTIM  = 0.5000    time-step for ionic-motion
   TEIN   =    0.0    initial temperature
   TEBEG  =    0.0;   TEEND  =   0.0 temperature during run
   SMASS  =  -3.00    Nose mass-parameter (am)
   estimated Nose-frequenzy (Omega)   =  0.10E-29 period in steps =****** mass=  -0.298E-27a.u.
   SCALEE = 1.0000    scale energy and forces
   NPACO  =    256;   APACO  = 16.0  distance and # of slots for P.C.
   PSTRESS=    0.0 pullay stress

  Mass of Ions in am
   POMASS =  63.55
  Ionic Valenz
   ZVAL   =  11.00
  Atomic Wigner-Seitz radii
   RWIGS  =  -1.00
  virtual crystal weights 
   VCA    =   1.00
   NELECT =      44.0000    total number of electrons
   NUPDOWN=      -1.0000    fix difference up-down

 DOS related values:
   EMIN   =  10.00;   EMAX   =-10.00  energy-range for DOS
   EFERMI =   0.00
   ISMEAR =     1;   SIGMA  =   0.10  broadening in eV -4-tet -1-fermi 0-gaus

 Electronic relaxation 2 (details)
   IALGO  =     38    algorithm
   LDIAG  =      T    sub-space diagonalisation (order eigenvalues)
   LSUBROT=      F    optimize rotation matrix (better conditioning)
   TURBO    =      0    0=normal 1=particle mesh
   IRESTART =      0    0=no restart 2=restart with 2 vectors
   NREBOOT  =      0    no. of reboots
   NMIN     =      0    reboot dimension
   EREF     =   0.00    reference energy to select bands
   IMIX   =      4    mixing-type and parameters
     AMIX     =   0.40;   BMIX     =  1.00
     AMIX_MAG =   1.60;   BMIX_MAG =  1.00
     AMIN     =   0.10
     WC   =   100.;   INIMIX=   1;  MIXPRE=   1;  MAXMIX= -45

 Intra band minimization:
   WEIMIN = 0.0000     energy-eigenvalue tresh-hold
   EBREAK =  0.52E-06  absolut break condition
   DEPER  =   0.30     relativ break condition  

   TIME   =   0.40     timestep for ELM

  volume/ion in A,a.u.               =      11.76        79.37
  Fermi-wavevector in a.u.,A,eV,Ry     =   1.600977  3.025409 34.873480  2.563128
  Thomas-Fermi vector in A             =   2.698028
 
 Write flags
   LWAVE  =      F    write WAVECAR
   LCHARG =      F    write CHGCAR
   LVTOT  =      F    write LOCPOT, total local potential
   LVHAR  =      F    write LOCPOT, Hartree potential only
   LELF   =      F    write electronic localiz. function (ELF)
   LORBIT =      0    0 simple, 1 ext, 2 COOP (PROOUT)


 Dipole corrections
   LMONO  =      F    monopole corrections only (constant potential shift)
   LDIPOL =      F    correct potential (dipole corrections)
   IDIPOL =      0    1-x, 2-y, 3-z, 4-all directions 
   EPSILON=  1.0000000 bulk dielectric constant

 Exchange correlation treatment:
   GGA     =    --    GGA type
   LEXCH   =     8    internal setting for exchange type
   VOSKOWN=      0    Vosko Wilk Nusair interpolation
   LHFCALC =     F    Hartree Fock is set to
   LHFONE  =     F    Hartree Fock one center treatment
   AEXX    =    0.0000 exact exchange contribution

 Linear response parameters
   LEPSILON=     F    determine dielectric tensor
   LRPA    =     F    only Hartree local field effects (RPA)
   LNABLA  =     F    use nabla operator in PAW spheres
   LVEL    =     F    velocity operator in full k-point grid
   LINTERFAST=   F  fast interpolation
   KINTER  =     0    interpolate to denser k-point grid
   CSHIFT  =0.1000    complex shift for real part using Kramers Kronig
   OMEGAMAX=  -1.0    maximum frequency
   DEG_THRESHOLD= 0.2000000E-02 threshold for treating states as degnerate
   RTIME   =    0.100 relaxation time in fs

 Orbital magnetization related:
   ORBITALMAG=     F  switch on orbital magnetization
   LCHIMAG   =     F  perturbation theory with respect to B field
   DQ        =  0.001000  dq finite difference perturbation B field



--------------------------------------------------------------------------------------------------------


 Static calculation
 charge density and potential will be updated during run
 non-spin polarized calculation
 Variant of blocked Davidson
 Davidson routine will perform the subspace rotation
 perform sub-space diagonalisation
    after iterative eigenvector-optimisation
 modified Broyden-mixing scheme, WC =      100.0
 initial mixing is a Kerker type mixing with AMIX =  0.4000 and BMIX =      1.0000
 Hartree-type preconditioning will be used
 using additional bands           26
 reciprocal scheme for non local part
 use partial core corrections
 calculate Harris-corrections to forces 
   (improved forces if not selfconsistent)
 use gradient corrections 
 use of overlap-Matrix (Vanderbilt PP)
 Methfessel and Paxton  Order N= 1 SIGMA  =   0.10


--------------------------------------------------------------------------------------------------------


  energy-cutoff  :      400.00
  volume of cell :       47.05
      direct lattice vectors                 reciprocal lattice vectors
     3.610000000  0.000000000  0.000000000     0.277008310  0.000000000  0.000000000
     0.000000000  3.610000000  0.000000000     0.000000000  0.277008310  0.000000000
     0.000000000  0.000000000  3.610000000     0.000000000  0.000000000  0.277008310

  length of vectors
     3.610000000  3.610000000  3.610000000     0.277008310  0.277008310  0.277008310


 
 k-points in units of 2pi/SCALE and weight: KPOINTS created by Atomic Simulation Env
   0.00000000  0.00000000  0.00000000       0.037
   0.09233610  0.00000000  0.00000000       0.222
   0.09233610  0.09233610  0.00000000       0.444
   0.09233610  0.09233610  0.09233610       0.296
 
 k-points in reciprocal lattice and weights: KPOINTS created by Atomic Simulation Env
   0.00000000  0.00000000  0.00000000       0.037
   0.33333333  0.00000000  0.00000000       0.222
   0.33333333  0.33333333  0.00000000       0.444
   0.33333333  0.33333333  0.33333333       0.296
 
 position of ions in fractional coordinates (direct lattice) 
   0.00000000  0.00000000  0.00000000
   0.00000000  0.50000000  0.50000000
   0.50000000  0.00000000  0.50000000
   0.50000000  0.50000000  0.00000000
 
 position of ions in cartesian coordinates  (Angst):
   0.00000000  0.00000000  0.00000000
   0.00000000  1.80500000  1.80500000
   1.80500000  0.00000000  1.80500000
   1.80500000  1.80500000  0.00000000
 


--------------------------------------------------------------------------------------------------------


 k-point  1 :   0.0000 0.0000 0.0000  plane waves:     847
 k-point  2 :   0.3333 0.0000 0.0000  plane waves:     852
 k-point  3 :   0.3333 0.3333 0.0000  plane waves:     848
 k-point  4 :   0.3333 0.3333 0.3333  plane waves:     856

 maximum and minimum number of plane-waves per node :       856      847

 maximum number of plane-waves:       856
 maximum index in each direction: 
   IXMAX=    5   IYMAX=    5   IZMAX=    5
   IXMIN=   -6   IYMIN=   -6   IZMIN=   -6

 WARNING: aliasing errors must be expected set NGX to  24 to avoid them
 WARNING: aliasing errors must be expected set NGY to  24 to avoid them
 WARNING: aliasing errors must be expected set NGZ to  24 to avoid them
 aliasing errors are usually negligible using standard VASP settings
 and one can safely disregard these warnings

 serial   3D FFT for wavefunctions
 parallel 3D FFT for charge:
    minimum data exchange during FFTs selected (reduces bandwidth)


 total amount of memory used by VASP on root node    31213. kBytes
========================================================================

   base      :      30000. kBytes
   nonl-proj :        552. kBytes
   fftplans  :        113. kBytes
   grid      :        367. kBytes
   one-center:         62. kBytes
   wavefun   :        119. kBytes
 
     INWAV:  cpu time    0.0000: real time    0.0000
 Broyden mixing: mesh for mixing (old mesh)
   NGX = 11   NGY = 11   NGZ = 11
  (NGX  = 36   NGY  = 36   NGZ  = 36)
  gives a total of   1331 points

 initial charge density was supplied:
 charge density of overlapping atoms calculated
 number of electron      44.0000000 magnetization 
 keeping initial charge density in first step


--------------------------------------------------------------------------------------------------------


 Maximum index for augmentation-charges          277 (set IRDMAX)


--------------------------------------------------------------------------------------------------------


 First call to EWALD:  gamma=   0.491
 Maximum number of real-space cells 3x 3x 3
 Maximum number of reciprocal cells 3x 3x 3

 FEWALD executed in parallel
    FEWALD:  cpu time    0.0026: real time    0.0026


----------------------------------------- Iteration    1(   1)  ---------------------------------------


    POTLOK:  cpu time    0.0636: real time    0.0639
    SETDIJ:  cpu time    0.0030: real time    0.0030
     EDDAV:  cpu time    0.0827: real time    0.0831
       DOS:  cpu time    0.0004: real time    0.0004
    --------------------------------------------
      LOOP:  cpu time    0.1518: real time    0.1547

 eigenvalue-minimisations  :   456
 total energy-change (2. order) : 0.1385384E+03  (-0.1684038E+04)
 number of electron      44.0000000 magnetization 
 augmentation part       44.0000000 magnetization 

 Free energy of the ion-electron system (eV)
  ---------------------------------------------------
  alpha Z        PSCENC =       248.71993771
  Ewald energy   TEWEN  =     -4425.78708566
  -Hartree energ DENC   =     -1444.32473403
  -exchange      EXHF   =         0.00000000
  -V(xc)+E(xc)   XCENC  =       183.18686199
  PAW double counting   =      4912.82663951    -5336.19386850
  entropy T*S    EENTRO =        -0.01024067
  eigenvalues    EBANDS =       436.29033249
  atomic energy  EATOM  =      5563.83056080
  Solvation  Ediel_sol  =         0.00000000
  ---------------------------------------------------
  free energy    TOTEN  =       138.53840364 eV

  energy without entropy =      138.54864431  energy(sigma->0) =      138.54181720


--------------------------------------------------------------------------------------------------------




----------------------------------------- Iteration    1(   2)  ---------------------------------------


     EDDAV:  cpu time    0.0507: real time    0.0507
       DOS:  cpu time    0.0003: real time    0.0003
    --------------------------------------------
      LOOP:  cpu time    0.0523: real time    0.0536

 eigenvalue-minimisations  :   384
 total energy-change (2. order) :-0.1520430E+03  (-0.1397226E+03)
 number of electron      44.0000000 magnetization 
 augmentation part       44.0000000 magnetization 

 Free energy of the ion-electron system (eV)
  ---------------------------------------------------
  alpha Z        PSCENC =       248.71993771
  Ewald energy   TEWEN  =     -4425.78708566
  -Hartree energ DENC   =     -1444.32473403
  -exchange      EXHF   =         0.00000000
  -V(xc)+E(xc)   XCENC  =       183.18686199
  PAW double counting   =      4912.82663951    -5336.19386850
  entropy T*S    EENTRO =        -0.00482250
  eigenvalues    EBANDS =       284.24188295
  atomic energy  EATOM  =      5563.83056080
  Solvation  Ediel_sol  =         0.00000000
  ---------------------------------------------------
  free energy    TOTEN  =       -13.50462773 eV

  energy without entropy =      -13.49980523  energy(sigma->0) =      -13.50302023


--------------------------------------------------------------------------------------------------------




----------------------------------------- Iteration    1(   3)  ---------------------------------------


     EDDAV:  cpu time    0.1083: real time    0.1083
       DOS:  cpu time    0.0003: real time    0.0003
    --------------------------------------------
      LOOP:  cpu time    0.1096: real time    0.1107

 eigenvalue-minimisations  :   552
 total energy-change (2. order) :-0.4380020E+01  (-0.4341471E+01)
 number of electron      44.0000000 magnetization 
 augmentation part       44.0000000 magnetization 

 Free energy of the ion-electron system (eV)
  ---------------------------------------------------
  alpha Z        PSCENC =       248.71993771
  Ewald energy   TEWEN  =     -4425.78708566
  -Hartree energ DENC   =     -1444.32473403
  -exchange      EXHF   =         0.00000000
  -V(xc)+E(xc)   XCENC  =       183.18686199
  PAW double counting   =      4912.82663951    -5336.19386850
  entropy T*S    EENTRO =        -0.00847716
  eigenvalues    EBANDS =       279.86551751
  atomic energy  EATOM  =      5563.83056080
  Solvation  Ediel_sol  =         0.00000000
  ---------------------------------------------------
  free energy    TOTEN  =       -17.88464783 eV

  energy without entropy =      -17.87617067  energy(sigma->0) =      -17.88182211


--------------------------------------------------------------------------------------------------------




----------------------------------------- Iteration    1(   4)  ---------------------------------------


     EDDAV:  cpu time    0.0534: real time    0.0534
       DOS:  cpu time    0.0003: real time    0.0003
    --------------------------------------------
      LOOP:  cpu time    0.0547: real time    0.0559

 eigenvalue-minimisations  :   408
 total energy-change (2. order) :-0.3088812E-01  (-0.3088737E-01)
 number of electron      44.0000000 magnetization 
 augmentation part       44.0000000 magnetization 

 Free energy of the ion-electron system (eV)
  ---------------------------------------------------
  alpha Z        PSCENC =       248.71993771
  Ewald energy   TEWEN  =     -4425.78708566
  -Hartree energ DENC   =     -1444.32473403
  -exchange      EXHF   =         0.00000000
  -V(xc)+E(xc)   XCENC  =       183.18686199
  PAW double counting   =      4912.82663951    -5336.19386850
  entropy T*S    EENTRO =        -0.00846515
  eigenvalues    EBANDS =       279.83461737
  atomic energy  EATOM  =      5563.83056080
  Solvation  Ediel_sol  =         0.00000000
  ---------------------------------------------------
  free energy    TOTEN  =       -17.91553596 eV

  energy without entropy =      -17.90707081  energy(sigma->0) =      -17.91271424


--------------------------------------------------------------------------------------------------------




----------------------------------------- Iteration    1(   5)  ---------------------------------------


     EDDAV:  cpu time    0.0899: real time    0.0899
       DOS:  cpu time    0.0003: real time    0.0003
    CHARGE:  cpu time    0.0037: real time    0.0037
    MIXING:  cpu time    0.0005: real time    0.0005
    --------------------------------------------
      LOOP:  cpu time    0.0953: real time    0.0968

 eigenvalue-minimisations  :   576
 total energy-change (2. order) :-0.4191703E-03  (-0.4191693E-03)
 number of electron      44.0000849 magnetization 
 augmentation part       25.8874498 magnetization 

 Broyden mixing:
  rms(total) = 0.15595E+01    rms(broyden)= 0.15593E+01
  rms(prec ) = 0.36609E+01
  weight for this iteration     100.00

 Free energy of the ion-electron system (eV)
  ---------------------------------------------------
  alpha Z        PSCENC =       248.71993771
  Ewald energy   TEWEN  =     -4425.78708566
  -Hartree energ DENC   =     -1444.32473403
  -exchange      EXHF   =         0.00000000
  -V(xc)+E(xc)   XCENC  =       183.18686199
  PAW double counting   =      4912.82663951    -5336.19386850
  entropy T*S    EENTRO =        -0.00846525
  eigenvalues    EBANDS =       279.83419830
  atomic energy  EATOM  =      5563.83056080
  Solvation  Ediel_sol  =         0.00000000
  ---------------------------------------------------
  free energy    TOTEN  =       -17.91595513 eV

  energy without entropy =      -17.90748988  energy(sigma->0) =      -17.91313338


--------------------------------------------------------------------------------------------------------




----------------------------------------- Iteration    1(   6)  ---------------------------------------


    POTLOK:  cpu time    0.0021: real time    0.0021
    SETDIJ:  cpu time    0.0020: real time    0.0020
     EDDAV:  cpu time    0.0762: real time    0.0768
       DOS:  cpu time    0.0003: real time    0.0003
    CHARGE:  cpu time    0.0041: real time    0.0041
    MIXING:  cpu time    0.0003: real time    0.0003
    --------------------------------------------
      LOOP:  cpu time    0.0861: real time    0.0878

 eigenvalue-minimisations  :   456
 total energy-change (2. order) : 0.1957816E+01  (-0.3414443E+01)
 number of electron      44.0000953 magnetization 
 augmentation part       29.2540636 magnetization 

 Broyden mixing:
  rms(total) = 0.80561E+00    rms(broyden)= 0.80523E+00
  rms(prec ) = 0.17421E+01
  weight for this iteration     100.00

 eigenvalues of (default mixing * dielectric matrix)
  average eigenvalue GAMMA=   0.6602
  0.6602

 Free energy of the ion-electron system (eV)
  ---------------------------------------------------
  alpha Z        PSCENC =       248.71993771
  Ewald energy   TEWEN  =     -4425.78708566
  -Hartree energ DENC   =     -1331.09307181
  -exchange      EXHF   =         0.00000000
  -V(xc)+E(xc)   XCENC  =       177.55770784
  PAW double counting   =      4993.87038632    -5395.14079071
  entropy T*S    EENTRO =        -0.00932459
  eigenvalues    EBANDS =       152.09354065
  atomic energy  EATOM  =      5563.83056080
  Solvation  Ediel_sol  =         0.00000000
  ---------------------------------------------------
  free energy    TOTEN  =       -15.95813945 eV

  energy without entropy =      -15.94881486  energy(sigma->0) =      -15.95503125


--------------------------------------------------------------------------------------------------------




----------------------------------------- Iteration    1(   7)  ---------------------------------------


    POTLOK:  cpu time    0.0098: real time    0.0098
    SETDIJ:  cpu time    0.0020: real time    0.0020
     EDDAV:  cpu time    0.0814: real time    0.0827
       DOS:  cpu time    0.0017: real time    0.0017
    CHARGE:  cpu time    0.0044: real time    0.0053
    MIXING:  cpu time    0.0002: real time    0.0002
    --------------------------------------------
      LOOP:  cpu time    0.1006: real time    0.1037

 eigenvalue-minimisations  :   456
 total energy-change (2. order) : 0.1547423E+01  (-0.5871620E+00)
 number of electron      44.0000913 magnetization 
 augmentation part       27.9640389 magnetization 

 Broyden mixing:
  rms(total) = 0.10541E+00    rms(broyden)= 0.10521E+00
  rms(prec ) = 0.26282E+00
  weight for this iteration     100.00

 eigenvalues of (default mixing * dielectric matrix)
  average eigenvalue GAMMA=   1.3559
  2.0741  0.6377

 Free energy of the ion-electron system (eV)
  ---------------------------------------------------
  alpha Z        PSCENC =       248.71993771
  Ewald energy   TEWEN  =     -4425.78708566
  -Hartree energ DENC   =     -1366.13576595
  -exchange      EXHF   =         0.00000000
  -V(xc)+E(xc)   XCENC  =       179.39055107
  PAW double counting   =      5094.25975391    -5515.03526293
  entropy T*S    EENTRO =        -0.00932459
  eigenvalues    EBANDS =       206.35591885
  atomic energy  EATOM  =      5563.83056080
  Solvation  Ediel_sol  =         0.00000000
  ---------------------------------------------------
  free energy    TOTEN  =       -14.41071677 eV

  energy without entropy =      -14.40139219  energy(sigma->0) =      -14.40760858


--------------------------------------------------------------------------------------------------------




----------------------------------------- Iteration    1(   8)  ---------------------------------------


    POTLOK:  cpu time    0.0028: real time    0.0028
    SETDIJ:  cpu time    0.0020: real time    0.0020
     EDDAV:  cpu time    0.0737: real time    0.0738
       DOS:  cpu time    0.0004: real time    0.0004
    CHARGE:  cpu time    0.0032: real time    0.0032
    MIXING:  cpu time    0.0002: real time    0.0002
    --------------------------------------------
      LOOP:  cpu time    0.0835: real time    0.0849

 eigenvalue-minimisations  :   528
 total energy-change (2. order) : 0.3720169E-01  (-0.2991527E-02)
 number of electron      44.0000911 magnetization 
 augmentation part       27.9187548 magnetization 

 Broyden mixing:
  rms(total) = 0.73986E-01    rms(broyden)= 0.73965E-01
  rms(prec ) = 0.17750E+00
  weight for this iteration     100.00

 eigenvalues of (default mixing * dielectric matrix)
  average eigenvalue GAMMA=   1.3118
  0.6722  0.8353  2.4278

 Free energy of the ion-electron system (eV)
  ---------------------------------------------------
  alpha Z        PSCENC =       248.71993771
  Ewald energy   TEWEN  =     -4425.78708566
  -Hartree energ DENC   =     -1355.99928212
  -exchange      EXHF   =         0.00000000
  -V(xc)+E(xc)   XCENC  =       178.97229539
  PAW double counting   =      5247.60984682    -5678.60475125
  entropy T*S    EENTRO =        -0.00932459
  eigenvalues    EBANDS =       206.89428781
  atomic energy  EATOM  =      5563.83056080
  Solvation  Ediel_sol  =         0.00000000
  ---------------------------------------------------
  free energy    TOTEN  =       -14.37351509 eV

  energy without entropy =      -14.36419050  energy(sigma->0) =      -14.37040689


--------------------------------------------------------------------------------------------------------




----------------------------------------- Iteration    1(   9)  ---------------------------------------


    POTLOK:  cpu time    0.0021: real time    0.0021
    SETDIJ:  cpu time    0.0020: real time    0.0020
     EDDAV:  cpu time    0.0731: real time    0.0737
       DOS:  cpu time    0.0003: real time    0.0003
    CHARGE:  cpu time    0.0031: real time    0.0031
    MIXING:  cpu time    0.0002: real time    0.0002
    --------------------------------------------
      LOOP:  cpu time    0.0819: real time    0.0841

 eigenvalue-minimisations  :   504
 total energy-change (2. order) : 0.9541758E-02  (-0.2916578E-02)
 number of electron      44.0000914 magnetization 
 augmentation part       28.0139593 magnetization 

 Broyden mixing:
  rms(total) = 0.26356E-02    rms(broyden)= 0.26028E-02
  rms(prec ) = 0.45062E-02
  weight for this iteration     100.00

 eigenvalues of (default mixing * dielectric matrix)
  average eigenvalue GAMMA=   1.5923
  0.6626  0.9435  2.6182  2.1450

 Free energy of the ion-electron system (eV)
  ---------------------------------------------------
  alpha Z        PSCENC =       248.71993771
  Ewald energy   TEWEN  =     -4425.78708566
  -Hartree energ DENC   =     -1350.34139802
  -exchange      EXHF   =         0.00000000
  -V(xc)+E(xc)   XCENC  =       178.71022574
  PAW double counting   =      5282.00407671    -5714.34817089
  entropy T*S    EENTRO =        -0.00932459
  eigenvalues    EBANDS =       202.85720485
  atomic energy  EATOM  =      5563.83056080
  Solvation  Ediel_sol  =         0.00000000
  ---------------------------------------------------
  free energy    TOTEN  =       -14.36397333 eV

  energy without entropy =      -14.35464874  energy(sigma->0) =      -14.36086514


--------------------------------------------------------------------------------------------------------




----------------------------------------- Iteration    1(  10)  ---------------------------------------


    POTLOK:  cpu time    0.0020: real time    0.0020
    SETDIJ:  cpu time    0.0019: real time    0.0019
     EDDAV:  cpu time    0.0564: real time    0.0571
       DOS:  cpu time    0.0003: real time    0.0003
    --------------------------------------------
      LOOP:  cpu time    0.0618: real time    0.0641

 eigenvalue-minimisations  :   408
 total energy-change (2. order) :-0.4681040E-04  (-0.1630261E-04)
 number of electron      44.0000914 magnetization 
 augmentation part       28.0139593 magnetization 

 Free energy of the ion-electron system (eV)
  ---------------------------------------------------
  alpha Z        PSCENC =       248.71993771
  Ewald energy   TEWEN  =     -4425.78708566
  -Hartree energ DENC   =     -1350.57889068
  -exchange      EXHF   =         0.00000000
  -V(xc)+E(xc)   XCENC  =       178.72183822
  PAW double counting   =      5279.11152297    -5711.27799915
  entropy T*S    EENTRO =        -0.00932459
  eigenvalues    EBANDS =       202.90542024
  atomic energy  EATOM  =      5563.83056080
  Solvation  Ediel_sol  =         0.00000000
  ---------------------------------------------------
  free energy    TOTEN  =       -14.36402014 eV

  energy without entropy =      -14.35469556  energy(sigma->0) =      -14.36091195


--------------------------------------------------------------------------------------------------------




 average (electrostatic) potential at core
  the test charge radii are     0.9430
  (the norm of the test charge is              1.0000)
       1 -63.6443       2 -63.6443       3 -63.6443       4 -63.6443
 
 
 
 E-fermi :   7.6178     XC(G=0): -12.7484     alpha+bet :-13.4799


 k-point     1 :       0.0000    0.0000    0.0000
  band No.  band energies     occupation 
      1      -1.7448      2.00000
      2       2.7436      2.00000
      3       2.7436      2.00000
      4       2.7436      2.00000
      5       3.2046      2.00000
      6       3.2046      2.00000
      7       3.2046      2.00000
      8       4.6091      2.00000
      9       4.6091      2.00000
     10       4.6091      2.00000
     11       5.4400      2.00000
     12       5.4400      2.00000
     13       5.9925      2.00000
     14       5.9925      2.00000
     15       5.9925      2.00000
     16       6.1505      2.00000
     17       6.1505      2.00000
     18       6.1505      2.00000
     19       6.1505      2.00000
     20       6.1505      2.00000
     21       6.1505      2.00000
     22       9.1335     -0.00000
     23       9.1335     -0.00000
     24       9.1335     -0.00000
     25      14.7848      0.00000
     26      14.7848      0.00000
     27      14.7848      0.00000
     28      20.7507      0.00000
     29      20.7507      0.00000
     30      20.7507      0.00000
     31      20.7507      0.00000
     32      20.7507      0.00000
     33      20.7507      0.00000
     34      25.2589      0.00000
     35      25.2589      0.00000
     36      25.2589      0.00000
     37      27.9664      0.00000
     38      27.9664      0.00000
     39      27.9664      0.00000
     40      30.2702      0.00000
     41      32.9403      0.00000
     42      32.9403      0.00000
     43      32.9403      0.00000
     44      35.4374      0.00000
     45      35.4374      0.00000
     46      35.4374      0.00000
     47      39.2119      0.00000
     48      44.0102      0.00000

 k-point     2 :       0.3333    0.0000    0.0000
  band No.  band energies     occupation 
      1      -0.4301      2.00000
      2       2.3355      2.00000
      3       3.2587      2.00000
      4       3.2587      2.00000
      5       3.5404      2.00000
      6       3.5943      2.00000
      7       3.5943      2.00000
      8       4.2418      2.00000
      9       4.8066      2.00000
     10       4.8066      2.00000
     11       4.9197      2.00000
     12       4.9197      2.00000
     13       5.1298      2.00000
     14       5.5549      2.00000
     15       5.5750      2.00000
     16       5.5880      2.00000
     17       5.5880      2.00000
     18       5.6769      2.00000
     19       5.6769      2.00000
     20       5.8516      2.00000
     21       6.1514      2.00000
     22       6.1514      2.00000
     23      11.6784      0.00000
     24      11.6784      0.00000
     25      15.3273      0.00000
     26      15.3273      0.00000
     27      16.3517      0.00000
     28      16.3517      0.00000
     29      17.6819      0.00000
     30      17.6819      0.00000
     31      21.3296      0.00000
     32      22.6469      0.00000
     33      22.6469      0.00000
     34      25.8505      0.00000
     35      27.4711      0.00000
     36      27.4711      0.00000
     37      27.8202      0.00000
     38      28.5958      0.00000
     39      29.5120      0.00000
     40      31.3297      0.00000
     41      31.3297      0.00000
     42      33.2560      0.00000
     43      33.8804      0.00000
     44      33.8804      0.00000
     45      40.7259      0.00000
     46      41.1248      0.00000
     47      41.1248      0.00000
     48      41.4345      0.00000

 k-point     3 :       0.3333    0.3333    0.0000
  band No.  band energies     occupation 
      1       0.7682      2.00000
      2       3.0869      2.00000
      3       3.0869      2.00000
      4       3.5770      2.00000
      5       3.7471      2.00000
      6       3.8111      2.00000
      7       3.8111      2.00000
      8       4.1829      2.00000
      9       4.3295      2.00000
     10       4.3295      2.00000
     11       4.4767      2.00000
     12       4.7183      2.00000
     13       5.0335      2.00000
     14       5.1406      2.00000
     15       5.3664      2.00000
     16       5.4852      2.00000
     17       5.4852      2.00000
     18       5.6759      2.00000
     19       5.6759      2.00000
     20       5.8072      2.00000
     21       5.9158      2.00000
     22       7.5669      1.75000
     23       7.5669      1.75000
     24      10.8971      0.00000
     25      13.5823      0.00000
     26      16.1591      0.00000
     27      17.9301      0.00000
     28      17.9301      0.00000
     29      18.9469      0.00000
     30      18.9469      0.00000
     31      21.9028      0.00000
     32      22.4280      0.00000
     33      22.4280      0.00000
     34      22.6114      0.00000
     35      24.3261      0.00000
     36      27.5252      0.00000
     37      32.3560      0.00000
     38      32.3560      0.00000
     39      32.3925      0.00000
     40      32.9915      0.00000
     41      33.8575      0.00000
     42      33.8575      0.00000
     43      34.3760      0.00000
     44      36.6111      0.00000
     45      36.8784      0.00000
     46      38.1374      0.00000
     47      38.1374      0.00000
     48      41.0716      0.00000

 k-point     4 :       0.3333    0.3333    0.3333
  band No.  band energies     occupation 
      1       1.6316      2.00000
      2       2.9710      2.00000
      3       2.9710      2.00000
      4       2.9710      2.00000
      5       4.2040      2.00000
      6       4.2040      2.00000
      7       4.2040      2.00000
      8       4.6040      2.00000
      9       4.6883      2.00000
     10       4.6883      2.00000
     11       4.6883      2.00000
     12       4.6903      2.00000
     13       4.6903      2.00000
     14       4.9015      2.00000
     15       4.9015      2.00000
     16       4.9015      2.00000
     17       5.7378      2.00000
     18       5.7378      2.00000
     19       6.0279      2.00000
     20       6.0279      2.00000
     21       6.0279      2.00000
     22       8.1146     -0.00000
     23       8.1146     -0.00000
     24       8.1146     -0.00000
     25      12.6785      0.00000
     26      12.6785      0.00000
     27      12.6785      0.00000
     28      16.2764      0.00000
     29      23.4317      0.00000
     30      23.4317      0.00000
     31      23.4317      0.00000
     32      25.8216      0.00000
     33      25.8216      0.00000
     34      25.8216      0.00000
     35      28.0238      0.00000
     36      28.0238      0.00000
     37      28.0238      0.00000
     38      29.4779      0.00000
     39      30.0518      0.00000
     40      30.0518      0.00000
     41      34.4091      0.00000
     42      34.4091      0.00000
     43      37.6900      0.00000
     44      37.8232      0.00000
     45      37.8232      0.00000
     46      37.8232      0.00000
     47      38.2169      0.00000
     48      38.2169      0.00000


--------------------------------------------------------------------------------------------------------


 soft charge-density along one line, spin component           1
         0         1         2         3         4         5         6         7         8         9
 total charge-density along one line
 
 pseudopotential strength for first ion, spin component:           1
 -2.868  -0.000  -0.000  -0.000   0.000  -4.741   0.000   0.000
 -0.000  -2.868  -0.000   0.000   0.000   0.000  -4.741   0.000
 -0.000  -0.000  -2.852  -0.000   0.000   0.000   0.000  -4.753
 -0.000   0.000  -0.000  -2.868  -0.000   0.000  -0.000   0.000
  0.000   0.000   0.000  -0.000  -2.852  -0.000  -0.000   0.000
 -4.741   0.000   0.000   0.000  -0.000  10.301  -0.000  -0.000
  0.000  -4.741   0.000  -0.000  -0.000  -0.000  10.301  -0.000
  0.000   0.000  -4.753   0.000  -0.000  -0.000  -0.000  10.309
  0.000  -0.000   0.000  -4.741   0.000  -0.000   0.000  -0.000
 -0.000  -0.000  -0.000   0.000  -4.753   0.000   0.000  -0.000
 -0.000   0.000   0.000   0.000   0.000  -0.000   0.000   0.000
 -0.000   0.000   0.000   0.000   0.000  -0.000   0.000   0.000
  0.000  -0.000   0.000  -0.000   0.000  -0.000   0.000   0.000
 -0.000  -0.000  -0.000  -0.000  -0.000  -0.000   0.000   0.000
 -0.000  -0.000  -0.000  -0.000   0.000   0.000  -0.000  -0.000
  0.000  -0.000   0.000   0.000   0.000   0.000  -0.000   0.000
  0.000  -0.000  -0.000   0.000   0.000  -0.000   0.000   0.000
 -0.000   0.000   0.000  -0.000  -0.000   0.000  -0.000  -0.000
 total augmentation occupancy for first ion, spin component:           1
  1.906  -0.000   0.000  -0.000   0.000  -0.015   0.000  -0.000   0.000  -0.000  -0.000  -0.000  -0.000   0.000   0.000   0.000
  0.000   1.906   0.000   0.000   0.000  -0.000  -0.015  -0.000   0.000   0.000  -0.000  -0.000   0.000  -0.000  -0.000   0.000
  0.000  -0.000   1.924   0.000   0.000   0.000  -0.000  -0.034   0.000   0.000   0.000  -0.000   0.000   0.000  -0.000  -0.000
  0.000   0.000  -0.000   1.906   0.000  -0.000   0.000   0.000  -0.015   0.000   0.000  -0.000   0.000   0.000   0.000  -0.000
  0.000  -0.000   0.000   0.000   1.924  -0.000  -0.000   0.000   0.000  -0.034   0.000  -0.000   0.000   0.000   0.000   0.000
 -0.015  -0.000  -0.000  -0.000  -0.000   0.019  -0.000  -0.000   0.000  -0.000   0.000   0.000   0.000   0.000   0.000   0.000
  0.000  -0.015  -0.000   0.000   0.000   0.000   0.019   0.000  -0.000  -0.000  -0.000   0.000   0.000   0.000   0.000  -0.000
 -0.000  -0.000  -0.034  -0.000   0.000  -0.000   0.000   0.017  -0.000   0.000   0.000  -0.000  -0.000   0.000   0.000   0.000
  0.000  -0.000   0.000  -0.015   0.000   0.000   0.000  -0.000   0.019  -0.000  -0.000  -0.000   0.000   0.000  -0.000   0.000
  0.000   0.000  -0.000  -0.000  -0.034  -0.000  -0.000  -0.000   0.000   0.017   0.000   0.000  -0.000  -0.000  -0.000   0.000
 -0.000  -0.000   0.000   0.000  -0.000   0.000   0.000   0.000  -0.000   0.000   1.838  -0.172  -0.000   0.000   0.000   0.000
  0.000   0.000  -0.000  -0.000  -0.000   0.000   0.000  -0.000  -0.000   0.000  -0.172   0.023  -0.000  -0.000   0.000  -0.000
 -0.000   0.000   0.000   0.000   0.000   0.000   0.000  -0.000   0.000  -0.000  -0.000   0.000   0.236   0.000   0.000  -0.016
 -0.000  -0.000  -0.000  -0.000   0.000  -0.000   0.000   0.000   0.000   0.000   0.000   0.000   0.000   0.236   0.000   0.000
  0.000   0.000   0.000   0.000  -0.000   0.000   0.000   0.000   0.000   0.000   0.000   0.000  -0.000   0.000   0.236   0.000
 -0.000  -0.000   0.000   0.000   0.000   0.000   0.000  -0.000  -0.000  -0.000   0.000   0.000  -0.016   0.000  -0.000   0.001
 -0.000   0.000   0.000   0.000  -0.000   0.000   0.000   0.000   0.000   0.000   0.000   0.000  -0.000  -0.016   0.000  -0.000
  0.000  -0.000   0.000   0.000  -0.000  -0.000   0.000  -0.000   0.000  -0.000   0.000  -0.000  -0.000   0.000  -0.016  -0.000


------------------------ aborting loop because EDIFF is reached ----------------------------------------


    CHARGE:  cpu time    0.0136: real time    0.0140
    FORLOC:  cpu time    0.0001: real time    0.0001
    FORNL :  cpu time    0.0074: real time    0.0074
    STRESS:  cpu time    0.0202: real time    0.0203
    FORCOR:  cpu time    0.0020: real time    0.0020
    FORHAR:  cpu time    0.0006: real time    0.0006
    MIXING:  cpu time    0.0003: real time    0.0003
    OFIELD:  cpu time    0.0000: real time    0.0000

  FORCE on cell =-STRESS in cart. coord.  units (eV):
  Direction    XX          YY          ZZ          XY          YZ          ZX
  --------------------------------------------------------------------------------------
  Alpha Z   248.71994   248.71994   248.71994
  Ewald   -1475.26301 -1475.26301 -1475.26301    -0.00000     0.00000     0.00000
  Hartree   450.17977   450.17977   450.17977    -0.00000    -0.00000    -0.00000
  E(xc)    -257.39599  -257.39599  -257.39599    -0.00000    -0.00000    -0.00000
  Local     378.93999   378.93999   378.93999     0.00000     0.00000    -0.00000
  n-local   -78.27268   -82.09868   -88.01043    -0.50079     2.30152     2.30151
  augment   379.32659   379.32659   379.32659     0.00000     0.00000     0.00000
  Kinetic   365.49261   361.83051   351.33820    -5.78837    -0.54691    -0.54692
  Fock        0.00000     0.00000     0.00000     0.00000     0.00000     0.00000
  -------------------------------------------------------------------------------------
  Total       1.26713     1.26713     1.26713     0.00000    -0.00000     0.00000
  in kB      43.15276    43.15276    43.15276     0.00000    -0.00000     0.00000
  external pressure =       43.15 kB  Pullay stress =        0.00 kB


 VOLUME and BASIS-vectors are now :
 -----------------------------------------------------------------------------
  energy-cutoff  :      400.00
  volume of cell :       47.05
      direct lattice vectors                 reciprocal lattice vectors
     3.610000000  0.000000000  0.000000000     0.277008310  0.000000000  0.000000000
     0.000000000  3.610000000  0.000000000     0.000000000  0.277008310  0.000000000
     0.000000000  0.000000000  3.610000000     0.000000000  0.000000000  0.277008310

  length of vectors
     3.610000000  3.610000000  3.610000000     0.277008310  0.277008310  0.277008310


 FORCES acting on ions
    electron-ion (+dipol)            ewald-force                    non-local-force                 convergence-correction
 -----------------------------------------------------------------------------------------------
   -.160E-14 0.211E-13 -.146E-12   0.108E-13 0.352E-14 0.349E-14   -.265E-22 -.265E-22 0.265E-22   0.342E-13 0.587E-13 -.491E-13
   -.158E-14 0.838E-12 0.651E-12   0.102E-13 0.558E-14 0.654E-14   -.397E-22 -.397E-22 -.265E-22   0.611E-13 0.396E-13 0.565E-13
   0.821E-12 0.143E-13 -.101E-11   -.885E-14 -.498E-14 0.641E-14   -.215E-22 0.662E-23 -.281E-22   0.291E-14 0.597E-13 0.101E-12
   0.822E-12 0.835E-12 0.754E-12   -.941E-14 -.292E-14 -.131E-13   -.265E-22 -.199E-22 0.141E-22   0.926E-14 0.601E-14 -.108E-12
 -----------------------------------------------------------------------------------------------
   0.164E-11 0.171E-11 0.250E-12   0.271E-14 0.120E-14 0.330E-14   -.114E-21 -.794E-22 -.141E-22   0.107E-12 0.164E-12 0.113E-14
 
 
 POSITION                                       TOTAL-FORCE (eV/Angst)
 -----------------------------------------------------------------------------------
      0.00000      0.00000      0.00000         0.000000      0.000000      0.000000
      0.00000      1.80500      1.80500        -0.000000      0.000000     -0.000000
      1.80500      0.00000      1.80500        -0.000000      0.000000     -0.000000
      1.80500      1.80500      0.00000        -0.000000     -0.000000      0.000000
 -----------------------------------------------------------------------------------
    total drift:                                0.000000      0.000000      0.000000


--------------------------------------------------------------------------------------------------------



  FREE ENERGIE OF THE ION-ELECTRON SYSTEM (eV)
  ---------------------------------------------------
  free  energy   TOTEN  =       -14.36402014 eV

  energy  without entropy=      -14.35469556  energy(sigma->0) =      -14.36091195
 


--------------------------------------------------------------------------------------------------------


    POTLOK:  cpu time    0.0046: real time    0.0046


--------------------------------------------------------------------------------------------------------


     LOOP+:  cpu time    0.9340: real time    0.9584
    4ORBIT:  cpu time    0.0000: real time    0.0000

 total amount of memory used by VASP on root node    31213. kBytes
========================================================================

   base      :      30000. kBytes
   nonl-proj :        552. kBytes
   fftplans  :        113. kBytes
   grid      :        367. kBytes
   one-center:         62. kBytes
   wavefun   :        119. kBytes
 
  
  
 General timing and accounting informations for this job:
 ========================================================
  
                  Total CPU time used (sec):        1.377
                            User time (sec):        1.272
                          System time (sec):        0.105
                         Elapsed time (sec):        2.993
  
                   Maximum memory used (kb):       56852.
                   Average memory used (kb):           0.
  
                          Minor page faults:        10315
                          Major page faults:           13
                 Voluntary context switches:         1648
