<?xml version="1.0" encoding="ISO-8859-1"?>
<modeling>
 <generator>
  <i name="program" type="string">vasp </i>
  <i name="version" type="string">5.4.1  </i>
  <i name="subversion" type="string">05Feb16 (build Feb 08 2018 09:21:51) complex                          parallel </i>
  <i name="platform" type="string">LinuxIFC </i>
  <i name="date" type="string">2019 11 21 </i>
  <i name="time" type="string">13:18:31 </i>
 </generator>
 <incar>
  <i type="string" name="PREC">normal</i>
  <i name="ENCUT">    400.00000000</i>
  <i type="int" name="ISMEAR">     1</i>
  <i name="SIGMA">      0.10000000</i>
  <i type="logical" name="LWAVE"> F  </i>
  <i type="logical" name="LCHARG"> F  </i>
  <v type="int" name="KPOINT_BSE">    -1     0     0     0</v>
 </incar>
 <kpoints>
  <generation param="Monkhorst-Pack">
   <v type="int" name="divisions">       3        3        3 </v>
   <v name="usershift">      0.00000000       0.00000000       0.00000000 </v>
   <v name="genvec1">      0.33333333       0.00000000       0.00000000 </v>
   <v name="genvec2">      0.00000000       0.33333333       0.00000000 </v>
   <v name="genvec3">      0.00000000       0.00000000       0.33333333 </v>
   <v name="shift">      0.00000000       0.00000000       0.00000000 </v>
  </generation>
  <varray name="kpointlist" >
   <v>       0.00000000       0.00000000       0.00000000 </v>
   <v>       0.33333333       0.00000000       0.00000000 </v>
   <v>       0.33333333       0.33333333       0.00000000 </v>
   <v>       0.33333333       0.33333333       0.33333333 </v>
  </varray>
  <varray name="weights" >
   <v>       0.03703704 </v>
   <v>       0.22222222 </v>
   <v>       0.44444444 </v>
   <v>       0.29629630 </v>
  </varray>
 </kpoints>
 <parameters>
  <separator name="general" >
   <i type="string" name="SYSTEM">unknown system</i>
   <i type="logical" name="LCOMPAT"> F  </i>
  </separator>
  <separator name="electronic" >
   <i type="string" name="PREC">normal</i>
   <i name="ENMAX">    400.00000000</i>
   <i name="ENAUG">    586.98000000</i>
   <i name="EDIFF">      0.00010000</i>
   <i type="int" name="IALGO">    38</i>
   <i type="int" name="IWAVPR">    10</i>
   <i type="int" name="NBANDS">    48</i>
   <i name="NELECT">     44.00000000</i>
   <i type="int" name="TURBO">     0</i>
   <i type="int" name="IRESTART">     0</i>
   <i type="int" name="NREBOOT">     0</i>
   <i type="int" name="NMIN">     0</i>
   <i name="EREF">      0.00000000</i>
   <separator name="electronic smearing" >
    <i type="int" name="ISMEAR">     1</i>
    <i name="SIGMA">      0.10000000</i>
    <i name="KSPACING">      0.50000000</i>
    <i type="logical" name="KGAMMA"> T  </i>
   </separator>
   <separator name="electronic projectors" >
    <i type="logical" name="LREAL"> F  </i>
    <v name="ROPT">      0.00000000</v>
    <i type="int" name="LMAXPAW">  -100</i>
    <i type="int" name="LMAXMIX">     2</i>
    <i type="logical" name="NLSPLINE"> F  </i>
   </separator>
   <separator name="electronic startup" >
    <i type="int" name="ISTART">     0</i>
    <i type="int" name="ICHARG">     2</i>
    <i type="int" name="INIWAV">     1</i>
   </separator>
   <separator name="electronic spin" >
    <i type="int" name="ISPIN">     1</i>
    <i type="logical" name="LNONCOLLINEAR"> F  </i>
    <v name="MAGMOM">      1.00000000      1.00000000      1.00000000      1.00000000</v>
    <i name="NUPDOWN">     -1.00000000</i>
    <i type="logical" name="LSORBIT"> F  </i>
    <v name="SAXIS">      0.00000000      0.00000000      1.00000000</v>
    <i type="logical" name="LSPIRAL"> F  </i>
    <v name="QSPIRAL">      0.00000000      0.00000000      0.00000000</v>
    <i type="logical" name="LZEROZ"> F  </i>
   </separator>
   <separator name="electronic exchange-correlation" >
    <i type="logical" name="LASPH"> F  </i>
    <i type="logical" name="LMETAGGA"> F  </i>
   </separator>
   <separator name="electronic convergence" >
    <i type="int" name="NELM">    60</i>
    <i type="int" name="NELMDL">    -5</i>
    <i type="int" name="NELMIN">     2</i>
    <i name="ENINI">    400.00000000</i>
    <separator name="electronic convergence detail" >
     <i type="logical" name="LDIAG"> T  </i>
     <i type="logical" name="LSUBROT"> F  </i>
     <i name="WEIMIN">      0.00000000</i>
     <i name="EBREAK">      0.00000052</i>
     <i name="DEPER">      0.30000000</i>
     <i type="int" name="NRMM">     4</i>
     <i name="TIME">      0.40000000</i>
    </separator>
   </separator>
   <separator name="electronic mixer" >
    <i name="AMIX">      0.40000000</i>
    <i name="BMIX">      1.00000000</i>
    <i name="AMIN">      0.10000000</i>
    <i name="AMIX_MAG">      1.60000000</i>
    <i name="BMIX_MAG">      1.00000000</i>
    <separator name="electronic mixer details" >
     <i type="int" name="IMIX">     4</i>
     <i type="logical" name="MIXFIRST"> F  </i>
     <i type="int" name="MAXMIX">   -45</i>
     <i name="WC">    100.00000000</i>
     <i type="int" name="INIMIX">     1</i>
     <i type="int" name="MIXPRE">     1</i>
     <i type="int" name="MREMOVE">     5</i>
    </separator>
   </separator>
   <separator name="electronic dipolcorrection" >
    <i type="logical" name="LDIPOL"> F  </i>
    <i type="logical" name="LMONO"> F  </i>
    <i type="int" name="IDIPOL">     0</i>
    <i name="EPSILON">      1.00000000</i>
    <v name="DIPOL">   -100.00000000   -100.00000000   -100.00000000</v>
    <i name="EFIELD">      0.00000000</i>
   </separator>
  </separator>
  <separator name="grids" >
   <i type="int" name="NGX">    18</i>
   <i type="int" name="NGY">    18</i>
   <i type="int" name="NGZ">    18</i>
   <i type="int" name="NGXF">    36</i>
   <i type="int" name="NGYF">    36</i>
   <i type="int" name="NGZF">    36</i>
   <i type="logical" name="ADDGRID"> F  </i>
  </separator>
  <separator name="ionic" >
   <i type="int" name="NSW">     0</i>
   <i type="int" name="IBRION">    -1</i>
   <i type="int" name="ISIF">     2</i>
   <i name="PSTRESS">      0.00000000</i>
   <i name="EDIFFG">      0.00100000</i>
   <i type="int" name="NFREE">     0</i>
   <i name="POTIM">      0.50000000</i>
   <i name="SMASS">     -3.00000000</i>
   <i name="SCALEE">      1.00000000</i>
  </separator>
  <separator name="ionic md" >
   <i name="TEBEG">      0.00010000</i>
   <i name="TEEND">      0.00010000</i>
   <i type="int" name="NBLOCK">     1</i>
   <i type="int" name="KBLOCK">     1</i>
   <i type="int" name="NPACO">   256</i>
   <i name="APACO">     16.00000000</i>
  </separator>
  <separator name="symmetry" >
   <i type="int" name="ISYM">     2</i>
   <i name="SYMPREC">      0.00001000</i>
  </separator>
  <separator name="dos" >
   <i type="logical" name="LORBIT"> F  </i>
   <v name="RWIGS">     -1.00000000</v>
   <i type="int" name="NEDOS">   301</i>
   <i name="EMIN">     10.00000000</i>
   <i name="EMAX">    -10.00000000</i>
   <i name="EFERMI">      0.00000000</i>
  </separator>
  <separator name="writing" >
   <i type="int" name="NWRITE">     2</i>
   <i type="logical" name="LWAVE"> F  </i>
   <i type="logical" name="LCHARG"> F  </i>
   <i type="logical" name="LPARD"> F  </i>
   <i type="logical" name="LVTOT"> F  </i>
   <i type="logical" name="LVHAR"> F  </i>
   <i type="logical" name="LELF"> F  </i>
   <i type="logical" name="LOPTICS"> F  </i>
   <v name="STM">      0.00000000      0.00000000      0.00000000      0.00000000      0.00000000      0.00000000      0.00000000</v>
  </separator>
  <separator name="performance" >
   <i type="int" name="NPAR">    24</i>
   <i type="int" name="NSIM">     4</i>
   <i type="int" name="NBLK">    -1</i>
   <i type="logical" name="LPLANE"> T  </i>
   <i type="logical" name="LSCALAPACK"> F  </i>
   <i type="logical" name="LSCAAWARE"> F  </i>
   <i type="logical" name="LSCALU"> F  </i>
   <i type="logical" name="LASYNC"> F  </i>
   <i type="logical" name="LORBITALREAL"> F  </i>
  </separator>
  <separator name="miscellaneous" >
   <i type="int" name="IDIOT">     3</i>
   <i type="logical" name="LMUSIC"> F  </i>
   <v name="POMASS">     63.54600000</v>
   <v name="DARWINR">      0.00000000</v>
   <v name="DARWINV">      1.00000000</v>
   <i type="logical" name="LCORR"> T  </i>
  </separator>
  <i type="logical" name="GGA_COMPAT"> T  </i>
  <i type="logical" name="LBERRY"> F  </i>
  <i type="int" name="ICORELEVEL">     0</i>
  <i type="logical" name="LDAU"> F  </i>
  <i type="int" name="I_CONSTRAINED_M">     0</i>
  <separator name="electronic exchange-correlation" >
   <i type="string" name="GGA">--</i>
   <i type="int" name="VOSKOWN">     0</i>
   <i type="logical" name="LHFCALC"> F  </i>
   <i type="string" name="PRECFOCK"></i>
   <i type="logical" name="LSYMGRAD"> F  </i>
   <i type="logical" name="LHFONE"> F  </i>
   <i type="logical" name="LRHFCALC"> F  </i>
   <i type="logical" name="LTHOMAS"> F  </i>
   <i type="logical" name="LMODELHF"> F  </i>
   <i name="ENCUT4O">     -1.00000000</i>
   <i type="int" name="EXXOEP">     0</i>
   <i type="int" name="FOURORBIT">     0</i>
   <i name="AEXX">      0.00000000</i>
   <i name="HFALPHA">      0.00000000</i>
   <i name="MCALPHA">      0.00000000</i>
   <i name="ALDAX">      1.00000000</i>
   <i name="AGGAX">      1.00000000</i>
   <i name="ALDAC">      1.00000000</i>
   <i name="AGGAC">      1.00000000</i>
   <i type="int" name="NKREDX">     1</i>
   <i type="int" name="NKREDY">     1</i>
   <i type="int" name="NKREDZ">     1</i>
   <i type="logical" name="SHIFTRED"> F  </i>
   <i type="logical" name="ODDONLY"> F  </i>
   <i type="logical" name="EVENONLY"> F  </i>
   <i type="int" name="LMAXFOCK">     0</i>
   <i type="int" name="NMAXFOCKAE">     0</i>
   <i type="logical" name="LFOCKAEDFT"> F  </i>
   <i name="HFSCREEN">      0.00000000</i>
   <i name="HFSCREENC">      0.00000000</i>
   <i type="int" name="NBANDSGWLOW">     0</i>
  </separator>
  <separator name="vdW DFT" >
   <i type="logical" name="LUSE_VDW"> F  </i>
   <i name="Zab_VDW">     -0.84910000</i>
   <i name="PARAM1">      0.12340000</i>
   <i name="PARAM2">      1.00000000</i>
   <i name="PARAM3">      0.00000000</i>
  </separator>
  <separator name="model GW" >
   <i type="int" name="MODEL_GW">     0</i>
   <i name="MODEL_EPS0">      7.05688215</i>
   <i name="MODEL_ALPHA">      1.00000000</i>
  </separator>
  <separator name="linear response parameters" >
   <i type="logical" name="LEPSILON"> F  </i>
   <i type="logical" name="LRPA"> F  </i>
   <i type="logical" name="LNABLA"> F  </i>
   <i type="logical" name="LVEL"> F  </i>
   <i type="int" name="KINTER">     0</i>
   <i name="CSHIFT">      0.10000000</i>
   <i name="OMEGAMAX">     -1.00000000</i>
   <i name="DEG_THRESHOLD">      0.00200000</i>
  </separator>
  <separator name="orbital magnetization" >
   <i type="logical" name="NUCIND"> F  </i>
   <v name="MAGPOS">      0.00000000      0.00000000      0.00000000</v>
   <i type="logical" name="LNICSALL"> T  </i>
   <i type="logical" name="ORBITALMAG"> F  </i>
   <i type="logical" name="LMAGBLOCH"> F  </i>
   <i type="logical" name="LCHIMAG"> F  </i>
   <i type="logical" name="LGAUGE"> T  </i>
   <i type="int" name="MAGATOM">     0</i>
   <v name="MAGDIPOL">      0.00000000      0.00000000      0.00000000</v>
   <v name="AVECCONST">      0.00000000      0.00000000      0.00000000</v>
  </separator>
  <separator name="response functions" >
   <i type="logical" name="LADDER"> F  </i>
   <i type="logical" name="LFXC"> F  </i>
   <i type="logical" name="LHARTREE"> T  </i>
   <i type="int" name="IBSE">     0</i>
   <v type="int" name="KPOINT">    -1     0     0     0</v>
   <i type="logical" name="LTCTE"> F  </i>
   <i type="logical" name="LTETE"> F  </i>
   <i type="logical" name="LTRIPLET"> F  </i>
   <i type="logical" name="LFXCEPS"> F  </i>
   <i type="logical" name="LFXHEG"> F  </i>
   <i type="int" name="NATURALO">     0</i>
   <i type="logical" name="L2ORDER"> F  </i>
   <i type="logical" name="LUSEW"> F  </i>
   <i name="ENCUTGW">     -2.00000000</i>
   <i name="ENCUTGWSOFT">     -2.00000000</i>
   <i name="ENCUTLF">     -1.00000000</i>
   <i type="int" name="LMAXMP2">    -1</i>
   <i name="SCISSOR">      0.00000000</i>
   <i type="int" name="NOMEGA">     0</i>
   <i type="int" name="NOMEGAR">     0</i>
   <i type="int" name="NBANDSGW">    -1</i>
   <i type="int" name="NBANDSO">    -1</i>
   <i type="int" name="NBANDSV">    -1</i>
   <i type="int" name="NELM">     1</i>
   <i type="int" name="NELMHF">     1</i>
   <i type="int" name="DIM">     3</i>
   <i type="int" name="ANTIRES">     0</i>
   <i name="OMEGAMAX">    -30.00000000</i>
   <i name="OMEGAMIN">    -30.00000000</i>
   <i name="OMEGATL">   -200.00000000</i>
   <i type="int" name="OMEGAGRID">     0</i>
   <i name="CSHIFT">     -0.10000000</i>
   <i type="logical" name="SELFENERGY"> F  </i>
   <i type="logical" name="LSPECTRAL"> F  </i>
   <i type="logical" name="LSPECTRALGW"> F  </i>
   <i type="logical" name="LSINGLES"> F  </i>
   <i type="logical" name="LFERMIGW"> F  </i>
   <i type="logical" name="ODDONLYGW"> F  </i>
   <i type="logical" name="EVENONLYGW"> F  </i>
   <i type="int" name="NKREDLFX">     1</i>
   <i type="int" name="NKREDLFY">     1</i>
   <i type="int" name="NKREDLFZ">     1</i>
   <i type="int" name="MAXMEM">  1800</i>
   <i type="int" name="TELESCOPE">     0</i>
   <i type="int" name="TAUPAR">     1</i>
   <i type="int" name="OMEGAPAR">    -1</i>
   <i name="LAMBDA">      1.00000000</i>
  </separator>
  <separator name="External order field" >
   <i name="OFIELD_KAPPA">      0.00000000</i>
   <v name="OFIELD_K">      0.00000000      0.00000000      0.00000000</v>
   <i name="OFIELD_Q6_NEAR">      0.00000000</i>
   <i name="OFIELD_Q6_FAR">      0.00000000</i>
   <i name="OFIELD_A">      0.00000000</i>
  </separator>
 </parameters>
 <atominfo>
  <atoms>       4 </atoms>
  <types>       1 </types>
  <array name="atoms" >
   <dimension dim="1">ion</dimension>
   <field type="string">element</field>
   <field type="int">atomtype</field>
   <set>
    <rc><c>Cu</c><c>   1</c></rc>
    <rc><c>Cu</c><c>   1</c></rc>
    <rc><c>Cu</c><c>   1</c></rc>
    <rc><c>Cu</c><c>   1</c></rc>
   </set>
  </array>
  <array name="atomtypes" >
   <dimension dim="1">type</dimension>
   <field type="int">atomspertype</field>
   <field type="string">element</field>
   <field>mass</field>
   <field>valence</field>
   <field type="string">pseudopotential</field>
   <set>
    <rc><c>   4</c><c>Cu</c><c>     63.54600000</c><c>     11.00000000</c><c>  PAW_PBE Cu 22Jun2005                  </c></rc>
   </set>
  </array>
 </atominfo>
 <structure name="initialpos" >
  <crystal>
   <varray name="basis" >
    <v>       3.61000000       0.00000000       0.00000000 </v>
    <v>       0.00000000       3.61000000       0.00000000 </v>
    <v>       0.00000000       0.00000000       3.61000000 </v>
   </varray>
   <i name="volume">     47.04588100 </i>
   <varray name="rec_basis" >
    <v>       0.27700831       0.00000000       0.00000000 </v>
    <v>       0.00000000       0.27700831       0.00000000 </v>
    <v>       0.00000000       0.00000000       0.27700831 </v>
   </varray>
  </crystal>
  <varray name="positions" >
   <v>       0.00000000       0.00000000       0.00000000 </v>
   <v>       0.00000000       0.50000000       0.50000000 </v>
   <v>       0.50000000       0.00000000       0.50000000 </v>
   <v>       0.50000000       0.50000000       0.00000000 </v>
  </varray>
 </structure>
 <calculation>
  <scstep>
   <time name="dav">    0.08    0.08</time>
   <time name="total">    0.15    0.15</time>
   <energy>
    <i name="alphaZ">    248.71993771 </i>
    <i name="ewald">  -4425.78708566 </i>
    <i name="hartreedc">  -1444.32473403 </i>
    <i name="XCdc">    183.18686199 </i>
    <i name="pawpsdc">   4912.82663951 </i>
    <i name="pawaedc">  -5336.19386850 </i>
    <i name="eentropy">     -0.01024067 </i>
    <i name="bandstr">    436.29033249 </i>
    <i name="atom">   5563.83056080 </i>
    <i name="e_fr_energy">    138.53840364 </i>
    <i name="e_wo_entrp">    138.54864431 </i>
    <i name="e_0_energy">    138.54181720 </i>
   </energy>
  </scstep>
  <scstep>
   <time name="dav">    0.05    0.05</time>
   <time name="total">    0.05    0.05</time>
   <energy>
    <i name="e_fr_energy">    -13.50462773 </i>
    <i name="e_wo_entrp">    -13.49980523 </i>
    <i name="e_0_energy">    -13.50302023 </i>
   </energy>
  </scstep>
  <scstep>
   <time name="dav">    0.11    0.11</time>
   <time name="total">    0.11    0.11</time>
   <energy>
    <i name="e_fr_energy">    -17.88464783 </i>
    <i name="e_wo_entrp">    -17.87617067 </i>
    <i name="e_0_energy">    -17.88182211 </i>
   </energy>
  </scstep>
  <scstep>
   <time name="dav">    0.05    0.05</time>
   <time name="total">    0.05    0.06</time>
   <energy>
    <i name="e_fr_energy">    -17.91553596 </i>
    <i name="e_wo_entrp">    -17.90707081 </i>
    <i name="e_0_energy">    -17.91271424 </i>
   </energy>
  </scstep>
  <scstep>
   <time name="dav">    0.09    0.09</time>
   <time name="total">    0.10    0.10</time>
   <energy>
    <i name="e_fr_energy">    -17.91595513 </i>
    <i name="e_wo_entrp">    -17.90748988 </i>
    <i name="e_0_energy">    -17.91313338 </i>
   </energy>
  </scstep>
  <scstep>
   <time name="dav">    0.08    0.08</time>
   <time name="total">    0.09    0.09</time>
   <energy>
    <i name="e_fr_energy">    -15.95813945 </i>
    <i name="e_wo_entrp">    -15.94881486 </i>
    <i name="e_0_energy">    -15.95503125 </i>
   </energy>
  </scstep>
  <scstep>
   <time name="dav">    0.08    0.08</time>
   <time name="total">    0.10    0.10</time>
   <energy>
    <i name="e_fr_energy">    -14.41071677 </i>
    <i name="e_wo_entrp">    -14.40139219 </i>
    <i name="e_0_energy">    -14.40760858 </i>
   </energy>
  </scstep>
  <scstep>
   <time name="dav">    0.07    0.07</time>
   <time name="total">    0.08    0.08</time>
   <energy>
    <i name="e_fr_energy">    -14.37351509 </i>
    <i name="e_wo_entrp">    -14.36419050 </i>
    <i name="e_0_energy">    -14.37040689 </i>
   </energy>
  </scstep>
  <scstep>
   <time name="dav">    0.07    0.07</time>
   <time name="total">    0.08    0.08</time>
   <energy>
    <i name="e_fr_energy">    -14.36397333 </i>
    <i name="e_wo_entrp">    -14.35464874 </i>
    <i name="e_0_energy">    -14.36086514 </i>
   </energy>
  </scstep>
  <scstep>
   <time name="dav">    0.06    0.06</time>
   <time name="total">    0.06    0.06</time>
   <energy>
    <i name="alphaZ">    248.71993771 </i>
    <i name="ewald">  -4425.78708566 </i>
    <i name="hartreedc">  -1350.57889068 </i>
    <i name="XCdc">    178.72183822 </i>
    <i name="pawpsdc">   5279.11152297 </i>
    <i name="pawaedc">  -5711.27799915 </i>
    <i name="eentropy">     -0.00932459 </i>
    <i name="bandstr">    202.90542024 </i>
    <i name="atom">   5563.83056080 </i>
    <i name="e_fr_energy">    -14.36402014 </i>
    <i name="e_wo_entrp">    -14.35469556 </i>
    <i name="e_0_energy">    -14.36091195 </i>
   </energy>
  </scstep>
  <structure>
   <crystal>
    <varray name="basis" >
     <v>       3.61000000       0.00000000       0.00000000 </v>
     <v>       0.00000000       3.61000000       0.00000000 </v>
     <v>       0.00000000       0.00000000       3.61000000 </v>
    </varray>
    <i name="volume">     47.04588100 </i>
    <varray name="rec_basis" >
     <v>       0.27700831       0.00000000       0.00000000 </v>
     <v>       0.00000000       0.27700831       0.00000000 </v>
     <v>       0.00000000       0.00000000       0.27700831 </v>
    </varray>
   </crystal>
   <varray name="positions" >
    <v>       0.00000000       0.00000000       0.00000000 </v>
    <v>       0.00000000       0.50000000       0.50000000 </v>
    <v>       0.50000000       0.00000000       0.50000000 </v>
    <v>       0.50000000       0.50000000       0.00000000 </v>
   </varray>
  </structure>
  <varray name="forces" >
   <v>       0.00000000       0.00000000       0.00000000 </v>
   <v>      -0.00000000       0.00000000      -0.00000000 </v>
   <v>      -0.00000000       0.00000000      -0.00000000 </v>
   <v>      -0.00000000      -0.00000000       0.00000000 </v>
  </varray>
  <varray name="stress" >
   <v>      43.15276419       0.00000000       0.00000000 </v>
   <v>       0.00000000      43.15276419       0.00000000 </v>
   <v>       0.00000000      -0.00000000      43.15276419 </v>
  </varray>
  <energy>
   <i name="e_fr_energy">    -14.36402014 </i>
   <i name="e_wo_entrp">    -14.36091195 </i>
   <i name="e_0_energy">     -0.00932459 </i>
  </energy>
  <time name="totalsc">    0.93    0.96</time>
  <eigenvalues>
   <array>
    <dimension dim="1">band</dimension>
    <dimension dim="2">kpoint</dimension>
    <dimension dim="3">spin</dimension>
    <field>eigene</field>
    <field>occ</field>
    <set>
     <set comment="spin 1">
      <set comment="kpoint 1">
       <r>   -1.7448    1.0000 </r>
       <r>    2.7436    1.0000 </r>
       <r>    2.7436    1.0000 </r>
       <r>    2.7436    1.0000 </r>
       <r>    3.2046    1.0000 </r>
       <r>    3.2046    1.0000 </r>
       <r>    3.2046    1.0000 </r>
       <r>    4.6091    1.0000 </r>
       <r>    4.6091    1.0000 </r>
       <r>    4.6091    1.0000 </r>
       <r>    5.4400    1.0000 </r>
       <r>    5.4400    1.0000 </r>
       <r>    5.9925    1.0000 </r>
       <r>    5.9925    1.0000 </r>
       <r>    5.9925    1.0000 </r>
       <r>    6.1505    1.0000 </r>
       <r>    6.1505    1.0000 </r>
       <r>    6.1505    1.0000 </r>
       <r>    6.1505    1.0000 </r>
       <r>    6.1505    1.0000 </r>
       <r>    6.1505    1.0000 </r>
       <r>    9.1335   -0.0000 </r>
       <r>    9.1335   -0.0000 </r>
       <r>    9.1335   -0.0000 </r>
       <r>   14.7848    0.0000 </r>
       <r>   14.7848    0.0000 </r>
       <r>   14.7848    0.0000 </r>
       <r>   20.7507    0.0000 </r>
       <r>   20.7507    0.0000 </r>
       <r>   20.7507    0.0000 </r>
       <r>   20.7507    0.0000 </r>
       <r>   20.7507    0.0000 </r>
       <r>   20.7507    0.0000 </r>
       <r>   25.2589    0.0000 </r>
       <r>   25.2589    0.0000 </r>
       <r>   25.2589    0.0000 </r>
       <r>   27.9664    0.0000 </r>
       <r>   27.9664    0.0000 </r>
       <r>   27.9664    0.0000 </r>
       <r>   30.2702    0.0000 </r>
       <r>   32.9403    0.0000 </r>
       <r>   32.9403    0.0000 </r>
       <r>   32.9403    0.0000 </r>
       <r>   35.4374    0.0000 </r>
       <r>   35.4374    0.0000 </r>
       <r>   35.4374    0.0000 </r>
       <r>   39.2119    0.0000 </r>
       <r>   44.0102    0.0000 </r>
      </set>
      <set comment="kpoint 2">
       <r>   -0.4301    1.0000 </r>
       <r>    2.3355    1.0000 </r>
       <r>    3.2587    1.0000 </r>
       <r>    3.2587    1.0000 </r>
       <r>    3.5404    1.0000 </r>
       <r>    3.5943    1.0000 </r>
       <r>    3.5943    1.0000 </r>
       <r>    4.2418    1.0000 </r>
       <r>    4.8066    1.0000 </r>
       <r>    4.8066    1.0000 </r>
       <r>    4.9197    1.0000 </r>
       <r>    4.9197    1.0000 </r>
       <r>    5.1298    1.0000 </r>
       <r>    5.5549    1.0000 </r>
       <r>    5.5750    1.0000 </r>
       <r>    5.5880    1.0000 </r>
       <r>    5.5880    1.0000 </r>
       <r>    5.6769    1.0000 </r>
       <r>    5.6769    1.0000 </r>
       <r>    5.8516    1.0000 </r>
       <r>    6.1514    1.0000 </r>
       <r>    6.1514    1.0000 </r>
       <r>   11.6784    0.0000 </r>
       <r>   11.6784    0.0000 </r>
       <r>   15.3273    0.0000 </r>
       <r>   15.3273    0.0000 </r>
       <r>   16.3517    0.0000 </r>
       <r>   16.3517    0.0000 </r>
       <r>   17.6819    0.0000 </r>
       <r>   17.6819    0.0000 </r>
       <r>   21.3296    0.0000 </r>
       <r>   22.6469    0.0000 </r>
       <r>   22.6469    0.0000 </r>
       <r>   25.8505    0.0000 </r>
       <r>   27.4711    0.0000 </r>
       <r>   27.4711    0.0000 </r>
       <r>   27.8202    0.0000 </r>
       <r>   28.5958    0.0000 </r>
       <r>   29.5120    0.0000 </r>
       <r>   31.3297    0.0000 </r>
       <r>   31.3297    0.0000 </r>
       <r>   33.2560    0.0000 </r>
       <r>   33.8804    0.0000 </r>
       <r>   33.8804    0.0000 </r>
       <r>   40.7259    0.0000 </r>
       <r>   41.1248    0.0000 </r>
       <r>   41.1248    0.0000 </r>
       <r>   41.4345    0.0000 </r>
      </set>
      <set comment="kpoint 3">
       <r>    0.7682    1.0000 </r>
       <r>    3.0869    1.0000 </r>
       <r>    3.0869    1.0000 </r>
       <r>    3.5770    1.0000 </r>
       <r>    3.7471    1.0000 </r>
       <r>    3.8111    1.0000 </r>
       <r>    3.8111    1.0000 </r>
       <r>    4.1829    1.0000 </r>
       <r>    4.3295    1.0000 </r>
       <r>    4.3295    1.0000 </r>
       <r>    4.4767    1.0000 </r>
       <r>    4.7183    1.0000 </r>
       <r>    5.0335    1.0000 </r>
       <r>    5.1406    1.0000 </r>
       <r>    5.3664    1.0000 </r>
       <r>    5.4852    1.0000 </r>
       <r>    5.4852    1.0000 </r>
       <r>    5.6759    1.0000 </r>
       <r>    5.6759    1.0000 </r>
       <r>    5.8072    1.0000 </r>
       <r>    5.9158    1.0000 </r>
       <r>    7.5669    0.8750 </r>
       <r>    7.5669    0.8750 </r>
       <r>   10.8971    0.0000 </r>
       <r>   13.5823    0.0000 </r>
       <r>   16.1591    0.0000 </r>
       <r>   17.9301    0.0000 </r>
       <r>   17.9301    0.0000 </r>
       <r>   18.9469    0.0000 </r>
       <r>   18.9469    0.0000 </r>
       <r>   21.9028    0.0000 </r>
       <r>   22.4280    0.0000 </r>
       <r>   22.4280    0.0000 </r>
       <r>   22.6114    0.0000 </r>
       <r>   24.3261    0.0000 </r>
       <r>   27.5252    0.0000 </r>
       <r>   32.3560    0.0000 </r>
       <r>   32.3560    0.0000 </r>
       <r>   32.3925    0.0000 </r>
       <r>   32.9915    0.0000 </r>
       <r>   33.8575    0.0000 </r>
       <r>   33.8575    0.0000 </r>
       <r>   34.3760    0.0000 </r>
       <r>   36.6111    0.0000 </r>
       <r>   36.8784    0.0000 </r>
       <r>   38.1374    0.0000 </r>
       <r>   38.1374    0.0000 </r>
       <r>   41.0716    0.0000 </r>
      </set>
      <set comment="kpoint 4">
       <r>    1.6316    1.0000 </r>
       <r>    2.9710    1.0000 </r>
       <r>    2.9710    1.0000 </r>
       <r>    2.9710    1.0000 </r>
       <r>    4.2040    1.0000 </r>
       <r>    4.2040    1.0000 </r>
       <r>    4.2040    1.0000 </r>
       <r>    4.6040    1.0000 </r>
       <r>    4.6883    1.0000 </r>
       <r>    4.6883    1.0000 </r>
       <r>    4.6883    1.0000 </r>
       <r>    4.6903    1.0000 </r>
       <r>    4.6903    1.0000 </r>
       <r>    4.9015    1.0000 </r>
       <r>    4.9015    1.0000 </r>
       <r>    4.9015    1.0000 </r>
       <r>    5.7378    1.0000 </r>
       <r>    5.7378    1.0000 </r>
       <r>    6.0279    1.0000 </r>
       <r>    6.0279    1.0000 </r>
       <r>    6.0279    1.0000 </r>
       <r>    8.1146   -0.0000 </r>
       <r>    8.1146   -0.0000 </r>
       <r>    8.1146   -0.0000 </r>
       <r>   12.6785    0.0000 </r>
       <r>   12.6785    0.0000 </r>
       <r>   12.6785    0.0000 </r>
       <r>   16.2764    0.0000 </r>
       <r>   23.4317    0.0000 </r>
       <r>   23.4317    0.0000 </r>
       <r>   23.4317    0.0000 </r>
       <r>   25.8216    0.0000 </r>
       <r>   25.8216    0.0000 </r>
       <r>   25.8216    0.0000 </r>
       <r>   28.0238    0.0000 </r>
       <r>   28.0238    0.0000 </r>
       <r>   28.0238    0.0000 </r>
       <r>   29.4779    0.0000 </r>
       <r>   30.0518    0.0000 </r>
       <r>   30.0518    0.0000 </r>
       <r>   34.4091    0.0000 </r>
       <r>   34.4091    0.0000 </r>
       <r>   37.6900    0.0000 </r>
       <r>   37.8232    0.0000 </r>
       <r>   37.8232    0.0000 </r>
       <r>   37.8232    0.0000 </r>
       <r>   38.2169    0.0000 </r>
       <r>   38.2169    0.0000 </r>
      </set>
     </set>
    </set>
   </array>
  </eigenvalues>
  <separator name="orbital magnetization" >
   <v name="MAGDIPOLOUT">      0.00000000      0.00000000      0.00000000</v>
  </separator>
  <dos>
   <i name="efermi">      7.61784864 </i>
   <total>
    <array>
     <dimension dim="1">gridpoints</dimension>
     <dimension dim="2">spin</dimension>
     <field>energy</field>
     <field>total</field>
     <field>integrated</field>
     <set>
      <set comment="spin 1">
       <r>    -4.0325     0.0000     0.0000 </r>
       <r>    -3.8648     0.0000     0.0000 </r>
       <r>    -3.6970     0.0000     0.0000 </r>
       <r>    -3.5292     0.0000     0.0000 </r>
       <r>    -3.3615     0.0000     0.0000 </r>
       <r>    -3.1937     0.0000     0.0000 </r>
       <r>    -3.0259     0.0000     0.0000 </r>
       <r>    -2.8582     0.0000     0.0000 </r>
       <r>    -2.6904    -0.0000    -0.0000 </r>
       <r>    -2.5226    -0.0000    -0.0000 </r>
       <r>    -2.3548    -0.0000    -0.0000 </r>
       <r>    -2.1871    -0.0000    -0.0000 </r>
       <r>    -2.0193    -0.0002    -0.0000 </r>
       <r>    -1.8515    -0.0134    -0.0023 </r>
       <r>    -1.6838     0.4218     0.0685 </r>
       <r>    -1.5160     0.0346     0.0743 </r>
       <r>    -1.3482    -0.0013     0.0741 </r>
       <r>    -1.1805    -0.0000     0.0741 </r>
       <r>    -1.0127    -0.0000     0.0741 </r>
       <r>    -0.8449    -0.0000     0.0741 </r>
       <r>    -0.6772    -0.0035     0.0735 </r>
       <r>    -0.5094     0.0348     0.0793 </r>
       <r>    -0.3416     2.6409     0.5224 </r>
       <r>    -0.1739    -0.0207     0.5189 </r>
       <r>    -0.0061    -0.0023     0.5185 </r>
       <r>     0.1617    -0.0000     0.5185 </r>
       <r>     0.3294    -0.0000     0.5185 </r>
       <r>     0.4972    -0.0023     0.5181 </r>
       <r>     0.6650    -0.1469     0.4935 </r>
       <r>     0.8328     5.1264     1.3535 </r>
       <r>     1.0005     0.3341     1.4096 </r>
       <r>     1.1683    -0.0130     1.4074 </r>
       <r>     1.3361    -0.0004     1.4073 </r>
       <r>     1.5038    -0.1234     1.3866 </r>
       <r>     1.6716     2.9849     1.8874 </r>
       <r>     1.8394     0.6929     2.0037 </r>
       <r>     2.0071    -0.0219     2.0000 </r>
       <r>     2.1749    -0.0604     1.9899 </r>
       <r>     2.3427     1.5459     2.2492 </r>
       <r>     2.5104     1.2040     2.4512 </r>
       <r>     2.6782     0.0341     2.4569 </r>
       <r>     2.8460     0.8935     2.6068 </r>
       <r>     3.0137     9.4179     4.1869 </r>
       <r>     3.1815    12.8916     6.3497 </r>
       <r>     3.3493     5.9241     7.3436 </r>
       <r>     3.5170     1.2603     7.5550 </r>
       <r>     3.6848    12.2336     9.6074 </r>
       <r>     3.8526    13.8392    11.9292 </r>
       <r>     4.0204     1.5456    12.1885 </r>
       <r>     4.1881     6.9431    13.3533 </r>
       <r>     4.3559    19.6480    16.6496 </r>
       <r>     4.5237     6.9852    17.8215 </r>
       <r>     4.6914    16.3793    20.5695 </r>
       <r>     4.8592    19.8561    23.9007 </r>
       <r>     5.0270    16.5027    26.6693 </r>
       <r>     5.1947     9.8766    28.3263 </r>
       <r>     5.3625     2.7847    28.7935 </r>
       <r>     5.5303    14.3243    31.1966 </r>
       <r>     5.6980    23.2712    35.1008 </r>
       <r>     5.8658    17.9680    38.1153 </r>
       <r>     6.0336    12.7864    40.2604 </r>
       <r>     6.2013    12.1876    42.3051 </r>
       <r>     6.3691     0.8646    42.4502 </r>
       <r>     6.5369    -0.0341    42.4444 </r>
       <r>     6.7046    -0.0000    42.4444 </r>
       <r>     6.8724    -0.0000    42.4444 </r>
       <r>     7.0402    -0.0000    42.4444 </r>
       <r>     7.2080    -0.0000    42.4444 </r>
       <r>     7.3757    -0.1113    42.4258 </r>
       <r>     7.5435     3.3688    42.9909 </r>
       <r>     7.7113     7.6581    44.2757 </r>
       <r>     7.8790    -0.3412    44.2185 </r>
       <r>     8.0468     0.5305    44.3075 </r>
       <r>     8.2146    10.3541    46.0446 </r>
       <r>     8.3823    -0.2603    46.0009 </r>
       <r>     8.5501    -0.0054    46.0000 </r>
       <r>     8.7179    -0.0000    46.0000 </r>
       <r>     8.8856    -0.0017    45.9997 </r>
       <r>     9.0534     0.0147    46.0022 </r>
       <r>     9.2212     1.3212    46.2238 </r>
       <r>     9.3889    -0.0084    46.2224 </r>
       <r>     9.5567    -0.0012    46.2222 </r>
       <r>     9.7245    -0.0000    46.2222 </r>
       <r>     9.8922    -0.0000    46.2222 </r>
       <r>    10.0600    -0.0000    46.2222 </r>
       <r>    10.2278    -0.0000    46.2222 </r>
       <r>    10.3956    -0.0000    46.2222 </r>
       <r>    10.5633    -0.0001    46.2222 </r>
       <r>    10.7311    -0.1075    46.2042 </r>
       <r>    10.8989     2.8343    46.6797 </r>
       <r>    11.0666     2.6710    47.1278 </r>
       <r>    11.2344    -0.0994    47.1111 </r>
       <r>    11.4022    -0.0018    47.1108 </r>
       <r>    11.5699    -0.1670    47.0828 </r>
       <r>    11.7377     5.0255    47.9259 </r>
       <r>    11.9055     0.4577    48.0027 </r>
       <r>    12.0732    -0.0161    48.0000 </r>
       <r>    12.2410    -0.0000    48.0000 </r>
       <r>    12.4088    -0.0049    47.9992 </r>
       <r>    12.5765    -0.2817    47.9519 </r>
       <r>    12.7443    10.2938    49.6789 </r>
       <r>    12.9121     0.6141    49.7819 </r>
       <r>    13.0798    -0.0248    49.7778 </r>
       <r>    13.2476    -0.0001    49.7778 </r>
       <r>    13.4154    -0.1054    49.7601 </r>
       <r>    13.5832     2.7917    50.2284 </r>
       <r>    13.7509     2.7136    50.6837 </r>
       <r>    13.9187    -0.1015    50.6667 </r>
       <r>    14.0865    -0.0001    50.6667 </r>
       <r>    14.2542    -0.0000    50.6667 </r>
       <r>    14.4220    -0.0000    50.6667 </r>
       <r>    14.5898    -0.0124    50.6646 </r>
       <r>    14.7575     0.3813    50.7286 </r>
       <r>    14.9253     0.9975    50.8959 </r>
       <r>    15.0931    -0.0538    50.8869 </r>
       <r>    15.2608     0.2938    50.9362 </r>
       <r>    15.4286     5.1566    51.8013 </r>
       <r>    15.5964    -0.1377    51.7782 </r>
       <r>    15.7641    -0.0025    51.7778 </r>
       <r>    15.9319    -0.0160    51.7751 </r>
       <r>    16.0997     0.3929    51.8410 </r>
       <r>    16.2674     6.5879    52.9463 </r>
       <r>    16.4352     7.2413    54.1611 </r>
       <r>    16.6030    -0.0714    54.1491 </r>
       <r>    16.7708    -0.0059    54.1481 </r>
       <r>    16.9385    -0.0000    54.1481 </r>
       <r>    17.1063    -0.0000    54.1481 </r>
       <r>    17.2741    -0.0000    54.1481 </r>
       <r>    17.4418    -0.0095    54.1466 </r>
       <r>    17.6096     0.1812    54.1770 </r>
       <r>    17.7774     4.9515    55.0077 </r>
       <r>    17.9451     6.8099    56.1502 </r>
       <r>    18.1129     4.1035    56.8386 </r>
       <r>    18.2807    -0.1416    56.8148 </r>
       <r>    18.4484    -0.0000    56.8148 </r>
       <r>    18.6162    -0.0002    56.8148 </r>
       <r>    18.7840    -0.2298    56.7762 </r>
       <r>    18.9517     5.9593    57.7760 </r>
       <r>    19.1195     5.0521    58.6236 </r>
       <r>    19.2873    -0.1847    58.5926 </r>
       <r>    19.4550    -0.0001    58.5926 </r>
       <r>    19.6228    -0.0000    58.5926 </r>
       <r>    19.7906    -0.0000    58.5926 </r>
       <r>    19.9584    -0.0000    58.5926 </r>
       <r>    20.1261    -0.0000    58.5926 </r>
       <r>    20.2939    -0.0000    58.5926 </r>
       <r>    20.4617    -0.0005    58.5925 </r>
       <r>    20.6294    -0.0934    58.5768 </r>
       <r>    20.7972     2.3468    58.9706 </r>
       <r>    20.9650     0.4092    59.0392 </r>
       <r>    21.1327    -0.0364    59.0331 </r>
       <r>    21.3005     0.7253    59.1548 </r>
       <r>    21.4683     2.0327    59.4958 </r>
       <r>    21.6360    -0.0881    59.4810 </r>
       <r>    21.8038    -0.1246    59.4601 </r>
       <r>    21.9716     5.1905    60.3309 </r>
       <r>    22.1393     0.2441    60.3719 </r>
       <r>    22.3071    -0.3848    60.3073 </r>
       <r>    22.4749     9.1433    61.8413 </r>
       <r>    22.6426     8.3175    63.2367 </r>
       <r>    22.8104     4.2655    63.9523 </r>
       <r>    22.9782    -0.1572    63.9259 </r>
       <r>    23.1460    -0.0022    63.9256 </r>
       <r>    23.3137    -0.3700    63.8635 </r>
       <r>    23.4815     9.5810    65.4709 </r>
       <r>    23.6493     1.4339    65.7114 </r>
       <r>    23.8170    -0.0461    65.7037 </r>
       <r>    23.9848    -0.0000    65.7037 </r>
       <r>    24.1526    -0.0902    65.6886 </r>
       <r>    24.3203     2.4820    66.1050 </r>
       <r>    24.4881     3.0239    66.6123 </r>
       <r>    24.6559    -0.1172    66.5926 </r>
       <r>    24.8236    -0.0001    66.5926 </r>
       <r>    24.9914    -0.0007    66.5925 </r>
       <r>    25.1592    -0.0323    66.5871 </r>
       <r>    25.3269     1.2949    66.8043 </r>
       <r>    25.4947     0.0653    66.8153 </r>
       <r>    25.6625    -0.2820    66.7679 </r>
       <r>    25.8302     7.2320    67.9812 </r>
       <r>    25.9980     6.5372    69.0780 </r>
       <r>    26.1658    -0.2438    69.0371 </r>
       <r>    26.3336    -0.0002    69.0370 </r>
       <r>    26.5013    -0.0000    69.0370 </r>
       <r>    26.6691    -0.0000    69.0370 </r>
       <r>    26.8369    -0.0000    69.0370 </r>
       <r>    27.0046    -0.0000    69.0370 </r>
       <r>    27.1724    -0.0006    69.0369 </r>
       <r>    27.3402    -0.2488    68.9952 </r>
       <r>    27.5079     6.3205    70.0556 </r>
       <r>    27.6757     4.6273    70.8319 </r>
       <r>    27.8435     1.5317    71.0889 </r>
       <r>    28.0112     6.3355    72.1518 </r>
       <r>    28.1790     6.8763    73.3054 </r>
       <r>    28.3468    -0.2779    73.2588 </r>
       <r>    28.5145     0.0210    73.2623 </r>
       <r>    28.6823     2.6440    73.7059 </r>
       <r>    28.8501    -0.0104    73.7041 </r>
       <r>    29.0178    -0.0025    73.7037 </r>
       <r>    29.1856    -0.0006    73.7036 </r>
       <r>    29.3534    -0.1873    73.6722 </r>
       <r>    29.5212     4.6515    74.4526 </r>
       <r>    29.6889     1.7786    74.7510 </r>
       <r>    29.8567    -0.1268    74.7297 </r>
       <r>    30.0245     2.0295    75.0702 </r>
       <r>    30.1922     5.3309    75.9645 </r>
       <r>    30.3600     0.2168    76.0009 </r>
       <r>    30.5278    -0.0049    76.0001 </r>
       <r>    30.6955    -0.0004    76.0000 </r>
       <r>    30.8633    -0.0000    76.0000 </r>
       <r>    31.0311    -0.0005    75.9999 </r>
       <r>    31.1988    -0.1823    75.9693 </r>
       <r>    31.3666     4.3702    76.7025 </r>
       <r>    31.5344     1.1472    76.8950 </r>
       <r>    31.7021    -0.0363    76.8889 </r>
       <r>    31.8699    -0.0000    76.8889 </r>
       <r>    32.0377    -0.0004    76.8888 </r>
       <r>    32.2054    -0.3528    76.8296 </r>
       <r>    32.3732     8.9698    78.3345 </r>
       <r>    32.5410     7.5619    79.6031 </r>
       <r>    32.7088    -0.2880    79.5548 </r>
       <r>    32.8765    -0.0941    79.5390 </r>
       <r>    33.0443     6.1356    80.5684 </r>
       <r>    33.2121     1.0437    80.7435 </r>
       <r>    33.3798     2.2850    81.1269 </r>
       <r>    33.5476    -0.0941    81.1111 </r>
       <r>    33.7154    -0.4381    81.0376 </r>
       <r>    33.8831    10.7305    82.8378 </r>
       <r>    34.0509     5.8038    83.8115 </r>
       <r>    34.2187    -0.4056    83.7435 </r>
       <r>    34.3864     5.5325    84.6716 </r>
       <r>    34.5542     7.3254    85.9006 </r>
       <r>    34.7220    -0.2902    85.8519 </r>
       <r>    34.8897    -0.0003    85.8519 </r>
       <r>    35.0575    -0.0000    85.8519 </r>
       <r>    35.2253    -0.0070    85.8507 </r>
       <r>    35.3930     0.2225    85.8880 </r>
       <r>    35.5608     1.1560    86.0820 </r>
       <r>    35.7286    -0.0467    86.0741 </r>
       <r>    35.8964    -0.0002    86.0741 </r>
       <r>    36.0641    -0.0000    86.0741 </r>
       <r>    36.2319    -0.0000    86.0741 </r>
       <r>    36.3997    -0.0288    86.0692 </r>
       <r>    36.5674     0.9127    86.2224 </r>
       <r>    36.7352     4.4403    86.9673 </r>
       <r>    36.9030     3.6883    87.5861 </r>
       <r>    37.0707     1.6380    87.8609 </r>
       <r>    37.2385    -0.0539    87.8519 </r>
       <r>    37.4063    -0.0008    87.8517 </r>
       <r>    37.5740    -0.1347    87.8291 </r>
       <r>    37.7418     3.3119    88.3848 </r>
       <r>    37.9096    10.9838    90.2275 </r>
       <r>    38.0773     0.5993    90.3280 </r>
       <r>    38.2451    15.4458    92.9194 </r>
       <r>    38.4129     1.6523    93.1966 </r>
       <r>    38.5806    -0.0678    93.1852 </r>
       <r>    38.7484    -0.0000    93.1852 </r>
       <r>    38.9162    -0.0001    93.1852 </r>
       <r>    39.0840    -0.0154    93.1826 </r>
       <r>    39.2517     0.3727    93.2451 </r>
       <r>    39.4195     0.0870    93.2597 </r>
       <r>    39.5873    -0.0027    93.2593 </r>
       <r>    39.7550    -0.0000    93.2593 </r>
       <r>    39.9228    -0.0000    93.2593 </r>
       <r>    40.0906    -0.0000    93.2593 </r>
       <r>    40.2583    -0.0000    93.2593 </r>
       <r>    40.4261    -0.0003    93.2592 </r>
       <r>    40.5939    -0.0904    93.2440 </r>
       <r>    40.7616     2.1627    93.6069 </r>
       <r>    40.9294     0.3831    93.6712 </r>
       <r>    41.0972     5.4090    94.5786 </r>
       <r>    41.2649     5.5523    95.5101 </r>
       <r>    41.4327     1.1146    95.6971 </r>
       <r>    41.6005     1.4177    95.9350 </r>
       <r>    41.7682    -0.0538    95.9259 </r>
       <r>    41.9360    -0.0000    95.9259 </r>
       <r>    42.1038    -0.0000    95.9259 </r>
       <r>    42.2716     0.0000    95.9259 </r>
       <r>    42.4393     0.0000    95.9259 </r>
       <r>    42.6071     0.0000    95.9259 </r>
       <r>    42.7749     0.0000    95.9259 </r>
       <r>    42.9426     0.0000    95.9259 </r>
       <r>    43.1104    -0.0000    95.9259 </r>
       <r>    43.2782    -0.0000    95.9259 </r>
       <r>    43.4459    -0.0000    95.9259 </r>
       <r>    43.6137    -0.0000    95.9259 </r>
       <r>    43.7815    -0.0013    95.9257 </r>
       <r>    43.9492     0.0346    95.9315 </r>
       <r>    44.1170     0.4218    96.0023 </r>
       <r>    44.2848    -0.0134    96.0000 </r>
       <r>    44.4525    -0.0002    96.0000 </r>
       <r>    44.6203    -0.0000    96.0000 </r>
       <r>    44.7881    -0.0000    96.0000 </r>
       <r>    44.9558     0.0000    96.0000 </r>
       <r>    45.1236     0.0000    96.0000 </r>
       <r>    45.2914     0.0000    96.0000 </r>
       <r>    45.4592     0.0000    96.0000 </r>
       <r>    45.6269     0.0000    96.0000 </r>
       <r>    45.7947     0.0000    96.0000 </r>
       <r>    45.9625     0.0000    96.0000 </r>
       <r>    46.1302     0.0000    96.0000 </r>
       <r>    46.2980     0.0000    96.0000 </r>
      </set>
     </set>
    </array>
   </total>
  </dos>
 </calculation>
 <structure name="finalpos" >
  <crystal>
   <varray name="basis" >
    <v>       3.61000000       0.00000000       0.00000000 </v>
    <v>       0.00000000       3.61000000       0.00000000 </v>
    <v>       0.00000000       0.00000000       3.61000000 </v>
   </varray>
   <i name="volume">     47.04588100 </i>
   <varray name="rec_basis" >
    <v>       0.27700831       0.00000000       0.00000000 </v>
    <v>       0.00000000       0.27700831       0.00000000 </v>
    <v>       0.00000000       0.00000000       0.27700831 </v>
   </varray>
  </crystal>
  <varray name="positions" >
   <v>       0.00000000       0.00000000       0.00000000 </v>
   <v>       0.00000000       0.50000000       0.50000000 </v>
   <v>       0.50000000       0.00000000       0.50000000 </v>
   <v>       0.50000000       0.50000000       0.00000000 </v>
  </varray>
 </structure>
</modeling>
