   1   1   1   0
  0.1728000E+04  0.1200000E-08  0.1200000E-08  0.1200000E-08  0.5000000E-15
  1.000000000000000E-004
  CAR 
 unknown system                          
      2.11605981    -25.17906217  301     -8.99685434      1.00000000
    -25.179  0.0000E+00  0.0000E+00  0.0000E+00  0.0000E+00
    -25.088  0.0000E+00  0.0000E+00  0.0000E+00  0.0000E+00
    -24.997  0.0000E+00  0.0000E+00  0.0000E+00  0.0000E+00
    -24.906  0.0000E+00  0.0000E+00  0.0000E+00  0.0000E+00
    -24.815  0.0000E+00  0.0000E+00  0.0000E+00  0.0000E+00
    -24.724  0.0000E+00  0.0000E+00  0.0000E+00  0.0000E+00
    -24.633  0.0000E+00  0.0000E+00  0.0000E+00  0.0000E+00
    -24.542  0.0000E+00  0.0000E+00  0.0000E+00  0.0000E+00
    -24.451  0.0000E+00  0.0000E+00  0.0000E+00  0.0000E+00
    -24.360  0.0000E+00  0.0000E+00  0.0000E+00  0.0000E+00
    -24.269  0.0000E+00  0.0000E+00  0.0000E+00  0.0000E+00
    -24.178  0.0000E+00  0.0000E+00  0.0000E+00  0.0000E+00
    -24.087  0.0000E+00  0.0000E+00  0.0000E+00  0.0000E+00
    -23.996  0.1220E-14  0.1220E-14  0.1110E-15  0.1110E-15
    -23.905  0.1099E+02  0.1099E+02  0.1000E+01  0.1000E+01
    -23.814  0.0000E+00  0.0000E+00  0.1000E+01  0.1000E+01
    -23.723  0.0000E+00  0.0000E+00  0.1000E+01  0.1000E+01
    -23.632  0.0000E+00  0.0000E+00  0.1000E+01  0.1000E+01
    -23.541  0.0000E+00  0.0000E+00  0.1000E+01  0.1000E+01
    -23.450  0.0000E+00  0.0000E+00  0.1000E+01  0.1000E+01
    -23.359  0.0000E+00  0.0000E+00  0.1000E+01  0.1000E+01
    -23.268  0.0000E+00  0.0000E+00  0.1000E+01  0.1000E+01
    -23.177  0.0000E+00  0.0000E+00  0.1000E+01  0.1000E+01
    -23.086  0.0000E+00  0.0000E+00  0.1000E+01  0.1000E+01
    -22.995  0.0000E+00  0.0000E+00  0.1000E+01  0.1000E+01
    -22.904  0.0000E+00  0.0000E+00  0.1000E+01  0.1000E+01
    -22.813  0.0000E+00  0.0000E+00  0.1000E+01  0.1000E+01
    -22.723  0.0000E+00  0.0000E+00  0.1000E+01  0.1000E+01
    -22.632  0.0000E+00  0.0000E+00  0.1000E+01  0.1000E+01
    -22.541  0.0000E+00  0.0000E+00  0.1000E+01  0.1000E+01
    -22.450  0.0000E+00  0.0000E+00  0.1000E+01  0.1000E+01
    -22.359  0.0000E+00  0.0000E+00  0.1000E+01  0.1000E+01
    -22.268  0.0000E+00  0.0000E+00  0.1000E+01  0.1000E+01
    -22.177  0.0000E+00  0.0000E+00  0.1000E+01  0.1000E+01
    -22.086  0.0000E+00  0.0000E+00  0.1000E+01  0.1000E+01
    -21.995  0.0000E+00  0.0000E+00  0.1000E+01  0.1000E+01
    -21.904  0.0000E+00  0.0000E+00  0.1000E+01  0.1000E+01
    -21.813  0.0000E+00  0.0000E+00  0.1000E+01  0.1000E+01
    -21.722  0.0000E+00  0.0000E+00  0.1000E+01  0.1000E+01
    -21.631  0.0000E+00  0.0000E+00  0.1000E+01  0.1000E+01
    -21.540  0.0000E+00  0.0000E+00  0.1000E+01  0.1000E+01
    -21.449  0.0000E+00  0.0000E+00  0.1000E+01  0.1000E+01
    -21.358  0.0000E+00  0.0000E+00  0.1000E+01  0.1000E+01
    -21.267  0.0000E+00  0.0000E+00  0.1000E+01  0.1000E+01
    -21.176  0.0000E+00  0.0000E+00  0.1000E+01  0.1000E+01
    -21.085  0.0000E+00  0.0000E+00  0.1000E+01  0.1000E+01
    -20.994  0.0000E+00  0.0000E+00  0.1000E+01  0.1000E+01
    -20.903  0.0000E+00  0.0000E+00  0.1000E+01  0.1000E+01
    -20.812  0.0000E+00  0.0000E+00  0.1000E+01  0.1000E+01
    -20.721  0.0000E+00  0.0000E+00  0.1000E+01  0.1000E+01
    -20.630  0.0000E+00  0.0000E+00  0.1000E+01  0.1000E+01
    -20.539  0.0000E+00  0.0000E+00  0.1000E+01  0.1000E+01
    -20.448  0.0000E+00  0.0000E+00  0.1000E+01  0.1000E+01
    -20.357  0.0000E+00  0.0000E+00  0.1000E+01  0.1000E+01
    -20.266  0.0000E+00  0.0000E+00  0.1000E+01  0.1000E+01
    -20.175  0.0000E+00  0.0000E+00  0.1000E+01  0.1000E+01
    -20.084  0.0000E+00  0.0000E+00  0.1000E+01  0.1000E+01
    -19.993  0.0000E+00  0.0000E+00  0.1000E+01  0.1000E+01
    -19.902  0.0000E+00  0.0000E+00  0.1000E+01  0.1000E+01
    -19.811  0.0000E+00  0.0000E+00  0.1000E+01  0.1000E+01
    -19.720  0.0000E+00  0.0000E+00  0.1000E+01  0.1000E+01
    -19.629  0.0000E+00  0.0000E+00  0.1000E+01  0.1000E+01
    -19.538  0.0000E+00  0.0000E+00  0.1000E+01  0.1000E+01
    -19.447  0.0000E+00  0.0000E+00  0.1000E+01  0.1000E+01
    -19.356  0.0000E+00  0.0000E+00  0.1000E+01  0.1000E+01
    -19.265  0.0000E+00  0.0000E+00  0.1000E+01  0.1000E+01
    -19.174  0.0000E+00  0.0000E+00  0.1000E+01  0.1000E+01
    -19.083  0.0000E+00  0.0000E+00  0.1000E+01  0.1000E+01
    -18.992  0.0000E+00  0.0000E+00  0.1000E+01  0.1000E+01
    -18.901  0.0000E+00  0.0000E+00  0.1000E+01  0.1000E+01
    -18.810  0.0000E+00  0.0000E+00  0.1000E+01  0.1000E+01
    -18.719  0.0000E+00  0.0000E+00  0.1000E+01  0.1000E+01
    -18.628  0.0000E+00  0.0000E+00  0.1000E+01  0.1000E+01
    -18.537  0.0000E+00  0.0000E+00  0.1000E+01  0.1000E+01
    -18.446  0.0000E+00  0.0000E+00  0.1000E+01  0.1000E+01
    -18.355  0.0000E+00  0.0000E+00  0.1000E+01  0.1000E+01
    -18.264  0.0000E+00  0.0000E+00  0.1000E+01  0.1000E+01
    -18.173  0.0000E+00  0.0000E+00  0.1000E+01  0.1000E+01
    -18.082  0.0000E+00  0.0000E+00  0.1000E+01  0.1000E+01
    -17.991  0.0000E+00  0.0000E+00  0.1000E+01  0.1000E+01
    -17.900  0.0000E+00  0.0000E+00  0.1000E+01  0.1000E+01
    -17.809  0.0000E+00  0.0000E+00  0.1000E+01  0.1000E+01
    -17.718  0.0000E+00  0.0000E+00  0.1000E+01  0.1000E+01
    -17.627  0.0000E+00  0.0000E+00  0.1000E+01  0.1000E+01
    -17.536  0.0000E+00  0.0000E+00  0.1000E+01  0.1000E+01
    -17.445  0.0000E+00  0.0000E+00  0.1000E+01  0.1000E+01
    -17.354  0.0000E+00  0.0000E+00  0.1000E+01  0.1000E+01
    -17.263  0.0000E+00  0.0000E+00  0.1000E+01  0.1000E+01
    -17.172  0.0000E+00  0.0000E+00  0.1000E+01  0.1000E+01
    -17.082  0.0000E+00  0.0000E+00  0.1000E+01  0.1000E+01
    -16.991  0.0000E+00  0.0000E+00  0.1000E+01  0.1000E+01
    -16.900  0.0000E+00  0.0000E+00  0.1000E+01  0.1000E+01
    -16.809  0.0000E+00  0.0000E+00  0.1000E+01  0.1000E+01
    -16.718  0.0000E+00  0.0000E+00  0.1000E+01  0.1000E+01
    -16.627  0.0000E+00  0.0000E+00  0.1000E+01  0.1000E+01
    -16.536  0.0000E+00  0.0000E+00  0.1000E+01  0.1000E+01
    -16.445  0.0000E+00  0.0000E+00  0.1000E+01  0.1000E+01
    -16.354  0.0000E+00  0.0000E+00  0.1000E+01  0.1000E+01
    -16.263  0.0000E+00  0.0000E+00  0.1000E+01  0.1000E+01
    -16.172  0.0000E+00  0.0000E+00  0.1000E+01  0.1000E+01
    -16.081  0.0000E+00  0.0000E+00  0.1000E+01  0.1000E+01
    -15.990  0.0000E+00  0.0000E+00  0.1000E+01  0.1000E+01
    -15.899  0.0000E+00  0.0000E+00  0.1000E+01  0.1000E+01
    -15.808  0.0000E+00  0.0000E+00  0.1000E+01  0.1000E+01
    -15.717  0.0000E+00  0.0000E+00  0.1000E+01  0.1000E+01
    -15.626  0.0000E+00  0.0000E+00  0.1000E+01  0.1000E+01
    -15.535  0.0000E+00  0.0000E+00  0.1000E+01  0.1000E+01
    -15.444  0.0000E+00  0.0000E+00  0.1000E+01  0.1000E+01
    -15.353  0.0000E+00  0.0000E+00  0.1000E+01  0.1000E+01
    -15.262  0.0000E+00  0.0000E+00  0.1000E+01  0.1000E+01
    -15.171  0.0000E+00  0.0000E+00  0.1000E+01  0.1000E+01
    -15.080  0.0000E+00  0.0000E+00  0.1000E+01  0.1000E+01
    -14.989  0.0000E+00  0.0000E+00  0.1000E+01  0.1000E+01
    -14.898  0.0000E+00  0.0000E+00  0.1000E+01  0.1000E+01
    -14.807  0.0000E+00  0.0000E+00  0.1000E+01  0.1000E+01
    -14.716  0.0000E+00  0.0000E+00  0.1000E+01  0.1000E+01
    -14.625  0.0000E+00  0.0000E+00  0.1000E+01  0.1000E+01
    -14.534  0.0000E+00  0.0000E+00  0.1000E+01  0.1000E+01
    -14.443  0.0000E+00  0.0000E+00  0.1000E+01  0.1000E+01
    -14.352  0.0000E+00  0.0000E+00  0.1000E+01  0.1000E+01
    -14.261  0.0000E+00  0.0000E+00  0.1000E+01  0.1000E+01
    -14.170  0.0000E+00  0.0000E+00  0.1000E+01  0.1000E+01
    -14.079  0.0000E+00  0.0000E+00  0.1000E+01  0.1000E+01
    -13.988  0.0000E+00  0.0000E+00  0.1000E+01  0.1000E+01
    -13.897  0.0000E+00  0.0000E+00  0.1000E+01  0.1000E+01
    -13.806  0.0000E+00  0.0000E+00  0.1000E+01  0.1000E+01
    -13.715  0.0000E+00  0.0000E+00  0.1000E+01  0.1000E+01
    -13.624  0.0000E+00  0.0000E+00  0.1000E+01  0.1000E+01
    -13.533  0.0000E+00  0.0000E+00  0.1000E+01  0.1000E+01
    -13.442  0.0000E+00  0.0000E+00  0.1000E+01  0.1000E+01
    -13.351  0.0000E+00  0.0000E+00  0.1000E+01  0.1000E+01
    -13.260  0.0000E+00  0.0000E+00  0.1000E+01  0.1000E+01
    -13.169  0.0000E+00  0.0000E+00  0.1000E+01  0.1000E+01
    -13.078  0.0000E+00  0.0000E+00  0.1000E+01  0.1000E+01
    -12.987  0.0000E+00  0.0000E+00  0.1000E+01  0.1000E+01
    -12.896  0.0000E+00  0.0000E+00  0.1000E+01  0.1000E+01
    -12.805  0.0000E+00  0.0000E+00  0.1000E+01  0.1000E+01
    -12.714  0.0000E+00  0.0000E+00  0.1000E+01  0.1000E+01
    -12.623  0.0000E+00  0.0000E+00  0.1000E+01  0.1000E+01
    -12.532  0.0000E+00  0.0000E+00  0.1000E+01  0.1000E+01
    -12.441  0.0000E+00  0.0000E+00  0.1000E+01  0.1000E+01
    -12.350  0.0000E+00  0.0000E+00  0.1000E+01  0.1000E+01
    -12.259  0.0000E+00  0.0000E+00  0.1000E+01  0.1000E+01
    -12.168  0.0000E+00  0.0000E+00  0.1000E+01  0.1000E+01
    -12.077  0.0000E+00  0.0000E+00  0.1000E+01  0.1000E+01
    -11.986  0.0000E+00  0.0000E+00  0.1000E+01  0.1000E+01
    -11.895  0.0000E+00  0.0000E+00  0.1000E+01  0.1000E+01
    -11.804  0.0000E+00  0.0000E+00  0.1000E+01  0.1000E+01
    -11.713  0.0000E+00  0.0000E+00  0.1000E+01  0.1000E+01
    -11.622  0.0000E+00  0.0000E+00  0.1000E+01  0.1000E+01
    -11.532  0.0000E+00  0.0000E+00  0.1000E+01  0.1000E+01
    -11.441  0.0000E+00  0.0000E+00  0.1000E+01  0.1000E+01
    -11.350  0.0000E+00  0.0000E+00  0.1000E+01  0.1000E+01
    -11.259  0.0000E+00  0.0000E+00  0.1000E+01  0.1000E+01
    -11.168  0.0000E+00  0.0000E+00  0.1000E+01  0.1000E+01
    -11.077  0.0000E+00  0.0000E+00  0.1000E+01  0.1000E+01
    -10.986  0.0000E+00  0.0000E+00  0.1000E+01  0.1000E+01
    -10.895  0.0000E+00  0.0000E+00  0.1000E+01  0.1000E+01
    -10.804  0.0000E+00  0.0000E+00  0.1000E+01  0.1000E+01
    -10.713  0.0000E+00  0.0000E+00  0.1000E+01  0.1000E+01
    -10.622  0.0000E+00  0.0000E+00  0.1000E+01  0.1000E+01
    -10.531  0.0000E+00  0.0000E+00  0.1000E+01  0.1000E+01
    -10.440  0.0000E+00  0.0000E+00  0.1000E+01  0.1000E+01
    -10.349  0.0000E+00  0.0000E+00  0.1000E+01  0.1000E+01
    -10.258  0.0000E+00  0.0000E+00  0.1000E+01  0.1000E+01
    -10.167  0.0000E+00  0.0000E+00  0.1000E+01  0.1000E+01
    -10.076  0.0000E+00  0.0000E+00  0.1000E+01  0.1000E+01
     -9.985  0.0000E+00  0.0000E+00  0.1000E+01  0.1000E+01
     -9.894  0.0000E+00  0.0000E+00  0.1000E+01  0.1000E+01
     -9.803  0.0000E+00  0.0000E+00  0.1000E+01  0.1000E+01
     -9.712  0.0000E+00  0.0000E+00  0.1000E+01  0.1000E+01
     -9.621  0.0000E+00  0.0000E+00  0.1000E+01  0.1000E+01
     -9.530  0.0000E+00  0.0000E+00  0.1000E+01  0.1000E+01
     -9.439  0.0000E+00  0.0000E+00  0.1000E+01  0.1000E+01
     -9.348  0.0000E+00  0.0000E+00  0.1000E+01  0.1000E+01
     -9.257  0.0000E+00  0.0000E+00  0.1000E+01  0.1000E+01
     -9.166  0.0000E+00  0.0000E+00  0.1000E+01  0.1000E+01
     -9.075  0.0000E+00  0.0000E+00  0.1000E+01  0.1000E+01
     -8.984  0.3256E+02  0.3259E+02  0.3962E+01  0.3965E+01
     -8.893  0.0000E+00  0.0000E+00  0.4000E+01  0.4000E+01
     -8.802  0.0000E+00  0.0000E+00  0.4000E+01  0.4000E+01
     -8.711  0.0000E+00  0.0000E+00  0.4000E+01  0.4000E+01
     -8.620  0.0000E+00  0.0000E+00  0.4000E+01  0.4000E+01
     -8.529  0.0000E+00  0.0000E+00  0.4000E+01  0.4000E+01
     -8.438  0.0000E+00  0.0000E+00  0.4000E+01  0.4000E+01
     -8.347  0.0000E+00  0.0000E+00  0.4000E+01  0.4000E+01
     -8.256  0.0000E+00  0.0000E+00  0.4000E+01  0.4000E+01
     -8.165  0.0000E+00  0.0000E+00  0.4000E+01  0.4000E+01
     -8.074  0.0000E+00  0.0000E+00  0.4000E+01  0.4000E+01
     -7.983  0.0000E+00  0.0000E+00  0.4000E+01  0.4000E+01
     -7.892  0.0000E+00  0.0000E+00  0.4000E+01  0.4000E+01
     -7.801  0.0000E+00  0.0000E+00  0.4000E+01  0.4000E+01
     -7.710  0.0000E+00  0.0000E+00  0.4000E+01  0.4000E+01
     -7.619  0.0000E+00  0.0000E+00  0.4000E+01  0.4000E+01
     -7.528  0.0000E+00  0.0000E+00  0.4000E+01  0.4000E+01
     -7.437  0.0000E+00  0.0000E+00  0.4000E+01  0.4000E+01
     -7.346  0.0000E+00  0.0000E+00  0.4000E+01  0.4000E+01
     -7.255  0.0000E+00  0.0000E+00  0.4000E+01  0.4000E+01
     -7.164  0.0000E+00  0.0000E+00  0.4000E+01  0.4000E+01
     -7.073  0.0000E+00  0.0000E+00  0.4000E+01  0.4000E+01
     -6.982  0.0000E+00  0.0000E+00  0.4000E+01  0.4000E+01
     -6.891  0.0000E+00  0.0000E+00  0.4000E+01  0.4000E+01
     -6.800  0.0000E+00  0.0000E+00  0.4000E+01  0.4000E+01
     -6.709  0.0000E+00  0.0000E+00  0.4000E+01  0.4000E+01
     -6.618  0.0000E+00  0.0000E+00  0.4000E+01  0.4000E+01
     -6.527  0.0000E+00  0.0000E+00  0.4000E+01  0.4000E+01
     -6.436  0.0000E+00  0.0000E+00  0.4000E+01  0.4000E+01
     -6.345  0.0000E+00  0.0000E+00  0.4000E+01  0.4000E+01
     -6.254  0.0000E+00  0.0000E+00  0.4000E+01  0.4000E+01
     -6.163  0.0000E+00  0.0000E+00  0.4000E+01  0.4000E+01
     -6.072  0.0000E+00  0.0000E+00  0.4000E+01  0.4000E+01
     -5.981  0.0000E+00  0.0000E+00  0.4000E+01  0.4000E+01
     -5.891  0.0000E+00  0.0000E+00  0.4000E+01  0.4000E+01
     -5.800  0.0000E+00  0.0000E+00  0.4000E+01  0.4000E+01
     -5.709  0.0000E+00  0.0000E+00  0.4000E+01  0.4000E+01
     -5.618  0.0000E+00  0.0000E+00  0.4000E+01  0.4000E+01
     -5.527  0.0000E+00  0.0000E+00  0.4000E+01  0.4000E+01
     -5.436  0.0000E+00  0.0000E+00  0.4000E+01  0.4000E+01
     -5.345  0.0000E+00  0.0000E+00  0.4000E+01  0.4000E+01
     -5.254  0.0000E+00  0.0000E+00  0.4000E+01  0.4000E+01
     -5.163  0.0000E+00  0.0000E+00  0.4000E+01  0.4000E+01
     -5.072  0.0000E+00  0.0000E+00  0.4000E+01  0.4000E+01
     -4.981  0.0000E+00  0.0000E+00  0.4000E+01  0.4000E+01
     -4.890  0.0000E+00  0.0000E+00  0.4000E+01  0.4000E+01
     -4.799  0.0000E+00  0.0000E+00  0.4000E+01  0.4000E+01
     -4.708  0.0000E+00  0.0000E+00  0.4000E+01  0.4000E+01
     -4.617  0.0000E+00  0.0000E+00  0.4000E+01  0.4000E+01
     -4.526  0.0000E+00  0.0000E+00  0.4000E+01  0.4000E+01
     -4.435  0.0000E+00  0.0000E+00  0.4000E+01  0.4000E+01
     -4.344  0.0000E+00  0.0000E+00  0.4000E+01  0.4000E+01
     -4.253  0.0000E+00  0.0000E+00  0.4000E+01  0.4000E+01
     -4.162  0.0000E+00  0.0000E+00  0.4000E+01  0.4000E+01
     -4.071  0.0000E+00  0.0000E+00  0.4000E+01  0.4000E+01
     -3.980  0.0000E+00  0.0000E+00  0.4000E+01  0.4000E+01
     -3.889  0.0000E+00  0.0000E+00  0.4000E+01  0.4000E+01
     -3.798  0.0000E+00  0.0000E+00  0.4000E+01  0.4000E+01
     -3.707  0.0000E+00  0.0000E+00  0.4000E+01  0.4000E+01
     -3.616  0.0000E+00  0.0000E+00  0.4000E+01  0.4000E+01
     -3.525  0.0000E+00  0.0000E+00  0.4000E+01  0.4000E+01
     -3.434  0.0000E+00  0.0000E+00  0.4000E+01  0.4000E+01
     -3.343  0.0000E+00  0.0000E+00  0.4000E+01  0.4000E+01
     -3.252  0.0000E+00  0.0000E+00  0.4000E+01  0.4000E+01
     -3.161  0.0000E+00  0.0000E+00  0.4000E+01  0.4000E+01
     -3.070  0.0000E+00  0.0000E+00  0.4000E+01  0.4000E+01
     -2.979  0.0000E+00  0.0000E+00  0.4000E+01  0.4000E+01
     -2.888  0.0000E+00  0.0000E+00  0.4000E+01  0.4000E+01
     -2.797  0.0000E+00  0.0000E+00  0.4000E+01  0.4000E+01
     -2.706  0.0000E+00  0.0000E+00  0.4000E+01  0.4000E+01
     -2.615  0.0000E+00  0.0000E+00  0.4000E+01  0.4000E+01
     -2.524  0.0000E+00  0.0000E+00  0.4000E+01  0.4000E+01
     -2.433  0.0000E+00  0.0000E+00  0.4000E+01  0.4000E+01
     -2.342  0.0000E+00  0.0000E+00  0.4000E+01  0.4000E+01
     -2.251  0.0000E+00  0.0000E+00  0.4000E+01  0.4000E+01
     -2.160  0.0000E+00  0.0000E+00  0.4000E+01  0.4000E+01
     -2.069  0.0000E+00  0.0000E+00  0.4000E+01  0.4000E+01
     -1.978  0.0000E+00  0.0000E+00  0.4000E+01  0.4000E+01
     -1.887  0.0000E+00  0.0000E+00  0.4000E+01  0.4000E+01
     -1.796  0.0000E+00  0.0000E+00  0.4000E+01  0.4000E+01
     -1.705  0.0000E+00  0.0000E+00  0.4000E+01  0.4000E+01
     -1.614  0.0000E+00  0.0000E+00  0.4000E+01  0.4000E+01
     -1.523  0.0000E+00  0.0000E+00  0.4000E+01  0.4000E+01
     -1.432  0.0000E+00  0.0000E+00  0.4000E+01  0.4000E+01
     -1.341  0.0000E+00  0.0000E+00  0.4000E+01  0.4000E+01
     -1.250  0.0000E+00  0.0000E+00  0.4000E+01  0.4000E+01
     -1.159  0.0000E+00  0.0000E+00  0.4000E+01  0.4000E+01
     -1.068  0.0000E+00  0.0000E+00  0.4000E+01  0.4000E+01
     -0.977  0.0000E+00  0.0000E+00  0.4000E+01  0.4000E+01
     -0.886  0.0000E+00  0.0000E+00  0.4000E+01  0.4000E+01
     -0.795  0.0000E+00  0.0000E+00  0.4000E+01  0.4000E+01
     -0.704  0.0000E+00  0.0000E+00  0.4000E+01  0.4000E+01
     -0.613  0.0000E+00  0.0000E+00  0.4000E+01  0.4000E+01
     -0.522  0.0000E+00  0.0000E+00  0.4000E+01  0.4000E+01
     -0.431  0.0000E+00  0.0000E+00  0.4000E+01  0.4000E+01
     -0.341  0.0000E+00  0.3051E-14  0.4000E+01  0.4000E+01
     -0.250  0.1096E+02  0.1099E+02  0.4997E+01  0.5000E+01
     -0.159  0.0000E+00  0.0000E+00  0.5000E+01  0.5000E+01
     -0.068  0.0000E+00  0.0000E+00  0.5000E+01  0.5000E+01
      0.023  0.0000E+00  0.0000E+00  0.5000E+01  0.5000E+01
      0.114  0.0000E+00  0.0000E+00  0.5000E+01  0.5000E+01
      0.205  0.0000E+00  0.0000E+00  0.5000E+01  0.5000E+01
      0.296  0.0000E+00  0.0000E+00  0.5000E+01  0.5000E+01
      0.387  0.0000E+00  0.0000E+00  0.5000E+01  0.5000E+01
      0.478  0.0000E+00  0.0000E+00  0.5000E+01  0.5000E+01
      0.569  0.0000E+00  0.8236E-05  0.5000E+01  0.5000E+01
      0.660  0.8689E+01  0.1099E+02  0.5791E+01  0.6000E+01
      0.751  0.0000E+00  0.0000E+00  0.6000E+01  0.6000E+01
      0.842  0.3171E-04  0.1392E+01  0.6000E+01  0.6127E+01
      0.933  0.2198E+02  0.0000E+00  0.8000E+01  0.8000E+01
      1.024  0.0000E+00  0.0000E+00  0.8000E+01  0.8000E+01
      1.115  0.0000E+00  0.0000E+00  0.8000E+01  0.8000E+01
      1.206  0.0000E+00  0.0000E+00  0.8000E+01  0.8000E+01
      1.297  0.0000E+00  0.0000E+00  0.8000E+01  0.8000E+01
      1.388  0.0000E+00  0.0000E+00  0.8000E+01  0.8000E+01
      1.479  0.0000E+00  0.0000E+00  0.8000E+01  0.8000E+01
      1.570  0.0000E+00  0.0000E+00  0.8000E+01  0.8000E+01
      1.661  0.0000E+00  0.0000E+00  0.8000E+01  0.8000E+01
      1.752  0.0000E+00  0.0000E+00  0.8000E+01  0.8000E+01
      1.843  0.0000E+00  0.0000E+00  0.8000E+01  0.8000E+01
      1.934  0.0000E+00  0.0000E+00  0.8000E+01  0.8000E+01
      2.025  0.0000E+00  0.0000E+00  0.8000E+01  0.8000E+01
      2.116  0.0000E+00  0.0000E+00  0.8000E+01  0.8000E+01
      2.11605981    -25.17906217  301     -8.99685434      1.00000000
    -25.179  0.0000E+00  0.0000E+00  0.0000E+00  0.0000E+00  0.0000E+00  0.0000E+00  0.0000E+00  0.0000E+00  0.0000E+00  0.0000E+00  0.0000E+00  0.0000E+00  0.0000E+00  0.0000E+00  0.0000E+00  0.0000E+00  0.0000E+00  0.0000E+00
    -25.088  0.0000E+00  0.0000E+00  0.0000E+00  0.0000E+00  0.0000E+00  0.0000E+00  0.0000E+00  0.0000E+00  0.0000E+00  0.0000E+00  0.0000E+00  0.0000E+00  0.0000E+00  0.0000E+00  0.0000E+00  0.0000E+00  0.0000E+00  0.0000E+00
    -24.997  0.0000E+00  0.0000E+00  0.0000E+00  0.0000E+00  0.0000E+00  0.0000E+00  0.0000E+00  0.0000E+00  0.0000E+00  0.0000E+00  0.0000E+00  0.0000E+00  0.0000E+00  0.0000E+00  0.0000E+00  0.0000E+00  0.0000E+00  0.0000E+00
    -24.906  0.0000E+00  0.0000E+00  0.0000E+00  0.0000E+00  0.0000E+00  0.0000E+00  0.0000E+00  0.0000E+00  0.0000E+00  0.0000E+00  0.0000E+00  0.0000E+00  0.0000E+00  0.0000E+00  0.0000E+00  0.0000E+00  0.0000E+00  0.0000E+00
    -24.815  0.0000E+00  0.0000E+00  0.0000E+00  0.0000E+00  0.0000E+00  0.0000E+00  0.0000E+00  0.0000E+00  0.0000E+00  0.0000E+00  0.0000E+00  0.0000E+00  0.0000E+00  0.0000E+00  0.0000E+00  0.0000E+00  0.0000E+00  0.0000E+00
    -24.724  0.0000E+00  0.0000E+00  0.0000E+00  0.0000E+00  0.0000E+00  0.0000E+00  0.0000E+00  0.0000E+00  0.0000E+00  0.0000E+00  0.0000E+00  0.0000E+00  0.0000E+00  0.0000E+00  0.0000E+00  0.0000E+00  0.0000E+00  0.0000E+00
    -24.633  0.0000E+00  0.0000E+00  0.0000E+00  0.0000E+00  0.0000E+00  0.0000E+00  0.0000E+00  0.0000E+00  0.0000E+00  0.0000E+00  0.0000E+00  0.0000E+00  0.0000E+00  0.0000E+00  0.0000E+00  0.0000E+00  0.0000E+00  0.0000E+00
    -24.542  0.0000E+00  0.0000E+00  0.0000E+00  0.0000E+00  0.0000E+00  0.0000E+00  0.0000E+00  0.0000E+00  0.0000E+00  0.0000E+00  0.0000E+00  0.0000E+00  0.0000E+00  0.0000E+00  0.0000E+00  0.0000E+00  0.0000E+00  0.0000E+00
    -24.451  0.0000E+00  0.0000E+00  0.0000E+00  0.0000E+00  0.0000E+00  0.0000E+00  0.0000E+00  0.0000E+00  0.0000E+00  0.0000E+00  0.0000E+00  0.0000E+00  0.0000E+00  0.0000E+00  0.0000E+00  0.0000E+00  0.0000E+00  0.0000E+00
    -24.360  0.0000E+00  0.0000E+00  0.0000E+00  0.0000E+00  0.0000E+00  0.0000E+00  0.0000E+00  0.0000E+00  0.0000E+00  0.0000E+00  0.0000E+00  0.0000E+00  0.0000E+00  0.0000E+00  0.0000E+00  0.0000E+00  0.0000E+00  0.0000E+00
    -24.269  0.0000E+00  0.0000E+00  0.0000E+00  0.0000E+00  0.0000E+00  0.0000E+00  0.0000E+00  0.0000E+00  0.0000E+00  0.0000E+00  0.0000E+00  0.0000E+00  0.0000E+00  0.0000E+00  0.0000E+00  0.0000E+00  0.0000E+00  0.0000E+00
    -24.178  0.0000E+00  0.0000E+00  0.0000E+00  0.0000E+00  0.0000E+00  0.0000E+00  0.0000E+00  0.0000E+00  0.0000E+00  0.0000E+00  0.0000E+00  0.0000E+00  0.0000E+00  0.0000E+00  0.0000E+00  0.0000E+00  0.0000E+00  0.0000E+00
    -24.087  0.0000E+00  0.0000E+00  0.0000E+00  0.0000E+00  0.0000E+00  0.0000E+00  0.0000E+00  0.0000E+00  0.0000E+00  0.0000E+00  0.0000E+00  0.0000E+00  0.0000E+00  0.0000E+00  0.0000E+00  0.0000E+00  0.0000E+00  0.0000E+00
    -23.996  0.1010E-14  0.1010E-14  0.6350E-33  0.4133E-35  0.2267E-32  0.1464E-34  0.2600E-32  0.9653E-35  0.0000E+00  0.0000E+00  0.0000E+00  0.0000E+00  0.0000E+00  0.0000E+00  0.0000E+00  0.0000E+00  0.0000E+00  0.0000E+00
    -23.905  0.9101E+01  0.9101E+01  0.5719E-17  0.3723E-19  0.2042E-16  0.1319E-18  0.2342E-16  0.8694E-19  0.0000E+00  0.0000E+00  0.0000E+00  0.0000E+00  0.0000E+00  0.0000E+00  0.0000E+00  0.0000E+00  0.0000E+00  0.0000E+00
    -23.814  0.0000E+00  0.0000E+00  0.0000E+00  0.0000E+00  0.0000E+00  0.0000E+00  0.0000E+00  0.0000E+00  0.0000E+00  0.0000E+00  0.0000E+00  0.0000E+00  0.0000E+00  0.0000E+00  0.0000E+00  0.0000E+00  0.0000E+00  0.0000E+00
    -23.723  0.0000E+00  0.0000E+00  0.0000E+00  0.0000E+00  0.0000E+00  0.0000E+00  0.0000E+00  0.0000E+00  0.0000E+00  0.0000E+00  0.0000E+00  0.0000E+00  0.0000E+00  0.0000E+00  0.0000E+00  0.0000E+00  0.0000E+00  0.0000E+00
    -23.632  0.0000E+00  0.0000E+00  0.0000E+00  0.0000E+00  0.0000E+00  0.0000E+00  0.0000E+00  0.0000E+00  0.0000E+00  0.0000E+00  0.0000E+00  0.0000E+00  0.0000E+00  0.0000E+00  0.0000E+00  0.0000E+00  0.0000E+00  0.0000E+00
    -23.541  0.0000E+00  0.0000E+00  0.0000E+00  0.0000E+00  0.0000E+00  0.0000E+00  0.0000E+00  0.0000E+00  0.0000E+00  0.0000E+00  0.0000E+00  0.0000E+00  0.0000E+00  0.0000E+00  0.0000E+00  0.0000E+00  0.0000E+00  0.0000E+00
    -23.450  0.0000E+00  0.0000E+00  0.0000E+00  0.0000E+00  0.0000E+00  0.0000E+00  0.0000E+00  0.0000E+00  0.0000E+00  0.0000E+00  0.0000E+00  0.0000E+00  0.0000E+00  0.0000E+00  0.0000E+00  0.0000E+00  0.0000E+00  0.0000E+00
    -23.359  0.0000E+00  0.0000E+00  0.0000E+00  0.0000E+00  0.0000E+00  0.0000E+00  0.0000E+00  0.0000E+00  0.0000E+00  0.0000E+00  0.0000E+00  0.0000E+00  0.0000E+00  0.0000E+00  0.0000E+00  0.0000E+00  0.0000E+00  0.0000E+00
    -23.268  0.0000E+00  0.0000E+00  0.0000E+00  0.0000E+00  0.0000E+00  0.0000E+00  0.0000E+00  0.0000E+00  0.0000E+00  0.0000E+00  0.0000E+00  0.0000E+00  0.0000E+00  0.0000E+00  0.0000E+00  0.0000E+00  0.0000E+00  0.0000E+00
    -23.177  0.0000E+00  0.0000E+00  0.0000E+00  0.0000E+00  0.0000E+00  0.0000E+00  0.0000E+00  0.0000E+00  0.0000E+00  0.0000E+00  0.0000E+00  0.0000E+00  0.0000E+00  0.0000E+00  0.0000E+00  0.0000E+00  0.0000E+00  0.0000E+00
    -23.086  0.0000E+00  0.0000E+00  0.0000E+00  0.0000E+00  0.0000E+00  0.0000E+00  0.0000E+00  0.0000E+00  0.0000E+00  0.0000E+00  0.0000E+00  0.0000E+00  0.0000E+00  0.0000E+00  0.0000E+00  0.0000E+00  0.0000E+00  0.0000E+00
    -22.995  0.0000E+00  0.0000E+00  0.0000E+00  0.0000E+00  0.0000E+00  0.0000E+00  0.0000E+00  0.0000E+00  0.0000E+00  0.0000E+00  0.0000E+00  0.0000E+00  0.0000E+00  0.0000E+00  0.0000E+00  0.0000E+00  0.0000E+00  0.0000E+00
    -22.904  0.0000E+00  0.0000E+00  0.0000E+00  0.0000E+00  0.0000E+00  0.0000E+00  0.0000E+00  0.0000E+00  0.0000E+00  0.0000E+00  0.0000E+00  0.0000E+00  0.0000E+00  0.0000E+00  0.0000E+00  0.0000E+00  0.0000E+00  0.0000E+00
    -22.813  0.0000E+00  0.0000E+00  0.0000E+00  0.0000E+00  0.0000E+00  0.0000E+00  0.0000E+00  0.0000E+00  0.0000E+00  0.0000E+00  0.0000E+00  0.0000E+00  0.0000E+00  0.0000E+00  0.0000E+00  0.0000E+00  0.0000E+00  0.0000E+00
    -22.723  0.0000E+00  0.0000E+00  0.0000E+00  0.0000E+00  0.0000E+00  0.0000E+00  0.0000E+00  0.0000E+00  0.0000E+00  0.0000E+00  0.0000E+00  0.0000E+00  0.0000E+00  0.0000E+00  0.0000E+00  0.0000E+00  0.0000E+00  0.0000E+00
    -22.632  0.0000E+00  0.0000E+00  0.0000E+00  0.0000E+00  0.0000E+00  0.0000E+00  0.0000E+00  0.0000E+00  0.0000E+00  0.0000E+00  0.0000E+00  0.0000E+00  0.0000E+00  0.0000E+00  0.0000E+00  0.0000E+00  0.0000E+00  0.0000E+00
    -22.541  0.0000E+00  0.0000E+00  0.0000E+00  0.0000E+00  0.0000E+00  0.0000E+00  0.0000E+00  0.0000E+00  0.0000E+00  0.0000E+00  0.0000E+00  0.0000E+00  0.0000E+00  0.0000E+00  0.0000E+00  0.0000E+00  0.0000E+00  0.0000E+00
    -22.450  0.0000E+00  0.0000E+00  0.0000E+00  0.0000E+00  0.0000E+00  0.0000E+00  0.0000E+00  0.0000E+00  0.0000E+00  0.0000E+00  0.0000E+00  0.0000E+00  0.0000E+00  0.0000E+00  0.0000E+00  0.0000E+00  0.0000E+00  0.0000E+00
    -22.359  0.0000E+00  0.0000E+00  0.0000E+00  0.0000E+00  0.0000E+00  0.0000E+00  0.0000E+00  0.0000E+00  0.0000E+00  0.0000E+00  0.0000E+00  0.0000E+00  0.0000E+00  0.0000E+00  0.0000E+00  0.0000E+00  0.0000E+00  0.0000E+00
    -22.268  0.0000E+00  0.0000E+00  0.0000E+00  0.0000E+00  0.0000E+00  0.0000E+00  0.0000E+00  0.0000E+00  0.0000E+00  0.0000E+00  0.0000E+00  0.0000E+00  0.0000E+00  0.0000E+00  0.0000E+00  0.0000E+00  0.0000E+00  0.0000E+00
    -22.177  0.0000E+00  0.0000E+00  0.0000E+00  0.0000E+00  0.0000E+00  0.0000E+00  0.0000E+00  0.0000E+00  0.0000E+00  0.0000E+00  0.0000E+00  0.0000E+00  0.0000E+00  0.0000E+00  0.0000E+00  0.0000E+00  0.0000E+00  0.0000E+00
    -22.086  0.0000E+00  0.0000E+00  0.0000E+00  0.0000E+00  0.0000E+00  0.0000E+00  0.0000E+00  0.0000E+00  0.0000E+00  0.0000E+00  0.0000E+00  0.0000E+00  0.0000E+00  0.0000E+00  0.0000E+00  0.0000E+00  0.0000E+00  0.0000E+00
    -21.995  0.0000E+00  0.0000E+00  0.0000E+00  0.0000E+00  0.0000E+00  0.0000E+00  0.0000E+00  0.0000E+00  0.0000E+00  0.0000E+00  0.0000E+00  0.0000E+00  0.0000E+00  0.0000E+00  0.0000E+00  0.0000E+00  0.0000E+00  0.0000E+00
    -21.904  0.0000E+00  0.0000E+00  0.0000E+00  0.0000E+00  0.0000E+00  0.0000E+00  0.0000E+00  0.0000E+00  0.0000E+00  0.0000E+00  0.0000E+00  0.0000E+00  0.0000E+00  0.0000E+00  0.0000E+00  0.0000E+00  0.0000E+00  0.0000E+00
    -21.813  0.0000E+00  0.0000E+00  0.0000E+00  0.0000E+00  0.0000E+00  0.0000E+00  0.0000E+00  0.0000E+00  0.0000E+00  0.0000E+00  0.0000E+00  0.0000E+00  0.0000E+00  0.0000E+00  0.0000E+00  0.0000E+00  0.0000E+00  0.0000E+00
    -21.722  0.0000E+00  0.0000E+00  0.0000E+00  0.0000E+00  0.0000E+00  0.0000E+00  0.0000E+00  0.0000E+00  0.0000E+00  0.0000E+00  0.0000E+00  0.0000E+00  0.0000E+00  0.0000E+00  0.0000E+00  0.0000E+00  0.0000E+00  0.0000E+00
    -21.631  0.0000E+00  0.0000E+00  0.0000E+00  0.0000E+00  0.0000E+00  0.0000E+00  0.0000E+00  0.0000E+00  0.0000E+00  0.0000E+00  0.0000E+00  0.0000E+00  0.0000E+00  0.0000E+00  0.0000E+00  0.0000E+00  0.0000E+00  0.0000E+00
    -21.540  0.0000E+00  0.0000E+00  0.0000E+00  0.0000E+00  0.0000E+00  0.0000E+00  0.0000E+00  0.0000E+00  0.0000E+00  0.0000E+00  0.0000E+00  0.0000E+00  0.0000E+00  0.0000E+00  0.0000E+00  0.0000E+00  0.0000E+00  0.0000E+00
    -21.449  0.0000E+00  0.0000E+00  0.0000E+00  0.0000E+00  0.0000E+00  0.0000E+00  0.0000E+00  0.0000E+00  0.0000E+00  0.0000E+00  0.0000E+00  0.0000E+00  0.0000E+00  0.0000E+00  0.0000E+00  0.0000E+00  0.0000E+00  0.0000E+00
    -21.358  0.0000E+00  0.0000E+00  0.0000E+00  0.0000E+00  0.0000E+00  0.0000E+00  0.0000E+00  0.0000E+00  0.0000E+00  0.0000E+00  0.0000E+00  0.0000E+00  0.0000E+00  0.0000E+00  0.0000E+00  0.0000E+00  0.0000E+00  0.0000E+00
    -21.267  0.0000E+00  0.0000E+00  0.0000E+00  0.0000E+00  0.0000E+00  0.0000E+00  0.0000E+00  0.0000E+00  0.0000E+00  0.0000E+00  0.0000E+00  0.0000E+00  0.0000E+00  0.0000E+00  0.0000E+00  0.0000E+00  0.0000E+00  0.0000E+00
    -21.176  0.0000E+00  0.0000E+00  0.0000E+00  0.0000E+00  0.0000E+00  0.0000E+00  0.0000E+00  0.0000E+00  0.0000E+00  0.0000E+00  0.0000E+00  0.0000E+00  0.0000E+00  0.0000E+00  0.0000E+00  0.0000E+00  0.0000E+00  0.0000E+00
    -21.085  0.0000E+00  0.0000E+00  0.0000E+00  0.0000E+00  0.0000E+00  0.0000E+00  0.0000E+00  0.0000E+00  0.0000E+00  0.0000E+00  0.0000E+00  0.0000E+00  0.0000E+00  0.0000E+00  0.0000E+00  0.0000E+00  0.0000E+00  0.0000E+00
    -20.994  0.0000E+00  0.0000E+00  0.0000E+00  0.0000E+00  0.0000E+00  0.0000E+00  0.0000E+00  0.0000E+00  0.0000E+00  0.0000E+00  0.0000E+00  0.0000E+00  0.0000E+00  0.0000E+00  0.0000E+00  0.0000E+00  0.0000E+00  0.0000E+00
    -20.903  0.0000E+00  0.0000E+00  0.0000E+00  0.0000E+00  0.0000E+00  0.0000E+00  0.0000E+00  0.0000E+00  0.0000E+00  0.0000E+00  0.0000E+00  0.0000E+00  0.0000E+00  0.0000E+00  0.0000E+00  0.0000E+00  0.0000E+00  0.0000E+00
    -20.812  0.0000E+00  0.0000E+00  0.0000E+00  0.0000E+00  0.0000E+00  0.0000E+00  0.0000E+00  0.0000E+00  0.0000E+00  0.0000E+00  0.0000E+00  0.0000E+00  0.0000E+00  0.0000E+00  0.0000E+00  0.0000E+00  0.0000E+00  0.0000E+00
    -20.721  0.0000E+00  0.0000E+00  0.0000E+00  0.0000E+00  0.0000E+00  0.0000E+00  0.0000E+00  0.0000E+00  0.0000E+00  0.0000E+00  0.0000E+00  0.0000E+00  0.0000E+00  0.0000E+00  0.0000E+00  0.0000E+00  0.0000E+00  0.0000E+00
    -20.630  0.0000E+00  0.0000E+00  0.0000E+00  0.0000E+00  0.0000E+00  0.0000E+00  0.0000E+00  0.0000E+00  0.0000E+00  0.0000E+00  0.0000E+00  0.0000E+00  0.0000E+00  0.0000E+00  0.0000E+00  0.0000E+00  0.0000E+00  0.0000E+00