    1    1    1    2
  0.1728000E+04  0.1200000E-08  0.1200000E-08  0.1200000E-08  0.5000000E-15
  1.000000000000000E-004
  CAR 
 unknown system                          
      6      1      8
 
  0.0000000E+00  0.0000000E+00  0.0000000E+00  0.1000000E+01
    1      -23.938312    -23.938375   1.000000   1.000000
    2       -8.999771     -9.000030   0.660009   0.673324
    3       -8.999771     -9.000030   0.660009   0.673324
    4       -8.999771     -9.000030   0.660009   0.673324
    5       -0.268874     -0.283293   0.000000   0.000000
    6        0.654605      0.603358   0.000000   0.000000
    7        0.875371      0.853088   0.000000   0.000000
    8        0.875372      0.853090   0.000000   0.000000
