       N       E                     dE             d eps       ncg     rms          rms(c)
DAV:   1     0.483233520591E+02    0.48323E+02   -0.97249E+02    48   0.263E+02
DAV:   2     0.619170450750E+01   -0.42132E+02   -0.42132E+02    64   0.561E+01
DAV:   3     0.700047245252E-01   -0.61217E+01   -0.61202E+01    32   0.351E+01
DAV:   4    -0.188971324458E-01   -0.88902E-01   -0.78279E-01    32   0.602E+00
DAV:   5    -0.212626009626E-01   -0.23655E-02   -0.23523E-02    32   0.741E-01    0.315E-01
DAV:   6    -0.231150957661E-01   -0.18525E-02   -0.39374E-03    32   0.513E-01    0.151E-01
DAV:   7    -0.251791178671E-01   -0.20640E-02   -0.26590E-04    32   0.110E-01    0.621E+00
DAV:   8    -0.130630932834E-01    0.12116E-01   -0.26886E-04    32   0.219E-01    0.744E-01
DAV:   9    -0.222176343779E-01   -0.91545E-02   -0.14123E-04    32   0.159E-01    0.105E+00
DAV:  10    -0.235638348977E-01   -0.13462E-02   -0.10863E-04    32   0.129E-01    0.537E-01
DAV:  11    -0.236478192701E-01   -0.83984E-04   -0.13735E-05    32   0.529E-02
   1 F= -.23647819E-01 E0= -.15935996E-01  d E =-.154236E-01  mag=     0.0001
