 vasp.5.4.1 05Feb16 (build Feb 08 2018 09:21:51) complex                        
  
 executed on             LinuxIFC date 2019.11.08  08:09:05
 running on    8 total cores
 distrk:  each k-point on    8 cores,    1 groups
 distr:  one band on NCORES_PER_BAND=   1 cores,    8 groups


--------------------------------------------------------------------------------------------------------


 INCAR:
 POTCAR:    PAW_PBE O 08Apr2002                   

 ----------------------------------------------------------------------------- 
|                                                                             |
|           W    W    AA    RRRRR   N    N  II  N    N   GGGG   !!!           |
|           W    W   A  A   R    R  NN   N  II  NN   N  G    G  !!!           |
|           W    W  A    A  R    R  N N  N  II  N N  N  G       !!!           |
|           W WW W  AAAAAA  RRRRR   N  N N  II  N  N N  G  GGG   !            |
|           WW  WW  A    A  R   R   N   NN  II  N   NN  G    G                |
|           W    W  A    A  R    R  N    N  II  N    N   GGGG   !!!           |
|                                                                             |
|      For optimal performance we recommend to set                            |
|        NCORE= 4 - approx SQRT( number of cores)                             |
|      NCORE specifies how many cores store one orbital (NPAR=cpu/NCORE).     |
|      This setting can  greatly improve the performance of VASP for DFT.     |
|      The default, NPAR=number of cores might be grossly inefficient         |
|      on modern multi-core architectures or massively parallel machines.     |
|      Do your own testing !!!!                                               |
|      Unfortunately you need to use the default for GW and RPA calculations. |
|      (for HF NCORE is supported but not extensively tested yet)             |
|                                                                             |
 ----------------------------------------------------------------------------- 

 POTCAR:    PAW_PBE O 08Apr2002                   
   VRHFIN =O: s2p4                                                              
   LEXCH  = PE                                                                  
   EATOM  =   432.3788 eV,   31.7789 Ry                                         
                                                                                
   TITEL  = PAW_PBE O 08Apr2002                                                 
   LULTRA =        F    use ultrasoft PP ?                                      
   IUNSCR =        1    unscreen: 0-lin 1-nonlin 2-no                           
   RPACOR =    1.200    partial core radius                                     
   POMASS =   16.000; ZVAL   =    6.000    mass and valenz                      
   RCORE  =    1.520    outmost cutoff radius                                   
   RWIGS  =    1.550; RWIGS  =    0.820    wigner-seitz radius (au A)           
   ENMAX  =  400.000; ENMIN  =  300.000 eV                                      
   ICORE  =        2    local potential                                         
   LCOR   =        T    correct aug charges                                     
   LPAW   =        T    paw PP                                                  
   EAUG   =  605.392                                                            
   DEXC   =    0.000                                                            
   RMAX   =    1.553    core radius for proj-oper                               
   RAUG   =    1.300    factor for augmentation sphere                          
   RDEP   =    1.550    radius for radial grids                                 
   RDEPT  =    1.329    core radius for aug-charge                              
                                                                                
   Atomic configuration                                                         
    4 entries                                                                   
     n  l   j            E        occ.                                          
     1  0  0.50      -514.6923   2.0000                                         
     2  0  0.50       -23.9615   2.0000                                         
     2  1  0.50        -9.0305   4.0000                                         
     3  2  1.50        -9.5241   0.0000                                         
   Description                                                                  
     l       E           TYP  RCUT    TYP  RCUT                                 
     0    -23.9615318     23  1.200                                             
     0     -9.5240782     23  1.200                                             
     1     -9.0304911     23  1.520                                             
     1      8.1634956     23  1.520                                             
     2     -9.5240782      7  1.500                                             
  local pseudopotential read in
  partial core-charges read in
  partial kinetic energy density read in
  kinetic energy density of atom read in
  atomic valenz-charges read in
  non local Contribution for L=           0  read in
    real space projection operators read in
  non local Contribution for L=           0  read in
    real space projection operators read in
  non local Contribution for L=           1  read in
    real space projection operators read in
  non local Contribution for L=           1  read in
    real space projection operators read in
    PAW grid and wavefunctions read in
 
   number of l-projection  operators is LMAX  =           4
   number of lm-projection operators is LMMAX =           8
 
  PAW_PBE O 08Apr2002                   :
 energy of atom  1       EATOM= -432.3788
 kinetic energy error for atom=    0.1156 (will be added to EATOM!!)
 
 
 POSCAR:  O                                      
  positions in cartesian coordinates
  No initial velocities read in
 exchange correlation table for  LEXCH =        8
   RHO(1)=    0.500       N(1)  =     2000
   RHO(2)=  100.500       N(2)  =     4000
 


--------------------------------------------------------------------------------------------------------


 ion  position               nearest neighbor table
   1  0.500  0.500  0.500-
 
  LATTYP: Found a simple cubic cell.
 ALAT       =    12.0000000000
  
  Lattice vectors:
  
 A1 = (  12.0000000000,   0.0000000000,   0.0000000000)
 A2 = (   0.0000000000,  12.0000000000,   0.0000000000)
 A3 = (   0.0000000000,   0.0000000000,  12.0000000000)


Analysis of symmetry for initial positions (statically):
=====================================================================
 Subroutine PRICEL returns:
 Original cell was already a primitive cell.
 

 Routine SETGRP: Setting up the symmetry group for a 
 simple cubic supercell.


 Subroutine GETGRP returns: Found 48 space group operations
 (whereof 48 operations were pure point group operations)
 out of a pool of 48 trial point group operations.


The static configuration has the point symmetry O_h .


Analysis of symmetry for dynamics (positions and initial velocities):
=====================================================================
 Subroutine PRICEL returns:
 Original cell was already a primitive cell.
 

 Routine SETGRP: Setting up the symmetry group for a 
 simple cubic supercell.


 Subroutine GETGRP returns: Found 48 space group operations
 (whereof 48 operations were pure point group operations)
 out of a pool of 48 trial point group operations.


The dynamic configuration has the point symmetry O_h .


Analysis of structural, dynamic, and magnetic symmetry:
=====================================================================
 Subroutine PRICEL returns:
 Original cell was already a primitive cell.
 

 Routine SETGRP: Setting up the symmetry group for a 
 simple cubic supercell.


 Subroutine GETGRP returns: Found 48 space group operations
 (whereof 48 operations were pure point group operations)
 out of a pool of 48 trial point group operations.


The magnetic configuration has the point symmetry O_h .


 Subroutine INISYM returns: Found 48 space group operations
 (whereof 48 operations are pure point group operations),
 and found     1 'primitive' translations

 
 
 KPOINTS: KPOINTS created by Atomic Simulation Env

Automatic generation of k-mesh.
Space group operators:
 irot       det(A)        alpha          n_x          n_y          n_z        tau_x        tau_y        tau_z
    1     1.000000     0.000000     1.000000     0.000000     0.000000     0.000000     0.000000     0.000000
    2    -1.000000     0.000000     1.000000     0.000000     0.000000     0.000000     0.000000     0.000000
    3     1.000000   120.000000    -0.577350    -0.577350    -0.577350     0.000000     0.000000     0.000000
    4    -1.000000   120.000000    -0.577350    -0.577350    -0.577350     0.000000     0.000000     0.000000
    5     1.000000   120.000000     0.577350     0.577350     0.577350     0.000000     0.000000     0.000000
    6    -1.000000   120.000000     0.577350     0.577350     0.577350     0.000000     0.000000     0.000000
    7     1.000000    90.000000     0.000000     0.000000    -1.000000     0.000000     0.000000     0.000000
    8    -1.000000    90.000000     0.000000     0.000000    -1.000000     0.000000     0.000000     0.000000
    9     1.000000   180.000000     0.000000     0.707107     0.707107     0.000000     0.000000     0.000000
   10    -1.000000   180.000000     0.000000     0.707107     0.707107     0.000000     0.000000     0.000000
   11     1.000000    90.000000     0.000000     1.000000     0.000000     0.000000     0.000000     0.000000
   12    -1.000000    90.000000     0.000000     1.000000     0.000000     0.000000     0.000000     0.000000
   13     1.000000   180.000000     0.000000     0.000000     1.000000     0.000000     0.000000     0.000000
   14    -1.000000   180.000000     0.000000     0.000000     1.000000     0.000000     0.000000     0.000000
   15     1.000000   120.000000    -0.577350     0.577350     0.577350     0.000000     0.000000     0.000000
   16    -1.000000   120.000000    -0.577350     0.577350     0.577350     0.000000     0.000000     0.000000
   17     1.000000   120.000000    -0.577350     0.577350    -0.577350     0.000000     0.000000     0.000000
   18    -1.000000   120.000000    -0.577350     0.577350    -0.577350     0.000000     0.000000     0.000000
   19     1.000000    90.000000     0.000000     0.000000     1.000000     0.000000     0.000000     0.000000
   20    -1.000000    90.000000     0.000000     0.000000     1.000000     0.000000     0.000000     0.000000
   21     1.000000    90.000000    -1.000000     0.000000     0.000000     0.000000     0.000000     0.000000
   22    -1.000000    90.000000    -1.000000     0.000000     0.000000     0.000000     0.000000     0.000000
   23     1.000000   180.000000     0.707107     0.000000     0.707107     0.000000     0.000000     0.000000
   24    -1.000000   180.000000     0.707107     0.000000     0.707107     0.000000     0.000000     0.000000
   25     1.000000   120.000000     0.577350    -0.577350     0.577350     0.000000     0.000000     0.000000
   26    -1.000000   120.000000     0.577350    -0.577350     0.577350     0.000000     0.000000     0.000000
   27     1.000000   120.000000    -0.577350    -0.577350     0.577350     0.000000     0.000000     0.000000
   28    -1.000000   120.000000    -0.577350    -0.577350     0.577350     0.000000     0.000000     0.000000
   29     1.000000   180.000000     1.000000     0.000000     0.000000     0.000000     0.000000     0.000000
   30    -1.000000   180.000000     1.000000     0.000000     0.000000     0.000000     0.000000     0.000000
   31     1.000000    90.000000     0.000000    -1.000000     0.000000     0.000000     0.000000     0.000000
   32    -1.000000    90.000000     0.000000    -1.000000     0.000000     0.000000     0.000000     0.000000
   33     1.000000   180.000000     0.707107     0.707107     0.000000     0.000000     0.000000     0.000000
   34    -1.000000   180.000000     0.707107     0.707107     0.000000     0.000000     0.000000     0.000000
   35     1.000000    90.000000     1.000000     0.000000     0.000000     0.000000     0.000000     0.000000
   36    -1.000000    90.000000     1.000000     0.000000     0.000000     0.000000     0.000000     0.000000
   37     1.000000   120.000000     0.577350    -0.577350    -0.577350     0.000000     0.000000     0.000000
   38    -1.000000   120.000000     0.577350    -0.577350    -0.577350     0.000000     0.000000     0.000000
   39     1.000000   180.000000     0.000000     1.000000     0.000000     0.000000     0.000000     0.000000
   40    -1.000000   180.000000     0.000000     1.000000     0.000000     0.000000     0.000000     0.000000
   41     1.000000   120.000000     0.577350     0.577350    -0.577350     0.000000     0.000000     0.000000
   42    -1.000000   120.000000     0.577350     0.577350    -0.577350     0.000000     0.000000     0.000000
   43     1.000000   180.000000     0.000000    -0.707107     0.707107     0.000000     0.000000     0.000000
   44    -1.000000   180.000000     0.000000    -0.707107     0.707107     0.000000     0.000000     0.000000
   45     1.000000   180.000000     0.707107    -0.707107     0.000000     0.000000     0.000000     0.000000
   46    -1.000000   180.000000     0.707107    -0.707107     0.000000     0.000000     0.000000     0.000000
   47     1.000000   180.000000     0.707107     0.000000    -0.707107     0.000000     0.000000     0.000000
   48    -1.000000   180.000000     0.707107     0.000000    -0.707107     0.000000     0.000000     0.000000
 
 Subroutine IBZKPT returns following result:
 ===========================================
 
 Found      1 irreducible k-points:
 
 Following reciprocal coordinates:
            Coordinates               Weight
  0.000000  0.000000  0.000000      1.000000
 
 Following cartesian coordinates:
            Coordinates               Weight
  0.000000  0.000000  0.000000      1.000000
 


--------------------------------------------------------------------------------------------------------




 Dimension of arrays:
   k-points           NKPTS =      1   k-points in BZ     NKDIM =      1   number of bands    NBANDS=      8
   number of dos      NEDOS =    301   number of ions     NIONS =      1
   non local maximal  LDIM  =      4   non local SUM 2l+1 LMDIM =      8
   total plane-waves  NPLWV = 216000
   max r-space proj   IRMAX =      1   max aug-charges    IRDMAX=   1821
   dimension x,y,z NGX =    60 NGY =   60 NGZ =   60
   dimension x,y,z NGXF=   120 NGYF=  120 NGZF=  120
   support grid    NGXF=   120 NGYF=  120 NGZF=  120
   ions per type =               1
 NGX,Y,Z   is equivalent  to a cutoff of   8.31,  8.31,  8.31 a.u.
 NGXF,Y,Z  is equivalent  to a cutoff of  16.62, 16.62, 16.62 a.u.


 I would recommend the setting:
   dimension x,y,z NGX =    59 NGY =   59 NGZ =   59
 SYSTEM =  unknown system                          
 POSCAR =   O                                      

 Startparameter for this run:
   NWRITE =      2    write-flag & timer
   PREC   = normal    normal or accurate (medium, high low for compatibility)
   ISTART =      0    job   : 0-new  1-cont  2-samecut
   ICHARG =      2    charge: 1-file 2-atom 10-const
   ISPIN  =      2    spin polarized calculation?
   LNONCOLLINEAR =      F non collinear calculations
   LSORBIT =      F    spin-orbit coupling
   INIWAV =      1    electr: 0-lowe 1-rand  2-diag
   LASPH  =      F    aspherical Exc in radial PAW
   METAGGA=      F    non-selfconsistent MetaGGA calc.

 Electronic Relaxation 1
   ENCUT  =  400.0 eV  29.40 Ry    5.42 a.u.  19.57 19.57 19.57*2*pi/ulx,y,z
   ENINI  =  400.0     initial cutoff
   ENAUG  =  605.4 eV  augmentation charge cutoff
   NELM   =     60;   NELMIN=  2; NELMDL= -5     # of ELM steps 
   EDIFF  = 0.1E-03   stopping-criterion for ELM
   LREAL  =      F    real-space projection
   NLSPLINE    = F    spline interpolate recip. space projectors
   LCOMPAT=      F    compatible to vasp.4.4
   GGA_COMPAT  = T    GGA compatible to vasp.4.4-vasp.4.6
   LMAXPAW     = -100 max onsite density
   LMAXMIX     =    2 max onsite mixed and CHGCAR
   VOSKOWN=      0    Vosko Wilk Nusair interpolation
   ROPT   =    0.00000
 Ionic relaxation
   EDIFFG = 0.1E-02   stopping-criterion for IOM
   NSW    =      0    number of steps for IOM
   NBLOCK =      1;   KBLOCK =      1    inner block; outer block 
   IBRION =     -1    ionic relax: 0-MD 1-quasi-New 2-CG
   NFREE  =      0    steps in history (QN), initial steepest desc. (CG)
   ISIF   =      2    stress and relaxation
   IWAVPR =     10    prediction:  0-non 1-charg 2-wave 3-comb
   ISYM   =      2    0-nonsym 1-usesym 2-fastsym
   LCORR  =      T    Harris-Foulkes like correction to forces

   POTIM  = 0.5000    time-step for ionic-motion
   TEIN   =    0.0    initial temperature
   TEBEG  =    0.0;   TEEND  =   0.0 temperature during run
   SMASS  =  -3.00    Nose mass-parameter (am)
   estimated Nose-frequenzy (Omega)   =  0.10E-29 period in steps =****** mass=  -0.329E-26a.u.
   SCALEE = 1.0000    scale energy and forces
   NPACO  =    256;   APACO  = 16.0  distance and # of slots for P.C.
   PSTRESS=    0.0 pullay stress

  Mass of Ions in am
   POMASS =  16.00
  Ionic Valenz
   ZVAL   =   6.00
  Atomic Wigner-Seitz radii
   RWIGS  =  -1.00
  virtual crystal weights 
   VCA    =   1.00
   NELECT =       6.0000    total number of electrons
   NUPDOWN=      -1.0000    fix difference up-down

 DOS related values:
   EMIN   =  10.00;   EMAX   =-10.00  energy-range for DOS
   EFERMI =   0.00
   ISMEAR =     0;   SIGMA  =   0.01  broadening in eV -4-tet -1-fermi 0-gaus

 Electronic relaxation 2 (details)
   IALGO  =     38    algorithm
   LDIAG  =      T    sub-space diagonalisation (order eigenvalues)
   LSUBROT=      F    optimize rotation matrix (better conditioning)
   TURBO    =      0    0=normal 1=particle mesh
   IRESTART =      0    0=no restart 2=restart with 2 vectors
   NREBOOT  =      0    no. of reboots
   NMIN     =      0    reboot dimension
   EREF     =   0.00    reference energy to select bands
   IMIX   =      4    mixing-type and parameters
     AMIX     =   0.40;   BMIX     =  1.00
     AMIX_MAG =   1.60;   BMIX_MAG =  1.00
     AMIN     =   0.10
     WC   =   100.;   INIMIX=   1;  MIXPRE=   1;  MAXMIX= -45

 Intra band minimization:
   WEIMIN = 0.0000     energy-eigenvalue tresh-hold
   EBREAK =  0.31E-05  absolut break condition
   DEPER  =   0.30     relativ break condition  

   TIME   =   0.40     timestep for ELM

  volume/ion in A,a.u.               =    1728.00     11661.12
  Fermi-wavevector in a.u.,A,eV,Ry     =   0.247900  0.468464  0.836141  0.061455
  Thomas-Fermi vector in A             =   1.061677
 
 Write flags
   LWAVE  =      F    write WAVECAR
   LCHARG =      F    write CHGCAR
   LVTOT  =      F    write LOCPOT, total local potential
   LVHAR  =      F    write LOCPOT, Hartree potential only
   LELF   =      F    write electronic localiz. function (ELF)
   LORBIT =     11    0 simple, 1 ext, 2 COOP (PROOUT)


 Dipole corrections
   LMONO  =      F    monopole corrections only (constant potential shift)
   LDIPOL =      F    correct potential (dipole corrections)
   IDIPOL =      0    1-x, 2-y, 3-z, 4-all directions 
   EPSILON=  1.0000000 bulk dielectric constant

 Exchange correlation treatment:
   GGA     =    --    GGA type
   LEXCH   =     8    internal setting for exchange type
   VOSKOWN=      0    Vosko Wilk Nusair interpolation
   LHFCALC =     F    Hartree Fock is set to
   LHFONE  =     F    Hartree Fock one center treatment
   AEXX    =    0.0000 exact exchange contribution

 Linear response parameters
   LEPSILON=     F    determine dielectric tensor
   LRPA    =     F    only Hartree local field effects (RPA)
   LNABLA  =     F    use nabla operator in PAW spheres
   LVEL    =     F    velocity operator in full k-point grid
   LINTERFAST=   F  fast interpolation
   KINTER  =     0    interpolate to denser k-point grid
   CSHIFT  =0.1000    complex shift for real part using Kramers Kronig
   OMEGAMAX=  -1.0    maximum frequency
   DEG_THRESHOLD= 0.2000000E-02 threshold for treating states as degnerate
   RTIME   =    0.100 relaxation time in fs

 Orbital magnetization related:
   ORBITALMAG=     F  switch on orbital magnetization
   LCHIMAG   =     F  perturbation theory with respect to B field
   DQ        =  0.001000  dq finite difference perturbation B field



--------------------------------------------------------------------------------------------------------


 Static calculation
 charge density and potential will be updated during run
 spin polarized calculation
 Variant of blocked Davidson
 Davidson routine will perform the subspace rotation
 perform sub-space diagonalisation
    after iterative eigenvector-optimisation
 modified Broyden-mixing scheme, WC =      100.0
 initial mixing is a Kerker type mixing with AMIX =  0.4000 and BMIX =      1.0000
 Hartree-type preconditioning will be used
 using additional bands            5
 reciprocal scheme for non local part
 use partial core corrections
 calculate Harris-corrections to forces 
   (improved forces if not selfconsistent)
 use gradient corrections 
 use of overlap-Matrix (Vanderbilt PP)
 Gauss-broadening in eV      SIGMA  =   0.01


--------------------------------------------------------------------------------------------------------


  energy-cutoff  :      400.00
  volume of cell :     1728.00
      direct lattice vectors                 reciprocal lattice vectors
    12.000000000  0.000000000  0.000000000     0.083333333  0.000000000  0.000000000
     0.000000000 12.000000000  0.000000000     0.000000000  0.083333333  0.000000000
     0.000000000  0.000000000 12.000000000     0.000000000  0.000000000  0.083333333

  length of vectors
    12.000000000 12.000000000 12.000000000     0.083333333  0.083333333  0.083333333


 
 k-points in units of 2pi/SCALE and weight: KPOINTS created by Atomic Simulation Env
   0.00000000  0.00000000  0.00000000       1.000
 
 k-points in reciprocal lattice and weights: KPOINTS created by Atomic Simulation Env
   0.00000000  0.00000000  0.00000000       1.000
 
 position of ions in fractional coordinates (direct lattice) 
   0.50000000  0.50000000  0.50000000
 
 position of ions in cartesian coordinates  (Angst):
   6.00000000  6.00000000  6.00000000
 


--------------------------------------------------------------------------------------------------------


 k-point  1 :   0.0000 0.0000 0.0000  plane waves:   31439

 maximum and minimum number of plane-waves per node :     31439    31439

 maximum number of plane-waves:     31439
 maximum index in each direction: 
   IXMAX=   19   IYMAX=   19   IZMAX=   19
   IXMIN=  -19   IYMIN=  -19   IZMIN=  -19

 WARNING: aliasing errors must be expected set NGX to  78 to avoid them
 WARNING: aliasing errors must be expected set NGY to  78 to avoid them
 WARNING: aliasing errors must be expected set NGZ to  78 to avoid them
 aliasing errors are usually negligible using standard VASP settings
 and one can safely disregard these warnings

 serial   3D FFT for wavefunctions
 parallel 3D FFT for charge:
    minimum data exchange during FFTs selected (reduces bandwidth)


 total amount of memory used by VASP on root node    74934. kBytes
========================================================================

   base      :      30000. kBytes
   nonl-proj :       2515. kBytes
   fftplans  :       8259. kBytes
   grid      :      33148. kBytes
   one-center:          6. kBytes
   wavefun   :       1006. kBytes
 
     INWAV:  cpu time    0.0001: real time    0.0002
 Broyden mixing: mesh for mixing (old mesh)
   NGX = 39   NGY = 39   NGZ = 39
  (NGX  =120   NGY  =120   NGZ  =120)
  gives a total of  59319 points

 initial charge density was supplied:
 charge density of overlapping atoms calculated
 number of electron       6.0000000 magnetization       0.0000000
 keeping initial charge density in first step


--------------------------------------------------------------------------------------------------------


 Maximum index for augmentation-charges          226 (set IRDMAX)


--------------------------------------------------------------------------------------------------------


 First call to EWALD:  gamma=   0.148
 Maximum number of real-space cells 3x 3x 3
 Maximum number of reciprocal cells 3x 3x 3

 FEWALD executed in parallel
    FEWALD:  cpu time    0.0027: real time    0.0027


----------------------------------------- Iteration    1(   1)  ---------------------------------------


    POTLOK:  cpu time    0.3759: real time    0.3763
    SETDIJ:  cpu time    0.0111: real time    0.0111
     EDDAV:  cpu time    0.1418: real time    0.1419
       DOS:  cpu time    0.0002: real time    0.0002
    --------------------------------------------
      LOOP:  cpu time    0.5304: real time    0.5375

 eigenvalue-minimisations  :    48
 total energy-change (2. order) : 0.4832335E+02  (-0.9724938E+02)
 number of electron       6.0000000 magnetization       0.0000000
 augmentation part        6.0000000 magnetization       0.0000000

 Free energy of the ion-electron system (eV)
  ---------------------------------------------------
  alpha Z        PSCENC =         0.08041346
  Ewald energy   TEWEN  =       -61.28472002
  -Hartree energ DENC   =      -311.67116317
  -exchange      EXHF   =         0.00000000
  -V(xc)+E(xc)   XCENC  =        26.06853593
  PAW double counting   =       346.54947546     -348.34814613
  entropy T*S    EENTRO =        -0.00000000
  eigenvalues    EBANDS =       -35.33423951
  atomic energy  EATOM  =       432.26319604
  Solvation  Ediel_sol  =         0.00000000
  ---------------------------------------------------
  free energy    TOTEN  =        48.32335206 eV

  energy without entropy =       48.32335206  energy(sigma->0) =       48.32335206


--------------------------------------------------------------------------------------------------------




----------------------------------------- Iteration    1(   2)  ---------------------------------------


     EDDAV:  cpu time    0.1648: real time    0.1648
       DOS:  cpu time    0.0001: real time    0.0001
    --------------------------------------------
      LOOP:  cpu time    0.1658: real time    0.1671

 eigenvalue-minimisations  :    64
 total energy-change (2. order) :-0.4213165E+02  (-0.4213165E+02)
 number of electron       6.0000000 magnetization       0.0000000
 augmentation part        6.0000000 magnetization       0.0000000

 Free energy of the ion-electron system (eV)
  ---------------------------------------------------
  alpha Z        PSCENC =         0.08041346
  Ewald energy   TEWEN  =       -61.28472002
  -Hartree energ DENC   =      -311.67116317
  -exchange      EXHF   =         0.00000000
  -V(xc)+E(xc)   XCENC  =        26.06853593
  PAW double counting   =       346.54947546     -348.34814613
  entropy T*S    EENTRO =        -0.00000000
  eigenvalues    EBANDS =       -77.46588706
  atomic energy  EATOM  =       432.26319604
  Solvation  Ediel_sol  =         0.00000000
  ---------------------------------------------------
  free energy    TOTEN  =         6.19170451 eV

  energy without entropy =        6.19170451  energy(sigma->0) =        6.19170451


--------------------------------------------------------------------------------------------------------




----------------------------------------- Iteration    1(   3)  ---------------------------------------


     EDDAV:  cpu time    0.0972: real time    0.0972
       DOS:  cpu time    0.0002: real time    0.0002
    --------------------------------------------
      LOOP:  cpu time    0.0981: real time    0.0996

 eigenvalue-minimisations  :    32
 total energy-change (2. order) :-0.6121700E+01  (-0.6120179E+01)
 number of electron       6.0000000 magnetization       0.0000000
 augmentation part        6.0000000 magnetization       0.0000000

 Free energy of the ion-electron system (eV)
  ---------------------------------------------------
  alpha Z        PSCENC =         0.08041346
  Ewald energy   TEWEN  =       -61.28472002
  -Hartree energ DENC   =      -311.67116317
  -exchange      EXHF   =         0.00000000
  -V(xc)+E(xc)   XCENC  =        26.06853593
  PAW double counting   =       346.54947546     -348.34814613
  entropy T*S    EENTRO =        -0.00412248
  eigenvalues    EBANDS =       -83.58346437
  atomic energy  EATOM  =       432.26319604
  Solvation  Ediel_sol  =         0.00000000
  ---------------------------------------------------
  free energy    TOTEN  =         0.07000472 eV

  energy without entropy =        0.07412720  energy(sigma->0) =        0.07206596


--------------------------------------------------------------------------------------------------------




----------------------------------------- Iteration    1(   4)  ---------------------------------------


     EDDAV:  cpu time    0.1105: real time    0.1105
       DOS:  cpu time    0.0002: real time    0.0002
    --------------------------------------------
      LOOP:  cpu time    0.1119: real time    0.1136

 eigenvalue-minimisations  :    32
 total energy-change (2. order) :-0.8890186E-01  (-0.7827906E-01)
 number of electron       6.0000000 magnetization       0.0000000
 augmentation part        6.0000000 magnetization       0.0000000

 Free energy of the ion-electron system (eV)
  ---------------------------------------------------
  alpha Z        PSCENC =         0.08041346
  Ewald energy   TEWEN  =       -61.28472002
  -Hartree energ DENC   =      -311.67116317
  -exchange      EXHF   =         0.00000000
  -V(xc)+E(xc)   XCENC  =        26.06853593
  PAW double counting   =       346.54947546     -348.34814613
  entropy T*S    EENTRO =        -0.01541206
  eigenvalues    EBANDS =       -83.66107664
  atomic energy  EATOM  =       432.26319604
  Solvation  Ediel_sol  =         0.00000000
  ---------------------------------------------------
  free energy    TOTEN  =        -0.01889713 eV

  energy without entropy =       -0.00348507  energy(sigma->0) =       -0.01119110


--------------------------------------------------------------------------------------------------------




----------------------------------------- Iteration    1(   5)  ---------------------------------------


     EDDAV:  cpu time    0.0989: real time    0.0989
       DOS:  cpu time    0.0002: real time    0.0002
    CHARGE:  cpu time    0.0939: real time    0.0939
    MIXING:  cpu time    0.0126: real time    0.0126
    --------------------------------------------
      LOOP:  cpu time    0.2068: real time    0.2087

 eigenvalue-minimisations  :    32
 total energy-change (2. order) :-0.2365469E-02  (-0.2352322E-02)
 number of electron       6.0000082 magnetization      -0.0000359
 augmentation part        0.5051318 magnetization       0.0000850

 Broyden mixing:
  rms(total) = 0.31511E-01    rms(broyden)= 0.31295E-01
  rms(prec ) = 0.32940E-01
  weight for this iteration     100.00

 Free energy of the ion-electron system (eV)
  ---------------------------------------------------
  alpha Z        PSCENC =         0.08041346
  Ewald energy   TEWEN  =       -61.28472002
  -Hartree energ DENC   =      -311.67116317
  -exchange      EXHF   =         0.00000000
  -V(xc)+E(xc)   XCENC  =        26.06853593
  PAW double counting   =       346.54947546     -348.34814613
  entropy T*S    EENTRO =        -0.01542621
  eigenvalues    EBANDS =       -83.66342796
  atomic energy  EATOM  =       432.26319604
  Solvation  Ediel_sol  =         0.00000000
  ---------------------------------------------------
  free energy    TOTEN  =        -0.02126260 eV

  energy without entropy =       -0.00583639  energy(sigma->0) =       -0.01354949


--------------------------------------------------------------------------------------------------------




----------------------------------------- Iteration    1(   6)  ---------------------------------------


    POTLOK:  cpu time    0.3758: real time    0.3758
    SETDIJ:  cpu time    0.0068: real time    0.0068
     EDDAV:  cpu time    0.1043: real time    0.1043
       DOS:  cpu time    0.0004: real time    0.0004
    CHARGE:  cpu time    0.0894: real time    0.0895
    MIXING:  cpu time    0.0130: real time    0.0130
    --------------------------------------------
      LOOP:  cpu time    0.5909: real time    0.5924

 eigenvalue-minimisations  :    32
 total energy-change (2. order) :-0.1852495E-02  (-0.3937411E-03)
 number of electron       6.0000083 magnetization      -0.0015606
 augmentation part        0.5071648 magnetization       0.0007733

 Broyden mixing:
  rms(total) = 0.15091E-01    rms(broyden)= 0.15056E-01
  rms(prec ) = 0.15489E-01
  weight for this iteration     100.00

 eigenvalues of (default mixing * dielectric matrix)
  average eigenvalue GAMMA=   1.5645
  1.5645

 Free energy of the ion-electron system (eV)
  ---------------------------------------------------
  alpha Z        PSCENC =         0.08041346
  Ewald energy   TEWEN  =       -61.28472002
  -Hartree energ DENC   =      -311.41965533
  -exchange      EXHF   =         0.00000000
  -V(xc)+E(xc)   XCENC  =        26.05264848
  PAW double counting   =       351.17157811     -352.95057281
  entropy T*S    EENTRO =        -0.01542622
  eigenvalues    EBANDS =       -83.92057679
  atomic energy  EATOM  =       432.26319604
  Solvation  Ediel_sol  =         0.00000000
  ---------------------------------------------------
  free energy    TOTEN  =        -0.02311510 eV

  energy without entropy =       -0.00768888  energy(sigma->0) =       -0.01540199


--------------------------------------------------------------------------------------------------------




----------------------------------------- Iteration    1(   7)  ---------------------------------------


    POTLOK:  cpu time    0.3438: real time    0.3438
    SETDIJ:  cpu time    0.0060: real time    0.0060
     EDDAV:  cpu time    0.1008: real time    0.1008
       DOS:  cpu time    0.0002: real time    0.0002
    CHARGE:  cpu time    0.0866: real time    0.0866
    MIXING:  cpu time    0.0132: real time    0.0132
    --------------------------------------------
      LOOP:  cpu time    0.5517: real time    0.5534

 eigenvalue-minimisations  :    32
 total energy-change (2. order) :-0.2064022E-02  (-0.2659022E-04)
 number of electron       6.0000083 magnetization      -0.0000771
 augmentation part        0.5075784 magnetization       0.7900932

 Broyden mixing:
  rms(total) = 0.62100E+00    rms(broyden)= 0.62075E+00
  rms(prec ) = 0.62075E+00
  weight for this iteration     100.00

 eigenvalues of (default mixing * dielectric matrix)
  average eigenvalue GAMMA=   0.8123
  1.6200  0.0046

 Free energy of the ion-electron system (eV)
  ---------------------------------------------------
  alpha Z        PSCENC =         0.08041346
  Ewald energy   TEWEN  =       -61.28472002
  -Hartree energ DENC   =      -311.41238831
  -exchange      EXHF   =         0.00000000
  -V(xc)+E(xc)   XCENC  =        26.05288874
  PAW double counting   =       355.62018605     -357.38785343
  entropy T*S    EENTRO =        -0.01378021
  eigenvalues    EBANDS =       -83.94312144
  atomic energy  EATOM  =       432.26319604
  Solvation  Ediel_sol  =         0.00000000
  ---------------------------------------------------
  free energy    TOTEN  =        -0.02517912 eV

  energy without entropy =       -0.01139891  energy(sigma->0) =       -0.01828901


--------------------------------------------------------------------------------------------------------




----------------------------------------- Iteration    1(   8)  ---------------------------------------


    POTLOK:  cpu time    0.3784: real time    0.3787
    SETDIJ:  cpu time    0.0061: real time    0.0062
     EDDAV:  cpu time    0.1167: real time    0.1167
       DOS:  cpu time    0.0002: real time    0.0002
    CHARGE:  cpu time    0.0936: real time    0.0936
    MIXING:  cpu time    0.0144: real time    0.0144
    --------------------------------------------
      LOOP:  cpu time    0.6107: real time    0.6126

 eigenvalue-minimisations  :    32
 total energy-change (2. order) : 0.1211602E-01  (-0.2688572E-04)
 number of electron       6.0000083 magnetization       0.0005105
 augmentation part        0.5075623 magnetization       0.0929047

 Broyden mixing:
  rms(total) = 0.74439E-01    rms(broyden)= 0.73459E-01
  rms(prec ) = 0.73478E-01
  weight for this iteration     100.00

 eigenvalues of (default mixing * dielectric matrix)
  average eigenvalue GAMMA=   1.2306
  2.5251  1.1619  0.0049

 Free energy of the ion-electron system (eV)
  ---------------------------------------------------
  alpha Z        PSCENC =         0.08041346
  Ewald energy   TEWEN  =       -61.28472002
  -Hartree energ DENC   =      -311.41217277
  -exchange      EXHF   =         0.00000000
  -V(xc)+E(xc)   XCENC  =        26.06245814
  PAW double counting   =       355.64959101     -357.41718115
  entropy T*S    EENTRO =        -0.01540422
  eigenvalues    EBANDS =       -83.93924358
  atomic energy  EATOM  =       432.26319604
  Solvation  Ediel_sol  =         0.00000000
  ---------------------------------------------------
  free energy    TOTEN  =        -0.01306309 eV

  energy without entropy =        0.00234113  energy(sigma->0) =       -0.00536098


--------------------------------------------------------------------------------------------------------




----------------------------------------- Iteration    1(   9)  ---------------------------------------


    POTLOK:  cpu time    0.3501: real time    0.3504
    SETDIJ:  cpu time    0.0057: real time    0.0057
     EDDAV:  cpu time    0.1133: real time    0.1133
       DOS:  cpu time    0.0002: real time    0.0002
    CHARGE:  cpu time    0.0992: real time    0.0993
    MIXING:  cpu time    0.0192: real time    0.0192
    --------------------------------------------
      LOOP:  cpu time    0.5890: real time    0.5910

 eigenvalue-minimisations  :    32
 total energy-change (2. order) :-0.9154541E-02  (-0.1412321E-04)
 number of electron       6.0000083 magnetization       0.0000902
 augmentation part        0.5075301 magnetization      -0.1331088

 Broyden mixing:
  rms(total) = 0.10484E+00    rms(broyden)= 0.10457E+00
  rms(prec ) = 0.10457E+00
  weight for this iteration     100.00

 eigenvalues of (default mixing * dielectric matrix)
  average eigenvalue GAMMA=   1.0261
  2.5379  1.1750  0.3866  0.0049

 Free energy of the ion-electron system (eV)
  ---------------------------------------------------
  alpha Z        PSCENC =         0.08041346
  Ewald energy   TEWEN  =       -61.28472002
  -Hartree energ DENC   =      -311.46005558
  -exchange      EXHF   =         0.00000000
  -V(xc)+E(xc)   XCENC  =        26.05747511
  PAW double counting   =       357.51992961     -359.28369925
  entropy T*S    EENTRO =        -0.01538069
  eigenvalues    EBANDS =       -83.89937631
  atomic energy  EATOM  =       432.26319604
  Solvation  Ediel_sol  =         0.00000000
  ---------------------------------------------------
  free energy    TOTEN  =        -0.02221763 eV

  energy without entropy =       -0.00683694  energy(sigma->0) =       -0.01452729


--------------------------------------------------------------------------------------------------------




----------------------------------------- Iteration    1(  10)  ---------------------------------------


    POTLOK:  cpu time    0.3516: real time    0.3516
    SETDIJ:  cpu time    0.0071: real time    0.0071
     EDDAV:  cpu time    0.1023: real time    0.1023
       DOS:  cpu time    0.0002: real time    0.0002
    CHARGE:  cpu time    0.0859: real time    0.0859
    MIXING:  cpu time    0.0144: real time    0.0144
    --------------------------------------------
      LOOP:  cpu time    0.5627: real time    0.5644

 eigenvalue-minimisations  :    32
 total energy-change (2. order) :-0.1346201E-02  (-0.1086337E-04)
 number of electron       6.0000083 magnetization       0.0001014
 augmentation part        0.5074103 magnetization       0.0684757

 Broyden mixing:
  rms(total) = 0.53721E-01    rms(broyden)= 0.53640E-01
  rms(prec ) = 0.53640E-01
  weight for this iteration     100.00

 eigenvalues of (default mixing * dielectric matrix)
  average eigenvalue GAMMA=   1.0106
  2.5264  1.1597  0.6809  0.6809  0.0049

 Free energy of the ion-electron system (eV)
  ---------------------------------------------------
  alpha Z        PSCENC =         0.08041346
  Ewald energy   TEWEN  =       -61.28472002
  -Hartree energ DENC   =      -311.48794852
  -exchange      EXHF   =         0.00000000
  -V(xc)+E(xc)   XCENC  =        26.05842035
  PAW double counting   =       358.41121064     -360.17334704
  entropy T*S    EENTRO =        -0.01541422
  eigenvalues    EBANDS =       -83.87537452
  atomic energy  EATOM  =       432.26319604
  Solvation  Ediel_sol  =         0.00000000
  ---------------------------------------------------
  free energy    TOTEN  =        -0.02356383 eV

  energy without entropy =       -0.00814961  energy(sigma->0) =       -0.01585672


--------------------------------------------------------------------------------------------------------




----------------------------------------- Iteration    1(  11)  ---------------------------------------


    POTLOK:  cpu time    0.3400: real time    0.3400
    SETDIJ:  cpu time    0.0067: real time    0.0067
     EDDAV:  cpu time    0.0990: real time    0.0990
       DOS:  cpu time    0.0002: real time    0.0002
    --------------------------------------------
      LOOP:  cpu time    0.4469: real time    0.4483

 eigenvalue-minimisations  :    32
 total energy-change (2. order) :-0.8398437E-04  (-0.1373494E-05)
 number of electron       6.0000083 magnetization       0.0001014
 augmentation part        0.5074103 magnetization       0.0684757

 Free energy of the ion-electron system (eV)
  ---------------------------------------------------
  alpha Z        PSCENC =         0.08041346
  Ewald energy   TEWEN  =       -61.28472002
  -Hartree energ DENC   =      -311.48732008
  -exchange      EXHF   =         0.00000000
  -V(xc)+E(xc)   XCENC  =        26.05829954
  PAW double counting   =       358.50333476     -360.26513350
  entropy T*S    EENTRO =        -0.01542365
  eigenvalues    EBANDS =       -83.87629436
  atomic energy  EATOM  =       432.26319604
  Solvation  Ediel_sol  =         0.00000000
  ---------------------------------------------------
  free energy    TOTEN  =        -0.02364782 eV

  energy without entropy =       -0.00822417  energy(sigma->0) =       -0.01593600


--------------------------------------------------------------------------------------------------------




 average (electrostatic) potential at core
  the test charge radii are     0.7215
  (the norm of the test charge is              1.0000)
       1 -83.6366
 
 
 
 E-fermi :  -8.9969     XC(G=0):  -0.2569     alpha+bet : -0.0433


 spin component 1

 k-point     1 :       0.0000    0.0000    0.0000
  band No.  band energies     occupation 
      1     -23.9383      1.00000
      2      -8.9998      0.66001
      3      -8.9998      0.66001
      4      -8.9998      0.66001
      5      -0.2689      0.00000
      6       0.6546      0.00000
      7       0.8754      0.00000
      8       0.8754      0.00000

 spin component 2

 k-point     1 :       0.0000    0.0000    0.0000
  band No.  band energies     occupation 
      1     -23.9384      1.00000
      2      -9.0000      0.67332
      3      -9.0000      0.67332
      4      -9.0000      0.67332
      5      -0.2833      0.00000
      6       0.6034      0.00000
      7       0.8531      0.00000
      8       0.8531      0.00000


--------------------------------------------------------------------------------------------------------


 soft charge-density along one line, spin component           1
         0         1         2         3         4         5         6         7         8         9
 total charge-density along one line
 
 soft charge-density along one line, spin component           2
         0         1         2         3         4         5         6         7         8         9
 total charge-density along one line
 
 pseudopotential strength for first ion, spin component:           1
 14.298 -17.567   0.000   0.000   0.000  -0.000  -0.000  -0.000
-17.567  21.618  -0.000  -0.000  -0.000   0.000   0.000   0.000
  0.000  -0.000 -11.158  -0.000   0.000  13.947   0.000  -0.000
  0.000  -0.000  -0.000 -11.158  -0.000   0.000  13.947   0.000
  0.000  -0.000   0.000  -0.000 -11.158  -0.000   0.000  13.947
 -0.000   0.000  13.947   0.000  -0.000 -17.386  -0.000   0.000
 -0.000   0.000   0.000  13.947   0.000  -0.000 -17.386  -0.000
 -0.000   0.000  -0.000   0.000  13.947   0.000  -0.000 -17.386
 pseudopotential strength for first ion, spin component:           2
 14.298 -17.567   0.000   0.000   0.000  -0.000  -0.000  -0.000
-17.567  21.618  -0.000  -0.000  -0.000   0.000   0.000   0.000
  0.000  -0.000 -11.158   0.000  -0.000  13.947  -0.000   0.000
  0.000  -0.000   0.000 -11.158  -0.000  -0.000  13.947   0.000
  0.000  -0.000  -0.000  -0.000 -11.158   0.000   0.000  13.947
 -0.000   0.000  13.947  -0.000   0.000 -17.387   0.000  -0.000
 -0.000   0.000  -0.000  13.947   0.000   0.000 -17.387  -0.000
 -0.000   0.000   0.000   0.000  13.947  -0.000  -0.000 -17.387
 total augmentation occupancy for first ion, spin component:           1
  2.258   0.104   0.000   0.000   0.000   0.000   0.000   0.000
  0.104   0.005   0.000   0.000   0.000   0.000   0.000   0.000
  0.000   0.000   1.391   0.000   0.000   0.023   0.000   0.000
  0.000   0.000   0.000   1.391   0.000   0.000   0.023   0.000
  0.000   0.000   0.000   0.000   1.391   0.000   0.000   0.023
  0.000   0.000   0.023   0.000   0.000   0.000   0.000   0.000
  0.000   0.000   0.000   0.023   0.000   0.000   0.000   0.000
  0.000   0.000   0.000   0.000   0.023   0.000   0.000   0.000
 total augmentation occupancy for first ion, spin component:           2
  0.000   0.000   0.000   0.000   0.000   0.000   0.000   0.000
  0.000   0.000   0.000   0.000   0.000   0.000   0.000   0.000
  0.000   0.000  -0.030   0.000   0.000  -0.001   0.000   0.000
  0.000   0.000   0.000  -0.030   0.000   0.000  -0.001   0.000
  0.000   0.000   0.000   0.000  -0.030   0.000   0.000  -0.001
  0.000   0.000  -0.001   0.000   0.000  -0.000   0.000   0.000
  0.000   0.000   0.000  -0.001   0.000   0.000  -0.000   0.000
  0.000   0.000   0.000   0.000  -0.001   0.000   0.000  -0.000


------------------------ aborting loop because EDIFF is reached ----------------------------------------


 


 total charge     
 
# of ion     s       p       d       tot
----------------------------------------
  1        1.656   2.918   0.000   4.574
 


 magnetization (x)
 
# of ion     s       p       d       tot
----------------------------------------
  1       -0.000  -0.029   0.000  -0.029
 
    CHARGE:  cpu time    0.1025: real time    0.1025
    FORLOC:  cpu time    0.0077: real time    0.0077
    FORNL :  cpu time    0.0207: real time    0.0207
    STRESS:  cpu time    0.1444: real time    0.1444
    FORCOR:  cpu time    0.3443: real time    0.3443
    FORHAR:  cpu time    0.0381: real time    0.0381
    MIXING:  cpu time    0.0167: real time    0.0167
    OFIELD:  cpu time    0.0001: real time    0.0001

  FORCE on cell =-STRESS in cart. coord.  units (eV):
  Direction    XX          YY          ZZ          XY          YZ          ZX
  --------------------------------------------------------------------------------------
  Alpha Z     0.08041     0.08041     0.08041
  Ewald     -20.42824   -20.42824   -20.42824     0.00000    -0.00000    -0.00000
  Hartree   103.82690   103.82690   103.82690    -0.00000    -0.00000    -0.00000
  E(xc)     -27.95350   -27.95350   -27.95350     0.00000     0.00000    -0.00000
  Local    -167.79568  -167.79568  -167.79568    -0.00000    -0.00000     0.00000
  n-local   -20.53933   -20.53931   -20.53933    -0.00000     0.00000    -0.00000
  augment     5.55165     5.55165     5.55165    -0.00000    -0.00000    -0.00000
  Kinetic   126.48674   126.48672   126.48677     0.00003     0.00000     0.00003
  Fock        0.00000     0.00000     0.00000     0.00000     0.00000     0.00000
  -------------------------------------------------------------------------------------
  Total      -0.77103    -0.77103    -0.77103    -0.00000    -0.00000     0.00000
  in kB      -0.71489    -0.71489    -0.71489    -0.00000    -0.00000     0.00000
  external pressure =       -0.71 kB  Pullay stress =        0.00 kB


 VOLUME and BASIS-vectors are now :
 -----------------------------------------------------------------------------
  energy-cutoff  :      400.00
  volume of cell :     1728.00
      direct lattice vectors                 reciprocal lattice vectors
    12.000000000  0.000000000  0.000000000     0.083333333  0.000000000  0.000000000
     0.000000000 12.000000000  0.000000000     0.000000000  0.083333333  0.000000000
     0.000000000  0.000000000 12.000000000     0.000000000  0.000000000  0.083333333

  length of vectors
    12.000000000 12.000000000 12.000000000     0.083333333  0.083333333  0.083333333


 FORCES acting on ions
    electron-ion (+dipol)            ewald-force                    non-local-force                 convergence-correction
 -----------------------------------------------------------------------------------------------
   0.413E-12 0.195E-11 0.459E-12   -.646E-17 0.454E-17 -.233E-17   0.000E+00 0.000E+00 0.000E+00   0.440E-14 -.115E-12 0.187E-13
 -----------------------------------------------------------------------------------------------
   0.413E-12 0.195E-11 0.459E-12   -.646E-17 0.454E-17 -.233E-17   0.000E+00 0.000E+00 0.000E+00   0.440E-14 -.115E-12 0.187E-13
 
 
 POSITION                                       TOTAL-FORCE (eV/Angst)
 -----------------------------------------------------------------------------------
      6.00000      6.00000      6.00000         0.000000      0.000000      0.000000
 -----------------------------------------------------------------------------------
    total drift:                                0.000000      0.000000      0.000000


--------------------------------------------------------------------------------------------------------



  FREE ENERGIE OF THE ION-ELECTRON SYSTEM (eV)
  ---------------------------------------------------
  free  energy   TOTEN  =        -0.02364782 eV

  energy  without entropy=       -0.00822417  energy(sigma->0) =       -0.01593600
 


--------------------------------------------------------------------------------------------------------


    POTLOK:  cpu time    0.3617: real time    0.3617


--------------------------------------------------------------------------------------------------------


     LOOP+:  cpu time    5.5100: real time    5.5521
    4ORBIT:  cpu time    0.0000: real time    0.0000
 


 total charge     
 
# of ion     s       p       d       tot
----------------------------------------
  1        1.656   2.918   0.000   4.574
 


 magnetization (x)
 
# of ion     s       p       d       tot
----------------------------------------
  1       -0.000  -0.029   0.000  -0.029
 

 total amount of memory used by VASP on root node    74934. kBytes
========================================================================

   base      :      30000. kBytes
   nonl-proj :       2515. kBytes
   fftplans  :       8259. kBytes
   grid      :      33148. kBytes
   one-center:          6. kBytes
   wavefun   :       1006. kBytes
 
  
  
 General timing and accounting informations for this job:
 ========================================================
  
                  Total CPU time used (sec):        6.151
                            User time (sec):        5.797
                          System time (sec):        0.354
                         Elapsed time (sec):        6.232
  
                   Maximum memory used (kb):      132040.
                   Average memory used (kb):           0.
  
                          Minor page faults:        49234
                          Major page faults:            7
                 Voluntary context switches:          550
