<?xml version="1.0" encoding="ISO-8859-1"?>
<modeling>
 <generator>
  <i name="program" type="string">vasp </i>
  <i name="version" type="string">5.4.1  </i>
  <i name="subversion" type="string">05Feb16 (build Feb 08 2018 09:21:51) complex                          parallel </i>
  <i name="platform" type="string">LinuxIFC </i>
  <i name="date" type="string">2019 11 08 </i>
  <i name="time" type="string">08:09:05 </i>
 </generator>
 <incar>
  <i type="string" name="PREC">normal</i>
  <i type="int" name="ISPIN">     2</i>
  <i name="ENCUT">    400.00000000</i>
  <v name="MAGMOM">      0.00000000</v>
  <i type="int" name="ISMEAR">     0</i>
  <i name="SIGMA">      0.01000000</i>
  <i type="logical" name="LWAVE"> F  </i>
  <i type="logical" name="LCHARG"> F  </i>
  <i type="logical" name="LORBIT"> F  </i>
  <v type="int" name="KPOINT_BSE">    -1     0     0     0</v>
 </incar>
 <kpoints>
  <generation param="Monkhorst-Pack">
   <v type="int" name="divisions">       1        1        1 </v>
   <v name="usershift">      0.00000000       0.00000000       0.00000000 </v>
   <v name="genvec1">      1.00000000       0.00000000       0.00000000 </v>
   <v name="genvec2">      0.00000000       1.00000000       0.00000000 </v>
   <v name="genvec3">      0.00000000       0.00000000       1.00000000 </v>
   <v name="shift">      0.00000000       0.00000000       0.00000000 </v>
  </generation>
  <varray name="kpointlist" >
   <v>       0.00000000       0.00000000       0.00000000 </v>
  </varray>
  <varray name="weights" >
   <v>       1.00000000 </v>
  </varray>
 </kpoints>
 <parameters>
  <separator name="general" >
   <i type="string" name="SYSTEM">unknown system</i>
   <i type="logical" name="LCOMPAT"> F  </i>
  </separator>
  <separator name="electronic" >
   <i type="string" name="PREC">normal</i>
   <i name="ENMAX">    400.00000000</i>
   <i name="ENAUG">    605.39200000</i>
   <i name="EDIFF">      0.00010000</i>
   <i type="int" name="IALGO">    38</i>
   <i type="int" name="IWAVPR">    10</i>
   <i type="int" name="NBANDS">     8</i>
   <i name="NELECT">      6.00000000</i>
   <i type="int" name="TURBO">     0</i>
   <i type="int" name="IRESTART">     0</i>
   <i type="int" name="NREBOOT">     0</i>
   <i type="int" name="NMIN">     0</i>
   <i name="EREF">      0.00000000</i>
   <separator name="electronic smearing" >
    <i type="int" name="ISMEAR">     0</i>
    <i name="SIGMA">      0.01000000</i>
    <i name="KSPACING">      0.50000000</i>
    <i type="logical" name="KGAMMA"> T  </i>
   </separator>
   <separator name="electronic projectors" >
    <i type="logical" name="LREAL"> F  </i>
    <v name="ROPT">      0.00000000</v>
    <i type="int" name="LMAXPAW">  -100</i>
    <i type="int" name="LMAXMIX">     2</i>
    <i type="logical" name="NLSPLINE"> F  </i>
   </separator>
   <separator name="electronic startup" >
    <i type="int" name="ISTART">     0</i>
    <i type="int" name="ICHARG">     2</i>
    <i type="int" name="INIWAV">     1</i>
   </separator>
   <separator name="electronic spin" >
    <i type="int" name="ISPIN">     2</i>
    <i type="logical" name="LNONCOLLINEAR"> F  </i>
    <v name="MAGMOM">      0.00000000</v>
    <i name="NUPDOWN">     -1.00000000</i>
    <i type="logical" name="LSORBIT"> F  </i>
    <v name="SAXIS">      0.00000000      0.00000000      1.00000000</v>
    <i type="logical" name="LSPIRAL"> F  </i>
    <v name="QSPIRAL">      0.00000000      0.00000000      0.00000000</v>
    <i type="logical" name="LZEROZ"> F  </i>
   </separator>
   <separator name="electronic exchange-correlation" >
    <i type="logical" name="LASPH"> F  </i>
    <i type="logical" name="LMETAGGA"> F  </i>
   </separator>
   <separator name="electronic convergence" >
    <i type="int" name="NELM">    60</i>
    <i type="int" name="NELMDL">    -5</i>
    <i type="int" name="NELMIN">     2</i>
    <i name="ENINI">    400.00000000</i>
    <separator name="electronic convergence detail" >
     <i type="logical" name="LDIAG"> T  </i>
     <i type="logical" name="LSUBROT"> F  </i>
     <i name="WEIMIN">      0.00000000</i>
     <i name="EBREAK">      0.00000313</i>
     <i name="DEPER">      0.30000000</i>
     <i type="int" name="NRMM">     4</i>
     <i name="TIME">      0.40000000</i>
    </separator>
   </separator>
   <separator name="electronic mixer" >
    <i name="AMIX">      0.40000000</i>
    <i name="BMIX">      1.00000000</i>
    <i name="AMIN">      0.10000000</i>
    <i name="AMIX_MAG">      1.60000000</i>
    <i name="BMIX_MAG">      1.00000000</i>
    <separator name="electronic mixer details" >
     <i type="int" name="IMIX">     4</i>
     <i type="logical" name="MIXFIRST"> F  </i>
     <i type="int" name="MAXMIX">   -45</i>
     <i name="WC">    100.00000000</i>
     <i type="int" name="INIMIX">     1</i>
     <i type="int" name="MIXPRE">     1</i>
     <i type="int" name="MREMOVE">     5</i>
    </separator>
   </separator>
   <separator name="electronic dipolcorrection" >
    <i type="logical" name="LDIPOL"> F  </i>
    <i type="logical" name="LMONO"> F  </i>
    <i type="int" name="IDIPOL">     0</i>
    <i name="EPSILON">      1.00000000</i>
    <v name="DIPOL">   -100.00000000   -100.00000000   -100.00000000</v>
    <i name="EFIELD">      0.00000000</i>
   </separator>
  </separator>
  <separator name="grids" >
   <i type="int" name="NGX">    60</i>
   <i type="int" name="NGY">    60</i>
   <i type="int" name="NGZ">    60</i>
   <i type="int" name="NGXF">   120</i>
   <i type="int" name="NGYF">   120</i>
   <i type="int" name="NGZF">   120</i>
   <i type="logical" name="ADDGRID"> F  </i>
  </separator>
  <separator name="ionic" >
   <i type="int" name="NSW">     0</i>
   <i type="int" name="IBRION">    -1</i>
   <i type="int" name="ISIF">     2</i>
   <i name="PSTRESS">      0.00000000</i>
   <i name="EDIFFG">      0.00100000</i>
   <i type="int" name="NFREE">     0</i>
   <i name="POTIM">      0.50000000</i>
   <i name="SMASS">     -3.00000000</i>
   <i name="SCALEE">      1.00000000</i>
  </separator>
  <separator name="ionic md" >
   <i name="TEBEG">      0.00010000</i>
   <i name="TEEND">      0.00010000</i>
   <i type="int" name="NBLOCK">     1</i>
   <i type="int" name="KBLOCK">     1</i>
   <i type="int" name="NPACO">   256</i>
   <i name="APACO">     16.00000000</i>
  </separator>
  <separator name="symmetry" >
   <i type="int" name="ISYM">     2</i>
   <i name="SYMPREC">      0.00001000</i>
  </separator>
  <separator name="dos" >
   <i type="logical" name="LORBIT"> F  </i>
   <v name="RWIGS">     -1.00000000</v>
   <i type="int" name="NEDOS">   301</i>
   <i name="EMIN">     10.00000000</i>
   <i name="EMAX">    -10.00000000</i>
   <i name="EFERMI">      0.00000000</i>
  </separator>
  <separator name="writing" >
   <i type="int" name="NWRITE">     2</i>
   <i type="logical" name="LWAVE"> F  </i>
   <i type="logical" name="LCHARG"> F  </i>
   <i type="logical" name="LPARD"> F  </i>
   <i type="logical" name="LVTOT"> F  </i>
   <i type="logical" name="LVHAR"> F  </i>
   <i type="logical" name="LELF"> F  </i>
   <i type="logical" name="LOPTICS"> F  </i>
   <v name="STM">      0.00000000      0.00000000      0.00000000      0.00000000      0.00000000      0.00000000      0.00000000</v>
  </separator>
  <separator name="performance" >
   <i type="int" name="NPAR">     8</i>
   <i type="int" name="NSIM">     4</i>
   <i type="int" name="NBLK">    -1</i>
   <i type="logical" name="LPLANE"> T  </i>
   <i type="logical" name="LSCALAPACK"> F  </i>
   <i type="logical" name="LSCAAWARE"> F  </i>
   <i type="logical" name="LSCALU"> F  </i>
   <i type="logical" name="LASYNC"> F  </i>
   <i type="logical" name="LORBITALREAL"> F  </i>
  </separator>
  <separator name="miscellaneous" >
   <i type="int" name="IDIOT">     3</i>
   <i type="logical" name="LMUSIC"> F  </i>
   <v name="POMASS">     16.00000000</v>
   <v name="DARWINR">      0.00000000</v>
   <v name="DARWINV">      1.00000000</v>
   <i type="logical" name="LCORR"> T  </i>
  </separator>
  <i type="logical" name="GGA_COMPAT"> T  </i>
  <i type="logical" name="LBERRY"> F  </i>
  <i type="int" name="ICORELEVEL">     0</i>
  <i type="logical" name="LDAU"> F  </i>
  <i type="int" name="I_CONSTRAINED_M">     0</i>
  <separator name="electronic exchange-correlation" >
   <i type="string" name="GGA">--</i>
   <i type="int" name="VOSKOWN">     0</i>
   <i type="logical" name="LHFCALC"> F  </i>
   <i type="string" name="PRECFOCK"></i>
   <i type="logical" name="LSYMGRAD"> F  </i>
   <i type="logical" name="LHFONE"> F  </i>
   <i type="logical" name="LRHFCALC"> F  </i>
   <i type="logical" name="LTHOMAS"> F  </i>
   <i type="logical" name="LMODELHF"> F  </i>
   <i name="ENCUT4O">     -1.00000000</i>
   <i type="int" name="EXXOEP">     0</i>
   <i type="int" name="FOURORBIT">     0</i>
   <i name="AEXX">      0.00000000</i>
   <i name="HFALPHA">      0.00000000</i>
   <i name="MCALPHA">      0.00000000</i>
   <i name="ALDAX">      1.00000000</i>
   <i name="AGGAX">      1.00000000</i>
   <i name="ALDAC">      1.00000000</i>
   <i name="AGGAC">      1.00000000</i>
   <i type="int" name="NKREDX">     1</i>
   <i type="int" name="NKREDY">     1</i>
   <i type="int" name="NKREDZ">     1</i>
   <i type="logical" name="SHIFTRED"> F  </i>
   <i type="logical" name="ODDONLY"> F  </i>
   <i type="logical" name="EVENONLY"> F  </i>
   <i type="int" name="LMAXFOCK">     0</i>
   <i type="int" name="NMAXFOCKAE">     0</i>
   <i type="logical" name="LFOCKAEDFT"> F  </i>
   <i name="HFSCREEN">      0.00000000</i>
   <i name="HFSCREENC">      0.00000000</i>
   <i type="int" name="NBANDSGWLOW">     0</i>
  </separator>
  <separator name="vdW DFT" >
   <i type="logical" name="LUSE_VDW"> F  </i>
   <i name="Zab_VDW">     -0.84910000</i>
   <i name="PARAM1">      0.12340000</i>
   <i name="PARAM2">      1.00000000</i>
   <i name="PARAM3">      0.00000000</i>
  </separator>
  <separator name="model GW" >
   <i type="int" name="MODEL_GW">     0</i>
   <i name="MODEL_EPS0">   1036.80000000</i>
   <i name="MODEL_ALPHA">      1.00000000</i>
  </separator>
  <separator name="linear response parameters" >
   <i type="logical" name="LEPSILON"> F  </i>
   <i type="logical" name="LRPA"> F  </i>
   <i type="logical" name="LNABLA"> F  </i>
   <i type="logical" name="LVEL"> F  </i>
   <i type="int" name="KINTER">     0</i>
   <i name="CSHIFT">      0.10000000</i>
   <i name="OMEGAMAX">     -1.00000000</i>
   <i name="DEG_THRESHOLD">      0.00200000</i>
  </separator>
  <separator name="orbital magnetization" >
   <i type="logical" name="NUCIND"> F  </i>
   <v name="MAGPOS">      0.00000000      0.00000000      0.00000000</v>
   <i type="logical" name="LNICSALL"> T  </i>
   <i type="logical" name="ORBITALMAG"> F  </i>
   <i type="logical" name="LMAGBLOCH"> F  </i>
   <i type="logical" name="LCHIMAG"> F  </i>
   <i type="logical" name="LGAUGE"> T  </i>
   <i type="int" name="MAGATOM">     0</i>
   <v name="MAGDIPOL">      0.00000000      0.00000000      0.00000000</v>
   <v name="AVECCONST">      0.00000000      0.00000000      0.00000000</v>
  </separator>
  <separator name="response functions" >
   <i type="logical" name="LADDER"> F  </i>
   <i type="logical" name="LFXC"> F  </i>
   <i type="logical" name="LHARTREE"> T  </i>
   <i type="int" name="IBSE">     0</i>
   <v type="int" name="KPOINT">    -1     0     0     0</v>
   <i type="logical" name="LTCTE"> F  </i>
   <i type="logical" name="LTETE"> F  </i>
   <i type="logical" name="LTRIPLET"> F  </i>
   <i type="logical" name="LFXCEPS"> F  </i>
   <i type="logical" name="LFXHEG"> F  </i>
   <i type="int" name="NATURALO">     0</i>
   <i type="logical" name="L2ORDER"> F  </i>
   <i type="logical" name="LUSEW"> F  </i>
   <i name="ENCUTGW">     -2.00000000</i>
   <i name="ENCUTGWSOFT">     -2.00000000</i>
   <i name="ENCUTLF">     -1.00000000</i>
   <i type="int" name="LMAXMP2">    -1</i>
   <i name="SCISSOR">      0.00000000</i>
   <i type="int" name="NOMEGA">     0</i>
   <i type="int" name="NOMEGAR">     0</i>
   <i type="int" name="NBANDSGW">    -1</i>
   <i type="int" name="NBANDSO">    -1</i>
   <i type="int" name="NBANDSV">    -1</i>
   <i type="int" name="NELM">     1</i>
   <i type="int" name="NELMHF">     1</i>
   <i type="int" name="DIM">     3</i>
   <i type="int" name="ANTIRES">     0</i>
   <i name="OMEGAMAX">    -30.00000000</i>
   <i name="OMEGAMIN">    -30.00000000</i>
   <i name="OMEGATL">   -200.00000000</i>
   <i type="int" name="OMEGAGRID">     0</i>
   <i name="CSHIFT">     -0.10000000</i>
   <i type="logical" name="SELFENERGY"> F  </i>
   <i type="logical" name="LSPECTRAL"> F  </i>
   <i type="logical" name="LSPECTRALGW"> F  </i>
   <i type="logical" name="LSINGLES"> F  </i>
   <i type="logical" name="LFERMIGW"> F  </i>
   <i type="logical" name="ODDONLYGW"> F  </i>
   <i type="logical" name="EVENONLYGW"> F  </i>
   <i type="int" name="NKREDLFX">     1</i>
   <i type="int" name="NKREDLFY">     1</i>
   <i type="int" name="NKREDLFZ">     1</i>
   <i type="int" name="MAXMEM">  1800</i>
   <i type="int" name="TELESCOPE">     0</i>
   <i type="int" name="TAUPAR">     1</i>
   <i type="int" name="OMEGAPAR">    -1</i>
   <i name="LAMBDA">      1.00000000</i>
  </separator>
  <separator name="External order field" >
   <i name="OFIELD_KAPPA">      0.00000000</i>
   <v name="OFIELD_K">      0.00000000      0.00000000      0.00000000</v>
   <i name="OFIELD_Q6_NEAR">      0.00000000</i>
   <i name="OFIELD_Q6_FAR">      0.00000000</i>
   <i name="OFIELD_A">      0.00000000</i>
  </separator>
 </parameters>
 <atominfo>
  <atoms>       1 </atoms>
  <types>       1 </types>
  <array name="atoms" >
   <dimension dim="1">ion</dimension>
   <field type="string">element</field>
   <field type="int">atomtype</field>
   <set>
    <rc><c>O </c><c>   1</c></rc>
   </set>
  </array>
  <array name="atomtypes" >
   <dimension dim="1">type</dimension>
   <field type="int">atomspertype</field>
   <field type="string">element</field>
   <field>mass</field>
   <field>valence</field>
   <field type="string">pseudopotential</field>
   <set>
    <rc><c>   1</c><c>O </c><c>     16.00000000</c><c>      6.00000000</c><c>  PAW_PBE O 08Apr2002                   </c></rc>
   </set>
  </array>
 </atominfo>
 <structure name="initialpos" >
  <crystal>
   <varray name="basis" >
    <v>      12.00000000       0.00000000       0.00000000 </v>
    <v>       0.00000000      12.00000000       0.00000000 </v>
    <v>       0.00000000       0.00000000      12.00000000 </v>
   </varray>
   <i name="volume">   1728.00000000 </i>
   <varray name="rec_basis" >
    <v>       0.08333333       0.00000000       0.00000000 </v>
    <v>       0.00000000       0.08333333       0.00000000 </v>
    <v>       0.00000000       0.00000000       0.08333333 </v>
   </varray>
  </crystal>
  <varray name="positions" >
   <v>       0.50000000       0.50000000       0.50000000 </v>
  </varray>
 </structure>
 <calculation>
  <scstep>
   <time name="dav">    0.14    0.14</time>
   <time name="total">    0.53    0.54</time>
   <energy>
    <i name="alphaZ">      0.08041346 </i>
    <i name="ewald">    -61.28472002 </i>
    <i name="hartreedc">   -311.67116317 </i>
    <i name="XCdc">     26.06853593 </i>
    <i name="pawpsdc">    346.54947546 </i>
    <i name="pawaedc">   -348.34814613 </i>
    <i name="eentropy">     -0.00000000 </i>
    <i name="bandstr">    -35.33423951 </i>
    <i name="atom">    432.26319604 </i>
    <i name="e_fr_energy">     48.32335206 </i>
    <i name="e_wo_entrp">     48.32335206 </i>
    <i name="e_0_energy">     48.32335206 </i>
   </energy>
  </scstep>
  <scstep>
   <time name="dav">    0.16    0.16</time>
   <time name="total">    0.17    0.17</time>
   <energy>
    <i name="e_fr_energy">      6.19170451 </i>
    <i name="e_wo_entrp">      6.19170451 </i>
    <i name="e_0_energy">      6.19170451 </i>
   </energy>
  </scstep>
  <scstep>
   <time name="dav">    0.10    0.10</time>
   <time name="total">    0.10    0.10</time>
   <energy>
    <i name="e_fr_energy">      0.07000472 </i>
    <i name="e_wo_entrp">      0.07412720 </i>
    <i name="e_0_energy">      0.07206596 </i>
   </energy>
  </scstep>
  <scstep>
   <time name="dav">    0.11    0.11</time>
   <time name="total">    0.11    0.11</time>
   <energy>
    <i name="e_fr_energy">     -0.01889713 </i>
    <i name="e_wo_entrp">     -0.00348507 </i>
    <i name="e_0_energy">     -0.01119110 </i>
   </energy>
  </scstep>
  <scstep>
   <time name="dav">    0.10    0.10</time>
   <time name="total">    0.21    0.21</time>
   <energy>
    <i name="e_fr_energy">     -0.02126260 </i>
    <i name="e_wo_entrp">     -0.00583639 </i>
    <i name="e_0_energy">     -0.01354949 </i>
   </energy>
  </scstep>
  <scstep>
   <time name="dav">    0.10    0.10</time>
   <time name="total">    0.59    0.59</time>
   <energy>
    <i name="e_fr_energy">     -0.02311510 </i>
    <i name="e_wo_entrp">     -0.00768888 </i>
    <i name="e_0_energy">     -0.01540199 </i>
   </energy>
  </scstep>
  <scstep>
   <time name="dav">    0.10    0.10</time>
   <time name="total">    0.55    0.55</time>
   <energy>
    <i name="e_fr_energy">     -0.02517912 </i>
    <i name="e_wo_entrp">     -0.01139891 </i>
    <i name="e_0_energy">     -0.01828901 </i>
   </energy>
  </scstep>
  <scstep>
   <time name="dav">    0.12    0.12</time>
   <time name="total">    0.61    0.61</time>
   <energy>
    <i name="e_fr_energy">     -0.01306309 </i>
    <i name="e_wo_entrp">      0.00234113 </i>
    <i name="e_0_energy">     -0.00536098 </i>
   </energy>
  </scstep>
  <scstep>
   <time name="dav">    0.11    0.11</time>
   <time name="total">    0.59    0.59</time>
   <energy>
    <i name="e_fr_energy">     -0.02221763 </i>
    <i name="e_wo_entrp">     -0.00683694 </i>
    <i name="e_0_energy">     -0.01452729 </i>
   </energy>
  </scstep>
  <scstep>
   <time name="dav">    0.10    0.10</time>
   <time name="total">    0.56    0.56</time>
   <energy>
    <i name="e_fr_energy">     -0.02356383 </i>
    <i name="e_wo_entrp">     -0.00814961 </i>
    <i name="e_0_energy">     -0.01585672 </i>
   </energy>
  </scstep>
  <scstep>
   <time name="dav">    0.10    0.10</time>
   <time name="total">    0.45    0.45</time>
   <energy>
    <i name="alphaZ">      0.08041346 </i>
    <i name="ewald">    -61.28472002 </i>
    <i name="hartreedc">   -311.48732008 </i>
    <i name="XCdc">     26.05829954 </i>
    <i name="pawpsdc">    358.50333476 </i>
    <i name="pawaedc">   -360.26513350 </i>
    <i name="eentropy">     -0.01542365 </i>
    <i name="bandstr">    -83.87629436 </i>
    <i name="atom">    432.26319604 </i>
    <i name="e_fr_energy">     -0.02364782 </i>
    <i name="e_wo_entrp">     -0.00822417 </i>
    <i name="e_0_energy">     -0.01593600 </i>
   </energy>
  </scstep>
  <structure>
   <crystal>
    <varray name="basis" >
     <v>      12.00000000       0.00000000       0.00000000 </v>
     <v>       0.00000000      12.00000000       0.00000000 </v>
     <v>       0.00000000       0.00000000      12.00000000 </v>
    </varray>
    <i name="volume">   1728.00000000 </i>
    <varray name="rec_basis" >
     <v>       0.08333333       0.00000000       0.00000000 </v>
     <v>       0.00000000       0.08333333       0.00000000 </v>
     <v>       0.00000000       0.00000000       0.08333333 </v>
    </varray>
   </crystal>
   <varray name="positions" >
    <v>       0.50000000       0.50000000       0.50000000 </v>
   </varray>
  </structure>
  <varray name="forces" >
   <v>       0.00000000       0.00000000       0.00000000 </v>
  </varray>
  <varray name="stress" >
   <v>      -0.71489199      -0.00000000       0.00000000 </v>
   <v>      -0.00000000      -0.71489199      -0.00000000 </v>
   <v>       0.00000000      -0.00000000      -0.71489199 </v>
  </varray>
  <energy>
   <i name="e_fr_energy">     -0.02364782 </i>
   <i name="e_wo_entrp">     -0.01593600 </i>
   <i name="e_0_energy">     -0.01542365 </i>
  </energy>
  <time name="totalsc">    5.51    5.55</time>
  <eigenvalues>
   <array>
    <dimension dim="1">band</dimension>
    <dimension dim="2">kpoint</dimension>
    <dimension dim="3">spin</dimension>
    <field>eigene</field>
    <field>occ</field>
    <set>
     <set comment="spin 1">
      <set comment="kpoint 1">
       <r>  -23.9383    1.0000 </r>
       <r>   -8.9998    0.6600 </r>
       <r>   -8.9998    0.6600 </r>
       <r>   -8.9998    0.6600 </r>
       <r>   -0.2689    0.0000 </r>
       <r>    0.6546    0.0000 </r>
       <r>    0.8754    0.0000 </r>
       <r>    0.8754    0.0000 </r>
      </set>
     </set>
     <set comment="spin 2">
      <set comment="kpoint 1">
       <r>  -23.9384    1.0000 </r>
       <r>   -9.0000    0.6733 </r>
       <r>   -9.0000    0.6733 </r>
       <r>   -9.0000    0.6733 </r>
       <r>   -0.2833    0.0000 </r>
       <r>    0.6034    0.0000 </r>
       <r>    0.8531    0.0000 </r>
       <r>    0.8531    0.0000 </r>
      </set>
     </set>
    </set>
   </array>
  </eigenvalues>
  <separator name="orbital magnetization" >
   <v name="MAGDIPOLOUT">      0.00000000      0.00000000      0.00000000</v>
  </separator>
  <dos>
   <i name="efermi">     -8.99685434 </i>
   <total>
    <array>
     <dimension dim="1">gridpoints</dimension>
     <dimension dim="2">spin</dimension>
     <field>energy</field>
     <field>total</field>
     <field>integrated</field>
     <set>
      <set comment="spin 1">
       <r>   -25.1791     0.0000     0.0000 </r>
       <r>   -25.0881     0.0000     0.0000 </r>
       <r>   -24.9971     0.0000     0.0000 </r>
       <r>   -24.9061     0.0000     0.0000 </r>
       <r>   -24.8151     0.0000     0.0000 </r>
       <r>   -24.7241     0.0000     0.0000 </r>
       <r>   -24.6332     0.0000     0.0000 </r>
       <r>   -24.5422     0.0000     0.0000 </r>
       <r>   -24.4512     0.0000     0.0000 </r>
       <r>   -24.3602     0.0000     0.0000 </r>
       <r>   -24.2692     0.0000     0.0000 </r>
       <r>   -24.1782     0.0000     0.0000 </r>
       <r>   -24.0873     0.0000     0.0000 </r>
       <r>   -23.9963     0.0000     0.0000 </r>
       <r>   -23.9053    10.9910     1.0000 </r>
       <r>   -23.8143     0.0000     1.0000 </r>
       <r>   -23.7233     0.0000     1.0000 </r>
       <r>   -23.6323     0.0000     1.0000 </r>
       <r>   -23.5414     0.0000     1.0000 </r>
       <r>   -23.4504     0.0000     1.0000 </r>
       <r>   -23.3594     0.0000     1.0000 </r>
       <r>   -23.2684     0.0000     1.0000 </r>
       <r>   -23.1774     0.0000     1.0000 </r>
       <r>   -23.0864     0.0000     1.0000 </r>
       <r>   -22.9955     0.0000     1.0000 </r>
       <r>   -22.9045     0.0000     1.0000 </r>
       <r>   -22.8135     0.0000     1.0000 </r>
       <r>   -22.7225     0.0000     1.0000 </r>
       <r>   -22.6315     0.0000     1.0000 </r>
       <r>   -22.5405     0.0000     1.0000 </r>
       <r>   -22.4495     0.0000     1.0000 </r>
       <r>   -22.3586     0.0000     1.0000 </r>
       <r>   -22.2676     0.0000     1.0000 </r>
       <r>   -22.1766     0.0000     1.0000 </r>
       <r>   -22.0856     0.0000     1.0000 </r>
       <r>   -21.9946     0.0000     1.0000 </r>
       <r>   -21.9036     0.0000     1.0000 </r>
       <r>   -21.8127     0.0000     1.0000 </r>
       <r>   -21.7217     0.0000     1.0000 </r>
       <r>   -21.6307     0.0000     1.0000 </r>
       <r>   -21.5397     0.0000     1.0000 </r>
       <r>   -21.4487     0.0000     1.0000 </r>
       <r>   -21.3577     0.0000     1.0000 </r>
       <r>   -21.2668     0.0000     1.0000 </r>
       <r>   -21.1758     0.0000     1.0000 </r>
       <r>   -21.0848     0.0000     1.0000 </r>
       <r>   -20.9938     0.0000     1.0000 </r>
       <r>   -20.9028     0.0000     1.0000 </r>
       <r>   -20.8118     0.0000     1.0000 </r>
       <r>   -20.7209     0.0000     1.0000 </r>
       <r>   -20.6299     0.0000     1.0000 </r>
       <r>   -20.5389     0.0000     1.0000 </r>
       <r>   -20.4479     0.0000     1.0000 </r>
       <r>   -20.3569     0.0000     1.0000 </r>
       <r>   -20.2659     0.0000     1.0000 </r>
       <r>   -20.1750     0.0000     1.0000 </r>
       <r>   -20.0840     0.0000     1.0000 </r>
       <r>   -19.9930     0.0000     1.0000 </r>
       <r>   -19.9020     0.0000     1.0000 </r>
       <r>   -19.8110     0.0000     1.0000 </r>
       <r>   -19.7200     0.0000     1.0000 </r>
       <r>   -19.6291     0.0000     1.0000 </r>
       <r>   -19.5381     0.0000     1.0000 </r>
       <r>   -19.4471     0.0000     1.0000 </r>
       <r>   -19.3561     0.0000     1.0000 </r>
       <r>   -19.2651     0.0000     1.0000 </r>
       <r>   -19.1741     0.0000     1.0000 </r>
       <r>   -19.0832     0.0000     1.0000 </r>
       <r>   -18.9922     0.0000     1.0000 </r>
       <r>   -18.9012     0.0000     1.0000 </r>
       <r>   -18.8102     0.0000     1.0000 </r>
       <r>   -18.7192     0.0000     1.0000 </r>
       <r>   -18.6282     0.0000     1.0000 </r>
       <r>   -18.5372     0.0000     1.0000 </r>
       <r>   -18.4463     0.0000     1.0000 </r>
       <r>   -18.3553     0.0000     1.0000 </r>
       <r>   -18.2643     0.0000     1.0000 </r>
       <r>   -18.1733     0.0000     1.0000 </r>
       <r>   -18.0823     0.0000     1.0000 </r>
       <r>   -17.9913     0.0000     1.0000 </r>
       <r>   -17.9004     0.0000     1.0000 </r>
       <r>   -17.8094     0.0000     1.0000 </r>
       <r>   -17.7184     0.0000     1.0000 </r>
       <r>   -17.6274     0.0000     1.0000 </r>
       <r>   -17.5364     0.0000     1.0000 </r>
       <r>   -17.4454     0.0000     1.0000 </r>
       <r>   -17.3545     0.0000     1.0000 </r>
       <r>   -17.2635     0.0000     1.0000 </r>
       <r>   -17.1725     0.0000     1.0000 </r>
       <r>   -17.0815     0.0000     1.0000 </r>
       <r>   -16.9905     0.0000     1.0000 </r>
       <r>   -16.8995     0.0000     1.0000 </r>
       <r>   -16.8086     0.0000     1.0000 </r>
       <r>   -16.7176     0.0000     1.0000 </r>
       <r>   -16.6266     0.0000     1.0000 </r>
       <r>   -16.5356     0.0000     1.0000 </r>
       <r>   -16.4446     0.0000     1.0000 </r>
       <r>   -16.3536     0.0000     1.0000 </r>
       <r>   -16.2627     0.0000     1.0000 </r>
       <r>   -16.1717     0.0000     1.0000 </r>
       <r>   -16.0807     0.0000     1.0000 </r>
       <r>   -15.9897     0.0000     1.0000 </r>
       <r>   -15.8987     0.0000     1.0000 </r>
       <r>   -15.8077     0.0000     1.0000 </r>
       <r>   -15.7168     0.0000     1.0000 </r>
       <r>   -15.6258     0.0000     1.0000 </r>
       <r>   -15.5348     0.0000     1.0000 </r>
       <r>   -15.4438     0.0000     1.0000 </r>
       <r>   -15.3528     0.0000     1.0000 </r>
       <r>   -15.2618     0.0000     1.0000 </r>
       <r>   -15.1709     0.0000     1.0000 </r>
       <r>   -15.0799     0.0000     1.0000 </r>
       <r>   -14.9889     0.0000     1.0000 </r>
       <r>   -14.8979     0.0000     1.0000 </r>
       <r>   -14.8069     0.0000     1.0000 </r>
       <r>   -14.7159     0.0000     1.0000 </r>
       <r>   -14.6249     0.0000     1.0000 </r>
       <r>   -14.5340     0.0000     1.0000 </r>
       <r>   -14.4430     0.0000     1.0000 </r>
       <r>   -14.3520     0.0000     1.0000 </r>
       <r>   -14.2610     0.0000     1.0000 </r>
       <r>   -14.1700     0.0000     1.0000 </r>
       <r>   -14.0790     0.0000     1.0000 </r>
       <r>   -13.9881     0.0000     1.0000 </r>
       <r>   -13.8971     0.0000     1.0000 </r>
       <r>   -13.8061     0.0000     1.0000 </r>
       <r>   -13.7151     0.0000     1.0000 </r>
       <r>   -13.6241     0.0000     1.0000 </r>
       <r>   -13.5331     0.0000     1.0000 </r>
       <r>   -13.4422     0.0000     1.0000 </r>
       <r>   -13.3512     0.0000     1.0000 </r>
       <r>   -13.2602     0.0000     1.0000 </r>
       <r>   -13.1692     0.0000     1.0000 </r>
       <r>   -13.0782     0.0000     1.0000 </r>
       <r>   -12.9872     0.0000     1.0000 </r>
       <r>   -12.8963     0.0000     1.0000 </r>
       <r>   -12.8053     0.0000     1.0000 </r>
       <r>   -12.7143     0.0000     1.0000 </r>
       <r>   -12.6233     0.0000     1.0000 </r>
       <r>   -12.5323     0.0000     1.0000 </r>
       <r>   -12.4413     0.0000     1.0000 </r>
       <r>   -12.3504     0.0000     1.0000 </r>
       <r>   -12.2594     0.0000     1.0000 </r>
       <r>   -12.1684     0.0000     1.0000 </r>
       <r>   -12.0774     0.0000     1.0000 </r>
       <r>   -11.9864     0.0000     1.0000 </r>
       <r>   -11.8954     0.0000     1.0000 </r>
       <r>   -11.8045     0.0000     1.0000 </r>
       <r>   -11.7135     0.0000     1.0000 </r>
       <r>   -11.6225     0.0000     1.0000 </r>
       <r>   -11.5315     0.0000     1.0000 </r>
       <r>   -11.4405     0.0000     1.0000 </r>
       <r>   -11.3495     0.0000     1.0000 </r>
       <r>   -11.2585     0.0000     1.0000 </r>
       <r>   -11.1676     0.0000     1.0000 </r>
       <r>   -11.0766     0.0000     1.0000 </r>
       <r>   -10.9856     0.0000     1.0000 </r>
       <r>   -10.8946     0.0000     1.0000 </r>
       <r>   -10.8036     0.0000     1.0000 </r>
       <r>   -10.7126     0.0000     1.0000 </r>
       <r>   -10.6217     0.0000     1.0000 </r>
       <r>   -10.5307     0.0000     1.0000 </r>
       <r>   -10.4397     0.0000     1.0000 </r>
       <r>   -10.3487     0.0000     1.0000 </r>
       <r>   -10.2577     0.0000     1.0000 </r>
       <r>   -10.1667     0.0000     1.0000 </r>
       <r>   -10.0758     0.0000     1.0000 </r>
       <r>    -9.9848     0.0000     1.0000 </r>
       <r>    -9.8938     0.0000     1.0000 </r>
       <r>    -9.8028     0.0000     1.0000 </r>
       <r>    -9.7118     0.0000     1.0000 </r>
       <r>    -9.6208     0.0000     1.0000 </r>
       <r>    -9.5299     0.0000     1.0000 </r>
       <r>    -9.4389     0.0000     1.0000 </r>
       <r>    -9.3479     0.0000     1.0000 </r>
       <r>    -9.2569     0.0000     1.0000 </r>
       <r>    -9.1659     0.0000     1.0000 </r>
       <r>    -9.0749     0.0000     1.0000 </r>
       <r>    -8.9840    32.5555     3.9620 </r>
       <r>    -8.8930     0.0000     4.0000 </r>
       <r>    -8.8020     0.0000     4.0000 </r>
       <r>    -8.7110     0.0000     4.0000 </r>
       <r>    -8.6200     0.0000     4.0000 </r>
       <r>    -8.5290     0.0000     4.0000 </r>
       <r>    -8.4381     0.0000     4.0000 </r>
       <r>    -8.3471     0.0000     4.0000 </r>
       <r>    -8.2561     0.0000     4.0000 </r>
       <r>    -8.1651     0.0000     4.0000 </r>
       <r>    -8.0741     0.0000     4.0000 </r>
       <r>    -7.9831     0.0000     4.0000 </r>
       <r>    -7.8922     0.0000     4.0000 </r>
       <r>    -7.8012     0.0000     4.0000 </r>
       <r>    -7.7102     0.0000     4.0000 </r>
       <r>    -7.6192     0.0000     4.0000 </r>
       <r>    -7.5282     0.0000     4.0000 </r>
       <r>    -7.4372     0.0000     4.0000 </r>
       <r>    -7.3462     0.0000     4.0000 </r>
       <r>    -7.2553     0.0000     4.0000 </r>
       <r>    -7.1643     0.0000     4.0000 </r>
       <r>    -7.0733     0.0000     4.0000 </r>
       <r>    -6.9823     0.0000     4.0000 </r>
       <r>    -6.8913     0.0000     4.0000 </r>
       <r>    -6.8003     0.0000     4.0000 </r>
       <r>    -6.7094     0.0000     4.0000 </r>
       <r>    -6.6184     0.0000     4.0000 </r>
       <r>    -6.5274     0.0000     4.0000 </r>
       <r>    -6.4364     0.0000     4.0000 </r>
       <r>    -6.3454     0.0000     4.0000 </r>
       <r>    -6.2544     0.0000     4.0000 </r>
       <r>    -6.1635     0.0000     4.0000 </r>
       <r>    -6.0725     0.0000     4.0000 </r>
       <r>    -5.9815     0.0000     4.0000 </r>
       <r>    -5.8905     0.0000     4.0000 </r>
       <r>    -5.7995     0.0000     4.0000 </r>
       <r>    -5.7085     0.0000     4.0000 </r>
       <r>    -5.6176     0.0000     4.0000 </r>
       <r>    -5.5266     0.0000     4.0000 </r>
       <r>    -5.4356     0.0000     4.0000 </r>
       <r>    -5.3446     0.0000     4.0000 </r>
       <r>    -5.2536     0.0000     4.0000 </r>
       <r>    -5.1626     0.0000     4.0000 </r>
       <r>    -5.0717     0.0000     4.0000 </r>
       <r>    -4.9807     0.0000     4.0000 </r>
       <r>    -4.8897     0.0000     4.0000 </r>
       <r>    -4.7987     0.0000     4.0000 </r>
       <r>    -4.7077     0.0000     4.0000 </r>
       <r>    -4.6167     0.0000     4.0000 </r>
       <r>    -4.5258     0.0000     4.0000 </r>
       <r>    -4.4348     0.0000     4.0000 </r>
       <r>    -4.3438     0.0000     4.0000 </r>
       <r>    -4.2528     0.0000     4.0000 </r>
       <r>    -4.1618     0.0000     4.0000 </r>
       <r>    -4.0708     0.0000     4.0000 </r>
       <r>    -3.9799     0.0000     4.0000 </r>
       <r>    -3.8889     0.0000     4.0000 </r>
       <r>    -3.7979     0.0000     4.0000 </r>
       <r>    -3.7069     0.0000     4.0000 </r>
       <r>    -3.6159     0.0000     4.0000 </r>
       <r>    -3.5249     0.0000     4.0000 </r>
       <r>    -3.4339     0.0000     4.0000 </r>
       <r>    -3.3430     0.0000     4.0000 </r>
       <r>    -3.2520     0.0000     4.0000 </r>
       <r>    -3.1610     0.0000     4.0000 </r>
       <r>    -3.0700     0.0000     4.0000 </r>
       <r>    -2.9790     0.0000     4.0000 </r>
       <r>    -2.8880     0.0000     4.0000 </r>
       <r>    -2.7971     0.0000     4.0000 </r>
       <r>    -2.7061     0.0000     4.0000 </r>
       <r>    -2.6151     0.0000     4.0000 </r>
       <r>    -2.5241     0.0000     4.0000 </r>
       <r>    -2.4331     0.0000     4.0000 </r>
       <r>    -2.3421     0.0000     4.0000 </r>
       <r>    -2.2512     0.0000     4.0000 </r>
       <r>    -2.1602     0.0000     4.0000 </r>
       <r>    -2.0692     0.0000     4.0000 </r>
       <r>    -1.9782     0.0000     4.0000 </r>
       <r>    -1.8872     0.0000     4.0000 </r>
       <r>    -1.7962     0.0000     4.0000 </r>
       <r>    -1.7053     0.0000     4.0000 </r>
       <r>    -1.6143     0.0000     4.0000 </r>
       <r>    -1.5233     0.0000     4.0000 </r>
       <r>    -1.4323     0.0000     4.0000 </r>
       <r>    -1.3413     0.0000     4.0000 </r>
       <r>    -1.2503     0.0000     4.0000 </r>
       <r>    -1.1594     0.0000     4.0000 </r>
       <r>    -1.0684     0.0000     4.0000 </r>
       <r>    -0.9774     0.0000     4.0000 </r>
       <r>    -0.8864     0.0000     4.0000 </r>
       <r>    -0.7954     0.0000     4.0000 </r>
       <r>    -0.7044     0.0000     4.0000 </r>
       <r>    -0.6135     0.0000     4.0000 </r>
       <r>    -0.5225     0.0000     4.0000 </r>
       <r>    -0.4315     0.0000     4.0000 </r>
       <r>    -0.3405     0.0000     4.0000 </r>
       <r>    -0.2495    10.9569     4.9969 </r>
       <r>    -0.1585     0.0000     5.0000 </r>
       <r>    -0.0675     0.0000     5.0000 </r>
       <r>     0.0234     0.0000     5.0000 </r>
       <r>     0.1144     0.0000     5.0000 </r>
       <r>     0.2054     0.0000     5.0000 </r>
       <r>     0.2964     0.0000     5.0000 </r>
       <r>     0.3874     0.0000     5.0000 </r>
       <r>     0.4784     0.0000     5.0000 </r>
       <r>     0.5693     0.0000     5.0000 </r>
       <r>     0.6603     8.6885     5.7905 </r>
       <r>     0.7513     0.0000     6.0000 </r>
       <r>     0.8423     0.0000     6.0000 </r>
       <r>     0.9333    21.9819     8.0000 </r>
       <r>     1.0243     0.0000     8.0000 </r>
       <r>     1.1152     0.0000     8.0000 </r>
       <r>     1.2062     0.0000     8.0000 </r>
       <r>     1.2972     0.0000     8.0000 </r>
       <r>     1.3882     0.0000     8.0000 </r>
       <r>     1.4792     0.0000     8.0000 </r>
       <r>     1.5702     0.0000     8.0000 </r>
       <r>     1.6611     0.0000     8.0000 </r>
       <r>     1.7521     0.0000     8.0000 </r>
       <r>     1.8431     0.0000     8.0000 </r>
       <r>     1.9341     0.0000     8.0000 </r>
       <r>     2.0251     0.0000     8.0000 </r>
       <r>     2.1161     0.0000     8.0000 </r>
      </set>
      <set comment="spin 2">
       <r>   -25.1791     0.0000     0.0000 </r>
       <r>   -25.0881     0.0000     0.0000 </r>
       <r>   -24.9971     0.0000     0.0000 </r>
       <r>   -24.9061     0.0000     0.0000 </r>
       <r>   -24.8151     0.0000     0.0000 </r>
       <r>   -24.7241     0.0000     0.0000 </r>
       <r>   -24.6332     0.0000     0.0000 </r>
       <r>   -24.5422     0.0000     0.0000 </r>
       <r>   -24.4512     0.0000     0.0000 </r>
       <r>   -24.3602     0.0000     0.0000 </r>
       <r>   -24.2692     0.0000     0.0000 </r>
       <r>   -24.1782     0.0000     0.0000 </r>
       <r>   -24.0873     0.0000     0.0000 </r>
       <r>   -23.9963     0.0000     0.0000 </r>
       <r>   -23.9053    10.9910     1.0000 </r>
       <r>   -23.8143     0.0000     1.0000 </r>
       <r>   -23.7233     0.0000     1.0000 </r>
       <r>   -23.6323     0.0000     1.0000 </r>
       <r>   -23.5414     0.0000     1.0000 </r>
       <r>   -23.4504     0.0000     1.0000 </r>
       <r>   -23.3594     0.0000     1.0000 </r>
       <r>   -23.2684     0.0000     1.0000 </r>
       <r>   -23.1774     0.0000     1.0000 </r>
       <r>   -23.0864     0.0000     1.0000 </r>
       <r>   -22.9955     0.0000     1.0000 </r>
       <r>   -22.9045     0.0000     1.0000 </r>
       <r>   -22.8135     0.0000     1.0000 </r>
       <r>   -22.7225     0.0000     1.0000 </r>
       <r>   -22.6315     0.0000     1.0000 </r>
       <r>   -22.5405     0.0000     1.0000 </r>
       <r>   -22.4495     0.0000     1.0000 </r>
       <r>   -22.3586     0.0000     1.0000 </r>
       <r>   -22.2676     0.0000     1.0000 </r>
       <r>   -22.1766     0.0000     1.0000 </r>
       <r>   -22.0856     0.0000     1.0000 </r>
       <r>   -21.9946     0.0000     1.0000 </r>
       <r>   -21.9036     0.0000     1.0000 </r>
       <r>   -21.8127     0.0000     1.0000 </r>
       <r>   -21.7217     0.0000     1.0000 </r>
       <r>   -21.6307     0.0000     1.0000 </r>
       <r>   -21.5397     0.0000     1.0000 </r>
       <r>   -21.4487     0.0000     1.0000 </r>
       <r>   -21.3577     0.0000     1.0000 </r>
       <r>   -21.2668     0.0000     1.0000 </r>
       <r>   -21.1758     0.0000     1.0000 </r>
       <r>   -21.0848     0.0000     1.0000 </r>
       <r>   -20.9938     0.0000     1.0000 </r>
       <r>   -20.9028     0.0000     1.0000 </r>
       <r>   -20.8118     0.0000     1.0000 </r>
       <r>   -20.7209     0.0000     1.0000 </r>
       <r>   -20.6299     0.0000     1.0000 </r>
       <r>   -20.5389     0.0000     1.0000 </r>
       <r>   -20.4479     0.0000     1.0000 </r>
       <r>   -20.3569     0.0000     1.0000 </r>
       <r>   -20.2659     0.0000     1.0000 </r>
       <r>   -20.1750     0.0000     1.0000 </r>
       <r>   -20.0840     0.0000     1.0000 </r>
       <r>   -19.9930     0.0000     1.0000 </r>
       <r>   -19.9020     0.0000     1.0000 </r>
       <r>   -19.8110     0.0000     1.0000 </r>
       <r>   -19.7200     0.0000     1.0000 </r>
       <r>   -19.6291     0.0000     1.0000 </r>
       <r>   -19.5381     0.0000     1.0000 </r>
       <r>   -19.4471     0.0000     1.0000 </r>
       <r>   -19.3561     0.0000     1.0000 </r>
       <r>   -19.2651     0.0000     1.0000 </r>
       <r>   -19.1741     0.0000     1.0000 </r>
       <r>   -19.0832     0.0000     1.0000 </r>
       <r>   -18.9922     0.0000     1.0000 </r>
       <r>   -18.9012     0.0000     1.0000 </r>
       <r>   -18.8102     0.0000     1.0000 </r>
       <r>   -18.7192     0.0000     1.0000 </r>
       <r>   -18.6282     0.0000     1.0000 </r>
       <r>   -18.5372     0.0000     1.0000 </r>
       <r>   -18.4463     0.0000     1.0000 </r>
       <r>   -18.3553     0.0000     1.0000 </r>
       <r>   -18.2643     0.0000     1.0000 </r>
       <r>   -18.1733     0.0000     1.0000 </r>
       <r>   -18.0823     0.0000     1.0000 </r>
       <r>   -17.9913     0.0000     1.0000 </r>
       <r>   -17.9004     0.0000     1.0000 </r>
       <r>   -17.8094     0.0000     1.0000 </r>
       <r>   -17.7184     0.0000     1.0000 </r>
       <r>   -17.6274     0.0000     1.0000 </r>
       <r>   -17.5364     0.0000     1.0000 </r>
       <r>   -17.4454     0.0000     1.0000 </r>
       <r>   -17.3545     0.0000     1.0000 </r>
       <r>   -17.2635     0.0000     1.0000 </r>
       <r>   -17.1725     0.0000     1.0000 </r>
       <r>   -17.0815     0.0000     1.0000 </r>
       <r>   -16.9905     0.0000     1.0000 </r>
       <r>   -16.8995     0.0000     1.0000 </r>
       <r>   -16.8086     0.0000     1.0000 </r>
       <r>   -16.7176     0.0000     1.0000 </r>
       <r>   -16.6266     0.0000     1.0000 </r>
       <r>   -16.5356     0.0000     1.0000 </r>
       <r>   -16.4446     0.0000     1.0000 </r>
       <r>   -16.3536     0.0000     1.0000 </r>
       <r>   -16.2627     0.0000     1.0000 </r>
       <r>   -16.1717     0.0000     1.0000 </r>
       <r>   -16.0807     0.0000     1.0000 </r>
       <r>   -15.9897     0.0000     1.0000 </r>
       <r>   -15.8987     0.0000     1.0000 </r>
       <r>   -15.8077     0.0000     1.0000 </r>
       <r>   -15.7168     0.0000     1.0000 </r>
       <r>   -15.6258     0.0000     1.0000 </r>
       <r>   -15.5348     0.0000     1.0000 </r>
       <r>   -15.4438     0.0000     1.0000 </r>
       <r>   -15.3528     0.0000     1.0000 </r>
       <r>   -15.2618     0.0000     1.0000 </r>
       <r>   -15.1709     0.0000     1.0000 </r>
       <r>   -15.0799     0.0000     1.0000 </r>
       <r>   -14.9889     0.0000     1.0000 </r>
       <r>   -14.8979     0.0000     1.0000 </r>
       <r>   -14.8069     0.0000     1.0000 </r>
       <r>   -14.7159     0.0000     1.0000 </r>
       <r>   -14.6249     0.0000     1.0000 </r>
       <r>   -14.5340     0.0000     1.0000 </r>
       <r>   -14.4430     0.0000     1.0000 </r>
       <r>   -14.3520     0.0000     1.0000 </r>
       <r>   -14.2610     0.0000     1.0000 </r>
       <r>   -14.1700     0.0000     1.0000 </r>
       <r>   -14.0790     0.0000     1.0000 </r>
       <r>   -13.9881     0.0000     1.0000 </r>
       <r>   -13.8971     0.0000     1.0000 </r>
       <r>   -13.8061     0.0000     1.0000 </r>
       <r>   -13.7151     0.0000     1.0000 </r>
       <r>   -13.6241     0.0000     1.0000 </r>
       <r>   -13.5331     0.0000     1.0000 </r>
       <r>   -13.4422     0.0000     1.0000 </r>
       <r>   -13.3512     0.0000     1.0000 </r>
       <r>   -13.2602     0.0000     1.0000 </r>
       <r>   -13.1692     0.0000     1.0000 </r>
       <r>   -13.0782     0.0000     1.0000 </r>
       <r>   -12.9872     0.0000     1.0000 </r>
       <r>   -12.8963     0.0000     1.0000 </r>
       <r>   -12.8053     0.0000     1.0000 </r>
       <r>   -12.7143     0.0000     1.0000 </r>
       <r>   -12.6233     0.0000     1.0000 </r>
       <r>   -12.5323     0.0000     1.0000 </r>
       <r>   -12.4413     0.0000     1.0000 </r>
       <r>   -12.3504     0.0000     1.0000 </r>
       <r>   -12.2594     0.0000     1.0000 </r>
       <r>   -12.1684     0.0000     1.0000 </r>
       <r>   -12.0774     0.0000     1.0000 </r>
       <r>   -11.9864     0.0000     1.0000 </r>
       <r>   -11.8954     0.0000     1.0000 </r>
       <r>   -11.8045     0.0000     1.0000 </r>
       <r>   -11.7135     0.0000     1.0000 </r>
       <r>   -11.6225     0.0000     1.0000 </r>
       <r>   -11.5315     0.0000     1.0000 </r>
       <r>   -11.4405     0.0000     1.0000 </r>
       <r>   -11.3495     0.0000     1.0000 </r>
       <r>   -11.2585     0.0000     1.0000 </r>
       <r>   -11.1676     0.0000     1.0000 </r>
       <r>   -11.0766     0.0000     1.0000 </r>
       <r>   -10.9856     0.0000     1.0000 </r>
       <r>   -10.8946     0.0000     1.0000 </r>
       <r>   -10.8036     0.0000     1.0000 </r>
       <r>   -10.7126     0.0000     1.0000 </r>
       <r>   -10.6217     0.0000     1.0000 </r>
       <r>   -10.5307     0.0000     1.0000 </r>
       <r>   -10.4397     0.0000     1.0000 </r>
       <r>   -10.3487     0.0000     1.0000 </r>
       <r>   -10.2577     0.0000     1.0000 </r>
       <r>   -10.1667     0.0000     1.0000 </r>
       <r>   -10.0758     0.0000     1.0000 </r>
       <r>    -9.9848     0.0000     1.0000 </r>
       <r>    -9.8938     0.0000     1.0000 </r>
       <r>    -9.8028     0.0000     1.0000 </r>
       <r>    -9.7118     0.0000     1.0000 </r>
       <r>    -9.6208     0.0000     1.0000 </r>
       <r>    -9.5299     0.0000     1.0000 </r>
       <r>    -9.4389     0.0000     1.0000 </r>
       <r>    -9.3479     0.0000     1.0000 </r>
       <r>    -9.2569     0.0000     1.0000 </r>
       <r>    -9.1659     0.0000     1.0000 </r>
       <r>    -9.0749     0.0000     1.0000 </r>
       <r>    -8.9840    32.5934     3.9655 </r>
       <r>    -8.8930     0.0000     4.0000 </r>
       <r>    -8.8020     0.0000     4.0000 </r>
       <r>    -8.7110     0.0000     4.0000 </r>
       <r>    -8.6200     0.0000     4.0000 </r>
       <r>    -8.5290     0.0000     4.0000 </r>
       <r>    -8.4381     0.0000     4.0000 </r>
       <r>    -8.3471     0.0000     4.0000 </r>
       <r>    -8.2561     0.0000     4.0000 </r>
       <r>    -8.1651     0.0000     4.0000 </r>
       <r>    -8.0741     0.0000     4.0000 </r>
       <r>    -7.9831     0.0000     4.0000 </r>
       <r>    -7.8922     0.0000     4.0000 </r>
       <r>    -7.8012     0.0000     4.0000 </r>
       <r>    -7.7102     0.0000     4.0000 </r>
       <r>    -7.6192     0.0000     4.0000 </r>
       <r>    -7.5282     0.0000     4.0000 </r>
       <r>    -7.4372     0.0000     4.0000 </r>
       <r>    -7.3462     0.0000     4.0000 </r>
       <r>    -7.2553     0.0000     4.0000 </r>
       <r>    -7.1643     0.0000     4.0000 </r>
       <r>    -7.0733     0.0000     4.0000 </r>
       <r>    -6.9823     0.0000     4.0000 </r>
       <r>    -6.8913     0.0000     4.0000 </r>
       <r>    -6.8003     0.0000     4.0000 </r>
       <r>    -6.7094     0.0000     4.0000 </r>
       <r>    -6.6184     0.0000     4.0000 </r>
       <r>    -6.5274     0.0000     4.0000 </r>
       <r>    -6.4364     0.0000     4.0000 </r>
       <r>    -6.3454     0.0000     4.0000 </r>
       <r>    -6.2544     0.0000     4.0000 </r>
       <r>    -6.1635     0.0000     4.0000 </r>
       <r>    -6.0725     0.0000     4.0000 </r>
       <r>    -5.9815     0.0000     4.0000 </r>
       <r>    -5.8905     0.0000     4.0000 </r>
       <r>    -5.7995     0.0000     4.0000 </r>
       <r>    -5.7085     0.0000     4.0000 </r>
       <r>    -5.6176     0.0000     4.0000 </r>
       <r>    -5.5266     0.0000     4.0000 </r>
       <r>    -5.4356     0.0000     4.0000 </r>
       <r>    -5.3446     0.0000     4.0000 </r>
       <r>    -5.2536     0.0000     4.0000 </r>
       <r>    -5.1626     0.0000     4.0000 </r>
       <r>    -5.0717     0.0000     4.0000 </r>
       <r>    -4.9807     0.0000     4.0000 </r>
       <r>    -4.8897     0.0000     4.0000 </r>
       <r>    -4.7987     0.0000     4.0000 </r>
       <r>    -4.7077     0.0000     4.0000 </r>
       <r>    -4.6167     0.0000     4.0000 </r>
       <r>    -4.5258     0.0000     4.0000 </r>
       <r>    -4.4348     0.0000     4.0000 </r>
       <r>    -4.3438     0.0000     4.0000 </r>
       <r>    -4.2528     0.0000     4.0000 </r>
       <r>    -4.1618     0.0000     4.0000 </r>
       <r>    -4.0708     0.0000     4.0000 </r>
       <r>    -3.9799     0.0000     4.0000 </r>
       <r>    -3.8889     0.0000     4.0000 </r>
       <r>    -3.7979     0.0000     4.0000 </r>
       <r>    -3.7069     0.0000     4.0000 </r>
       <r>    -3.6159     0.0000     4.0000 </r>
       <r>    -3.5249     0.0000     4.0000 </r>
       <r>    -3.4339     0.0000     4.0000 </r>
       <r>    -3.3430     0.0000     4.0000 </r>
       <r>    -3.2520     0.0000     4.0000 </r>
       <r>    -3.1610     0.0000     4.0000 </r>
       <r>    -3.0700     0.0000     4.0000 </r>
       <r>    -2.9790     0.0000     4.0000 </r>
       <r>    -2.8880     0.0000     4.0000 </r>
       <r>    -2.7971     0.0000     4.0000 </r>
       <r>    -2.7061     0.0000     4.0000 </r>
       <r>    -2.6151     0.0000     4.0000 </r>
       <r>    -2.5241     0.0000     4.0000 </r>
       <r>    -2.4331     0.0000     4.0000 </r>
       <r>    -2.3421     0.0000     4.0000 </r>
       <r>    -2.2512     0.0000     4.0000 </r>
       <r>    -2.1602     0.0000     4.0000 </r>
       <r>    -2.0692     0.0000     4.0000 </r>
       <r>    -1.9782     0.0000     4.0000 </r>
       <r>    -1.8872     0.0000     4.0000 </r>
       <r>    -1.7962     0.0000     4.0000 </r>
       <r>    -1.7053     0.0000     4.0000 </r>
       <r>    -1.6143     0.0000     4.0000 </r>
       <r>    -1.5233     0.0000     4.0000 </r>
       <r>    -1.4323     0.0000     4.0000 </r>
       <r>    -1.3413     0.0000     4.0000 </r>
       <r>    -1.2503     0.0000     4.0000 </r>
       <r>    -1.1594     0.0000     4.0000 </r>
       <r>    -1.0684     0.0000     4.0000 </r>
       <r>    -0.9774     0.0000     4.0000 </r>
       <r>    -0.8864     0.0000     4.0000 </r>
       <r>    -0.7954     0.0000     4.0000 </r>
       <r>    -0.7044     0.0000     4.0000 </r>
       <r>    -0.6135     0.0000     4.0000 </r>
       <r>    -0.5225     0.0000     4.0000 </r>
       <r>    -0.4315     0.0000     4.0000 </r>
       <r>    -0.3405     0.0000     4.0000 </r>
       <r>    -0.2495    10.9910     5.0000 </r>
       <r>    -0.1585     0.0000     5.0000 </r>
       <r>    -0.0675     0.0000     5.0000 </r>
       <r>     0.0234     0.0000     5.0000 </r>
       <r>     0.1144     0.0000     5.0000 </r>
       <r>     0.2054     0.0000     5.0000 </r>
       <r>     0.2964     0.0000     5.0000 </r>
       <r>     0.3874     0.0000     5.0000 </r>
       <r>     0.4784     0.0000     5.0000 </r>
       <r>     0.5693     0.0000     5.0000 </r>
       <r>     0.6603    10.9910     6.0000 </r>
       <r>     0.7513     0.0000     6.0000 </r>
       <r>     0.8423     1.3916     6.1266 </r>
       <r>     0.9333     0.0000     8.0000 </r>
       <r>     1.0243     0.0000     8.0000 </r>
       <r>     1.1152     0.0000     8.0000 </r>
       <r>     1.2062     0.0000     8.0000 </r>
       <r>     1.2972     0.0000     8.0000 </r>
       <r>     1.3882     0.0000     8.0000 </r>
       <r>     1.4792     0.0000     8.0000 </r>
       <r>     1.5702     0.0000     8.0000 </r>
       <r>     1.6611     0.0000     8.0000 </r>
       <r>     1.7521     0.0000     8.0000 </r>
       <r>     1.8431     0.0000     8.0000 </r>
       <r>     1.9341     0.0000     8.0000 </r>
       <r>     2.0251     0.0000     8.0000 </r>
       <r>     2.1161     0.0000     8.0000 </r>
      </set>
     </set>
    </array>
   </total>
   <partial>
    <array>
     <dimension dim="1">gridpoints</dimension>
     <dimension dim="2">spin</dimension>
     <dimension dim="3">ion</dimension>
     <field>energy</field>
     <field>  s</field>
     <field> py</field>
     <field> pz</field>
     <field> px</field>
     <field>dxy</field>
     <field>dyz</field>
     <field>dz2</field>
     <field>dxz</field>
     <field>dx2</field>
     <set>
      <set comment="ion 1">
       <set comment="spin 1">
        <r>   -25.1791     0.0000     0.0000     0.0000     0.0000     0.0000     0.0000     0.0000     0.0000     0.0000 </r>
        <r>   -25.0881     0.0000     0.0000     0.0000     0.0000     0.0000     0.0000     0.0000     0.0000     0.0000 </r>
        <r>   -24.9971     0.0000     0.0000     0.0000     0.0000     0.0000     0.0000     0.0000     0.0000     0.0000 </r>
        <r>   -24.9061     0.0000     0.0000     0.0000     0.0000     0.0000     0.0000     0.0000     0.0000     0.0000 </r>
        <r>   -24.8151     0.0000     0.0000     0.0000     0.0000     0.0000     0.0000     0.0000     0.0000     0.0000 </r>
        <r>   -24.7241     0.0000     0.0000     0.0000     0.0000     0.0000     0.0000     0.0000     0.0000     0.0000 </r>
        <r>   -24.6332     0.0000     0.0000     0.0000     0.0000     0.0000     0.0000     0.0000     0.0000     0.0000 </r>
        <r>   -24.5422     0.0000     0.0000     0.0000     0.0000     0.0000     0.0000     0.0000     0.0000     0.0000 </r>
        <r>   -24.4512     0.0000     0.0000     0.0000     0.0000     0.0000     0.0000     0.0000     0.0000     0.0000 </r>
        <r>   -24.3602     0.0000     0.0000     0.0000     0.0000     0.0000     0.0000     0.0000     0.0000     0.0000 </r>
        <r>   -24.2692     0.0000     0.0000     0.0000     0.0000     0.0000     0.0000     0.0000     0.0000     0.0000 </r>
        <r>   -24.1782     0.0000     0.0000     0.0000     0.0000     0.0000     0.0000     0.0000     0.0000     0.0000 </r>
        <r>   -24.0873     0.0000     0.0000     0.0000     0.0000     0.0000     0.0000     0.0000     0.0000     0.0000 </r>
        <r>   -23.9963     0.0000     0.0000     0.0000     0.0000     0.0000     0.0000     0.0000     0.0000     0.0000 </r>
        <r>   -23.9053     9.1007     0.0000     0.0000     0.0000     0.0000     0.0000     0.0000     0.0000     0.0000 </r>
        <r>   -23.8143     0.0000     0.0000     0.0000     0.0000     0.0000     0.0000     0.0000     0.0000     0.0000 </r>
        <r>   -23.7233     0.0000     0.0000     0.0000     0.0000     0.0000     0.0000     0.0000     0.0000     0.0000 </r>
        <r>   -23.6323     0.0000     0.0000     0.0000     0.0000     0.0000     0.0000     0.0000     0.0000     0.0000 </r>
        <r>   -23.5414     0.0000     0.0000     0.0000     0.0000     0.0000     0.0000     0.0000     0.0000     0.0000 </r>
        <r>   -23.4504     0.0000     0.0000     0.0000     0.0000     0.0000     0.0000     0.0000     0.0000     0.0000 </r>
        <r>   -23.3594     0.0000     0.0000     0.0000     0.0000     0.0000     0.0000     0.0000     0.0000     0.0000 </r>
        <r>   -23.2684     0.0000     0.0000     0.0000     0.0000     0.0000     0.0000     0.0000     0.0000     0.0000 </r>
        <r>   -23.1774     0.0000     0.0000     0.0000     0.0000     0.0000     0.0000     0.0000     0.0000     0.0000 </r>
        <r>   -23.0864     0.0000     0.0000     0.0000     0.0000     0.0000     0.0000     0.0000     0.0000     0.0000 </r>
        <r>   -22.9955     0.0000     0.0000     0.0000     0.0000     0.0000     0.0000     0.0000     0.0000     0.0000 </r>
        <r>   -22.9045     0.0000     0.0000     0.0000     0.0000     0.0000     0.0000     0.0000     0.0000     0.0000 </r>
        <r>   -22.8135     0.0000     0.0000     0.0000     0.0000     0.0000     0.0000     0.0000     0.0000     0.0000 </r>
        <r>   -22.7225     0.0000     0.0000     0.0000     0.0000     0.0000     0.0000     0.0000     0.0000     0.0000 </r>
        <r>   -22.6315     0.0000     0.0000     0.0000     0.0000     0.0000     0.0000     0.0000     0.0000     0.0000 </r>
        <r>   -22.5405     0.0000     0.0000     0.0000     0.0000     0.0000     0.0000     0.0000     0.0000     0.0000 </r>
        <r>   -22.4495     0.0000     0.0000     0.0000     0.0000     0.0000     0.0000     0.0000     0.0000     0.0000 </r>
        <r>   -22.3586     0.0000     0.0000     0.0000     0.0000     0.0000     0.0000     0.0000     0.0000     0.0000 </r>
        <r>   -22.2676     0.0000     0.0000     0.0000     0.0000     0.0000     0.0000     0.0000     0.0000     0.0000 </r>
        <r>   -22.1766     0.0000     0.0000     0.0000     0.0000     0.0000     0.0000     0.0000     0.0000     0.0000 </r>
        <r>   -22.0856     0.0000     0.0000     0.0000     0.0000     0.0000     0.0000     0.0000     0.0000     0.0000 </r>
        <r>   -21.9946     0.0000     0.0000     0.0000     0.0000     0.0000     0.0000     0.0000     0.0000     0.0000 </r>
        <r>   -21.9036     0.0000     0.0000     0.0000     0.0000     0.0000     0.0000     0.0000     0.0000     0.0000 </r>
        <r>   -21.8127     0.0000     0.0000     0.0000     0.0000     0.0000     0.0000     0.0000     0.0000     0.0000 </r>
        <r>   -21.7217     0.0000     0.0000     0.0000     0.0000     0.0000     0.0000     0.0000     0.0000     0.0000 </r>
        <r>   -21.6307     0.0000     0.0000     0.0000     0.0000     0.0000     0.0000     0.0000     0.0000     0.0000 </r>
        <r>   -21.5397     0.0000     0.0000     0.0000     0.0000     0.0000     0.0000     0.0000     0.0000     0.0000 </r>
        <r>   -21.4487     0.0000     0.0000     0.0000     0.0000     0.0000     0.0000     0.0000     0.0000     0.0000 </r>
        <r>   -21.3577     0.0000     0.0000     0.0000     0.0000     0.0000     0.0000     0.0000     0.0000     0.0000 </r>
        <r>   -21.2668     0.0000     0.0000     0.0000     0.0000     0.0000     0.0000     0.0000     0.0000     0.0000 </r>
        <r>   -21.1758     0.0000     0.0000     0.0000     0.0000     0.0000     0.0000     0.0000     0.0000     0.0000 </r>
        <r>   -21.0848     0.0000     0.0000     0.0000     0.0000     0.0000     0.0000     0.0000     0.0000     0.0000 </r>
        <r>   -20.9938     0.0000     0.0000     0.0000     0.0000     0.0000     0.0000     0.0000     0.0000     0.0000 </r>
        <r>   -20.9028     0.0000     0.0000     0.0000     0.0000     0.0000     0.0000     0.0000     0.0000     0.0000 </r>
        <r>   -20.8118     0.0000     0.0000     0.0000     0.0000     0.0000     0.0000     0.0000     0.0000     0.0000 </r>
        <r>   -20.7209     0.0000     0.0000     0.0000     0.0000     0.0000     0.0000     0.0000     0.0000     0.0000 </r>
        <r>   -20.6299     0.0000     0.0000     0.0000     0.0000     0.0000     0.0000     0.0000     0.0000     0.0000 </r>
        <r>   -20.5389     0.0000     0.0000     0.0000     0.0000     0.0000     0.0000     0.0000     0.0000     0.0000 </r>
        <r>   -20.4479     0.0000     0.0000     0.0000     0.0000     0.0000     0.0000     0.0000     0.0000     0.0000 </r>
        <r>   -20.3569     0.0000     0.0000     0.0000     0.0000     0.0000     0.0000     0.0000     0.0000     0.0000 </r>
        <r>   -20.2659     0.0000     0.0000     0.0000     0.0000     0.0000     0.0000     0.0000     0.0000     0.0000 </r>
        <r>   -20.1750     0.0000     0.0000     0.0000     0.0000     0.0000     0.0000     0.0000     0.0000     0.0000 </r>
        <r>   -20.0840     0.0000     0.0000     0.0000     0.0000     0.0000     0.0000     0.0000     0.0000     0.0000 </r>
        <r>   -19.9930     0.0000     0.0000     0.0000     0.0000     0.0000     0.0000     0.0000     0.0000     0.0000 </r>
        <r>   -19.9020     0.0000     0.0000     0.0000     0.0000     0.0000     0.0000     0.0000     0.0000     0.0000 </r>
        <r>   -19.8110     0.0000     0.0000     0.0000     0.0000     0.0000     0.0000     0.0000     0.0000     0.0000 </r>
        <r>   -19.7200     0.0000     0.0000     0.0000     0.0000     0.0000     0.0000     0.0000     0.0000     0.0000 </r>
        <r>   -19.6291     0.0000     0.0000     0.0000     0.0000     0.0000     0.0000     0.0000     0.0000     0.0000 </r>
        <r>   -19.5381     0.0000     0.0000     0.0000     0.0000     0.0000     0.0000     0.0000     0.0000     0.0000 </r>
        <r>   -19.4471     0.0000     0.0000     0.0000     0.0000     0.0000     0.0000     0.0000     0.0000     0.0000 </r>
        <r>   -19.3561     0.0000     0.0000     0.0000     0.0000     0.0000     0.0000     0.0000     0.0000     0.0000 </r>
        <r>   -19.2651     0.0000     0.0000     0.0000     0.0000     0.0000     0.0000     0.0000     0.0000     0.0000 </r>
        <r>   -19.1741     0.0000     0.0000     0.0000     0.0000     0.0000     0.0000     0.0000     0.0000     0.0000 </r>
        <r>   -19.0832     0.0000     0.0000     0.0000     0.0000     0.0000     0.0000     0.0000     0.0000     0.0000 </r>
        <r>   -18.9922     0.0000     0.0000     0.0000     0.0000     0.0000     0.0000     0.0000     0.0000     0.0000 </r>
        <r>   -18.9012     0.0000     0.0000     0.0000     0.0000     0.0000     0.0000     0.0000     0.0000     0.0000 </r>
        <r>   -18.8102     0.0000     0.0000     0.0000     0.0000     0.0000     0.0000     0.0000     0.0000     0.0000 </r>
        <r>   -18.7192     0.0000     0.0000     0.0000     0.0000     0.0000     0.0000     0.0000     0.0000     0.0000 </r>
        <r>   -18.6282     0.0000     0.0000     0.0000     0.0000     0.0000     0.0000     0.0000     0.0000     0.0000 </r>
        <r>   -18.5372     0.0000     0.0000     0.0000     0.0000     0.0000     0.0000     0.0000     0.0000     0.0000 </r>
        <r>   -18.4463     0.0000     0.0000     0.0000     0.0000     0.0000     0.0000     0.0000     0.0000     0.0000 </r>
        <r>   -18.3553     0.0000     0.0000     0.0000     0.0000     0.0000     0.0000     0.0000     0.0000     0.0000 </r>
        <r>   -18.2643     0.0000     0.0000     0.0000     0.0000     0.0000     0.0000     0.0000     0.0000     0.0000 </r>
        <r>   -18.1733     0.0000     0.0000     0.0000     0.0000     0.0000     0.0000     0.0000     0.0000     0.0000 </r>
        <r>   -18.0823     0.0000     0.0000     0.0000     0.0000     0.0000     0.0000     0.0000     0.0000     0.0000 </r>
        <r>   -17.9913     0.0000     0.0000     0.0000     0.0000     0.0000     0.0000     0.0000     0.0000     0.0000 </r>
        <r>   -17.9004     0.0000     0.0000     0.0000     0.0000     0.0000     0.0000     0.0000     0.0000     0.0000 </r>
        <r>   -17.8094     0.0000     0.0000     0.0000     0.0000     0.0000     0.0000     0.0000     0.0000     0.0000 </r>
        <r>   -17.7184     0.0000     0.0000     0.0000     0.0000     0.0000     0.0000     0.0000     0.0000     0.0000 </r>
        <r>   -17.6274     0.0000     0.0000     0.0000     0.0000     0.0000     0.0000     0.0000     0.0000     0.0000 </r>
        <r>   -17.5364     0.0000     0.0000     0.0000     0.0000     0.0000     0.0000     0.0000     0.0000     0.0000 </r>
        <r>   -17.4454     0.0000     0.0000     0.0000     0.0000     0.0000     0.0000     0.0000     0.0000     0.0000 </r>
        <r>   -17.3545     0.0000     0.0000     0.0000     0.0000     0.0000     0.0000     0.0000     0.0000     0.0000 </r>
        <r>   -17.2635     0.0000     0.0000     0.0000     0.0000     0.0000     0.0000     0.0000     0.0000     0.0000 </r>
        <r>   -17.1725     0.0000     0.0000     0.0000     0.0000     0.0000     0.0000     0.0000     0.0000     0.0000 </r>
        <r>   -17.0815     0.0000     0.0000     0.0000     0.0000     0.0000     0.0000     0.0000     0.0000     0.0000 </r>
        <r>   -16.9905     0.0000     0.0000     0.0000     0.0000     0.0000     0.0000     0.0000     0.0000     0.0000 </r>
        <r>   -16.8995     0.0000     0.0000     0.0000     0.0000     0.0000     0.0000     0.0000     0.0000     0.0000 </r>
        <r>   -16.8086     0.0000     0.0000     0.0000     0.0000     0.0000     0.0000     0.0000     0.0000     0.0000 </r>
        <r>   -16.7176     0.0000     0.0000     0.0000     0.0000     0.0000     0.0000     0.0000     0.0000     0.0000 </r>
        <r>   -16.6266     0.0000     0.0000     0.0000     0.0000     0.0000     0.0000     0.0000     0.0000     0.0000 </r>
        <r>   -16.5356     0.0000     0.0000     0.0000     0.0000     0.0000     0.0000     0.0000     0.0000     0.0000 </r>
        <r>   -16.4446     0.0000     0.0000     0.0000     0.0000     0.0000     0.0000     0.0000     0.0000     0.0000 </r>
        <r>   -16.3536     0.0000     0.0000     0.0000     0.0000     0.0000     0.0000     0.0000     0.0000     0.0000 </r>
        <r>   -16.2627     0.0000     0.0000     0.0000     0.0000     0.0000     0.0000     0.0000     0.0000     0.0000 </r>
        <r>   -16.1717     0.0000     0.0000     0.0000     0.0000     0.0000     0.0000     0.0000     0.0000     0.0000 </r>
        <r>   -16.0807     0.0000     0.0000     0.0000     0.0000     0.0000     0.0000     0.0000     0.0000     0.0000 </r>
        <r>   -15.9897     0.0000     0.0000     0.0000     0.0000     0.0000     0.0000     0.0000     0.0000     0.0000 </r>
        <r>   -15.8987     0.0000     0.0000     0.0000     0.0000     0.0000     0.0000     0.0000     0.0000     0.0000 </r>
        <r>   -15.8077     0.0000     0.0000     0.0000     0.0000     0.0000     0.0000     0.0000     0.0000     0.0000 </r>
        <r>   -15.7168     0.0000     0.0000     0.0000     0.0000     0.0000     0.0000     0.0000     0.0000     0.0000 </r>
        <r>   -15.6258     0.0000     0.0000     0.0000     0.0000     0.0000     0.0000     0.0000     0.0000     0.0000 </r>
        <r>   -15.5348     0.0000     0.0000     0.0000     0.0000     0.0000     0.0000     0.0000     0.0000     0.0000 </r>
        <r>   -15.4438     0.0000     0.0000     0.0000     0.0000     0.0000     0.0000     0.0000     0.0000     0.0000 </r>
        <r>   -15.3528     0.0000     0.0000     0.0000     0.0000     0.0000     0.0000     0.0000     0.0000     0.0000 </r>
        <r>   -15.2618     0.0000     0.0000     0.0000     0.0000     0.0000     0.0000     0.0000     0.0000     0.0000 </r>
        <r>   -15.1709     0.0000     0.0000     0.0000     0.0000     0.0000     0.0000     0.0000     0.0000     0.0000 </r>
        <r>   -15.0799     0.0000     0.0000     0.0000     0.0000     0.0000     0.0000     0.0000     0.0000     0.0000 </r>
        <r>   -14.9889     0.0000     0.0000     0.0000     0.0000     0.0000     0.0000     0.0000     0.0000     0.0000 </r>
        <r>   -14.8979     0.0000     0.0000     0.0000     0.0000     0.0000     0.0000     0.0000     0.0000     0.0000 </r>
        <r>   -14.8069     0.0000     0.0000     0.0000     0.0000     0.0000     0.0000     0.0000     0.0000     0.0000 </r>
        <r>   -14.7159     0.0000     0.0000     0.0000     0.0000     0.0000     0.0000     0.0000     0.0000     0.0000 </r>
        <r>   -14.6249     0.0000     0.0000     0.0000     0.0000     0.0000     0.0000     0.0000     0.0000     0.0000 </r>
        <r>   -14.5340     0.0000     0.0000     0.0000     0.0000     0.0000     0.0000     0.0000     0.0000     0.0000 </r>
        <r>   -14.4430     0.0000     0.0000     0.0000     0.0000     0.0000     0.0000     0.0000     0.0000     0.0000 </r>
        <r>   -14.3520     0.0000     0.0000     0.0000     0.0000     0.0000     0.0000     0.0000     0.0000     0.0000 </r>
        <r>   -14.2610     0.0000     0.0000     0.0000     0.0000     0.0000     0.0000     0.0000     0.0000     0.0000 </r>
        <r>   -14.1700     0.0000     0.0000     0.0000     0.0000     0.0000     0.0000     0.0000     0.0000     0.0000 </r>
        <r>   -14.0790     0.0000     0.0000     0.0000     0.0000     0.0000     0.0000     0.0000     0.0000     0.0000 </r>
        <r>   -13.9881     0.0000     0.0000     0.0000     0.0000     0.0000     0.0000     0.0000     0.0000     0.0000 </r>
        <r>   -13.8971     0.0000     0.0000     0.0000     0.0000     0.0000     0.0000     0.0000     0.0000     0.0000 </r>
        <r>   -13.8061     0.0000     0.0000     0.0000     0.0000     0.0000     0.0000     0.0000     0.0000     0.0000 </r>
        <r>   -13.7151     0.0000     0.0000     0.0000     0.0000     0.0000     0.0000     0.0000     0.0000     0.0000 </r>
        <r>   -13.6241     0.0000     0.0000     0.0000     0.0000     0.0000     0.0000     0.0000     0.0000     0.0000 </r>
        <r>   -13.5331     0.0000     0.0000     0.0000     0.0000     0.0000     0.0000     0.0000     0.0000     0.0000 </r>
        <r>   -13.4422     0.0000     0.0000     0.0000     0.0000     0.0000     0.0000     0.0000     0.0000     0.0000 </r>
        <r>   -13.3512     0.0000     0.0000     0.0000     0.0000     0.0000     0.0000     0.0000     0.0000     0.0000 </r>
        <r>   -13.2602     0.0000     0.0000     0.0000     0.0000     0.0000     0.0000     0.0000     0.0000     0.0000 </r>
        <r>   -13.1692     0.0000     0.0000     0.0000     0.0000     0.0000     0.0000     0.0000     0.0000     0.0000 </r>
        <r>   -13.0782     0.0000     0.0000     0.0000     0.0000     0.0000     0.0000     0.0000     0.0000     0.0000 </r>
        <r>   -12.9872     0.0000     0.0000     0.0000     0.0000     0.0000     0.0000     0.0000     0.0000     0.0000 </r>
        <r>   -12.8963     0.0000     0.0000     0.0000     0.0000     0.0000     0.0000     0.0000     0.0000     0.0000 </r>
        <r>   -12.8053     0.0000     0.0000     0.0000     0.0000     0.0000     0.0000     0.0000     0.0000     0.0000 </r>
        <r>   -12.7143     0.0000     0.0000     0.0000     0.0000     0.0000     0.0000     0.0000     0.0000     0.0000 </r>
        <r>   -12.6233     0.0000     0.0000     0.0000     0.0000     0.0000     0.0000     0.0000     0.0000     0.0000 </r>
        <r>   -12.5323     0.0000     0.0000     0.0000     0.0000     0.0000     0.0000     0.0000     0.0000     0.0000 </r>
        <r>   -12.4413     0.0000     0.0000     0.0000     0.0000     0.0000     0.0000     0.0000     0.0000     0.0000 </r>
        <r>   -12.3504     0.0000     0.0000     0.0000     0.0000     0.0000     0.0000     0.0000     0.0000     0.0000 </r>
        <r>   -12.2594     0.0000     0.0000     0.0000     0.0000     0.0000     0.0000     0.0000     0.0000     0.0000 </r>
        <r>   -12.1684     0.0000     0.0000     0.0000     0.0000     0.0000     0.0000     0.0000     0.0000     0.0000 </r>
        <r>   -12.0774     0.0000     0.0000     0.0000     0.0000     0.0000     0.0000     0.0000     0.0000     0.0000 </r>
        <r>   -11.9864     0.0000     0.0000     0.0000     0.0000     0.0000     0.0000     0.0000     0.0000     0.0000 </r>
        <r>   -11.8954     0.0000     0.0000     0.0000     0.0000     0.0000     0.0000     0.0000     0.0000     0.0000 </r>
        <r>   -11.8045     0.0000     0.0000     0.0000     0.0000     0.0000     0.0000     0.0000     0.0000     0.0000 </r>
        <r>   -11.7135     0.0000     0.0000     0.0000     0.0000     0.0000     0.0000     0.0000     0.0000     0.0000 </r>
        <r>   -11.6225     0.0000     0.0000     0.0000     0.0000     0.0000     0.0000     0.0000     0.0000     0.0000 </r>
        <r>   -11.5315     0.0000     0.0000     0.0000     0.0000     0.0000     0.0000     0.0000     0.0000     0.0000 </r>
        <r>   -11.4405     0.0000     0.0000     0.0000     0.0000     0.0000     0.0000     0.0000     0.0000     0.0000 </r>
        <r>   -11.3495     0.0000     0.0000     0.0000     0.0000     0.0000     0.0000     0.0000     0.0000     0.0000 </r>
        <r>   -11.2585     0.0000     0.0000     0.0000     0.0000     0.0000     0.0000     0.0000     0.0000     0.0000 </r>
        <r>   -11.1676     0.0000     0.0000     0.0000     0.0000     0.0000     0.0000     0.0000     0.0000     0.0000 </r>
        <r>   -11.0766     0.0000     0.0000     0.0000     0.0000     0.0000     0.0000     0.0000     0.0000     0.0000 </r>
        <r>   -10.9856     0.0000     0.0000     0.0000     0.0000     0.0000     0.0000     0.0000     0.0000     0.0000 </r>
        <r>   -10.8946     0.0000     0.0000     0.0000     0.0000     0.0000     0.0000     0.0000     0.0000     0.0000 </r>
        <r>   -10.8036     0.0000     0.0000     0.0000     0.0000     0.0000     0.0000     0.0000     0.0000     0.0000 </r>
        <r>   -10.7126     0.0000     0.0000     0.0000     0.0000     0.0000     0.0000     0.0000     0.0000     0.0000 </r>
        <r>   -10.6217     0.0000     0.0000     0.0000     0.0000     0.0000     0.0000     0.0000     0.0000     0.0000 </r>
        <r>   -10.5307     0.0000     0.0000     0.0000     0.0000     0.0000     0.0000     0.0000     0.0000     0.0000 </r>
        <r>   -10.4397     0.0000     0.0000     0.0000     0.0000     0.0000     0.0000     0.0000     0.0000     0.0000 </r>
        <r>   -10.3487     0.0000     0.0000     0.0000     0.0000     0.0000     0.0000     0.0000     0.0000     0.0000 </r>
        <r>   -10.2577     0.0000     0.0000     0.0000     0.0000     0.0000     0.0000     0.0000     0.0000     0.0000 </r>
        <r>   -10.1667     0.0000     0.0000     0.0000     0.0000     0.0000     0.0000     0.0000     0.0000     0.0000 </r>
        <r>   -10.0758     0.0000     0.0000     0.0000     0.0000     0.0000     0.0000     0.0000     0.0000     0.0000 </r>
        <r>    -9.9848     0.0000     0.0000     0.0000     0.0000     0.0000     0.0000     0.0000     0.0000     0.0000 </r>
        <r>    -9.8938     0.0000     0.0000     0.0000     0.0000     0.0000     0.0000     0.0000     0.0000     0.0000 </r>
        <r>    -9.8028     0.0000     0.0000     0.0000     0.0000     0.0000     0.0000     0.0000     0.0000     0.0000 </r>
        <r>    -9.7118     0.0000     0.0000     0.0000     0.0000     0.0000     0.0000     0.0000     0.0000     0.0000 </r>
        <r>    -9.6208     0.0000     0.0000     0.0000     0.0000     0.0000     0.0000     0.0000     0.0000     0.0000 </r>
        <r>    -9.5299     0.0000     0.0000     0.0000     0.0000     0.0000     0.0000     0.0000     0.0000     0.0000 </r>
        <r>    -9.4389     0.0000     0.0000     0.0000     0.0000     0.0000     0.0000     0.0000     0.0000     0.0000 </r>
        <r>    -9.3479     0.0000     0.0000     0.0000     0.0000     0.0000     0.0000     0.0000     0.0000     0.0000 </r>
        <r>    -9.2569     0.0000     0.0000     0.0000     0.0000     0.0000     0.0000     0.0000     0.0000     0.0000 </r>
        <r>    -9.1659     0.0000     0.0000     0.0000     0.0000     0.0000     0.0000     0.0000     0.0000     0.0000 </r>
        <r>    -9.0749     0.0000     0.0000     0.0000     0.0000     0.0000     0.0000     0.0000     0.0000     0.0000 </r>
        <r>    -8.9840     0.0000     7.9173     7.9174     7.9174     0.0000     0.0000     0.0000     0.0000     0.0000 </r>
        <r>    -8.8930     0.0000     0.0000     0.0000     0.0000     0.0000     0.0000     0.0000     0.0000     0.0000 </r>
        <r>    -8.8020     0.0000     0.0000     0.0000     0.0000     0.0000     0.0000     0.0000     0.0000     0.0000 </r>
        <r>    -8.7110     0.0000     0.0000     0.0000     0.0000     0.0000     0.0000     0.0000     0.0000     0.0000 </r>
        <r>    -8.6200     0.0000     0.0000     0.0000     0.0000     0.0000     0.0000     0.0000     0.0000     0.0000 </r>
        <r>    -8.5290     0.0000     0.0000     0.0000     0.0000     0.0000     0.0000     0.0000     0.0000     0.0000 </r>
        <r>    -8.4381     0.0000     0.0000     0.0000     0.0000     0.0000     0.0000     0.0000     0.0000     0.0000 </r>
        <r>    -8.3471     0.0000     0.0000     0.0000     0.0000     0.0000     0.0000     0.0000     0.0000     0.0000 </r>
        <r>    -8.2561     0.0000     0.0000     0.0000     0.0000     0.0000     0.0000     0.0000     0.0000     0.0000 </r>
        <r>    -8.1651     0.0000     0.0000     0.0000     0.0000     0.0000     0.0000     0.0000     0.0000     0.0000 </r>
        <r>    -8.0741     0.0000     0.0000     0.0000     0.0000     0.0000     0.0000     0.0000     0.0000     0.0000 </r>
        <r>    -7.9831     0.0000     0.0000     0.0000     0.0000     0.0000     0.0000     0.0000     0.0000     0.0000 </r>
        <r>    -7.8922     0.0000     0.0000     0.0000     0.0000     0.0000     0.0000     0.0000     0.0000     0.0000 </r>
        <r>    -7.8012     0.0000     0.0000     0.0000     0.0000     0.0000     0.0000     0.0000     0.0000     0.0000 </r>
        <r>    -7.7102     0.0000     0.0000     0.0000     0.0000     0.0000     0.0000     0.0000     0.0000     0.0000 </r>
        <r>    -7.6192     0.0000     0.0000     0.0000     0.0000     0.0000     0.0000     0.0000     0.0000     0.0000 </r>
        <r>    -7.5282     0.0000     0.0000     0.0000     0.0000     0.0000     0.0000     0.0000     0.0000     0.0000 </r>
        <r>    -7.4372     0.0000     0.0000     0.0000     0.0000     0.0000     0.0000     0.0000     0.0000     0.0000 </r>
        <r>    -7.3462     0.0000     0.0000     0.0000     0.0000     0.0000     0.0000     0.0000     0.0000     0.0000 </r>
        <r>    -7.2553     0.0000     0.0000     0.0000     0.0000     0.0000     0.0000     0.0000     0.0000     0.0000 </r>
        <r>    -7.1643     0.0000     0.0000     0.0000     0.0000     0.0000     0.0000     0.0000     0.0000     0.0000 </r>
        <r>    -7.0733     0.0000     0.0000     0.0000     0.0000     0.0000     0.0000     0.0000     0.0000     0.0000 </r>
        <r>    -6.9823     0.0000     0.0000     0.0000     0.0000     0.0000     0.0000     0.0000     0.0000     0.0000 </r>
        <r>    -6.8913     0.0000     0.0000     0.0000     0.0000     0.0000     0.0000     0.0000     0.0000     0.0000 </r>
        <r>    -6.8003     0.0000     0.0000     0.0000     0.0000     0.0000     0.0000     0.0000     0.0000     0.0000 </r>
        <r>    -6.7094     0.0000     0.0000     0.0000     0.0000     0.0000     0.0000     0.0000     0.0000     0.0000 </r>
        <r>    -6.6184     0.0000     0.0000     0.0000     0.0000     0.0000     0.0000     0.0000     0.0000     0.0000 </r>
        <r>    -6.5274     0.0000     0.0000     0.0000     0.0000     0.0000     0.0000     0.0000     0.0000     0.0000 </r>
        <r>    -6.4364     0.0000     0.0000     0.0000     0.0000     0.0000     0.0000     0.0000     0.0000     0.0000 </r>
        <r>    -6.3454     0.0000     0.0000     0.0000     0.0000     0.0000     0.0000     0.0000     0.0000     0.0000 </r>
        <r>    -6.2544     0.0000     0.0000     0.0000     0.0000     0.0000     0.0000     0.0000     0.0000     0.0000 </r>
        <r>    -6.1635     0.0000     0.0000     0.0000     0.0000     0.0000     0.0000     0.0000     0.0000     0.0000 </r>
        <r>    -6.0725     0.0000     0.0000     0.0000     0.0000     0.0000     0.0000     0.0000     0.0000     0.0000 </r>
        <r>    -5.9815     0.0000     0.0000     0.0000     0.0000     0.0000     0.0000     0.0000     0.0000     0.0000 </r>
        <r>    -5.8905     0.0000     0.0000     0.0000     0.0000     0.0000     0.0000     0.0000     0.0000     0.0000 </r>
        <r>    -5.7995     0.0000     0.0000     0.0000     0.0000     0.0000     0.0000     0.0000     0.0000     0.0000 </r>
        <r>    -5.7085     0.0000     0.0000     0.0000     0.0000     0.0000     0.0000     0.0000     0.0000     0.0000 </r>
        <r>    -5.6176     0.0000     0.0000     0.0000     0.0000     0.0000     0.0000     0.0000     0.0000     0.0000 </r>
        <r>    -5.5266     0.0000     0.0000     0.0000     0.0000     0.0000     0.0000     0.0000     0.0000     0.0000 </r>
        <r>    -5.4356     0.0000     0.0000     0.0000     0.0000     0.0000     0.0000     0.0000     0.0000     0.0000 </r>
        <r>    -5.3446     0.0000     0.0000     0.0000     0.0000     0.0000     0.0000     0.0000     0.0000     0.0000 </r>
        <r>    -5.2536     0.0000     0.0000     0.0000     0.0000     0.0000     0.0000     0.0000     0.0000     0.0000 </r>
        <r>    -5.1626     0.0000     0.0000     0.0000     0.0000     0.0000     0.0000     0.0000     0.0000     0.0000 </r>
        <r>    -5.0717     0.0000     0.0000     0.0000     0.0000     0.0000     0.0000     0.0000     0.0000     0.0000 </r>
        <r>    -4.9807     0.0000     0.0000     0.0000     0.0000     0.0000     0.0000     0.0000     0.0000     0.0000 </r>
        <r>    -4.8897     0.0000     0.0000     0.0000     0.0000     0.0000     0.0000     0.0000     0.0000     0.0000 </r>
[...]
        <r>    -8.8020     0.0000     0.0000     0.0000     0.0000     0.0000     0.0000     0.0000     0.0000     0.0000 </r>
        <r>    -8.7110     0.0000     0.0000     0.0000     0.0000     0.0000     0.0000     0.0000     0.0000     0.0000 </r>
        <r>    -8.6200     0.0000     0.0000     0.0000     0.0000     0.0000     0.0000     0.0000     0.0000     0.0000 </r>
        <r>    -8.5290     0.0000     0.0000     0.0000     0.0000     0.0000     0.0000     0.0000     0.0000     0.0000 </r>
        <r>    -8.4381     0.0000     0.0000     0.0000     0.0000     0.0000     0.0000     0.0000     0.0000     0.0000 </r>
        <r>    -8.3471     0.0000     0.0000     0.0000     0.0000     0.0000     0.0000     0.0000     0.0000     0.0000 </r>
        <r>    -8.2561     0.0000     0.0000     0.0000     0.0000     0.0000     0.0000     0.0000     0.0000     0.0000 </r>
        <r>    -8.1651     0.0000     0.0000     0.0000     0.0000     0.0000     0.0000     0.0000     0.0000     0.0000 </r>
        <r>    -8.0741     0.0000     0.0000     0.0000     0.0000     0.0000     0.0000     0.0000     0.0000     0.0000 </r>
        <r>    -7.9831     0.0000     0.0000     0.0000     0.0000     0.0000     0.0000     0.0000     0.0000     0.0000 </r>
        <r>    -7.8922     0.0000     0.0000     0.0000     0.0000     0.0000     0.0000     0.0000     0.0000     0.0000 </r>
        <r>    -7.8012     0.0000     0.0000     0.0000     0.0000     0.0000     0.0000     0.0000     0.0000     0.0000 </r>
        <r>    -7.7102     0.0000     0.0000     0.0000     0.0000     0.0000     0.0000     0.0000     0.0000     0.0000 </r>
        <r>    -7.6192     0.0000     0.0000     0.0000     0.0000     0.0000     0.0000     0.0000     0.0000     0.0000 </r>
        <r>    -7.5282     0.0000     0.0000     0.0000     0.0000     0.0000     0.0000     0.0000     0.0000     0.0000 </r>
        <r>    -7.4372     0.0000     0.0000     0.0000     0.0000     0.0000     0.0000     0.0000     0.0000     0.0000 </r>
        <r>    -7.3462     0.0000     0.0000     0.0000     0.0000     0.0000     0.0000     0.0000     0.0000     0.0000 </r>
        <r>    -7.2553     0.0000     0.0000     0.0000     0.0000     0.0000     0.0000     0.0000     0.0000     0.0000 </r>
        <r>    -7.1643     0.0000     0.0000     0.0000     0.0000     0.0000     0.0000     0.0000     0.0000     0.0000 </r>
        <r>    -7.0733     0.0000     0.0000     0.0000     0.0000     0.0000     0.0000     0.0000     0.0000     0.0000 </r>
        <r>    -6.9823     0.0000     0.0000     0.0000     0.0000     0.0000     0.0000     0.0000     0.0000     0.0000 </r>
        <r>    -6.8913     0.0000     0.0000     0.0000     0.0000     0.0000     0.0000     0.0000     0.0000     0.0000 </r>
        <r>    -6.8003     0.0000     0.0000     0.0000     0.0000     0.0000     0.0000     0.0000     0.0000     0.0000 </r>
        <r>    -6.7094     0.0000     0.0000     0.0000     0.0000     0.0000     0.0000     0.0000     0.0000     0.0000 </r>
        <r>    -6.6184     0.0000     0.0000     0.0000     0.0000     0.0000     0.0000     0.0000     0.0000     0.0000 </r>
        <r>    -6.5274     0.0000     0.0000     0.0000     0.0000     0.0000     0.0000     0.0000     0.0000     0.0000 </r>
        <r>    -6.4364     0.0000     0.0000     0.0000     0.0000     0.0000     0.0000     0.0000     0.0000     0.0000 </r>
        <r>    -6.3454     0.0000     0.0000     0.0000     0.0000     0.0000     0.0000     0.0000     0.0000     0.0000 </r>
        <r>    -6.2544     0.0000     0.0000     0.0000     0.0000     0.0000     0.0000     0.0000     0.0000     0.0000 </r>
        <r>    -6.1635     0.0000     0.0000     0.0000     0.0000     0.0000     0.0000     0.0000     0.0000     0.0000 </r>
        <r>    -6.0725     0.0000     0.0000     0.0000     0.0000     0.0000     0.0000     0.0000     0.0000     0.0000 </r>
        <r>    -5.9815     0.0000     0.0000     0.0000     0.0000     0.0000     0.0000     0.0000     0.0000     0.0000 </r>
        <r>    -5.8905     0.0000     0.0000     0.0000     0.0000     0.0000     0.0000     0.0000     0.0000     0.0000 </r>
        <r>    -5.7995     0.0000     0.0000     0.0000     0.0000     0.0000     0.0000     0.0000     0.0000     0.0000 </r>
        <r>    -5.7085     0.0000     0.0000     0.0000     0.0000     0.0000     0.0000     0.0000     0.0000     0.0000 </r>
        <r>    -5.6176     0.0000     0.0000     0.0000     0.0000     0.0000     0.0000     0.0000     0.0000     0.0000 </r>
        <r>    -5.5266     0.0000     0.0000     0.0000     0.0000     0.0000     0.0000     0.0000     0.0000     0.0000 </r>
        <r>    -5.4356     0.0000     0.0000     0.0000     0.0000     0.0000     0.0000     0.0000     0.0000     0.0000 </r>
        <r>    -5.3446     0.0000     0.0000     0.0000     0.0000     0.0000     0.0000     0.0000     0.0000     0.0000 </r>
        <r>    -5.2536     0.0000     0.0000     0.0000     0.0000     0.0000     0.0000     0.0000     0.0000     0.0000 </r>
        <r>    -5.1626     0.0000     0.0000     0.0000     0.0000     0.0000     0.0000     0.0000     0.0000     0.0000 </r>
        <r>    -5.0717     0.0000     0.0000     0.0000     0.0000     0.0000     0.0000     0.0000     0.0000     0.0000 </r>
        <r>    -4.9807     0.0000     0.0000     0.0000     0.0000     0.0000     0.0000     0.0000     0.0000     0.0000 </r>
        <r>    -4.8897     0.0000     0.0000     0.0000     0.0000     0.0000     0.0000     0.0000     0.0000     0.0000 </r>
        <r>    -4.7987     0.0000     0.0000     0.0000     0.0000     0.0000     0.0000     0.0000     0.0000     0.0000 </r>
        <r>    -4.7077     0.0000     0.0000     0.0000     0.0000     0.0000     0.0000     0.0000     0.0000     0.0000 </r>
        <r>    -4.6167     0.0000     0.0000     0.0000     0.0000     0.0000     0.0000     0.0000     0.0000     0.0000 </r>
        <r>    -4.5258     0.0000     0.0000     0.0000     0.0000     0.0000     0.0000     0.0000     0.0000     0.0000 </r>
        <r>    -4.4348     0.0000     0.0000     0.0000     0.0000     0.0000     0.0000     0.0000     0.0000     0.0000 </r>
        <r>    -4.3438     0.0000     0.0000     0.0000     0.0000     0.0000     0.0000     0.0000     0.0000     0.0000 </r>
        <r>    -4.2528     0.0000     0.0000     0.0000     0.0000     0.0000     0.0000     0.0000     0.0000     0.0000 </r>
        <r>    -4.1618     0.0000     0.0000     0.0000     0.0000     0.0000     0.0000     0.0000     0.0000     0.0000 </r>
        <r>    -4.0708     0.0000     0.0000     0.0000     0.0000     0.0000     0.0000     0.0000     0.0000     0.0000 </r>
        <r>    -3.9799     0.0000     0.0000     0.0000     0.0000     0.0000     0.0000     0.0000     0.0000     0.0000 </r>
        <r>    -3.8889     0.0000     0.0000     0.0000     0.0000     0.0000     0.0000     0.0000     0.0000     0.0000 </r>
        <r>    -3.7979     0.0000     0.0000     0.0000     0.0000     0.0000     0.0000     0.0000     0.0000     0.0000 </r>
        <r>    -3.7069     0.0000     0.0000     0.0000     0.0000     0.0000     0.0000     0.0000     0.0000     0.0000 </r>
        <r>    -3.6159     0.0000     0.0000     0.0000     0.0000     0.0000     0.0000     0.0000     0.0000     0.0000 </r>
        <r>    -3.5249     0.0000     0.0000     0.0000     0.0000     0.0000     0.0000     0.0000     0.0000     0.0000 </r>
        <r>    -3.4339     0.0000     0.0000     0.0000     0.0000     0.0000     0.0000     0.0000     0.0000     0.0000 </r>
        <r>    -3.3430     0.0000     0.0000     0.0000     0.0000     0.0000     0.0000     0.0000     0.0000     0.0000 </r>
        <r>    -3.2520     0.0000     0.0000     0.0000     0.0000     0.0000     0.0000     0.0000     0.0000     0.0000 </r>
        <r>    -3.1610     0.0000     0.0000     0.0000     0.0000     0.0000     0.0000     0.0000     0.0000     0.0000 </r>
        <r>    -3.0700     0.0000     0.0000     0.0000     0.0000     0.0000     0.0000     0.0000     0.0000     0.0000 </r>
        <r>    -2.9790     0.0000     0.0000     0.0000     0.0000     0.0000     0.0000     0.0000     0.0000     0.0000 </r>
        <r>    -2.8880     0.0000     0.0000     0.0000     0.0000     0.0000     0.0000     0.0000     0.0000     0.0000 </r>
        <r>    -2.7971     0.0000     0.0000     0.0000     0.0000     0.0000     0.0000     0.0000     0.0000     0.0000 </r>
        <r>    -2.7061     0.0000     0.0000     0.0000     0.0000     0.0000     0.0000     0.0000     0.0000     0.0000 </r>
        <r>    -2.6151     0.0000     0.0000     0.0000     0.0000     0.0000     0.0000     0.0000     0.0000     0.0000 </r>
        <r>    -2.5241     0.0000     0.0000     0.0000     0.0000     0.0000     0.0000     0.0000     0.0000     0.0000 </r>
        <r>    -2.4331     0.0000     0.0000     0.0000     0.0000     0.0000     0.0000     0.0000     0.0000     0.0000 </r>
        <r>    -2.3421     0.0000     0.0000     0.0000     0.0000     0.0000     0.0000     0.0000     0.0000     0.0000 </r>
        <r>    -2.2512     0.0000     0.0000     0.0000     0.0000     0.0000     0.0000     0.0000     0.0000     0.0000 </r>
        <r>    -2.1602     0.0000     0.0000     0.0000     0.0000     0.0000     0.0000     0.0000     0.0000     0.0000 </r>
        <r>    -2.0692     0.0000     0.0000     0.0000     0.0000     0.0000     0.0000     0.0000     0.0000     0.0000 </r>
        <r>    -1.9782     0.0000     0.0000     0.0000     0.0000     0.0000     0.0000     0.0000     0.0000     0.0000 </r>
        <r>    -1.8872     0.0000     0.0000     0.0000     0.0000     0.0000     0.0000     0.0000     0.0000     0.0000 </r>
        <r>    -1.7962     0.0000     0.0000     0.0000     0.0000     0.0000     0.0000     0.0000     0.0000     0.0000 </r>
        <r>    -1.7053     0.0000     0.0000     0.0000     0.0000     0.0000     0.0000     0.0000     0.0000     0.0000 </r>
        <r>    -1.6143     0.0000     0.0000     0.0000     0.0000     0.0000     0.0000     0.0000     0.0000     0.0000 </r>
        <r>    -1.5233     0.0000     0.0000     0.0000     0.0000     0.0000     0.0000     0.0000     0.0000     0.0000 </r>
        <r>    -1.4323     0.0000     0.0000     0.0000     0.0000     0.0000     0.0000     0.0000     0.0000     0.0000 </r>
        <r>    -1.3413     0.0000     0.0000     0.0000     0.0000     0.0000     0.0000     0.0000     0.0000     0.0000 </r>
        <r>    -1.2503     0.0000     0.0000     0.0000     0.0000     0.0000     0.0000     0.0000     0.0000     0.0000 </r>
        <r>    -1.1594     0.0000     0.0000     0.0000     0.0000     0.0000     0.0000     0.0000     0.0000     0.0000 </r>
        <r>    -1.0684     0.0000     0.0000     0.0000     0.0000     0.0000     0.0000     0.0000     0.0000     0.0000 </r>
        <r>    -0.9774     0.0000     0.0000     0.0000     0.0000     0.0000     0.0000     0.0000     0.0000     0.0000 </r>
        <r>    -0.8864     0.0000     0.0000     0.0000     0.0000     0.0000     0.0000     0.0000     0.0000     0.0000 </r>
        <r>    -0.7954     0.0000     0.0000     0.0000     0.0000     0.0000     0.0000     0.0000     0.0000     0.0000 </r>
        <r>    -0.7044     0.0000     0.0000     0.0000     0.0000     0.0000     0.0000     0.0000     0.0000     0.0000 </r>
        <r>    -0.6135     0.0000     0.0000     0.0000     0.0000     0.0000     0.0000     0.0000     0.0000     0.0000 </r>
        <r>    -0.5225     0.0000     0.0000     0.0000     0.0000     0.0000     0.0000     0.0000     0.0000     0.0000 </r>
        <r>    -0.4315     0.0000     0.0000     0.0000     0.0000     0.0000     0.0000     0.0000     0.0000     0.0000 </r>
        <r>    -0.3405     0.0000     0.0000     0.0000     0.0000     0.0000     0.0000     0.0000     0.0000     0.0000 </r>
        <r>    -0.2495     0.0793     0.0000     0.0000     0.0000     0.0000     0.0000     0.0000     0.0000     0.0000 </r>
        <r>    -0.1585     0.0000     0.0000     0.0000     0.0000     0.0000     0.0000     0.0000     0.0000     0.0000 </r>
        <r>    -0.0675     0.0000     0.0000     0.0000     0.0000     0.0000     0.0000     0.0000     0.0000     0.0000 </r>
        <r>     0.0234     0.0000     0.0000     0.0000     0.0000     0.0000     0.0000     0.0000     0.0000     0.0000 </r>
        <r>     0.1144     0.0000     0.0000     0.0000     0.0000     0.0000     0.0000     0.0000     0.0000     0.0000 </r>
        <r>     0.2054     0.0000     0.0000     0.0000     0.0000     0.0000     0.0000     0.0000     0.0000     0.0000 </r>
        <r>     0.2964     0.0000     0.0000     0.0000     0.0000     0.0000     0.0000     0.0000     0.0000     0.0000 </r>
        <r>     0.3874     0.0000     0.0000     0.0000     0.0000     0.0000     0.0000     0.0000     0.0000     0.0000 </r>
        <r>     0.4784     0.0000     0.0000     0.0000     0.0000     0.0000     0.0000     0.0000     0.0000     0.0000 </r>
        <r>     0.5693     0.0000     0.0000     0.0000     0.0000     0.0000     0.0000     0.0000     0.0000     0.0000 </r>
        <r>     0.6603     0.0989     0.0000     0.0000     0.0000     0.0000     0.0000     0.0000     0.0000     0.0000 </r>
        <r>     0.7513     0.0000     0.0000     0.0000     0.0000     0.0000     0.0000     0.0000     0.0000     0.0000 </r>
        <r>     0.8423     0.0000     0.0038     0.0023     0.0035     0.0000     0.0000     0.0000     0.0000     0.0000 </r>
        <r>     0.9333     0.0000     0.0000     0.0000     0.0000     0.0000     0.0000     0.0000     0.0000     0.0000 </r>
        <r>     1.0243     0.0000     0.0000     0.0000     0.0000     0.0000     0.0000     0.0000     0.0000     0.0000 </r>
        <r>     1.1152     0.0000     0.0000     0.0000     0.0000     0.0000     0.0000     0.0000     0.0000     0.0000 </r>
        <r>     1.2062     0.0000     0.0000     0.0000     0.0000     0.0000     0.0000     0.0000     0.0000     0.0000 </r>
        <r>     1.2972     0.0000     0.0000     0.0000     0.0000     0.0000     0.0000     0.0000     0.0000     0.0000 </r>
        <r>     1.3882     0.0000     0.0000     0.0000     0.0000     0.0000     0.0000     0.0000     0.0000     0.0000 </r>
        <r>     1.4792     0.0000     0.0000     0.0000     0.0000     0.0000     0.0000     0.0000     0.0000     0.0000 </r>
        <r>     1.5702     0.0000     0.0000     0.0000     0.0000     0.0000     0.0000     0.0000     0.0000     0.0000 </r>
        <r>     1.6611     0.0000     0.0000     0.0000     0.0000     0.0000     0.0000     0.0000     0.0000     0.0000 </r>
        <r>     1.7521     0.0000     0.0000     0.0000     0.0000     0.0000     0.0000     0.0000     0.0000     0.0000 </r>
        <r>     1.8431     0.0000     0.0000     0.0000     0.0000     0.0000     0.0000     0.0000     0.0000     0.0000 </r>
        <r>     1.9341     0.0000     0.0000     0.0000     0.0000     0.0000     0.0000     0.0000     0.0000     0.0000 </r>
        <r>     2.0251     0.0000     0.0000     0.0000     0.0000     0.0000     0.0000     0.0000     0.0000     0.0000 </r>
        <r>     2.1161     0.0000     0.0000     0.0000     0.0000     0.0000     0.0000     0.0000     0.0000     0.0000 </r>
       </set>
      </set>
     </set>
    </array>
   </partial>
  </dos>
  <projected>
   <eigenvalues>
    <array>
     <dimension dim="1">band</dimension>
     <dimension dim="2">kpoint</dimension>
     <dimension dim="3">spin</dimension>
     <field>eigene</field>
     <field>occ</field>
     <set>
      <set comment="spin 1">
       <set comment="kpoint 1">
        <r>  -23.9383    1.0000 </r>
        <r>   -8.9998    0.6600 </r>
        <r>   -8.9998    0.6600 </r>
        <r>   -8.9998    0.6600 </r>
        <r>   -0.2689    0.0000 </r>
        <r>    0.6546    0.0000 </r>
        <r>    0.8754    0.0000 </r>
        <r>    0.8754    0.0000 </r>
       </set>
      </set>
      <set comment="spin 2">
       <set comment="kpoint 1">
        <r>  -23.9384    1.0000 </r>
        <r>   -9.0000    0.6733 </r>
        <r>   -9.0000    0.6733 </r>
        <r>   -9.0000    0.6733 </r>
        <r>   -0.2833    0.0000 </r>
        <r>    0.6034    0.0000 </r>
        <r>    0.8531    0.0000 </r>
        <r>    0.8531    0.0000 </r>
       </set>
      </set>
     </set>
    </array>
   </eigenvalues>
   <array>
    <dimension dim="1">ion</dimension>
    <dimension dim="2">band</dimension>
    <dimension dim="3">kpoint</dimension>
    <dimension dim="4">spin</dimension>
    <field>  s</field>
    <field> py</field>
    <field> pz</field>
    <field> px</field>
    <field>dxy</field>
    <field>dyz</field>
    <field>dz2</field>
    <field>dxz</field>
    <field>dx2</field>
    <set>
     <set comment="spin1">
      <set comment="kpoint 1">
       <set comment="band 1">
        <r>  0.8280  0.0000  0.0000  0.0000  0.0000  0.0000  0.0000  0.0000  0.0000 </r>
       </set>
       <set comment="band 2">
        <r>  0.0000  0.5035  0.2157  0.0104  0.0000  0.0000  0.0000  0.0000  0.0000 </r>
       </set>
       <set comment="band 3">
        <r>  0.0000  0.1383  0.1949  0.3964  0.0000  0.0000  0.0000  0.0000  0.0000 </r>
       </set>
       <set comment="band 4">
        <r>  0.0000  0.0878  0.3190  0.3229  0.0000  0.0000  0.0000  0.0000  0.0000 </r>
       </set>
       <set comment="band 5">
        <r>  0.0079  0.0000  0.0000  0.0000  0.0000  0.0000  0.0000  0.0000  0.0000 </r>
       </set>
       <set comment="band 6">
        <r>  0.0085  0.0000  0.0000  0.0000  0.0000  0.0000  0.0000  0.0000  0.0000 </r>
       </set>
       <set comment="band 7">
        <r>  0.0000  0.0058  0.0019  0.0001  0.0000  0.0000  0.0000  0.0000  0.0000 </r>
       </set>
       <set comment="band 8">
        <r>  0.0000  0.0010  0.0025  0.0042  0.0000  0.0000  0.0000  0.0000  0.0000 </r>
       </set>
      </set>
     </set>
     <set comment="spin2">
      <set comment="kpoint 1">
       <set comment="band 1">
        <r>  0.8280  0.0000  0.0000  0.0000  0.0000  0.0000  0.0000  0.0000  0.0000 </r>
       </set>
       <set comment="band 2">
        <r>  0.0000  0.5327  0.0252  0.1718  0.0000  0.0000  0.0000  0.0000  0.0000 </r>
       </set>
       <set comment="band 3">
        <r>  0.0000  0.0492  0.3243  0.3560  0.0000  0.0000  0.0000  0.0000  0.0000 </r>
       </set>
       <set comment="band 4">
        <r>  0.0000  0.1477  0.3801  0.2018  0.0000  0.0000  0.0000  0.0000  0.0000 </r>
       </set>
       <set comment="band 5">
        <r>  0.0072  0.0000  0.0000  0.0000  0.0000  0.0000  0.0000  0.0000  0.0000 </r>
       </set>
       <set comment="band 6">
        <r>  0.0090  0.0000  0.0000  0.0000  0.0000  0.0000  0.0000  0.0000  0.0000 </r>
       </set>
       <set comment="band 7">
        <r>  0.0000  0.0053  0.0014  0.0003  0.0000  0.0000  0.0000  0.0000  0.0000 </r>
       </set>
       <set comment="band 8">
        <r>  0.0000  0.0002  0.0020  0.0047  0.0000  0.0000  0.0000  0.0000  0.0000 </r>
       </set>
      </set>
     </set>
    </set>
   </array>
  </projected>
 </calculation>
 <structure name="finalpos" >
  <crystal>
   <varray name="basis" >
    <v>      12.00000000       0.00000000       0.00000000 </v>
    <v>       0.00000000      12.00000000       0.00000000 </v>
    <v>       0.00000000       0.00000000      12.00000000 </v>
   </varray>
   <i name="volume">   1728.00000000 </i>
   <varray name="rec_basis" >
    <v>       0.08333333       0.00000000       0.00000000 </v>
    <v>       0.00000000       0.08333333       0.00000000 </v>
    <v>       0.00000000       0.00000000       0.08333333 </v>
   </varray>
  </crystal>
  <varray name="positions" >
   <v>       0.50000000       0.50000000       0.50000000 </v>
  </varray>
 </structure>
</modeling>
