unknown system                          
           1
    12.000000    0.000000    0.000000
     0.000000   12.000000    0.000000
     0.000000    0.000000   12.000000
   O 
   1
Direct configuration=     1
   0.50000000  0.50000000  0.50000000
