----- GAMESS execution script 'rungms' -----
This job is running on host crcfe02.crc.nd.edu
under operating system Linux at Fri Oct 18 10:26:23 EDT 2019
Available scratch disk space (Kbyte units) at beginning of the job is
Filesystem      1K-blocks  Used  Available Use% Mounted on
AFS            2147483647     0 2147483647   0% /afs
GAMESS temporary binary files will be written to /afs/crc.nd.edu/user/c/cdrisko
GAMESS supplementary output files will be written to /afs/crc.nd.edu/user/c/cdrisko/scr
Copying input file TS-F_MP2.inp to your run's scratch directory...

 Distributed Data Interface kickoff program.
 Initiating 1 compute processes on 1 nodes to run the following command:
 /afs/crc.nd.edu/x86_64_linux/g/gamess/nov-2017/gamess/gamess.00.x TS-F_MP2 

          ******************************************************
          *         GAMESS VERSION = 11 NOV 2017 (R3)         *
          *             FROM IOWA STATE UNIVERSITY             *
          * M.W.SCHMIDT, K.K.BALDRIDGE, J.A.BOATZ, S.T.ELBERT, *
          *   M.S.GORDON, J.H.JENSEN, S.KOSEKI, N.MATSUNAGA,   *
          *          K.A.NGUYEN, S.J.SU, T.L.WINDUS,           *
          *       TOGETHER WITH M.DUPUIS, J.A.MONTGOMERY       *
          *         J.COMPUT.CHEM.  14, 1347-1363(1993)        *
          **************** 64 BIT INTEL VERSION ****************

  SINCE 1993, STUDENTS AND POSTDOCS WORKING AT IOWA STATE UNIVERSITY
  AND ALSO IN THEIR VARIOUS JOBS AFTER LEAVING ISU HAVE MADE IMPORTANT
  CONTRIBUTIONS TO THE CODE:
     IVANA ADAMOVIC, CHRISTINE AIKENS, YURI ALEXEEV, POOJA ARORA,
     ANDREY ASADCHEV, ROB BELL, PRADIPTA BANDYOPADHYAY, JONATHAN BENTZ,
     BRETT BODE, KURT BRORSEN, CALEB CARLIN, GALINA CHABAN, WEI CHEN,
     CHEOL HO CHOI, PAUL DAY, ALBERT DEFUSCO, NUWAN DESILVA, TIM DUDLEY,
     DMITRI FEDOROV, ALEX FINDLATER, GRAHAM FLETCHER, MARK FREITAG,
     KURT GLAESEMANN, ANASTASIA GUININA,
     DAN KEMP, GRANT MERRILL, NORIYUKI MINEZAWA, JONATHAN MULLIN,
     TAKESHI NAGATA, SEAN NEDD, HEATHER NETZLOFF, BOSILJKA NJEGIC, RYAN OLSON,
     MIKE PAK, BUU PHAM,
     SPENCER PRUITT, LUKE ROSKOP, JIM SHOEMAKER, LYUDMILA SLIPCHENKO,
     TONY SMITH, SAROM SOK LEANG, JIE SONG, TETSUYA TAKETSUGU, SIMON WEBB,
     PENG XU, SOOHAENG YOO, FEDERICO ZAHARIEV

  ADDITIONAL CODE HAS BEEN PROVIDED BY COLLABORATORS IN OTHER GROUPS:
     IOWA STATE UNIVERSITY:
          JOE IVANIC, AARON WEST, LAIMUTIS BYTAUTAS, KLAUS RUEDENBERG
     UNIVERSITY OF TOKYO: KIMIHIKO HIRAO, TAKAHITO NAKAJIMA,
          TAKAO TSUNEDA, MUNEAKI KAMIYA, SUSUMU YANAGISAWA,
          KIYOSHI YAGI, MAHITO CHIBA, SEIKEN TOKURA, NAOAKI KAWAKAMI
     UNIVERSITY OF AARHUS: FRANK JENSEN
     UNIVERSITY OF IOWA: VISVALDAS KAIRYS, HUI LI
     NATIONAL INST. OF STANDARDS AND TECHNOLOGY: WALT STEVENS, DAVID GARMER
     UNIVERSITY OF PISA: BENEDETTA MENNUCCI, JACOPO TOMASI
     UNIVERSITY OF MEMPHIS: HENRY KURTZ, PRAKASHAN KORAMBATH
     UNIVERSITY OF ALBERTA: TOBY ZENG, MARIUSZ KLOBUKOWSKI
     UNIVERSITY OF NEW ENGLAND: MARK SPACKMAN
     MIE UNIVERSITY: HIROAKI UMEDA
     NAT. INST. OF ADVANCED INDUSTRIAL SCIENCE AND TECHNOLOGY: KAZUO KITAURA
     MICHIGAN STATE UNIVERSITY:
          KAROL KOWALSKI, MARTA WLOCH, JEFFREY GOUR, JESSE LUTZ,
          WEI LI, PIOTR PIECUCH
     UNIVERSITY OF SILESIA: MONIKA MUSIAL, STANISLAW KUCHARSKI
     FACULTES UNIVERSITAIRES NOTRE-DAME DE LA PAIX:
          OLIVIER QUINET, BENOIT CHAMPAGNE
     UNIVERSITY OF CALIFORNIA - SANTA BARBARA: BERNARD KIRTMAN
     INSTITUTE FOR MOLECULAR SCIENCE:
          KAZUYA ISHIMURA, MICHIO KATOUDA, AND SHIGERU NAGASE
     UNIVERSITY OF NOTRE DAME: ANNA POMOGAEVA, DAN CHIPMAN
     KYUSHU UNIVERSITY:
          HARUYUKI NAKANO,
          FENG LONG GU, JACEK KORCHOWIEC, MARCIN MAKOWSKI, AND YURIKO AOKI,
          HIROTOSHI MORI AND EISAKU MIYOSHI
     PENNSYLVANIA STATE UNIVERSITY:
          TZVETELIN IORDANOV, CHET SWALINA, JONATHAN SKONE,
          SHARON HAMMES-SCHIFFER
     WASEDA UNIVERSITY:
          MASATO KOBAYASHI, TOMOKO AKAMA, TSUGUKI TOUMA,
          TAKESHI YOSHIKAWA, YASUHIRO IKABATA, JUNJI SEINO,
          YUYA NAKAJIMA, HIROMI NAKAI
     NANJING UNIVERSITY: SHUHUA LI
     UNIVERSITY OF NEBRASKA:
          PEIFENG SU, DEJUN SI, NANDUN THELLAMUREGE, YALI WANG, HUI LI
     UNIVERSITY OF ZURICH: ROBERTO PEVERATI, KIM BALDRIDGE
     N. COPERNICUS UNIVERSITY AND JACKSON STATE UNIVERSITY:
          MARIA BARYSZ
     UNIVERSITY OF COPENHAGEN: Jimmy Kromann, CASPER STEINMANN
     TOKYO INSTITUTE OF TECHNOLOGY: HIROYA NAKATA
     NAGOYA UNIVERSITY: YOSHIO NISHIMOTO, STEPHAN IRLE
     MOSCOW STATE UNIVERSITY: VLADIMIR MIRONOV

 EXECUTION OF GAMESS BEGUN Fri Oct 18 10:26:23 2019

            ECHO OF THE FIRST FEW INPUT CARDS -
 INPUT CARD> $CONTRL SCFTYP=RHF MPLEVL=2 RUNTYP=ENERGY                                      
 INPUT CARD>       ICHARG=0 MULT=1 COORD=CART $END                                          
 INPUT CARD> $BASIS GBASIS=N31 NGAUSS=6 NDFUNC=1 $END                                       
 INPUT CARD> $DATA                                                                          
 INPUT CARD>C2H3OF                                                                          
 INPUT CARD>C1 1                                                                            
 INPUT CARD>C 6 0.00000000 0.00000000 0.00000000                                            
 INPUT CARD>C 6 1.03594561 0.97295056 -0.04147930                                           
 INPUT CARD>O 8 2.14718721 0.36023491 -0.24264331                                           
 INPUT CARD>H 1 1.01436261 2.06066763 0.05010898                                            
 INPUT CARD>F 9 -1.28769228 0.34410541 -0.31358854                                          
 INPUT CARD>H 1 0.03751390 -0.58487706 0.92734428                                           
 INPUT CARD>H 1 1.32363666 -0.60348078 -0.46513599                                          
 INPUT CARD> $END                                                                           
    1000000 WORDS OF MEMORY AVAILABLE


                    * * * WARNING * * *
 OLD KEYWORD COORD=CART SELECTED, AUTOMATICALLY CHANGED TO COORD=PRINAXIS.
 YOUR MOLECULE'S COORDINATES WILL BE CHANGED TO PRINCIPAL AXES BY
   A) TRANSLATION TO THE CENTER OF MASS, THEN
   B) ROTATION TO HAVE A DIAGONAL MOMENT OF INERTIA TENSOR.

 HOWEVER, NOTHING ELSE IN YOUR INPUT WILL BE ROTATED IN THE SAME WAY,
 SO IF YOU HAVE A $VEC, $VIB, $GRAD, $HESS, EFP PARTICLE COORDINATES,
 OR ANYTHING ELSE THAT DEPENDS ON THE INITIAL ORIENTATION, THAT DATA
 WILL NOT BE USED CORRECTLY IN THIS RUN.

 THE PURPOSE OF COORD=PRINAXIS IS TO BE USED ONCE, ONLY AT THE VERY
 BEGINNING OF A SERIES OF COMPUTATIONS, PERHAPS TO FIND THE SYMMETRY
 UNIQUE ATOMS FROM AN ARBITRARY INITIAL ORIENTATION.

 AFTER THE FIRST RUN, YOU SHOULD USE ONLY COORD=UNIQUE, TO ENSURE THAT
 THE COORDINATES WHICH YOU READ IN ARE THE COORDINATES THAT ARE USED.


     BASIS OPTIONS
     -------------
     GBASIS=N31          IGAUSS=       6      POLAR=POPN31  
     NDFUNC=       1     NFFUNC=       0     DIFFSP=       F
     NPFUNC=       0      DIFFS=       F     BASNAM=        


     RUN TITLE
     ---------
 C2H3OF                                                                          

 THE POINT GROUP OF THE MOLECULE IS C1      
 THE ORDER OF THE PRINCIPAL AXIS IS     1

 THE MOMENTS OF INERTIA ARE (AMU-ANGSTROM**2)
 IXX=    12.488   IYY=   113.983   IZZ=   121.858

 ATOM      ATOMIC                      COORDINATES (BOHR)
           CHARGE         X                   Y                   Z
 C           6.0    -0.8001817025       -0.7122348332        0.2867600636
 C           6.0     1.2850574727        0.9813230930        0.2350256824
 O           8.0     3.2864393887       -0.3094024890       -0.2376429055
 H           1.0     1.3985589791        3.0256984231        0.4885876334
 F           9.0    -3.1906839773        0.1360581780       -0.2243936795
 H           1.0    -0.7755456628       -1.8895345825        1.9929185297
 H           1.0     1.5927275013       -1.9945289740       -0.6927344876

          INTERNUCLEAR DISTANCES (ANGS.)
          ------------------------------

                1 C          2 C          3 O          4 H          5 F     

   1 C       0.0000000    1.4218075 *  2.1906752 *  2.2973449 *  1.3692690 *
   2 C       1.4218075 *  0.0000000    1.2848133 *  1.0917796 *  2.4225571 *
   3 O       2.1906752 *  1.2848133 *  0.0000000    2.0640899 *  3.4356499  
   4 H       2.2973449 *  1.0917796 *  2.0640899 *  0.0000000    2.8945325 *
   5 F       1.3692690 *  2.4225571 *  3.4356499    2.8945325 *  0.0000000  
   6 H       1.0970214 *  2.0886148 *  2.5909128 *  2.9534187 *  2.0393857 *
   7 H       1.5272703 *  1.6575243 *  1.2870456 *  2.7310830 *  2.7820721 *

                6 H          7 H     

   1 C       1.0970214 *  1.5272703 *
   2 C       2.0886148 *  1.6575243 *
   3 O       2.5909128 *  1.2870456 *
   4 H       2.9534187 *  2.7310830 *
   5 F       2.0393857 *  2.7820721 *
   6 H       0.0000000    1.8956421 *
   7 H       1.8956421 *  0.0000000  

  * ... LESS THAN  3.000


     ATOMIC BASIS SET
     ----------------
 THE CONTRACTED PRIMITIVE FUNCTIONS HAVE BEEN UNNORMALIZED
 THE CONTRACTED BASIS FUNCTIONS ARE NOW NORMALIZED TO UNITY

  SHELL TYPE  PRIMITIVE        EXPONENT          CONTRACTION COEFFICIENT(S)

 C         

      1   S       1          3047.5248800    0.001834737132
      1   S       2           457.3695180    0.014037322813
      1   S       3           103.9486850    0.068842622264
      1   S       4            29.2101553    0.232184443216
      1   S       5             9.2866630    0.467941348435
      1   S       6             3.1639270    0.362311985337

      2   L       7             7.8682723   -0.119332419775    0.068999066591
      2   L       8             1.8812885   -0.160854151696    0.316423960957
      2   L       9             0.5442493    1.143456437840    0.744308290898

      3   L      10             0.1687145    1.000000000000    1.000000000000

      4   D      11             0.8000000    1.000000000000

 C         

      5   S      12          3047.5248800    0.001834737132
      5   S      13           457.3695180    0.014037322813
      5   S      14           103.9486850    0.068842622264
      5   S      15            29.2101553    0.232184443216
      5   S      16             9.2866630    0.467941348435
      5   S      17             3.1639270    0.362311985337

      6   L      18             7.8682723   -0.119332419775    0.068999066591
      6   L      19             1.8812885   -0.160854151696    0.316423960957
      6   L      20             0.5442493    1.143456437840    0.744308290898

      7   L      21             0.1687145    1.000000000000    1.000000000000

      8   D      22             0.8000000    1.000000000000

 O         

      9   S      23          5484.6716600    0.001831074430
      9   S      24           825.2349460    0.013950172200
      9   S      25           188.0469580    0.068445078098
      9   S      26            52.9645000    0.232714335992
      9   S      27            16.8975704    0.470192897984
      9   S      28             5.7996353    0.358520852987

     10   L      29            15.5396162   -0.110777549525    0.070874268231
     10   L      30             3.5999336   -0.148026262701    0.339752839147
     10   L      31             1.0137618    1.130767015354    0.727158577316

     11   L      32             0.2700058    1.000000000000    1.000000000000

     12   D      33             0.8000000    1.000000000000

 H         

     13   S      34            18.7311370    0.033494604338
     13   S      35             2.8253944    0.234726953484
     13   S      36             0.6401217    0.813757326146

     14   S      37             0.1612778    1.000000000000

 F         

     15   S      38          7001.7130900    0.001819616901
     15   S      39          1051.3660900    0.013916079607
     15   S      40           239.2856900    0.068405324535
     15   S      41            67.3974453    0.233185760119
     15   S      42            21.5199573    0.471267439240
     15   S      43             7.4031013    0.356618546182

     16   L      44            20.8479528   -0.108506975109    0.071628724237
     16   L      45             4.8083083   -0.146451658147    0.345912102697
     16   L      46             1.3440699    1.128688581135    0.722469956367

     17   L      47             0.3581514    1.000000000000    1.000000000000

     18   D      48             0.8000000    1.000000000000

 H         

     19   S      49            18.7311370    0.033494604338
     19   S      50             2.8253944    0.234726953484
     19   S      51             0.6401217    0.813757326146

     20   S      52             0.1612778    1.000000000000

 H         

     21   S      53            18.7311370    0.033494604338
     21   S      54             2.8253944    0.234726953484
     21   S      55             0.6401217    0.813757326146

     22   S      56             0.1612778    1.000000000000

 TOTAL NUMBER OF BASIS SET SHELLS             =   22
 NUMBER OF CARTESIAN GAUSSIAN BASIS FUNCTIONS =   66
 NUMBER OF ELECTRONS                          =   32
 CHARGE OF MOLECULE                           =    0
 SPIN MULTIPLICITY                            =    1
 NUMBER OF OCCUPIED ORBITALS (ALPHA)          =   16
 NUMBER OF OCCUPIED ORBITALS (BETA )          =   16
 TOTAL NUMBER OF ATOMS                        =    7
 THE NUCLEAR REPULSION ENERGY IS      114.5359629743

     $CONTRL OPTIONS
     ---------------
 SCFTYP=RHF          RUNTYP=ENERGY       EXETYP=RUN     
 MPLEVL=       2     CITYP =NONE         CCTYP =NONE         VBTYP =NONE    
 DFTTYP=NONE         TDDFT =NONE    
 MULT  =       1     ICHARG=       0     NZVAR =       0     COORD =PRINAXIS
 PP    =NONE         RELWFN=NONE         LOCAL =NONE         NUMGRD=       F
 ISPHER=      -1     NOSYM =       0     MAXIT =      30     UNITS =ANGS    
 PLTORB=       F     MOLPLT=       F     AIMPAC=       F     FRIEND=        
 NPRINT=       7     IREST =       0     GEOM  =INPUT   
 NORMF =       0     NORMP =       0     ITOL  =      20     ICUT  =       9
 INTTYP=BEST         GRDTYP=BEST         QMTTOL= 1.0E-06

     $SYSTEM OPTIONS
     ---------------
  REPLICATED MEMORY=     1000000 WORDS (ON EVERY NODE).
 DISTRIBUTED MEMDDI=           0 MILLION WORDS IN AGGREGATE,
 MEMDDI DISTRIBUTED OVER   1 PROCESSORS IS           0 WORDS/PROCESSOR.
 TOTAL MEMORY REQUESTED ON EACH PROCESSOR=     1000000 WORDS.
 TIMLIM=      525600.00 MINUTES, OR     365.0 DAYS.
 PARALL= F  BALTYP=  DLB     KDIAG=    0  COREFL= F
 MXSEQ2=     300 MXSEQ3=     150  mem10=         0

          ----------------
          PROPERTIES INPUT
          ----------------

     MOMENTS            FIELD           POTENTIAL          DENSITY
 IEMOM =       1   IEFLD =       0   IEPOT =       0   IEDEN =       0
 WHERE =COMASS     WHERE =NUCLEI     WHERE =NUCLEI     WHERE =NUCLEI  
 OUTPUT=BOTH       OUTPUT=BOTH       OUTPUT=BOTH       OUTPUT=BOTH    
 IEMINT=       0   IEFINT=       0                     IEDINT=       0
                                                       MORB  =       0
          EXTRAPOLATION IN EFFECT
          SOSCF IN EFFECT
 ORBITAL PRINTING OPTION: NPREO=     1    66     2     1

     -------------------------------
     INTEGRAL TRANSFORMATION OPTIONS
     -------------------------------
     NWORD  =            0
     CUTOFF = 1.0E-09     MPTRAN =       0
     DIRTRF =       F     AOINTS =DUP     

          ----------------------
          INTEGRAL INPUT OPTIONS
          ----------------------
 NOPK  =       1 NORDER=       0 SCHWRZ=       T

          -----------------------
          MP2 CONTROL INFORMATION
          -----------------------
          NACORE =        4  NBCORE =        4
          LMOMP2 =        F  AOINTS = DUP     
          METHOD =        2  NWORD  =               0
          MP2PRP =        F  OSPT   = NONE    
          CUTOFF = 1.00E-09  CPHFBS = BASISAO 
          CODE   = IMS     

          NUMBER OF CORE -A-  ORBITALS =     4
          NUMBER OF CORE -B-  ORBITALS =     4
          NUMBER OF OCC. -A-  ORBITALS =    16
          NUMBER OF OCC. -B-  ORBITALS =    16
          NUMBER OF MOLECULAR ORBITALS =    66
          NUMBER OF   BASIS  FUNCTIONS =    66


     ------------------------------------------
     THE POINT GROUP IS C1 , NAXIS= 1, ORDER= 1
     ------------------------------------------

     DIMENSIONS OF THE SYMMETRY SUBSPACES ARE
 A   =   66

 ..... DONE SETTING UP THE RUN .....
 STEP CPU TIME =     0.01 TOTAL CPU TIME =          0.0 (      0.0 MIN)
 TOTAL WALL CLOCK TIME=          0.0 SECONDS, CPU UTILIZATION IS    50.00%

          ********************
          1 ELECTRON INTEGRALS
          ********************
 ...... END OF ONE-ELECTRON INTEGRALS ......
 STEP CPU TIME =     0.00 TOTAL CPU TIME =          0.0 (      0.0 MIN)
 TOTAL WALL CLOCK TIME=          0.0 SECONDS, CPU UTILIZATION IS    50.00%

          -------------
          GUESS OPTIONS
          -------------
          GUESS =HUCKEL            NORB  =       0          NORDER=       0
          MIX   =       F          PRTMO =       F          PUNMO =       F
          TOLZ  = 1.0E-08          TOLE  = 1.0E-05
          SYMDEN=       F          PURIFY=       F

 INITIAL GUESS ORBITALS GENERATED BY HUCKEL   ROUTINE.
 HUCKEL GUESS REQUIRES     39228 WORDS.

 SYMMETRIES FOR INITIAL GUESS ORBITALS FOLLOW.   BOTH SET(S).
    16 ORBITALS ARE OCCUPIED (    4 CORE ORBITALS).
     5=A        6=A        7=A        8=A        9=A       10=A       11=A   
    12=A       13=A       14=A       15=A       16=A       17=A       18=A   
    19=A       20=A       21=A       22=A       23=A       24=A       25=A   
    26=A   
 ...... END OF INITIAL ORBITAL SELECTION ......
 STEP CPU TIME =     0.00 TOTAL CPU TIME =          0.0 (      0.0 MIN)
 TOTAL WALL CLOCK TIME=          0.0 SECONDS, CPU UTILIZATION IS    50.00%

                    ----------------------
                    AO INTEGRAL TECHNOLOGY
                    ----------------------
     S,P,L SHELL ROTATED AXIS INTEGRALS, REPROGRAMMED BY
        KAZUYA ISHIMURA (IMS) AND JOSE SIERRA (SYNSTAR).
     S,P,D,L SHELL ROTATED AXIS INTEGRALS PROGRAMMED BY
        KAZUYA ISHIMURA (INSTITUTE FOR MOLECULAR SCIENCE).
     S,P,D,F,G SHELL TO TOTAL QUARTET ANGULAR MOMENTUM SUM 5,
        ERIC PROGRAM BY GRAHAM FLETCHER (ELORET AND NASA ADVANCED
        SUPERCOMPUTING DIVISION, AMES RESEARCH CENTER).
     S,P,D,F,G,L SHELL GENERAL RYS QUADRATURE PROGRAMMED BY
        MICHEL DUPUIS (PACIFIC NORTHWEST NATIONAL LABORATORY).

          --------------------
          2 ELECTRON INTEGRALS
          --------------------

 THE -PK- OPTION IS OFF, THE INTEGRALS ARE NOT IN SUPERMATRIX FORM.
 STORING   15000 INTEGRALS/RECORD ON DISK, USING 12 BYTES/INTEGRAL.
 TWO ELECTRON INTEGRAL EVALUATION REQUIRES   90649 WORDS OF MEMORY.
 SCHWARZ INEQUALITY OVERHEAD:      2201 INTEGRALS, T=        0.00
 II,JST,KST,LST =  1  1  1  1 NREC =         1 INTLOC =    1
 II,JST,KST,LST =  2  1  1  1 NREC =         1 INTLOC =    2
 II,JST,KST,LST =  3  1  1  1 NREC =         1 INTLOC =   34
 II,JST,KST,LST =  4  1  1  1 NREC =         1 INTLOC =  214
 II,JST,KST,LST =  5  1  1  1 NREC =         1 INTLOC = 1189
 II,JST,KST,LST =  6  1  1  1 NREC =         1 INTLOC = 3240
 II,JST,KST,LST =  7  1  1  1 NREC =         2 INTLOC =  991
 II,JST,KST,LST =  8  1  1  1 NREC =         3 INTLOC = 8250
 II,JST,KST,LST =  9  1  1  1 NREC =         7 INTLOC = 6193
 II,JST,KST,LST = 10  1  1  1 NREC =         8 INTLOC = 5277
 II,JST,KST,LST = 11  1  1  1 NREC =        13 INTLOC = 4949
 II,JST,KST,LST = 12  1  1  1 NREC =        20 INTLOC = 4785
 II,JST,KST,LST = 13  1  1  1 NREC =        35 INTLOC = 5090
 II,JST,KST,LST = 14  1  1  1 NREC =        38 INTLOC = 8531
 II,JST,KST,LST = 15  1  1  1 NREC =        42 INTLOC =  384
 II,JST,KST,LST = 16  1  1  1 NREC =        44 INTLOC = 4296
 II,JST,KST,LST = 17  1  1  1 NREC =        56 INTLOC =10552
 II,JST,KST,LST = 18  1  1  1 NREC =        76 INTLOC = 7525
 II,JST,KST,LST = 19  1  1  1 NREC =       110 INTLOC = 5504
 II,JST,KST,LST = 20  1  1  1 NREC =       118 INTLOC = 1007
 II,JST,KST,LST = 21  1  1  1 NREC =       126 INTLOC = 5457
 II,JST,KST,LST = 22  1  1  1 NREC =       134 INTLOC =11465
 SCHWARZ INEQUALITY TEST SKIPPED        2719 INTEGRAL BLOCKS.
 TOTAL NUMBER OF NONZERO TWO-ELECTRON INTEGRALS =             2143013
        143 INTEGRAL RECORDS WERE STORED ON DISK FILE  8.
  ...... END OF TWO-ELECTRON INTEGRALS .....
 STEP CPU TIME =     0.25 TOTAL CPU TIME =          0.3 (      0.0 MIN)
 TOTAL WALL CLOCK TIME=          0.3 SECONDS, CPU UTILIZATION IS    96.30%

          --------------------------
                 RHF SCF CALCULATION
          --------------------------

     NUCLEAR ENERGY =       114.5359629743
     MAXIT =   30     NPUNCH=    2
     EXTRAP=T  DAMP=F  SHIFT=F  RSTRCT=F  DIIS=F  DEM=F  SOSCF=T
     DENSITY MATRIX CONV=  1.00E-06
     SOSCF WILL OPTIMIZE     800 ORBITAL ROTATIONS, SOGTOL=   0.250
     MEMORY REQUIRED FOR RHF ITERS=     64616 WORDS.

 ITER EX DEM     TOTAL ENERGY        E CHANGE  DENSITY CHANGE     ORB. GRAD
   1  0  0     -250.8610078346  -250.8610078346   0.338796640   0.000000000
          ---------------START SECOND ORDER SCF---------------
   2  1  0     -251.5548619825    -0.6938541479   0.119775609   0.044240580
   3  2  0     -251.5906734819    -0.0358114994   0.050784947   0.024396934
   4  3  0     -251.6043816095    -0.0137081276   0.014729100   0.004602188
   5  4  0     -251.6052850111    -0.0009034016   0.008498802   0.005042119
   6  5  0     -251.6056175334    -0.0003325223   0.007073123   0.002281321
   7  6  0     -251.6057252984    -0.0001077650   0.002208094   0.000585093
   8  7  0     -251.6057408567    -0.0000155583   0.001372884   0.000305740
   9  8  0     -251.6057448170    -0.0000039603   0.000331717   0.000082562
  10  9  0     -251.6057451363    -0.0000003192   0.000080659   0.000038413
  11 10  0     -251.6057451852    -0.0000000489   0.000045820   0.000013550
  12 11  0     -251.6057451921    -0.0000000069   0.000018740   0.000006032
  13 12  0     -251.6057451930    -0.0000000010   0.000004148   0.000001909
  14 13  0     -251.6057451931    -0.0000000001   0.000001560   0.000000484
  15 14  0     -251.6057451931    -0.0000000000   0.000000507   0.000000159

          -----------------
          DENSITY CONVERGED
          -----------------
     TIME TO FORM FOCK OPERATORS=       0.6 SECONDS (       0.0 SEC/ITER)
     TIME TO SOLVE SCF EQUATIONS=       0.0 SECONDS (       0.0 SEC/ITER)

 FINAL RHF ENERGY IS     -251.6057451931 AFTER  15 ITERATIONS

          ------------
          EIGENVECTORS
          ------------

                      1          2          3          4          5
                  -26.2889   -20.6211   -11.3782   -11.3024    -1.5919
                     A          A          A          A          A   
    1  C  1  S   -0.000018  -0.000003   0.006421   0.995810  -0.054632
    2  C  1  S    0.000215  -0.000008   0.000169   0.026864   0.093749
    3  C  1  X   -0.000514  -0.000057  -0.000129  -0.001267  -0.075835
    4  C  1  Y    0.000200  -0.000005  -0.000159   0.001105   0.030736
    5  C  1  Z   -0.000117   0.000017   0.000054   0.000288  -0.013961
    6  C  1  S    0.000221  -0.000112   0.002255  -0.010701   0.028746
    7  C  1  X    0.000254   0.000069   0.000526  -0.002592  -0.001922
    8  C  1  Y    0.000094  -0.000176   0.001309  -0.000446  -0.005056
    9  C  1  Z    0.000043  -0.000009  -0.000207  -0.001366   0.000315
   10  C  1 XX    0.000292  -0.000074  -0.000463  -0.000730   0.017082
   11  C  1 YY    0.000009  -0.000017  -0.000197  -0.001700  -0.005058
   12  C  1 ZZ   -0.000050  -0.000028  -0.000116  -0.001758  -0.007088
   13  C  1 XY   -0.000114  -0.000016  -0.000095  -0.000203  -0.011462
   14  C  1 XZ    0.000081   0.000001   0.000029   0.000194   0.005445
   15  C  1 YZ   -0.000037   0.000002   0.000023  -0.000168  -0.002997
   16  C  2  S    0.000008  -0.000001   0.995748  -0.006830  -0.009833
   17  C  2  S    0.000091   0.000495   0.026446  -0.000146   0.017456
   18  C  2  X    0.000009   0.000156   0.000920   0.000024  -0.010957
   19  C  2  Y    0.000011  -0.000089  -0.000688   0.000113  -0.008381
   20  C  2  Z   -0.000001  -0.000027  -0.000410   0.000014  -0.000963
   21  C  2  S   -0.000346  -0.000015  -0.008137   0.003861   0.014935
   22  C  2  X    0.000191  -0.000379   0.001278  -0.001611  -0.008854
   23  C  2  Y    0.000156   0.000042  -0.000526  -0.000920  -0.001683
   24  C  2  Z    0.000004   0.000068  -0.000075   0.000458  -0.000590
   25  C  2 XX   -0.000064  -0.000295  -0.001285  -0.000438   0.004368
   26  C  2 YY   -0.000018  -0.000182  -0.001258  -0.000319   0.000224
   27  C  2 ZZ    0.000016  -0.000080  -0.002489  -0.000086  -0.001367
   28  C  2 XY   -0.000023   0.000222  -0.000212  -0.000087   0.002052
   29  C  2 XZ   -0.000004   0.000069  -0.000284  -0.000033  -0.000107
   30  C  2 YZ   -0.000000  -0.000065   0.000200  -0.000033   0.000521
   31  O  3  S    0.000001   0.994709  -0.000200   0.000025  -0.005199
   32  O  3  S   -0.000000   0.020930   0.000467  -0.000015   0.011844
   33  O  3  X   -0.000002  -0.001255  -0.000141  -0.000032  -0.004664
   34  O  3  Y    0.000005   0.000362   0.000061  -0.000055   0.000927
   35  O  3  Z    0.000005   0.000368   0.000036   0.000004   0.000526
   36  O  3  S    0.000016   0.004168  -0.001255  -0.000268   0.009481
   37  O  3  X   -0.000033   0.000293   0.001285  -0.000095  -0.000480
   38  O  3  Y   -0.000021  -0.000054  -0.000507   0.000448   0.001447
   39  O  3  Z   -0.000008  -0.000130  -0.000233   0.000145   0.000406
   40  O  3 XX    0.000008  -0.003824  -0.000364   0.000218   0.000725
   41  O  3 YY    0.000001  -0.003952  -0.000024   0.000053   0.000168
   42  O  3 ZZ    0.000004  -0.003970   0.000375   0.000016   0.000093
   43  O  3 XY   -0.000005  -0.000042   0.000275  -0.000052  -0.000048
   44  O  3 XZ   -0.000001   0.000034   0.000124  -0.000083  -0.000143
   45  O  3 YZ    0.000003   0.000064  -0.000130  -0.000034   0.000060
   46  H  4  S    0.000016  -0.000005  -0.000237  -0.000109   0.001886
   47  H  4  S   -0.000051  -0.000047   0.002147  -0.000046   0.000403
   48  F  5  S    0.994426  -0.000008  -0.000003   0.000002  -0.221667
   49  F  5  S    0.017750  -0.000038  -0.000061   0.000946   0.516558
   50  F  5  X    0.000845   0.000002  -0.000043   0.000352   0.057571
   51  F  5  Y   -0.000272   0.000002  -0.000023  -0.000161  -0.018521
   52  F  5  Z    0.000196  -0.000003   0.000006   0.000060   0.013193
   53  F  5  S    0.008187   0.000158  -0.000093  -0.002234   0.439288
   54  F  5  X   -0.000580   0.000036   0.000054  -0.001679   0.037007
   55  F  5  Y    0.000176  -0.000016  -0.000025   0.000807  -0.009930
   56  F  5  Z   -0.000130   0.000019  -0.000003  -0.000285   0.009342
   57  F  5 XX   -0.004985  -0.000017   0.000063  -0.000571   0.036057
   58  F  5 YY   -0.004594  -0.000029  -0.000014   0.000496   0.023080
   59  F  5 ZZ   -0.004560  -0.000021  -0.000108   0.000673   0.021816
   60  F  5 XY    0.000178  -0.000014  -0.000003   0.000539  -0.005161
   61  F  5 XZ   -0.000111   0.000005   0.000036  -0.000315   0.003912
   62  F  5 YZ    0.000035  -0.000004  -0.000022   0.000166  -0.001624
   63  H  6  S   -0.000015  -0.000002  -0.000063   0.000061   0.013982
   64  H  6  S   -0.000052  -0.000031   0.000485   0.002474  -0.000649
   65  H  7  S   -0.000004   0.000205   0.000211   0.000211   0.003910
   66  H  7  S   -0.000023  -0.000335   0.000377   0.001445  -0.000489

                      6          7          8          9         10
                   -1.4373    -1.0158    -0.8489    -0.7513    -0.7037
                     A          A          A          A          A   
    1  C  1  S   -0.023501  -0.150255   0.075111  -0.037598   0.001650
    2  C  1  S    0.044321   0.286904  -0.137982   0.080440   0.004958
    3  C  1  X    0.044026   0.108701   0.024287  -0.251920  -0.042136
    4  C  1  Y    0.012686   0.067130   0.092889  -0.031622   0.180067
    5  C  1  Z   -0.001641   0.034855  -0.032361   0.066945  -0.204281
    6  C  1  S    0.042995   0.255479  -0.178706   0.045563  -0.047111
    7  C  1  X    0.020933   0.064376  -0.029751  -0.059248   0.003412
    8  C  1  Y   -0.001400  -0.009740   0.030432  -0.014395   0.073469
    9  C  1  Z   -0.003286   0.020718  -0.015826   0.043939  -0.101470
   10  C  1 XX    0.003182   0.003440  -0.005040   0.008541   0.007012
   11  C  1 YY    0.001122   0.004217   0.005686  -0.004377   0.004923
   12  C  1 ZZ   -0.000981  -0.000725  -0.003769   0.002742  -0.014555
   13  C  1 XY    0.005525   0.010433   0.008513  -0.014467  -0.008667
   14  C  1 XZ   -0.001139  -0.001863   0.001680   0.006049   0.006614
   15  C  1 YZ   -0.000533  -0.006495   0.007803  -0.006175   0.003934
   16  C  2  S   -0.101416  -0.109052  -0.122060   0.022383   0.011263
   17  C  2  S    0.193444   0.229647   0.262654  -0.049308  -0.028202
   18  C  2  X    0.109953  -0.191429   0.076384   0.075359  -0.132205
   19  C  2  Y   -0.093212  -0.049073   0.220939   0.201603   0.021986
   20  C  2  Z   -0.028197   0.024959   0.014900   0.039232  -0.061359
   21  C  2  S    0.040709   0.161275   0.270973  -0.003237  -0.013195
   22  C  2  X   -0.005196  -0.037971  -0.001059   0.035257  -0.047487
   23  C  2  Y    0.026507   0.002489   0.074072   0.068852   0.023784
   24  C  2  Z    0.005148   0.002910   0.010860   0.010068  -0.028132
   25  C  2 XX    0.014935  -0.000262  -0.000126   0.008741   0.001331
   26  C  2 YY    0.003725   0.013281   0.016983  -0.003706  -0.003816
   27  C  2 ZZ   -0.013709  -0.008531  -0.010131   0.002059   0.003017
   28  C  2 XY   -0.020403   0.021459  -0.001158   0.000045   0.008896
   29  C  2 XZ   -0.008081   0.001666  -0.001542  -0.000996   0.003832
   30  C  2 YZ    0.005666   0.001291   0.002968  -0.004793   0.006053
   31  O  3  S   -0.193294   0.083784   0.040753  -0.040453  -0.024954
   32  O  3  S    0.425476  -0.191464  -0.087092   0.105655   0.051527
   33  O  3  X   -0.113863  -0.076965  -0.034982   0.222798   0.096406
   34  O  3  Y    0.041459  -0.006016   0.211351   0.109003  -0.089905
   35  O  3  Z    0.016118   0.012514   0.050046   0.034521  -0.115013
   36  O  3  S    0.422269  -0.240372  -0.152769   0.116374   0.121429
   37  O  3  X   -0.070326  -0.029864  -0.005365   0.148498   0.048121
   38  O  3  Y    0.007090   0.000022   0.117151   0.069387  -0.049426
   39  O  3  Z    0.006653   0.005292   0.025696   0.020716  -0.071516
   40  O  3 XX    0.017707   0.006332  -0.001845  -0.018696  -0.005369
   41  O  3 YY    0.003772  -0.004354   0.004285   0.009562  -0.000487
   42  O  3 ZZ   -0.004719  -0.001349   0.003303   0.010352  -0.002660
   43  O  3 XY   -0.002443  -0.002432  -0.020615  -0.007632   0.007172
   44  O  3 XZ   -0.002653  -0.002730  -0.003606   0.000462   0.009685
   45  O  3 YZ    0.003710  -0.000936   0.001584   0.001084  -0.002583
   46  H  4  S    0.024843   0.061534   0.210515   0.079499  -0.009425
   47  H  4  S   -0.011898   0.010618   0.084999   0.036756  -0.011876
   48  F  5  S    0.013641   0.047736  -0.021214   0.040588   0.017335
   49  F  5  S   -0.031420  -0.111812   0.048856  -0.082533  -0.035583
   50  F  5  X    0.002627   0.126221  -0.091112   0.298776   0.353814
   51  F  5  Y    0.001068  -0.018115   0.093730  -0.199906   0.175548
   52  F  5  Z   -0.000293   0.029819  -0.041105   0.173742  -0.255577
   53  F  5  S   -0.028601  -0.134832   0.069870  -0.165058  -0.070910
   54  F  5  X   -0.000196   0.077162  -0.059768   0.202896   0.245403
   55  F  5  Y   -0.001340  -0.013579   0.059014  -0.133639   0.120342
   56  F  5  Z    0.001117   0.018149  -0.026047   0.113327  -0.170880
   57  F  5 XX   -0.001201   0.007803  -0.004843   0.020655   0.024000
   58  F  5 YY   -0.001162  -0.005629   0.000569   0.002540  -0.005496
   59  F  5 ZZ   -0.000879  -0.005740   0.002431   0.000658  -0.006474
   60  F  5 XY   -0.000219  -0.003757   0.006380  -0.013448   0.002788
   61  F  5 XZ    0.000168   0.003713  -0.003063   0.010868  -0.006394
   62  F  5 YZ   -0.000108  -0.000988   0.001912  -0.004572   0.004771
   63  H  6  S    0.008076   0.096081  -0.094151   0.068726  -0.145582
   64  H  6  S    0.001344   0.008182  -0.035396   0.035866  -0.082507
   65  H  7  S    0.057753   0.033657  -0.092635  -0.090798   0.011895
   66  H  7  S   -0.008379  -0.005669  -0.043400  -0.025819   0.016725

                     11         12         13         14         15
                   -0.6762    -0.6449    -0.6093    -0.5483    -0.5148
                     A          A          A          A          A   
    1  C  1  S    0.003837   0.011735  -0.023363   0.030736  -0.035797
    2  C  1  S   -0.007360  -0.025380   0.039834  -0.046288   0.082761
    3  C  1  X    0.080277  -0.085884   0.039272   0.014225   0.155969
    4  C  1  Y    0.084862   0.090540  -0.036892   0.219341   0.162933
    5  C  1  Z    0.127422  -0.004927   0.097768  -0.125092  -0.026964
    6  C  1  S    0.003974  -0.040563   0.084647  -0.177777   0.069488
    7  C  1  X    0.015250  -0.019408   0.058035  -0.049347  -0.016432
    8  C  1  Y    0.068300   0.052796   0.003721   0.065217   0.071349
    9  C  1  Z    0.077337   0.017853   0.026537  -0.044505  -0.004494
   10  C  1 XX   -0.013895   0.011418  -0.013614   0.022644   0.001085
   11  C  1 YY    0.012497  -0.002467   0.001834  -0.003824   0.002760
   12  C  1 ZZ    0.001789  -0.009984   0.010719  -0.021151  -0.003898
   13  C  1 XY    0.000882  -0.012657   0.001825   0.010802   0.025353
   14  C  1 XZ   -0.006127  -0.004691   0.015130   0.002780  -0.002907
   15  C  1 YZ    0.003260   0.003132  -0.008482   0.020077   0.003010
   16  C  2  S    0.011806   0.002173   0.012607  -0.026492  -0.014499
   17  C  2  S   -0.029952   0.005253  -0.027878   0.061164   0.038792
   18  C  2  X   -0.187985   0.180590   0.065674  -0.130992  -0.192610
   19  C  2  Y    0.078066  -0.220961  -0.106726  -0.101259  -0.190970
   20  C  2  Z    0.091737  -0.059024   0.159176   0.150110  -0.096776
   21  C  2  S   -0.018698  -0.075977  -0.060392   0.131210   0.123190
   22  C  2  X   -0.046654   0.024858   0.033250  -0.059584  -0.043443
   23  C  2  Y    0.043545  -0.069245  -0.032760  -0.089193  -0.149312
   24  C  2  Z    0.038113  -0.019601   0.089760   0.101196  -0.076332
   25  C  2 XX   -0.005572   0.019122   0.016418   0.004830   0.026117
   26  C  2 YY    0.003760  -0.019940  -0.013816   0.004641  -0.035354
   27  C  2 ZZ    0.002302  -0.003429  -0.007282  -0.008769   0.003870
   28  C  2 XY    0.013864  -0.018186  -0.004051  -0.002267   0.020257
   29  C  2 XZ    0.003175  -0.005744   0.011252   0.019457  -0.009369
   30  C  2 YZ   -0.007471   0.000660  -0.018422  -0.007838  -0.001562
   31  O  3  S   -0.040722   0.027657  -0.008211  -0.003530  -0.020929
   32  O  3  S    0.086310  -0.065260   0.023066  -0.000714   0.065985
   33  O  3  X    0.240682  -0.263038   0.126233   0.013182   0.272604
   34  O  3  Y   -0.165874   0.207430   0.134308  -0.183046   0.310251
   35  O  3  Z    0.002018   0.060645   0.370861   0.321339  -0.132922
   36  O  3  S    0.194771  -0.111305   0.017343   0.027707   0.018454
   37  O  3  X    0.132363  -0.160891   0.102467   0.000753   0.237920
   38  O  3  Y   -0.097819   0.136475   0.093731  -0.137949   0.247304
   39  O  3  Z    0.007672   0.036916   0.264208   0.238343  -0.111935
   40  O  3 XX   -0.015543   0.015423  -0.011813   0.000050  -0.011107
   41  O  3 YY   -0.000823  -0.005869  -0.001888  -0.008974   0.004269
   42  O  3 ZZ    0.002451  -0.004524   0.011152   0.002938   0.007140
   43  O  3 XY    0.013602  -0.017019  -0.008632   0.014731  -0.020946
   44  O  3 XZ    0.000680  -0.006163  -0.025203  -0.021424   0.011344
   45  O  3 YZ   -0.000262   0.001693   0.006815   0.005931  -0.004804
   46  H  4  S    0.031321  -0.137276  -0.076081  -0.019890  -0.151788
   47  H  4  S    0.018396  -0.092065  -0.058267  -0.010758  -0.123350
   48  F  5  S   -0.008091   0.008553  -0.003830   0.000123   0.002656
   49  F  5  S    0.014630  -0.015521  -0.003953   0.004920   0.009157
   50  F  5  X   -0.078257   0.210066   0.054409  -0.009817  -0.168902
   51  F  5  Y    0.384669   0.223701   0.173166  -0.284817  -0.135814
   52  F  5  Z    0.287216   0.296393  -0.328376   0.157237   0.027130
   53  F  5  S    0.034601  -0.040502   0.043515  -0.012514  -0.054245
   54  F  5  X   -0.054558   0.149836   0.046923  -0.007504  -0.139836
   55  F  5  Y    0.268863   0.159665   0.124150  -0.218408  -0.104254
   56  F  5  Z    0.196954   0.212677  -0.242619   0.121667   0.017505
   57  F  5 XX   -0.005227   0.013282  -0.001957   0.003702   0.000690
   58  F  5 YY   -0.007547  -0.005338  -0.007743   0.004042   0.008013
   59  F  5 ZZ    0.004167   0.003243  -0.008834   0.001782   0.006890
   60  F  5 XY    0.015685   0.005074   0.004798  -0.006792  -0.000097
   61  F  5 XZ    0.009847   0.012163  -0.008934   0.004036  -0.001099
   62  F  5 YZ    0.000420  -0.001055   0.003835  -0.002169  -0.000348
   63  H  6  S    0.028134  -0.051056   0.092838  -0.197308  -0.040424
   64  H  6  S    0.019559  -0.040592   0.079719  -0.161934  -0.059416
   65  H  7  S   -0.005354  -0.049030  -0.086965   0.001521  -0.136406
   66  H  7  S    0.026537  -0.064843  -0.074987  -0.009530  -0.137656

                     16         17         18         19         20
                   -0.3546     0.0863     0.2220     0.2549     0.2925
                     A          A          A          A          A   
    1  C  1  S    0.047222  -0.012191   0.083214   0.006156   0.072923
    2  C  1  S   -0.072093  -0.005979  -0.117545  -0.035148  -0.035206
    3  C  1  X   -0.094453   0.071510  -0.030105   0.135040  -0.000090
    4  C  1  Y    0.215556  -0.044515   0.199197   0.128691   0.096748
    5  C  1  Z    0.347060  -0.053383   0.120483   0.165549  -0.300541
    6  C  1  S   -0.302046   0.294923  -0.813280   0.128448  -1.863142
    7  C  1  X   -0.114884   0.126173  -0.105202   0.294938  -0.621355
    8  C  1  Y    0.171721  -0.060819   0.466558   0.391371   0.470947
    9  C  1  Z    0.262609  -0.025847   0.031410   0.403925  -1.050342
   10  C  1 XX   -0.005910   0.012497   0.001965   0.013975   0.003929
   11  C  1 YY   -0.001712  -0.005857   0.008846  -0.012869   0.009001
   12  C  1 ZZ    0.009865  -0.011521   0.004582  -0.005136   0.004749
   13  C  1 XY    0.015804  -0.010618  -0.009451  -0.011626  -0.002500
   14  C  1 XZ    0.024554   0.014423  -0.000962   0.001808   0.001775
   15  C  1 YZ    0.002402   0.026759   0.008387   0.000913   0.004023
   16  C  2  S   -0.018740   0.008367  -0.034920   0.085488   0.014479
   17  C  2  S    0.044743  -0.007039   0.034130  -0.117926  -0.092823
   18  C  2  X   -0.053739   0.077704  -0.002975   0.003032  -0.025631
   19  C  2  Y   -0.066788  -0.052728   0.135236  -0.216607  -0.139676
   20  C  2  Z    0.127758   0.419307  -0.079405  -0.134548   0.065798
   21  C  2  S    0.114986  -0.137215   0.628536  -1.490204   0.157353
   22  C  2  X   -0.069150   0.183252   0.139932   0.331516  -0.203372
   23  C  2  Y   -0.063795   0.006142   0.543611  -0.809922  -0.944430
   24  C  2  Z    0.118485   0.607747  -0.044766  -0.386938   0.360638
   25  C  2 XX    0.002117  -0.003468   0.008359   0.009065   0.000241
   26  C  2 YY   -0.007536  -0.000777  -0.018050   0.010874  -0.012999
   27  C  2 ZZ    0.003570   0.005473   0.004522  -0.003668   0.002522
   28  C  2 XY   -0.012496   0.012134  -0.000081   0.006449  -0.007210
   29  C  2 XZ   -0.027281  -0.011992  -0.005111  -0.008671   0.009970
   30  C  2 YZ   -0.007364   0.011260  -0.009491  -0.007472   0.012867
   31  O  3  S   -0.020802   0.022512   0.046968   0.022818  -0.002282
   32  O  3  S    0.034638  -0.034036  -0.071735  -0.029267   0.035382
   33  O  3  X   -0.186879   0.059403   0.074880   0.054554  -0.031635
   34  O  3  Y   -0.124063   0.159091   0.141001   0.113638   0.016440
   35  O  3  Z   -0.223464  -0.253189   0.083033   0.065510  -0.071524
   36  O  3  S    0.160675  -0.194443  -0.502216  -0.365346  -0.175737
   37  O  3  X   -0.174586   0.075852   0.170334   0.175916   0.067647
   38  O  3  Y   -0.129241   0.206932   0.172107   0.166420   0.084406
   39  O  3  Z   -0.215976  -0.333092   0.123918   0.093614  -0.131499
   40  O  3 XX    0.006584   0.001526  -0.001287   0.003157   0.003758
   41  O  3 YY   -0.009800   0.008407   0.024965   0.012199   0.001815
   42  O  3 ZZ   -0.008266   0.008507   0.015375   0.000878   0.014047
   43  O  3 XY    0.005772  -0.000029   0.001104   0.011806  -0.004843
   44  O  3 XZ    0.007066   0.000416   0.004604   0.002916   0.002241
   45  O  3 YZ   -0.002674   0.007797  -0.000604  -0.003468   0.000528
   46  H  4  S   -0.027063  -0.001492  -0.074837   0.026284  -0.031421
   47  H  4  S   -0.047916  -0.016281  -1.040876   1.776438   0.934418
   48  F  5  S   -0.001943  -0.009436  -0.007404  -0.021812   0.017291
   49  F  5  S    0.016824   0.031025   0.034608   0.045889   0.013965
   50  F  5  X    0.053234   0.057203   0.050200   0.083020  -0.007635
   51  F  5  Y   -0.110728   0.005562  -0.082107  -0.090203  -0.003629
   52  F  5  Z   -0.180780   0.028606  -0.035868  -0.032691   0.064343
   53  F  5  S   -0.018220   0.045083   0.008462   0.168431  -0.289317
   54  F  5  X    0.044745   0.054420   0.050390   0.111820  -0.078192
   55  F  5  Y   -0.103705   0.001797  -0.106843  -0.124645   0.007649
   56  F  5  Z   -0.170715   0.033225  -0.034301  -0.049616   0.115126
   57  F  5 XX    0.008688   0.004646   0.007807   0.000960   0.014593
   58  F  5 YY    0.004863   0.005299   0.004189  -0.003594   0.020280
   59  F  5 ZZ    0.005086   0.004470   0.011066   0.000849   0.021363
   60  F  5 XY   -0.001364  -0.001921   0.004996   0.001302   0.003903
   61  F  5 XZ    0.002101   0.000143   0.004599   0.003459  -0.006567
   62  F  5 YZ   -0.000859   0.003566  -0.001707  -0.001039   0.000746
   63  H  6  S    0.068230  -0.110685  -0.000829   0.004029  -0.001618
   64  H  6  S    0.086529  -0.400647   0.653162  -0.190148   1.999179
   65  H  7  S   -0.113682   0.108719   0.164625   0.114275  -0.073471
   66  H  7  S   -0.217524   0.386058   1.260836   0.319220   0.019603

                     21         22         23         24         25
                    0.3319     0.4246     0.5230     0.7178     0.7399
                     A          A          A          A          A   
    1  C  1  S    0.037427  -0.089584   0.099053  -0.003869  -0.003347
    2  C  1  S   -0.036710   0.088247  -0.074034  -0.356321   0.135868
    3  C  1  X    0.217354  -0.174506  -0.033848  -0.201416  -0.077273
    4  C  1  Y   -0.078256   0.148982  -0.190119  -0.695363   0.023020
    5  C  1  Z   -0.073271   0.021045   0.194005  -0.022360  -0.199941
    6  C  1  S    0.004877   1.364025  -2.665819  -0.083944  -0.156328
    7  C  1  X    1.126641  -0.816769  -2.152474   0.273894  -0.270321
    8  C  1  Y    0.098469   1.079922  -1.315154   0.747667  -0.224086
    9  C  1  Z   -0.118117  -0.139448   0.376467  -0.078191   0.213460
   10  C  1 XX    0.017687  -0.010485   0.018993  -0.026586   0.007191
   11  C  1 YY   -0.015964  -0.007756  -0.004036  -0.050043   0.023942
   12  C  1 ZZ   -0.007477   0.026237  -0.015227   0.019159  -0.005888
   13  C  1 XY    0.007134   0.004293   0.012112  -0.034547   0.016155
   14  C  1 XZ    0.009769  -0.005054   0.014417   0.000837  -0.045979
   15  C  1 YZ   -0.015983   0.003370   0.000324  -0.006083  -0.010663
   16  C  2  S   -0.058348   0.002186  -0.115210  -0.060974  -0.004906
   17  C  2  S    0.088131  -0.103642   0.050377  -0.544302   0.141913
   18  C  2  X    0.060239   0.207176  -0.093982   0.239931  -0.186739
   19  C  2  Y    0.004555  -0.025060  -0.315769   0.142064   0.064618
   20  C  2  Z   -0.040203  -0.001308   0.025376  -0.156947  -0.996738
   21  C  2  S    0.607855   0.552648   3.355497   0.919502   0.085484
   22  C  2  X    1.148862   1.881458  -0.809820  -0.367226   0.092705
   23  C  2  Y    0.093727  -0.651376  -2.288020  -0.666330  -0.223396
   24  C  2  Z   -0.202599  -0.174200  -0.371298   0.162623   1.070493
   25  C  2 XX   -0.024729   0.025754  -0.012759  -0.114897   0.012356
   26  C  2 YY    0.026666  -0.021722  -0.001494  -0.100061   0.006631
   27  C  2 ZZ    0.007672   0.006300   0.020369   0.036237   0.013555
   28  C  2 XY    0.016585   0.002320  -0.013358  -0.069305   0.011425
   29  C  2 XZ    0.007992  -0.000077  -0.008133   0.015005  -0.002317
   30  C  2 YZ   -0.005680   0.005304  -0.017375  -0.005582   0.038921
   31  O  3  S    0.043238   0.071233   0.059487   0.015243   0.003937
   32  O  3  S   -0.060670   0.007131  -0.047778  -0.117762  -0.034221
   33  O  3  X    0.124759  -0.027878   0.101434   0.053229   0.006591
   34  O  3  Y   -0.166225  -0.168067  -0.031587   0.010192   0.024826
   35  O  3  Z   -0.084851  -0.006189   0.005030  -0.002898  -0.040102
   36  O  3  S   -0.728312  -1.679623  -1.306614  -0.135439   0.001857
   37  O  3  X    0.301374   0.471670   0.730130   0.207158   0.013138
   38  O  3  Y   -0.524174  -0.514395  -0.046654   0.012523   0.012041
   39  O  3  Z   -0.154392  -0.175898  -0.064176  -0.067941  -0.108310
   40  O  3 XX    0.005584   0.011738   0.002028  -0.032556   0.009222
   41  O  3 YY    0.000975   0.049087   0.001572  -0.028652   0.000167
   42  O  3 ZZ    0.014769   0.062451   0.042189  -0.007324  -0.037467
   43  O  3 XY    0.019126   0.019155  -0.012311  -0.011122  -0.015269
   44  O  3 XZ    0.002129   0.015053  -0.001284   0.016135   0.056350
   45  O  3 YZ   -0.011588   0.001401  -0.006692  -0.005323  -0.032171
   46  H  4  S    0.052341  -0.077108  -0.117727  -0.313867   0.018818
   47  H  4  S   -0.541798   0.213344   1.015472   0.304964   0.057324
   48  F  5  S   -0.062924   0.071782   0.005648  -0.003710   0.006403
   49  F  5  S    0.062679   0.005161   0.086755  -0.019923   0.024099
   50  F  5  X    0.172580  -0.158901   0.154530   0.001183  -0.005120
   51  F  5  Y   -0.026636   0.069342   0.090044  -0.103002   0.070219
   52  F  5  Z    0.074899  -0.046847  -0.020428   0.033477  -0.070872
   53  F  5  S    0.735957  -1.072680  -0.369059   0.046678  -0.100384
   54  F  5  X    0.342543  -0.455755   0.131515  -0.019333  -0.007732
   55  F  5  Y   -0.146226   0.103295   0.230332  -0.106159   0.041990
   56  F  5  Z    0.124523  -0.114272  -0.081393   0.015758  -0.026369
   57  F  5 XX   -0.016071   0.051102   0.017385  -0.035589   0.029137
   58  F  5 YY   -0.028012   0.055198   0.048303   0.003408   0.020320
   59  F  5 ZZ   -0.028573   0.068249   0.037225  -0.006365   0.009618
   60  F  5 XY   -0.013143  -0.004049   0.011385  -0.009433  -0.019008
   61  F  5 XZ   -0.001464  -0.002793  -0.001388  -0.011965   0.013429
   62  F  5 YZ   -0.004517  -0.001073  -0.004391   0.000366   0.005938
   63  H  6  S    0.029974   0.009308  -0.035382   0.095205  -0.111688
   64  H  6  S    0.495550  -0.083595  -0.560139  -0.069321  -0.249237
   65  H  7  S   -0.037449  -0.053868  -0.135152   0.068773   0.006529
   66  H  7  S   -0.886329   0.235293   0.564287  -0.226100   0.177530

                     26         27         28         29         30
                    0.7963     0.8226     0.8487     0.8849     0.9461
                     A          A          A          A          A   
    1  C  1  S   -0.012433   0.010142  -0.019921   0.010481  -0.025554
    2  C  1  S    0.028648  -0.614749   0.070106   0.036801  -0.374948
    3  C  1  X    0.553099   0.681480  -0.007843   0.351213  -0.064796
    4  C  1  Y   -0.033257  -0.085362  -0.179676  -0.357619   0.437539
    5  C  1  Z   -0.032354   0.185139  -0.830214  -0.272626  -0.002217
    6  C  1  S   -0.076186   1.381266   0.235822   1.231992   1.641078
    7  C  1  X   -0.564592  -0.997476  -0.391385   0.353951   1.153035
    8  C  1  Y    0.281382   0.345407  -0.066048   0.758774  -1.132409
    9  C  1  Z    0.052786  -0.244815   1.611738   0.377234   0.316939
   10  C  1 XX    0.045562   0.085804   0.071909   0.009708  -0.038053
   11  C  1 YY   -0.058306  -0.052520  -0.002174   0.065309   0.009792
   12  C  1 ZZ    0.027470  -0.052548  -0.029019  -0.020678  -0.081961
   13  C  1 XY   -0.068837  -0.078678  -0.006397   0.066066  -0.013809
   14  C  1 XZ    0.016343  -0.002113  -0.026902   0.049396   0.006263
   15  C  1 YZ   -0.005231   0.020825   0.042454  -0.025553   0.061555
   16  C  2  S    0.010302   0.027955  -0.007710   0.037677  -0.035224
   17  C  2  S    0.407640  -0.320212   0.125282  -0.064809  -0.556998
   18  C  2  X    0.798464  -0.300023   0.025560  -0.417800   0.253844
   19  C  2  Y   -0.133489   0.235166  -0.040651  -0.350515  -0.478202
   20  C  2  Z   -0.173498  -0.066644   0.280732   0.029749  -0.103937
   21  C  2  S   -0.644878   0.176488  -0.025356  -0.755879   0.770813
   22  C  2  X   -0.711175   0.671318  -0.093724   0.980695  -0.270199
   23  C  2  Y    0.249842  -0.055718  -0.098061   2.163951   2.516101
   24  C  2  Z    0.217733   0.148753  -0.773313   0.070083   0.124350
   25  C  2 XX   -0.021502  -0.020391  -0.012123   0.035630  -0.078671
   26  C  2 YY    0.070690   0.041158   0.051110  -0.044274  -0.137007
   27  C  2 ZZ    0.006711  -0.042849  -0.004236  -0.022294   0.008449
   28  C  2 XY    0.117814   0.032057   0.019828  -0.064087   0.077158
   29  C  2 XZ    0.018137  -0.014887   0.006909  -0.015108  -0.007391
   30  C  2 YZ   -0.008956   0.015858   0.000663  -0.004001  -0.067193
   31  O  3  S    0.016274  -0.020125   0.003070  -0.021102  -0.000907
   32  O  3  S   -0.059260   0.044560  -0.157208   0.098805  -0.110285
   33  O  3  X    0.159809   0.006019   0.113981  -0.353660   0.148249
   34  O  3  Y   -0.102094  -0.005256   0.067519  -0.085921  -0.249187
   35  O  3  Z   -0.026182   0.031353   0.023007   0.032722  -0.104009
   36  O  3  S    0.303106   0.037456   0.257490   0.064236   0.846834
   37  O  3  X    0.045490  -0.350353  -0.076525  -0.117658  -0.374379
   38  O  3  Y   -0.025496   0.016467  -0.031764  -0.036927  -0.056514
   39  O  3  Z   -0.010445  -0.001918   0.084715   0.068117   0.120283
   40  O  3 XX    0.045523   0.015231  -0.026264  -0.047017   0.047423
   41  O  3 YY    0.019300   0.021348  -0.025972  -0.014431   0.015785
   42  O  3 ZZ   -0.041944  -0.012002  -0.065244   0.033387  -0.054785
   43  O  3 XY   -0.127981   0.077150   0.030359  -0.012236  -0.024264
   44  O  3 XZ   -0.037635   0.035123  -0.032717  -0.009723  -0.029240
   45  O  3 YZ    0.023775   0.004600   0.002389  -0.021352  -0.007129
   46  H  4  S    0.157581   0.030421   0.027773  -0.238490  -0.469659
   47  H  4  S   -0.126084  -0.224987   0.059477  -1.076002  -1.340785
   48  F  5  S    0.002915   0.010908   0.008881  -0.007955  -0.015594
   49  F  5  S   -0.001768   0.029703  -0.116260   0.150579  -0.086095
   50  F  5  X    0.100288   0.262608  -0.005725   0.071337  -0.084486
   51  F  5  Y   -0.104068  -0.045679   0.042178  -0.073113  -0.036506
   52  F  5  Z    0.008050   0.010735  -0.163605   0.017454  -0.019684
   53  F  5  S   -0.222133  -0.658646   0.070159  -0.217255   0.547184
   54  F  5  X   -0.066916  -0.195873  -0.063708   0.048122   0.138517
   55  F  5  Y   -0.005672   0.073157   0.037495  -0.059947   0.059767
   56  F  5  Z   -0.025304  -0.031239  -0.165612  -0.026250   0.016882
   57  F  5 XX   -0.058573  -0.127129  -0.041311   0.019700  -0.005617
   58  F  5 YY   -0.004614   0.024967  -0.030276   0.071480  -0.041356
   59  F  5 ZZ    0.016197   0.054637  -0.054784   0.050822  -0.065544
   60  F  5 XY    0.047647   0.072190  -0.019263   0.004296   0.032306
   61  F  5 XZ   -0.023538  -0.032409  -0.022824  -0.032206   0.023771
   62  F  5 YZ    0.017120   0.014945   0.000673   0.012468   0.011740
   63  H  6  S   -0.003480  -0.112127  -0.336456   0.078060  -0.321022
   64  H  6  S   -0.008187   0.005762  -0.404988  -0.150841  -0.393831
   65  H  7  S   -0.279560   0.424437   0.334274  -0.589318   0.163761
   66  H  7  S    0.702174  -0.581101  -0.112489   1.201631  -0.687629

                     31         32         33         34         35
                    1.0124     1.0670     1.1087     1.1669     1.2196
                     A          A          A          A          A   
    1  C  1  S   -0.038639  -0.027242   0.021043   0.016370  -0.011825
    2  C  1  S    0.270779   0.233156  -0.447868  -0.169248  -0.682502
    3  C  1  X    0.265184  -0.136115   0.051524  -0.056143  -0.158073
    4  C  1  Y    0.324745  -0.205409   0.382804   0.153654   0.056541
    5  C  1  Z   -0.130044   0.284761  -0.362468  -0.304523  -0.174903
    6  C  1  S   -2.165851  -0.583561   0.390229  -0.382784   1.905536
    7  C  1  X   -0.994398   0.192648  -0.300005  -0.666388   0.408384
    8  C  1  Y   -1.379677   0.188900  -0.960234  -0.333947   0.232507
    9  C  1  Z    0.747330  -0.318458   0.548176   0.604292   0.557849
   10  C  1 XX   -0.158636   0.083850  -0.079978  -0.058195  -0.018219
   11  C  1 YY    0.030162  -0.054678  -0.026146  -0.079911  -0.050601
   12  C  1 ZZ    0.036056  -0.006747   0.033037   0.086874  -0.018841
   13  C  1 XY   -0.079818  -0.008500  -0.036363   0.004174  -0.000580
   14  C  1 XZ    0.073938   0.002647  -0.016355  -0.007316   0.048763
   15  C  1 YZ    0.046481   0.086860  -0.117720  -0.078253  -0.042439
   16  C  2  S    0.005980   0.028988   0.011565  -0.031210  -0.002917
   17  C  2  S   -0.818247  -0.785749  -0.521290  -0.652788   0.204051
   18  C  2  X    0.221010  -0.010928   0.157129  -0.098759  -0.114309
   19  C  2  Y    0.731427  -0.446435  -0.268192  -0.031481   0.001194
   20  C  2  Z    0.055486  -0.068084  -0.049328  -0.013708   0.069979
   21  C  2  S    2.697323   1.552978   1.890352   1.698519  -1.178078
   22  C  2  X   -1.046651   0.042689  -0.414868  -0.025452   0.472167
   23  C  2  Y   -2.495678   0.602005  -0.056147  -0.687211   0.203918
   24  C  2  Z   -0.480474   0.020949   0.021119   0.029564  -0.507966
   25  C  2 XX    0.081676  -0.145231   0.035259  -0.158167  -0.060157
   26  C  2 YY   -0.068220   0.125325   0.051303  -0.044299   0.010826
   27  C  2 ZZ   -0.039844  -0.092703  -0.077138   0.033365   0.038490
   28  C  2 XY   -0.017909  -0.044958  -0.089910   0.075323   0.001487
   29  C  2 XZ   -0.068660  -0.052947   0.028301   0.086142  -0.010780
   30  C  2 YZ   -0.060618  -0.006925   0.087902   0.005853  -0.028853
   31  O  3  S   -0.007965  -0.005575  -0.001879   0.021930   0.007467
   32  O  3  S    0.088897  -0.023790  -0.417391   0.618863   0.172224
   33  O  3  X   -0.292001  -0.077315  -0.327951   0.471933   0.075440
   34  O  3  Y    0.056789   0.154884   0.187390  -0.133778   0.100318
   35  O  3  Z   -0.052976  -0.036341   0.079944   0.258991  -0.828700
   36  O  3  S   -0.809149  -0.094268   0.550664  -1.696369  -0.395793
   37  O  3  X    0.527234   0.146753   0.617979  -0.480522  -0.087356
   38  O  3  Y    0.055236  -0.164038  -0.302867   0.306025  -0.047267
   39  O  3  Z    0.072968   0.048351  -0.170609  -0.304577   1.053603
   40  O  3 XX   -0.149940   0.025235  -0.126618   0.201969   0.080367
   41  O  3 YY    0.007147  -0.104749  -0.189019   0.172619   0.050418
   42  O  3 ZZ    0.097605   0.011238  -0.142353   0.305859   0.060314
   43  O  3 XY   -0.014678   0.032985   0.066225  -0.038806  -0.020313
   44  O  3 XZ    0.009020  -0.004982   0.012334  -0.008068  -0.003878
   45  O  3 YZ   -0.064770  -0.051689   0.004727  -0.007993  -0.051649
   46  H  4  S   -0.127898   0.785405   0.331707   0.322115   0.143803
   47  H  4  S    1.136448  -1.431430  -0.649802  -0.213549   0.046359
   48  F  5  S   -0.010938  -0.001654  -0.003039   0.011141  -0.013149
   49  F  5  S    0.016678  -0.159081   0.006825   0.105661  -0.313731
   50  F  5  X   -0.020314  -0.027928  -0.012970   0.022351   0.058921
   51  F  5  Y    0.040845   0.023709  -0.018123   0.042848  -0.075040
   52  F  5  Z   -0.028591  -0.030460   0.050902  -0.042855   0.013172
   53  F  5  S    0.204013   0.328361   0.014869  -0.321767   0.490216
   54  F  5  X    0.229342  -0.026383   0.060239  -0.013509  -0.135371
   55  F  5  Y    0.041679  -0.022313   0.063658   0.001778   0.054810
   56  F  5  Z   -0.029766   0.022882  -0.052379  -0.024179  -0.067313
   57  F  5 XX    0.065464  -0.074948   0.038752   0.086347  -0.166510
   58  F  5 YY   -0.016881  -0.061072  -0.012062   0.041892  -0.153076
   59  F  5 ZZ   -0.024474  -0.053554  -0.023580   0.050468  -0.128419
   60  F  5 XY    0.024762  -0.018121   0.047533  -0.000891   0.009754
   61  F  5 XZ    0.000280   0.030970  -0.037706  -0.017567  -0.029128
   62  F  5 YZ    0.011266  -0.015804   0.020278   0.007836   0.011507
   63  H  6  S   -0.279320  -0.550039   0.669641   0.397468   0.153256
   64  H  6  S   -0.562309   0.774547  -1.300316  -0.921721  -0.783969
   65  H  7  S   -0.433283  -0.157783   0.225817  -0.366212  -0.234521
   66  H  7  S    0.131007   0.035359  -0.492276   0.742213   0.330712

                     36         37         38         39         40
                    1.2455     1.4028     1.4080     1.5832     1.6138
                     A          A          A          A          A   
    1  C  1  S   -0.064954   0.015895  -0.047107   0.007540  -0.004818
    2  C  1  S   -1.316852   0.109047  -0.835576   0.190765  -0.135917
    3  C  1  X   -0.302510  -0.182141  -0.014559   0.071855   0.022620
    4  C  1  Y    0.061483   0.122939  -0.001597  -0.062176   0.014666
    5  C  1  Z   -0.089240  -0.049021  -0.007065  -0.111232   0.011598
    6  C  1  S    3.833845   0.191025   3.186549  -0.709506   0.338455
    7  C  1  X    1.335644   0.706502   0.832233  -0.481244  -0.132314
    8  C  1  Y    0.536712  -0.259498   0.549953   0.179098  -0.338448
    9  C  1  Z    0.408624   0.066641   0.073885   0.339446   0.051925
   10  C  1 XX   -0.091644   0.155431  -0.128692  -0.001556  -0.014706
   11  C  1 YY   -0.091498   0.040401  -0.037629  -0.127453   0.092216
   12  C  1 ZZ   -0.044948  -0.076648   0.032532   0.102535  -0.129729
   13  C  1 XY   -0.002862  -0.087640   0.070653   0.112623   0.074707
   14  C  1 XZ    0.045437   0.196644   0.071389   0.205088   0.024523
   15  C  1 YZ    0.135199  -0.029806   0.125886   0.053896  -0.028043
   16  C  2  S    0.023910  -0.000297   0.027697  -0.005338  -0.006131
   17  C  2  S    0.696316   0.010637   0.233076   0.001187   0.084883
   18  C  2  X   -0.041371  -0.066995  -0.035710   0.015391  -0.151504
   19  C  2  Y    0.133434  -0.004530  -0.098960  -0.005994   0.114825
   20  C  2  Z   -0.019512  -0.059941  -0.017549  -0.037491  -0.042677
   21  C  2  S   -3.099888  -0.095296  -0.893399  -0.415630  -1.090844
   22  C  2  X    0.758888   0.208045   1.611578  -0.655971  -0.349633
   23  C  2  Y    0.063921   0.575872   0.923473  -0.077135   0.082315
   24  C  2  Z   -0.121693   0.108945  -0.138375   0.008234   0.194886
   25  C  2 XX   -0.056915   0.032307   0.127865  -0.093139   0.016109
   26  C  2 YY    0.110860  -0.022553  -0.099712   0.074296   0.016125
   27  C  2 ZZ    0.041402  -0.013261   0.024766  -0.007154  -0.064511
   28  C  2 XY   -0.102390  -0.026979  -0.077176   0.101116   0.085727
   29  C  2 XZ   -0.078643  -0.068792  -0.140310  -0.172650   0.087181
   30  C  2 YZ   -0.038708  -0.132833  -0.084258  -0.173458  -0.137263
   31  O  3  S    0.003420  -0.006438   0.022202  -0.016792  -0.051660
   32  O  3  S    0.043020  -0.041545   0.326872  -0.324741  -0.809459
   33  O  3  X   -0.209899   0.062282   0.151629   0.046999   0.228105
   34  O  3  Y   -0.378941   0.191348   0.690934  -0.240708   0.019782
   35  O  3  Z    0.270895   0.211328   0.163349  -0.064637   0.039413
   36  O  3  S    0.036258   0.214637  -0.953408   0.955149   2.210674
   37  O  3  X    0.363200  -0.166009  -0.072280  -0.271230  -0.847364
   38  O  3  Y    0.513362  -0.376036  -1.451555   0.640066   0.195012
   39  O  3  Z   -0.319537  -0.309908  -0.321824   0.240756  -0.052704
   40  O  3 XX    0.091735  -0.064130   0.019200  -0.087577  -0.373642
   41  O  3 YY   -0.066673   0.011356   0.170630  -0.007366  -0.231090
   42  O  3 ZZ   -0.019975  -0.012822   0.069509  -0.128389  -0.068947
   43  O  3 XY    0.007758  -0.019493  -0.085799   0.056382   0.016826
   44  O  3 XZ   -0.049804  -0.053730  -0.023078   0.023040  -0.093425
   45  O  3 YZ   -0.063829  -0.049961  -0.043609  -0.074340  -0.045981
   46  H  4  S    0.174639  -0.134438  -0.042952   0.088768   0.141586
   47  H  4  S    0.466768  -0.218071  -0.316483   0.072923   0.128999
   48  F  5  S    0.004470  -0.077738   0.026740   0.014662   0.003485
   49  F  5  S   -0.045788  -1.216562   0.403971   0.141321   0.014017
   50  F  5  X    0.023354   0.453815  -0.166486  -0.181824  -0.422756
   51  F  5  Y   -0.042124  -0.190481   0.151984   0.403382  -0.573388
   52  F  5  Z   -0.037506   0.306750   0.075323   0.620083   0.120590
   53  F  5  S   -0.060775   2.677408  -0.978916  -0.394444  -0.089662
   54  F  5  X   -0.148605  -0.527067   0.131164   0.197122   0.523183
   55  F  5  Y   -0.012322   0.225053  -0.186075  -0.460555   0.730846
   56  F  5  Z   -0.009239  -0.297387  -0.071054  -0.742377  -0.150268
   57  F  5 XX   -0.046914  -0.546695   0.144305   0.049648  -0.077804
   58  F  5 YY   -0.026785  -0.586938   0.196533   0.117049   0.115561
   59  F  5 ZZ    0.040370  -0.635363   0.247866   0.059814   0.008903
   60  F  5 XY   -0.015728  -0.014735  -0.019558  -0.029692  -0.026927
   61  F  5 XZ    0.000302  -0.024791  -0.036521  -0.056129   0.009478
   62  F  5 YZ    0.038558   0.022134   0.040823   0.028017  -0.004776
   63  H  6  S   -0.252686   0.031357  -0.153828   0.101827  -0.039632
   64  H  6  S   -0.567758  -0.082317  -0.243018  -0.060168  -0.157688
   65  H  7  S   -0.251435  -0.092333  -0.074455   0.074029  -0.210614
   66  H  7  S   -0.099205  -0.292316  -0.735073   0.519597  -0.238822

                     41         42         43         44         45
                    1.7035     1.7284     1.7880     1.8883     1.9897
                     A          A          A          A          A   
    1  C  1  S   -0.018746   0.011877  -0.011976  -0.009755  -0.002823
    2  C  1  S   -0.189398   0.153449  -0.366130  -0.171463   0.265461
    3  C  1  X   -0.006983  -0.013700  -0.105109  -0.021482   0.099595
    4  C  1  Y   -0.064907  -0.045487  -0.058312   0.214653   0.066590
    5  C  1  Z    0.036741   0.117540   0.077821  -0.008212   0.057330
    6  C  1  S    0.580235  -0.447061   1.951594   1.444436  -0.465147
    7  C  1  X    0.328876   0.086197   1.318807   0.594884   0.181780
    8  C  1  Y    0.205738   0.208446   0.547410   0.045328  -0.081869
    9  C  1  Z    0.161620  -0.665780  -0.390681  -0.261541  -0.256988
   10  C  1 XX   -0.040196  -0.053048  -0.037068   0.333671   0.136697
   11  C  1 YY    0.110255  -0.066251   0.190101  -0.591999  -0.103645
   12  C  1 ZZ   -0.099742   0.108462  -0.142914   0.259314  -0.070340
   13  C  1 XY   -0.066278   0.110001  -0.116489   0.106374  -0.092046
   14  C  1 XZ   -0.061764   0.398740  -0.124916  -0.207595  -0.101652
   15  C  1 YZ   -0.140787  -0.019773   0.019822   0.143084  -0.241857
   16  C  2  S    0.002417  -0.001769   0.001336   0.012705  -0.009026
   17  C  2  S    0.061130   0.029387   0.262739  -0.042453   0.032247
   18  C  2  X   -0.004964  -0.014138  -0.143196  -0.025070  -0.041724
   19  C  2  Y    0.006469  -0.054162  -0.043064   0.123910   0.124255
   20  C  2  Z   -0.153074  -0.102106   0.099678   0.001739   0.049547
   21  C  2  S   -0.296319  -0.524605  -3.378329  -1.447616   0.197595
   22  C  2  X    0.293356  -0.320239  -0.233295  -0.336203   0.195099
   23  C  2  Y    0.105500   0.269007   1.775852   1.500790   0.545938
   24  C  2  Z    0.030002   0.312232   0.296407   0.272684   0.227086
   25  C  2 XX    0.129097   0.006540   0.002627  -0.118335  -0.262411
   26  C  2 YY    0.089744   0.043100  -0.078985   0.178354   0.328195
   27  C  2 ZZ   -0.215658  -0.064624   0.036409  -0.056200  -0.071809
   28  C  2 XY   -0.152534   0.039374   0.093952   0.059116  -0.046187
   29  C  2 XZ    0.440752  -0.082799  -0.013724   0.115812  -0.138124
   30  C  2 YZ   -0.325707  -0.330899   0.154542  -0.037333   0.048007
   31  O  3  S    0.009706  -0.016319  -0.079834  -0.049406  -0.004935
   32  O  3  S    0.139009  -0.344695  -1.237847  -0.541480   0.070277
   33  O  3  X   -0.019112   0.056507   0.288452  -0.005826   0.041590
   34  O  3  Y    0.009604  -0.055427   0.003822   0.118905   0.121711
   35  O  3  Z   -0.078797  -0.016175   0.019142  -0.025762   0.070285
   36  O  3  S   -0.381886   1.035121   3.846439   2.120905  -0.040982
   37  O  3  X    0.094964  -0.301095  -1.326394  -0.644664  -0.116194
   38  O  3  Y   -0.035536   0.209683   0.224445   0.012119  -0.185353
   39  O  3  Z   -0.154062   0.011837   0.135612   0.092949  -0.105037
   40  O  3 XX   -0.022777  -0.154238  -0.511199  -0.252822   0.238226
   41  O  3 YY   -0.012363   0.003298  -0.305549  -0.078297   0.024461
   42  O  3 ZZ    0.143553  -0.084449  -0.157634  -0.100767  -0.252040
   43  O  3 XY    0.096675   0.055467  -0.077701   0.059421   0.143571
   44  O  3 XZ   -0.415830  -0.085959   0.062927  -0.167154  -0.258450
   45  O  3 YZ    0.203081  -0.005196  -0.151423  -0.019682  -0.519613
   46  H  4  S   -0.011549   0.079049   0.060053  -0.350130  -0.497009
   47  H  4  S   -0.018315  -0.109332  -0.377382  -0.435386  -0.154994
   48  F  5  S   -0.012806   0.000330  -0.007903   0.024754  -0.021331
   49  F  5  S   -0.160266  -0.020570  -0.090246   0.409037  -0.532706
   50  F  5  X   -0.037022   0.046258   0.170445   0.227918  -0.288850
   51  F  5  Y    0.271624   0.087801   0.360526   0.038060   0.079319
   52  F  5  Z    0.081535  -0.514605  -0.125649  -0.054110  -0.122221
   53  F  5  S    0.371197   0.034452   0.275850  -0.861098   1.102906
   54  F  5  X    0.060735  -0.096785  -0.284123  -0.438742   0.407335
   55  F  5  Y   -0.396051  -0.108376  -0.598662   0.036006  -0.118807
   56  F  5  Z   -0.127923   0.806610   0.198524   0.050711   0.196270
   57  F  5 XX   -0.060445   0.073814   0.063577   0.027234  -0.214370
   58  F  5 YY   -0.123344   0.051205  -0.165636   0.153741  -0.231084
   59  F  5 ZZ   -0.035141  -0.142678  -0.021734   0.275843  -0.116683
   60  F  5 XY    0.133480  -0.075200   0.227307  -0.363116   0.178834
   61  F  5 XZ    0.051472  -0.345691   0.099796   0.132542  -0.104714
   62  F  5 YZ   -0.023438   0.145382   0.082554  -0.063004  -0.139330
   63  H  6  S   -0.167251   0.134864  -0.013441   0.104186   0.049670
   64  H  6  S   -0.061689   0.401309   0.221659  -0.057894   0.156955
   65  H  7  S   -0.006217   0.092551  -0.396395  -0.254315  -0.128370
   66  H  7  S    0.012732  -0.080207  -0.400293  -0.179957   0.112329

                     46         47         48         49         50
                    2.0043     2.0929     2.1155     2.1626     2.1909
                     A          A          A          A          A   
    1  C  1  S   -0.027545  -0.049615   0.003713   0.026068  -0.005455
    2  C  1  S   -0.519424  -0.318125   0.063174   0.469920   0.008497
    3  C  1  X   -0.213457   0.012526  -0.013729   0.064036  -0.042728
    4  C  1  Y   -0.072411   0.154140   0.033580   0.094331  -0.078099
    5  C  1  Z    0.054417   0.087289  -0.021917  -0.004574   0.085234
    6  C  1  S    0.577792   1.983744  -0.426601  -1.624079  -0.462767
    7  C  1  X    1.014478   1.302028   0.318935   1.077924  -0.572213
    8  C  1  Y   -0.111669  -0.086061   0.167114  -0.581046  -0.358684
    9  C  1  Z    0.277370   0.498549  -0.185061   0.006449   0.375090
   10  C  1 XX   -0.006175   0.120273   0.102410  -0.146578  -0.114408
   11  C  1 YY    0.010571  -0.179252   0.046580  -0.042559   0.046414
   12  C  1 ZZ   -0.117430  -0.002637  -0.185737   0.222283   0.010008
   13  C  1 XY    0.339878   0.029294   0.099361   0.120689  -0.056089
   14  C  1 XZ   -0.066624   0.202206  -0.000699  -0.162169   0.107227
   15  C  1 YZ   -0.252282  -0.201664   0.203216   0.109142  -0.202323
   16  C  2  S   -0.001436   0.011477  -0.010531   0.013868  -0.007294
   17  C  2  S   -0.259513   0.165617  -0.131198  -0.006473  -0.169749
   18  C  2  X    0.161905  -0.026232   0.078813  -0.002648   0.001941
   19  C  2  Y    0.071290   0.138388   0.145342  -0.127890  -0.016698
   20  C  2  Z    0.038885   0.041150   0.013322  -0.004065   0.039731
   21  C  2  S   -0.155161  -1.761861   0.303954   0.061044   0.862205
   22  C  2  X   -0.216241   0.293186   0.172295  -0.502243  -0.320800
   23  C  2  Y   -0.307010   1.636361  -0.080481   0.478567  -0.689870
   24  C  2  Z   -0.141132  -0.105004  -0.032281   0.054599  -0.229325
   25  C  2 XX    0.291155  -0.152434  -0.028880   0.032986   0.084661
   26  C  2 YY   -0.227153   0.161737   0.144202  -0.268737  -0.061481
   27  C  2 ZZ   -0.148074  -0.030854  -0.179786   0.290670   0.047243
   28  C  2 XY    0.228222  -0.020223   0.017836  -0.030546   0.093589
   29  C  2 XZ    0.070882   0.232847  -0.002549   0.063976   0.221005
   30  C  2 YZ    0.219882   0.343976   0.067455  -0.062240   0.284319
   31  O  3  S    0.002564  -0.028747   0.002706  -0.002793   0.005765
   32  O  3  S    0.054086  -0.310779   0.129147   0.017520   0.033079
   33  O  3  X   -0.093568   0.072217   0.016384  -0.115590  -0.009697
   34  O  3  Y   -0.070983   0.143881   0.057596  -0.075647   0.008437
   35  O  3  Z    0.045580   0.049994   0.000977   0.010389   0.002769
   36  O  3  S   -0.140047   1.314556  -0.419875   0.303434  -0.296345
   37  O  3  X    0.209764  -0.526064   0.070231   0.117495   0.110805
   38  O  3  Y    0.091675  -0.185782  -0.142019   0.191544   0.023091
   39  O  3  Z   -0.071841   0.015829  -0.026236   0.012542   0.009136
   40  O  3 XX   -0.164253   0.107678   0.157921  -0.133389   0.027702
   41  O  3 YY    0.418219  -0.424862  -0.053698  -0.108276   0.384329
   42  O  3 ZZ   -0.216228   0.075674  -0.058928   0.253230  -0.358581
   43  O  3 XY   -0.010970   0.040126   0.067825  -0.176695   0.212198
   44  O  3 XZ   -0.055238   0.298498  -0.011804  -0.018730  -0.125889
   45  O  3 YZ   -0.035122   0.390849   0.041560  -0.115317  -0.085715
   46  H  4  S    0.239198  -0.412296  -0.188841   0.130065   0.089314
   47  H  4  S    0.088733  -0.391783   0.038192  -0.270230   0.214066
   48  F  5  S   -0.044253  -0.023340  -0.020408  -0.088864   0.008422
   49  F  5  S   -0.498567  -0.544918  -0.375515  -1.286304   0.212629
   50  F  5  X    0.041859  -0.189900  -0.075075  -0.137460   0.009002
   51  F  5  Y    0.122719   0.142620   0.102055   0.104620  -0.075331
   52  F  5  Z   -0.024412   0.041824  -0.087456  -0.091561   0.101631
   53  F  5  S    1.385074   1.231177   0.866641   3.318212  -0.466872
   54  F  5  X    0.165318   0.260542   0.180089   0.708780  -0.030643
   55  F  5  Y   -0.242476  -0.213808  -0.184788  -0.308734   0.155958
   56  F  5  Z    0.076483  -0.060442   0.154226   0.255345  -0.188008
   57  F  5 XX   -0.389514  -0.242154  -0.344128  -0.944977   0.141604
   58  F  5 YY    0.115380  -0.147487   0.474306  -0.481484  -0.271461
   59  F  5 ZZ   -0.336605  -0.171534  -0.526016   0.038805   0.322255
   60  F  5 XY   -0.046621  -0.063801   0.059917  -0.071034  -0.227252
   61  F  5 XZ   -0.110358  -0.313517   0.361474  -0.049612  -0.025198
   62  F  5 YZ   -0.324245   0.009746   0.506138   0.193575   0.610988
   63  H  6  S   -0.219708  -0.407248   0.303426   0.097130  -0.301955
   64  H  6  S   -0.250249  -0.265329   0.118860   0.182197  -0.152298
   65  H  7  S   -0.149364  -0.316590  -0.128778   0.231778  -0.126008
   66  H  7  S   -0.237674  -0.199970   0.037219  -0.156673   0.088402

                     51         52         53         54         55
                    2.2574     2.3080     2.3981     2.4868     2.5838
                     A          A          A          A          A   
    1  C  1  S   -0.017287  -0.007235  -0.033603  -0.027933   0.023990
    2  C  1  S   -0.033501  -0.137770  -0.392812  -0.297027   0.095174
    3  C  1  X    0.150608   0.002139   0.050137  -0.082053  -0.364876
    4  C  1  Y    0.049702  -0.031745  -0.065726  -0.064574  -0.140186
    5  C  1  Z    0.122268  -0.013048   0.025284  -0.017673   0.002924
    6  C  1  S    1.365822   0.043766   1.117710   1.531949  -1.180061
    7  C  1  X    0.127903  -0.347397  -0.012119   0.658324  -0.255331
    8  C  1  Y    0.391379   0.385279   0.247011   0.528229  -0.845048
    9  C  1  Z    0.286254  -0.107251  -0.056578  -0.173166   0.326939
   10  C  1 XX   -0.176145   0.151404   0.457198  -0.006860  -0.147664
   11  C  1 YY   -0.001333   0.250254  -0.358869   0.187528  -0.311505
   12  C  1 ZZ    0.268434  -0.467047  -0.209633  -0.265844   0.468523
   13  C  1 XY    0.113702   0.103450  -0.262673   0.424789   0.211661
   14  C  1 XZ    0.006496   0.062174   0.069777  -0.008026  -0.361156
   15  C  1 YZ   -0.057491  -0.082857  -0.446274  -0.139800  -0.217012
   16  C  2  S    0.032107  -0.033479   0.027087   0.059005  -0.057177
   17  C  2  S    0.332664  -0.300403   0.226298   0.147499  -0.168942
   18  C  2  X    0.030817   0.227426  -0.170146   0.278919  -0.142942
   19  C  2  Y   -0.047527   0.127226  -0.075911   0.113756   0.008157
   20  C  2  Z    0.000923   0.002400   0.056706   0.005365   0.049842
   21  C  2  S   -1.288448   0.900065  -0.771244  -1.360454   1.702610
   22  C  2  X    0.477420   0.260758   0.140317   0.199794  -0.484079
   23  C  2  Y    0.815056  -0.510711   0.125936   0.874642  -0.667528
   24  C  2  Z   -0.123593  -0.037269   0.097571   0.169911  -0.080090
   25  C  2 XX   -0.043218   0.333277  -0.139362  -0.271569   0.098621
   26  C  2 YY   -0.193458   0.085750  -0.053290   0.028495   0.289036
   27  C  2 ZZ    0.251118  -0.587796   0.210689   0.341579  -0.576272
   28  C  2 XY   -0.118573  -0.114969   0.079915   0.593513   0.226446
   29  C  2 XZ    0.285213  -0.173842   0.063119   0.122027  -0.231161
   30  C  2 YZ    0.258113   0.087451  -0.179550  -0.284880  -0.065754
   31  O  3  S    0.000286   0.016392  -0.009699  -0.004982   0.003696
   32  O  3  S    0.019508   0.141860   0.264696   0.282809   0.141025
   33  O  3  X   -0.011095   0.156176  -0.256759  -0.325493  -0.025686
   34  O  3  Y    0.000477  -0.147786  -0.029036   0.267125  -0.044866
   35  O  3  Z   -0.039804  -0.056330   0.050598   0.092651  -0.001902
   36  O  3  S    0.202848  -0.887692  -0.132451   0.111055  -0.513381
   37  O  3  X   -0.100867   0.196740   0.259737   0.036888   0.250509
   38  O  3  Y   -0.015778  -0.019239   0.204415  -0.273501   0.091701
   39  O  3  Z    0.103822  -0.017185  -0.062860  -0.077986  -0.022813
   40  O  3 XX    0.027061   0.126234  -0.312568   0.254808  -0.077127
   41  O  3 YY   -0.324073  -0.389000   0.185765  -0.279616  -0.023516
   42  O  3 ZZ    0.314905   0.262776   0.201581   0.274530   0.127361
   43  O  3 XY   -0.120661  -0.247987  -0.432469   0.243053  -0.269194
   44  O  3 XZ   -0.250474  -0.031941   0.143300   0.117766   0.039449
   45  O  3 YZ   -0.452584  -0.227729  -0.084539  -0.126503   0.089936
   46  H  4  S    0.045108  -0.095647   0.138522  -0.112474  -0.236007
   47  H  4  S   -0.226833   0.072299  -0.001370  -0.196547   0.170613
   48  F  5  S    0.010434   0.014917   0.033349   0.003131  -0.018983
   49  F  5  S    0.416578   0.274678   0.019567   0.214589   0.000315
   50  F  5  X    0.181267   0.032372  -0.253889   0.136240   0.095741
   51  F  5  Y   -0.037391   0.085827   0.086811   0.008970  -0.179068
   52  F  5  Z    0.159659  -0.006204  -0.059742  -0.021415   0.093954
   53  F  5  S   -0.851746  -0.721427  -0.505504  -0.403817   0.327913
   54  F  5  X   -0.261701  -0.188798   0.020845  -0.218728   0.096293
   55  F  5  Y    0.024250  -0.101277  -0.020985  -0.065084   0.325186
   56  F  5  Z   -0.259369  -0.019144   0.020641   0.068085  -0.154562
   57  F  5 XX    0.249269   0.008257   0.190009   0.123807   0.154542
   58  F  5 YY    0.435997  -0.087292   0.066243  -0.120969  -0.174052
   59  F  5 ZZ   -0.314189   0.309968  -0.126963   0.176035  -0.046106
   60  F  5 XY   -0.060990  -0.399098  -0.056430   0.058574   0.445436
   61  F  5 XZ   -0.190222  -0.031791   0.192916   0.124583  -0.151981
   62  F  5 YZ    0.064589   0.049138   0.150323   0.023670   0.320153
   63  H  6  S   -0.381875   0.189998  -0.152433  -0.034709  -0.324871
   64  H  6  S    0.047755  -0.018012  -0.038800   0.053019  -0.151755
   65  H  7  S    0.300957   0.193334   0.286349   0.003990   0.141924
   66  H  7  S    0.034247   0.084458  -0.057583  -0.062819  -0.107097

                     56         57         58         59         60
                    2.6795     2.7980     2.8234     3.0692     3.1219
                     A          A          A          A          A   
    1  C  1  S    0.033248   0.027148  -0.001079   0.060772  -0.002185
    2  C  1  S    0.033164   0.110345   0.073445  -0.177696  -0.094035
    3  C  1  X   -0.148964  -0.146191   0.045091  -0.210568   0.338956
    4  C  1  Y   -0.136404  -0.100968  -0.096878  -0.316382  -0.115110
    5  C  1  Z    0.012220  -0.024707  -0.048464   0.026599   0.042548
    6  C  1  S   -1.553765  -1.115283  -0.140975  -1.359260   0.337023
    7  C  1  X   -0.682052  -0.389367   0.006833  -0.476885   0.406262
    8  C  1  Y   -0.412549  -0.423385  -0.161402  -0.444429  -0.115943
    9  C  1  Z    0.242474   0.030204  -0.133326   0.026496   0.011416
   10  C  1 XX    0.262638  -0.044486  -0.157148  -0.312059   0.258980
   11  C  1 YY   -0.105666  -0.176182  -0.253818  -0.079603  -0.362714
   12  C  1 ZZ   -0.234439   0.195931   0.333028   0.443709  -0.014936
   13  C  1 XY   -0.145218  -0.045325   0.144469  -0.865741   0.264472
   14  C  1 XZ    0.080239   0.426208   0.653228  -0.126044  -0.181819
   15  C  1 YZ    0.612567   0.349150  -0.248589  -0.084174   0.110206
   16  C  2  S   -0.025552  -0.031092  -0.016075  -0.050786   0.014861
   17  C  2  S   -0.139199  -0.038652   0.062600   0.339351  -0.621404
   18  C  2  X   -0.115371  -0.079199  -0.065288  -0.166543  -0.502119
   19  C  2  Y    0.004163  -0.070186  -0.015411  -0.359674   0.464157
   20  C  2  Z   -0.145887   0.076959  -0.110456  -0.011733   0.143227
   21  C  2  S    1.673658   1.175408   0.164878   1.509839  -1.251176
   22  C  2  X   -0.507990  -0.328439  -0.040919  -0.373866  -0.235498
   23  C  2  Y   -1.046469  -0.549949   0.202788  -0.348814   0.879035
   24  C  2  Z   -0.305070   0.096265  -0.107890   0.002971   0.179792
   25  C  2 XX   -0.066775   0.240245   0.096201   0.641107   0.332467
   26  C  2 YY    0.045868   0.163533  -0.178607  -0.265084  -0.691258
   27  C  2 ZZ   -0.010686  -0.464218  -0.014775  -0.390656   0.328532
   28  C  2 XY    0.463902   0.098383   0.090520   0.686497   0.220037
   29  C  2 XZ   -0.010156   0.748832  -0.273009  -0.144777   0.118779
   30  C  2 YZ    0.451059  -0.064008   0.371192  -0.115987  -0.238729
   31  O  3  S   -0.002957   0.005064   0.008918   0.017041  -0.035449
   32  O  3  S    0.430030   0.126151  -0.092403   0.176810  -0.674039
   33  O  3  X   -0.212488  -0.042487   0.054094  -0.060001   0.020896
   34  O  3  Y    0.023286   0.006058  -0.025862   0.042954   0.014903
   35  O  3  Z   -0.019759   0.024518  -0.023262   0.020862   0.014414
   36  O  3  S   -0.964766  -0.407934   0.104077  -0.597058   2.090927
   37  O  3  X    0.520028   0.145349  -0.055514   0.201777  -1.153876
   38  O  3  Y    0.085950   0.058548  -0.053425  -0.336423   0.292169
   39  O  3  Z    0.207903  -0.298479   0.199134  -0.082206   0.135963
   40  O  3 XX   -0.230328   0.104442   0.020145   0.249757   0.844491
   41  O  3 YY    0.069913   0.133086  -0.182901  -0.283099  -0.412593
   42  O  3 ZZ    0.256777  -0.175459   0.198256   0.175519  -0.513946
[...]
   53  F  5  S    0.237206   0.214931   0.143101   0.368517   0.761864
   54  F  5  X    0.248441   0.090476   0.041362   0.168531   0.413542
   55  F  5  Y    0.093391   0.144818   0.110299  -0.126003  -0.015937
   56  F  5  Z   -0.132528   0.104428   0.339180   0.006398   0.033447
   57  F  5 XX    0.233301  -0.023577  -0.082705  -0.131011   0.375832
   58  F  5 YY   -0.218641  -0.152063  -0.148523   0.160112  -0.295097
   59  F  5 ZZ   -0.066976   0.093127   0.180687  -0.144736  -0.223961
   60  F  5 XY    0.150714   0.233631   0.209599  -0.280486   0.054014
   61  F  5 XZ   -0.302668   0.177387   0.655925  -0.013428   0.007239
   62  F  5 YZ    0.021128  -0.133450  -0.167316  -0.049604   0.051432
   63  H  6  S    0.452078   0.155856  -0.175535  -0.084272   0.080221
   64  H  6  S   -0.256449  -0.084287   0.138251   0.056294  -0.063901
   65  H  7  S    0.171950   0.090071   0.142515  -0.085530  -0.288028
   66  H  7  S    0.170140   0.009036  -0.117153   0.039213   0.012720

                     61         62         63         64         65
                    3.2468     3.4374     4.1810     4.4749     4.5815
                     A          A          A          A          A   
    1  C  1  S    0.000935   0.099063   0.054089  -0.215082   0.166962
    2  C  1  S    0.292880  -0.749302  -0.347429   1.320321  -1.064624
    3  C  1  X   -0.416523   0.773349   0.024413   0.203222   0.201608
    4  C  1  Y    0.056799  -0.277890   0.057899   0.086279   0.017407
    5  C  1  Z   -0.051722   0.200241   0.038131  -0.002913   0.044983
    6  C  1  S    0.040805  -1.812117   0.523178   0.597899  -2.408929
    7  C  1  X   -0.279020   0.336442   0.645608   0.265605   0.942178
    8  C  1  Y    0.315376  -0.403817  -0.024274  -0.177044  -0.708810
    9  C  1  Z   -0.181336   0.054405  -0.251094   0.099580   0.127670
   10  C  1 XX   -0.248715  -0.761611   0.161139  -0.818102   0.652303
   11  C  1 YY    0.222699   0.603405   0.188703  -0.723754   0.671749
   12  C  1 ZZ   -0.015960   0.589453   0.288072  -0.827247   0.744589
   13  C  1 XY   -0.411675   0.368168   0.028058   0.176594   0.133443
   14  C  1 XZ    0.177775  -0.232849   0.013725  -0.060069  -0.068160
   15  C  1 YZ   -0.098173   0.085623  -0.031046   0.020093   0.080778
   16  C  2  S    0.001940  -0.033731   0.028209  -0.418886  -0.095703
   17  C  2  S   -0.637823  -0.112387  -0.205635   2.662972   0.560990
   18  C  2  X   -0.868864  -0.151341   0.015446  -0.175653   0.012712
   19  C  2  Y    0.341680   0.038435  -0.010379   0.133094   0.042016
   20  C  2  Z    0.179399   0.042625   0.010018   0.051939  -0.007290
   21  C  2  S   -1.248916   0.580705  -2.389490   0.554238   1.121154
   22  C  2  X   -0.602036  -0.496366  -0.688203  -0.235725  -0.303683
   23  C  2  Y    0.354596  -0.319942   1.281863   0.365377   0.016206
   24  C  2  Z    0.176879  -0.003365   0.308428   0.051300  -0.024187
   25  C  2 XX   -0.579620  -0.430310   0.213279  -1.768122  -0.422207
   26  C  2 YY    0.367812   0.372284   0.064157  -1.711123  -0.435245
   27  C  2 ZZ    0.233084  -0.141803   0.240382  -1.549806  -0.349460
   28  C  2 XY    0.720798   0.142360  -0.065315   0.115700  -0.055526
   29  C  2 XZ    0.174739   0.044167  -0.009741   0.064322   0.011290
   30  C  2 YZ   -0.090057   0.012571  -0.030640  -0.049273   0.028538
   31  O  3  S   -0.045567  -0.000104  -0.530889  -0.078349   0.060901
   32  O  3  S   -0.511334  -0.015821  -0.226494  -0.079217   0.056412
   33  O  3  X   -0.183925  -0.051479   0.245372  -0.107480  -0.067315
   34  O  3  Y    0.119738   0.025458  -0.066956   0.100777   0.005586
   35  O  3  Z    0.033826   0.012809  -0.021563   0.035306   0.032191
   36  O  3  S    2.136114   0.106665   5.840516   1.058650  -0.690146
   37  O  3  X   -1.036080  -0.002149  -1.175132  -0.436230   0.184945
   38  O  3  Y    0.775586   0.296326   0.320638   0.170905   0.020792
   39  O  3  Z    0.301047   0.037585   0.138265   0.065023  -0.059918
   40  O  3 XX    0.452259  -0.057173  -1.583484  -0.006866   0.198956
   41  O  3 YY    0.024847   0.185864  -1.778312  -0.167539   0.234262
   42  O  3 ZZ   -0.417404  -0.038762  -1.848076  -0.331074   0.210701
   43  O  3 XY   -0.876118  -0.279857  -0.037699  -0.194062  -0.011676
   44  O  3 XZ   -0.322871  -0.025552  -0.019898  -0.067777   0.016564
   45  O  3 YZ    0.216955   0.080358   0.045044   0.072145   0.026142
   46  H  4  S   -0.118526  -0.201108   0.046563   0.199830  -0.015636
   47  H  4  S    0.062666   0.189927  -0.285871  -0.444942  -0.182865
   48  F  5  S   -0.008995   0.010641  -0.058448   0.000384  -0.624772
   49  F  5  S    0.480121  -0.963452  -0.152299  -0.039795  -1.903873
   50  F  5  X    0.130784  -0.114882   0.002144   0.043968  -0.273084
   51  F  5  Y    0.033609   0.058406   0.027940   0.008618   0.090085
   52  F  5  Z    0.013998  -0.035212  -0.025634   0.001761  -0.073054
   53  F  5  S   -0.897540   1.999023   0.775794   0.123794   8.196853
   54  F  5  X   -0.570556   1.225611   0.002557   0.136533   0.999878
   55  F  5  Y   -0.050443  -0.483796  -0.083501  -0.102508  -0.299086
   56  F  5  Z   -0.055953   0.297822   0.098889   0.042204   0.246010
   57  F  5 XX   -0.489763   0.798154  -0.254284   0.147300  -2.286379
   58  F  5 YY    0.261366  -0.213325  -0.227540  -0.013776  -2.579995
   59  F  5 ZZ    0.184100  -0.316784  -0.203433   0.000734  -2.548087
   60  F  5 XY   -0.054444  -0.623100  -0.013385  -0.105734  -0.092459
   61  F  5 XZ   -0.059853   0.346459   0.035617   0.036041   0.070070
   62  F  5 YZ   -0.065508  -0.142347  -0.027463  -0.020940  -0.009525
   63  H  6  S   -0.016418  -0.049477  -0.057927   0.077510   0.051440
   64  H  6  S    0.198599   0.175499   0.206835  -0.292216   0.133966
   65  H  7  S    0.017653   0.084002  -0.127485  -0.086718  -0.030794
   66  H  7  S    0.178269   0.015422  -0.484867  -0.207676  -0.016158

                     66
                    4.8288
                     A   
    1  C  1  S   -0.391352
    2  C  1  S    2.282853
    3  C  1  X    0.195644
    4  C  1  Y   -0.255092
    5  C  1  Z    0.067508
    6  C  1  S    0.814746
    7  C  1  X    1.158626
    8  C  1  Y   -0.351715
    9  C  1  Z    0.306388
   10  C  1 XX   -2.053801
   11  C  1 YY   -1.558723
   12  C  1 ZZ   -1.372912
   13  C  1 XY    0.015959
   14  C  1 XZ   -0.145910
   15  C  1 YZ    0.078971
   16  C  2  S    0.183852
   17  C  2  S   -1.193967
   18  C  2  X   -0.067283
   19  C  2  Y   -0.234560
   20  C  2  Z   -0.024967
   21  C  2  S   -0.808653
   22  C  2  X    0.148933
   23  C  2  Y    0.059100
   24  C  2  Z   -0.110279
   25  C  2 XX    1.017967
   26  C  2 YY    0.952936
   27  C  2 ZZ    0.658887
   28  C  2 XY    0.120418
   29  C  2 XZ   -0.027905
   30  C  2 YZ    0.044465
   31  O  3  S   -0.002141
   32  O  3  S    0.086651
   33  O  3  X    0.063770
   34  O  3  Y   -0.028815
   35  O  3  Z    0.002797
   36  O  3  S   -0.148124
   37  O  3  X    0.278525
   38  O  3  Y   -0.137452
   39  O  3  Z   -0.101525
   40  O  3 XX   -0.222575
   41  O  3 YY   -0.031979
   42  O  3 ZZ    0.051412
   43  O  3 XY    0.088041
   44  O  3 XZ    0.083613
   45  O  3 YZ   -0.004401
   46  H  4  S   -0.117132
   47  H  4  S    0.203062
   48  F  5  S   -0.309103
   49  F  5  S   -1.214412
   50  F  5  X   -0.110624
   51  F  5  Y    0.042230
   52  F  5  Z   -0.030307
   53  F  5  S    4.556587
   54  F  5  X    1.018430
   55  F  5  Y   -0.378290
   56  F  5  Z    0.228071
   57  F  5 XX   -0.705619
   58  F  5 YY   -1.294156
   59  F  5 ZZ   -1.393981
   60  F  5 XY   -0.297326
   61  F  5 XZ    0.171234
   62  F  5 YZ   -0.080362
   63  H  6  S    0.102149
   64  H  6  S   -0.425470
   65  H  7  S   -0.015723
   66  H  7  S   -0.350150
 ...... END OF RHF CALCULATION ......
 STEP CPU TIME =     0.64 TOTAL CPU TIME =          0.9 (      0.0 MIN)
 TOTAL WALL CLOCK TIME=          0.9 SECONDS, CPU UTILIZATION IS    95.74%

     ----------------------------------------------------------------
     PROPERTY VALUES FOR THE RHF   SELF-CONSISTENT FIELD WAVEFUNCTION
     ----------------------------------------------------------------

          -----------------
          ENERGY COMPONENTS
          -----------------

         WAVEFUNCTION NORMALIZATION =       1.0000000000

                ONE ELECTRON ENERGY =    -573.7082002320
                TWO ELECTRON ENERGY =     207.5664920646
           NUCLEAR REPULSION ENERGY =     114.5359629743
                                      ------------------
                       TOTAL ENERGY =    -251.6057451931

 ELECTRON-ELECTRON POTENTIAL ENERGY =     207.5664920646
  NUCLEUS-ELECTRON POTENTIAL ENERGY =    -824.6816642497
   NUCLEUS-NUCLEUS POTENTIAL ENERGY =     114.5359629743
                                      ------------------
             TOTAL POTENTIAL ENERGY =    -502.5792092108
               TOTAL KINETIC ENERGY =     250.9734640177
                 VIRIAL RATIO (V/T) =       2.0025193149

          ---------------------------------------
          MULLIKEN AND LOWDIN POPULATION ANALYSES
          ---------------------------------------

     ATOMIC MULLIKEN POPULATION IN EACH MOLECULAR ORBITAL

                      1          2          3          4          5

                  2.000000   2.000000   2.000000   2.000000   2.000000

    1             0.000029   0.000001   0.000642   1.998991   0.149542
    2            -0.000008  -0.000080   1.999512   0.000983   0.011500
    3             0.000000   2.000110  -0.000611  -0.000001   0.001351
    4            -0.000000  -0.000001   0.000406  -0.000001   0.000080
    5             1.999980  -0.000000   0.000000  -0.000615   1.836130
    6            -0.000001  -0.000000   0.000017   0.000489   0.001328
    7            -0.000000  -0.000029   0.000033   0.000153   0.000069

                      6          7          8          9         10

                  2.000000   2.000000   2.000000   2.000000   2.000000

    1             0.066951   0.854414   0.244130   0.368702   0.459607
    2             0.363170   0.615548   0.799814   0.238708   0.116273
    3             1.542421   0.254590   0.347013   0.410448   0.176102
    4            -0.001697   0.028921   0.338895   0.045582   0.000297
    5             0.005817   0.175406   0.117730   0.846336   1.072469
    6             0.000980   0.066084   0.072465   0.035556   0.173885
    7             0.022357   0.005036   0.079953   0.054670   0.001367

                     11         12         13         14         15

                  2.000000   2.000000   2.000000   2.000000   2.000000

    1             0.215408   0.096420   0.077397   0.326440   0.219212
    2             0.194489   0.314136   0.262706   0.254613   0.335053
    3             0.462822   0.556368   0.875207   0.694033   0.932545
    4             0.008773   0.138640   0.040678   0.002724   0.151798
    5             1.110213   0.829479   0.613805   0.435524   0.190791
    6             0.007183   0.024174   0.070264   0.285269   0.019877
    7             0.001111   0.040783   0.059943   0.001396   0.150725

                     16

                  2.000000

    1             1.089549
    2             0.157173
    3             0.369082
    4             0.007242
    5             0.158627
    6             0.025643
    7             0.192686

               ----- POPULATIONS IN EACH AO -----
                             MULLIKEN      LOWDIN
              1  C  1  S      1.99666     1.97860
              2  C  1  S      0.62497     0.35545
              3  C  1  X      0.52161     0.47617
              4  C  1  Y      0.66231     0.60882
              5  C  1  Z      0.71873     0.65547
              6  C  1  S      0.65154     0.34111
              7  C  1  X      0.12513     0.23672
              8  C  1  Y      0.30554     0.45428
              9  C  1  Z      0.47505     0.54347
             10  C  1 XX      0.02767     0.18585
             11  C  1 YY      0.00327     0.15061
             12  C  1 ZZ      0.00829     0.14965
             13  C  1 XY      0.02593     0.05153
             14  C  1 XZ      0.01337     0.02745
             15  C  1 YZ      0.00736     0.01261
             16  C  2  S      1.99679     1.97768
             17  C  2  S      0.71419     0.37530
             18  C  2  X      0.72114     0.64150
             19  C  2  Y      0.76089     0.67480
             20  C  2  Z      0.34782     0.30981
             21  C  2  S      0.44287     0.30718
             22  C  2  X      0.11058     0.26334
             23  C  2  Y      0.20045     0.37903
             24  C  2  Z      0.26271     0.32066
             25  C  2 XX      0.02785     0.19464
             26  C  2 YY      0.04409     0.20167
             27  C  2 ZZ     -0.02108     0.10929
             28  C  2 XY      0.02846     0.05081
             29  C  2 XZ      0.01932     0.03730
             30  C  2 YZ      0.00752     0.01236
             31  O  3  S      1.99562     1.97771
             32  O  3  S      0.91324     0.72878
             33  O  3  X      0.97769     0.93047
             34  O  3  Y      0.88950     0.84895
             35  O  3  Z      0.94766     0.91327
             36  O  3  S      0.98008     0.47098
             37  O  3  X      0.57938     0.61327
             38  O  3  Y      0.59692     0.64121
             39  O  3  Z      0.69305     0.70036
             40  O  3 XX      0.01626     0.18530
             41  O  3 YY      0.00991     0.18358
             42  O  3 ZZ     -0.00153     0.17508
             43  O  3 XY      0.01367     0.01950
             44  O  3 XZ      0.00852     0.01037
             45  O  3 YZ      0.00152     0.00233
             46  H  4  S      0.52181     0.48245
             47  H  4  S      0.24052     0.33583
             48  F  5  S      1.99539     1.97788
             49  F  5  S      0.97429     0.85646
             50  F  5  X      0.94688     0.89834
             51  F  5  Y      1.15460     1.12299
             52  F  5  Z      1.18688     1.15883
             53  F  5  S      0.87622     0.50968
             54  F  5  X      0.64590     0.66318
             55  F  5  Y      0.74579     0.76831
             56  F  5  Z      0.75115     0.77463
             57  F  5 XX      0.04812     0.17220
             58  F  5 YY      0.02923     0.16355
             59  F  5 ZZ      0.02841     0.16218
             60  F  5 XY      0.00445     0.00776
             61  F  5 XZ      0.00385     0.00886
             62  F  5 YZ      0.00054     0.00127
             63  H  6  S      0.50985     0.47527
             64  H  6  S      0.27337     0.34069
             65  H  7  S      0.32818     0.30138
             66  H  7  S      0.28208     0.33394

          ----- MULLIKEN ATOMIC OVERLAP POPULATIONS -----
          (OFF-DIAGONAL ELEMENTS NEED TO BE MULTIPLIED BY 2)

             1           2           3           4           5

    1    5.2014609
    2    0.3431851   4.8148230
    3   -0.1661352   0.3428081   8.4111739
    4   -0.0296407   0.3701576  -0.0325545   0.4432501
    5    0.2015367  -0.0290194   0.0015018   0.0004762   9.2455825
    6    0.3767322  -0.0508440   0.0012423   0.0007759  -0.0254644
    7    0.2402953  -0.1275194   0.0634426   0.0098719  -0.0029203

             6           7

    6    0.4944836
    7   -0.0137122   0.4407944

          TOTAL MULLIKEN AND LOWDIN ATOMIC POPULATIONS
       ATOM         MULL.POP.    CHARGE          LOW.POP.     CHARGE
    1 C             6.167434   -0.167434         6.227791   -0.227791
    2 C             5.663591    0.336409         5.855375    0.144625
    3 O             8.621479   -0.621479         8.401157   -0.401157
    4 H             0.762337    0.237663         0.818278    0.181722
    5 F             9.391693   -0.391693         9.246122   -0.246122
    6 H             0.783213    0.216787         0.815960    0.184040
    7 H             0.610252    0.389748         0.635317    0.364683

          -------------------------------
          BOND ORDER AND VALENCE ANALYSIS     BOND ORDER THRESHOLD=0.050
          -------------------------------

                   BOND                       BOND                       BOND
  ATOM PAIR DIST  ORDER      ATOM PAIR DIST  ORDER      ATOM PAIR DIST  ORDER
    1   2  1.422  1.179        1   3  2.191  0.069        1   5  1.369  0.828
    1   6  1.097  0.900        1   7  1.527  0.468        2   3  1.285  1.387
    2   4  1.092  0.904        3   7  1.287  0.343

                       TOTAL       BONDED        FREE
      ATOM            VALENCE     VALENCE     VALENCE
    1 C                 3.440       3.440       0.000
    2 C                 3.491       3.491      -0.000
    3 O                 1.817       1.817      -0.000
    4 H                 0.913       0.913      -0.000
    5 F                 0.873       0.873      -0.000
    6 H                 0.914       0.914       0.000
    7 H                 0.839       0.839       0.000

          ---------------------
          ELECTROSTATIC MOMENTS
          ---------------------

 POINT   1           X           Y           Z (BOHR)    CHARGE
                 0.000000   -0.000000    0.000000       -0.00 (A.U.)
         DX          DY          DZ         /D/  (DEBYE)
     0.540992    0.927310    1.095046    1.533526
 ...... END OF PROPERTY EVALUATION ......
 STEP CPU TIME =     0.01 TOTAL CPU TIME =          0.9 (      0.0 MIN)
 TOTAL WALL CLOCK TIME=          0.9 SECONDS, CPU UTILIZATION IS    95.79%

 --------------------------   -----------------------------
 RHF-MP2 ENERGY CALCULATION   PROGRAM WRITTEN BY K.ISHIMURA
 --------------------------   -----------------------------
 NUMBER OF OCCUPIED ORBITALS            =   16
 NUMBER OF CORRELATED OCCUPIED ORBITALS =   12
 NUMBER OF VIRTUAL ORBITALS             =   50
 NUMBER OF BASIS FUNCTIONS              =   66
 NUMBER OF BASIS SHELLS                 =   22
 AO-TRANSFORMED INTEGRAL THRESHOLD      = 1.00E-09
 HALF-TRANSFORMED INTEGRAL THRESHOLD    = 1.49E-11
 TOTAL DISK REQUIRED (ALL PROCESSORS)=              2 MBYTES
                  DISK SPACE PER CORE=              2 MBYTES, USING P=    1
 MEMORY REQUIRED FOR TRANSFORMATION OF 1ST THREE INDICES=       84934
 MEMORY REQUIRED FOR    4TH INDEX TRANSF. AND MP2 ENERGY=      275342
 BEGINNING MP2 INTEGRAL TRANSFORMATION...
 BEGINNING    1ST SHELL LOOP...

 RESULTS OF MOLLER-PLESSET 2ND ORDER CORRECTION ARE
               E(0)=      -251.6057451931
               E(1)=         0.0
               E(2)=        -0.6252138109
             E(MP2)=      -252.2309590040
 SPIN-COMPONENT-SCALED MP2 RESULTS ARE
              E(2S)=        -0.4562027550
              E(2T)=        -0.1690110559
             E(2ST)=        -0.6037803246 = 6/5 * E(2S) + 1/3 * E(2T)
            SCS-MP2=      -252.2095255177
 ..... DONE WITH MP2 ENERGY .....
 STEP CPU TIME =     0.94 TOTAL CPU TIME =          1.9 (      0.0 MIN)
 TOTAL WALL CLOCK TIME=          2.0 SECONDS, CPU UTILIZATION IS    92.50%
                580000  WORDS OF DYNAMIC MEMORY USED
 EXECUTION OF GAMESS TERMINATED NORMALLY Fri Oct 18 10:26:25 2019
 DDI: 263640 bytes (0.3 MB / 0 MWords) used by master data server.

 ----------------------------------------
 CPU timing information for all processes
 ========================================
 0: 1.485 + 0.376 = 1.861
 ----------------------------------------
 ddikick.x: exited gracefully.
----- accounting info -----
Files used on the master node crcfe02.crc.nd.edu were:
-rw-r--r-- 1 cdrisko campus      416 Oct 18 10:26 /afs/crc.nd.edu/user/c/cdrisko/TS-F_MP2.F05
-rw-r--r-- 1 cdrisko campus    72586 Oct 18 10:26 /afs/crc.nd.edu/user/c/cdrisko/TS-F_MP2.F07
-rw-r--r-- 1 cdrisko campus 25742288 Oct 18 10:26 /afs/crc.nd.edu/user/c/cdrisko/TS-F_MP2.F08
-rw-r--r-- 1 cdrisko campus  1636000 Oct 18 10:26 /afs/crc.nd.edu/user/c/cdrisko/TS-F_MP2.F10
Fri Oct 18 10:26:28 EDT 2019
0.394u 0.225s 0:05.60 10.8%	0+0k 0+24io 0pf+0w
