----- GAMESS execution script 'rungms' -----
This job is running on host crcfe02.crc.nd.edu
under operating system Linux at Fri Oct 18 09:47:20 EDT 2019
Available scratch disk space (Kbyte units) at beginning of the job is
Filesystem      1K-blocks  Used  Available Use% Mounted on
AFS            2147483647     0 2147483647   0% /afs
GAMESS temporary binary files will be written to /afs/crc.nd.edu/user/c/cdrisko
GAMESS supplementary output files will be written to /afs/crc.nd.edu/user/c/cdrisko/scr
Copying input file TS-F_opt.inp to your run's scratch directory...

 Distributed Data Interface kickoff program.
 Initiating 1 compute processes on 1 nodes to run the following command:
 /afs/crc.nd.edu/x86_64_linux/g/gamess/nov-2017/gamess/gamess.00.x TS-F_opt 

          ******************************************************
          *         GAMESS VERSION = 11 NOV 2017 (R3)         *
          *             FROM IOWA STATE UNIVERSITY             *
          * M.W.SCHMIDT, K.K.BALDRIDGE, J.A.BOATZ, S.T.ELBERT, *
          *   M.S.GORDON, J.H.JENSEN, S.KOSEKI, N.MATSUNAGA,   *
          *          K.A.NGUYEN, S.J.SU, T.L.WINDUS,           *
          *       TOGETHER WITH M.DUPUIS, J.A.MONTGOMERY       *
          *         J.COMPUT.CHEM.  14, 1347-1363(1993)        *
          **************** 64 BIT INTEL VERSION ****************

  SINCE 1993, STUDENTS AND POSTDOCS WORKING AT IOWA STATE UNIVERSITY
  AND ALSO IN THEIR VARIOUS JOBS AFTER LEAVING ISU HAVE MADE IMPORTANT
  CONTRIBUTIONS TO THE CODE:
     IVANA ADAMOVIC, CHRISTINE AIKENS, YURI ALEXEEV, POOJA ARORA,
     ANDREY ASADCHEV, ROB BELL, PRADIPTA BANDYOPADHYAY, JONATHAN BENTZ,
     BRETT BODE, KURT BRORSEN, CALEB CARLIN, GALINA CHABAN, WEI CHEN,
     CHEOL HO CHOI, PAUL DAY, ALBERT DEFUSCO, NUWAN DESILVA, TIM DUDLEY,
     DMITRI FEDOROV, ALEX FINDLATER, GRAHAM FLETCHER, MARK FREITAG,
     KURT GLAESEMANN, ANASTASIA GUININA,
     DAN KEMP, GRANT MERRILL, NORIYUKI MINEZAWA, JONATHAN MULLIN,
     TAKESHI NAGATA, SEAN NEDD, HEATHER NETZLOFF, BOSILJKA NJEGIC, RYAN OLSON,
     MIKE PAK, BUU PHAM,
     SPENCER PRUITT, LUKE ROSKOP, JIM SHOEMAKER, LYUDMILA SLIPCHENKO,
     TONY SMITH, SAROM SOK LEANG, JIE SONG, TETSUYA TAKETSUGU, SIMON WEBB,
     PENG XU, SOOHAENG YOO, FEDERICO ZAHARIEV

  ADDITIONAL CODE HAS BEEN PROVIDED BY COLLABORATORS IN OTHER GROUPS:
     IOWA STATE UNIVERSITY:
          JOE IVANIC, AARON WEST, LAIMUTIS BYTAUTAS, KLAUS RUEDENBERG
     UNIVERSITY OF TOKYO: KIMIHIKO HIRAO, TAKAHITO NAKAJIMA,
          TAKAO TSUNEDA, MUNEAKI KAMIYA, SUSUMU YANAGISAWA,
          KIYOSHI YAGI, MAHITO CHIBA, SEIKEN TOKURA, NAOAKI KAWAKAMI
     UNIVERSITY OF AARHUS: FRANK JENSEN
     UNIVERSITY OF IOWA: VISVALDAS KAIRYS, HUI LI
     NATIONAL INST. OF STANDARDS AND TECHNOLOGY: WALT STEVENS, DAVID GARMER
     UNIVERSITY OF PISA: BENEDETTA MENNUCCI, JACOPO TOMASI
     UNIVERSITY OF MEMPHIS: HENRY KURTZ, PRAKASHAN KORAMBATH
     UNIVERSITY OF ALBERTA: TOBY ZENG, MARIUSZ KLOBUKOWSKI
     UNIVERSITY OF NEW ENGLAND: MARK SPACKMAN
     MIE UNIVERSITY: HIROAKI UMEDA
     NAT. INST. OF ADVANCED INDUSTRIAL SCIENCE AND TECHNOLOGY: KAZUO KITAURA
     MICHIGAN STATE UNIVERSITY:
          KAROL KOWALSKI, MARTA WLOCH, JEFFREY GOUR, JESSE LUTZ,
          WEI LI, PIOTR PIECUCH
     UNIVERSITY OF SILESIA: MONIKA MUSIAL, STANISLAW KUCHARSKI
     FACULTES UNIVERSITAIRES NOTRE-DAME DE LA PAIX:
          OLIVIER QUINET, BENOIT CHAMPAGNE
     UNIVERSITY OF CALIFORNIA - SANTA BARBARA: BERNARD KIRTMAN
     INSTITUTE FOR MOLECULAR SCIENCE:
          KAZUYA ISHIMURA, MICHIO KATOUDA, AND SHIGERU NAGASE
     UNIVERSITY OF NOTRE DAME: ANNA POMOGAEVA, DAN CHIPMAN
     KYUSHU UNIVERSITY:
          HARUYUKI NAKANO,
          FENG LONG GU, JACEK KORCHOWIEC, MARCIN MAKOWSKI, AND YURIKO AOKI,
          HIROTOSHI MORI AND EISAKU MIYOSHI
     PENNSYLVANIA STATE UNIVERSITY:
          TZVETELIN IORDANOV, CHET SWALINA, JONATHAN SKONE,
          SHARON HAMMES-SCHIFFER
     WASEDA UNIVERSITY:
          MASATO KOBAYASHI, TOMOKO AKAMA, TSUGUKI TOUMA,
          TAKESHI YOSHIKAWA, YASUHIRO IKABATA, JUNJI SEINO,
          YUYA NAKAJIMA, HIROMI NAKAI
     NANJING UNIVERSITY: SHUHUA LI
     UNIVERSITY OF NEBRASKA:
          PEIFENG SU, DEJUN SI, NANDUN THELLAMUREGE, YALI WANG, HUI LI
     UNIVERSITY OF ZURICH: ROBERTO PEVERATI, KIM BALDRIDGE
     N. COPERNICUS UNIVERSITY AND JACKSON STATE UNIVERSITY:
          MARIA BARYSZ
     UNIVERSITY OF COPENHAGEN: Jimmy Kromann, CASPER STEINMANN
     TOKYO INSTITUTE OF TECHNOLOGY: HIROYA NAKATA
     NAGOYA UNIVERSITY: YOSHIO NISHIMOTO, STEPHAN IRLE
     MOSCOW STATE UNIVERSITY: VLADIMIR MIRONOV

 EXECUTION OF GAMESS BEGUN Fri Oct 18 09:47:20 2019

            ECHO OF THE FIRST FEW INPUT CARDS -
 INPUT CARD> $CONTRL SCFTYP= RHF RUNTYP=SADPOINT DFTTYP=B3LYP                               
 INPUT CARD>       ICHARG=0 MULT=1 COORD=CART $END                                          
 INPUT CARD> $BASIS GBASIS=N31 NGAUSS=6 NDFUNC=1 $END                                       
 INPUT CARD> $STATPT HESS=CALC NSTEP=100 $END                                               
 INPUT CARD> $FORCE METHOD=SEMINUM $END                                                     
 INPUT CARD> $DATA                                                                          
 INPUT CARD>C2H3OF                                                                          
 INPUT CARD>C1 1                                                                            
 INPUT CARD>C 6 0.00000000 0.00000000 0.00000000                                            
 INPUT CARD>C 6 -1.03385029 0.69834541 -0.48894505                                          
 INPUT CARD>O 8 -2.28820920 0.22706540 -0.49782734                                          
 INPUT CARD>H 1 -0.79840230 1.78549281 -0.47963874                                          
 INPUT CARD>F 9 1.16662616 0.73024756 -0.13845377                                           
 INPUT CARD>H 1 -1.01193279 -0.63615960 0.10626856                                          
 INPUT CARD>H 1 0.09052872 -0.95059654 -0.54188493                                          
 INPUT CARD> $END                                                                           
    1000000 WORDS OF MEMORY AVAILABLE


                    * * * WARNING * * *
 OLD KEYWORD COORD=CART SELECTED, AUTOMATICALLY CHANGED TO COORD=PRINAXIS.
 YOUR MOLECULE'S COORDINATES WILL BE CHANGED TO PRINCIPAL AXES BY
   A) TRANSLATION TO THE CENTER OF MASS, THEN
   B) ROTATION TO HAVE A DIAGONAL MOMENT OF INERTIA TENSOR.

 HOWEVER, NOTHING ELSE IN YOUR INPUT WILL BE ROTATED IN THE SAME WAY,
 SO IF YOU HAVE A $VEC, $VIB, $GRAD, $HESS, EFP PARTICLE COORDINATES,
 OR ANYTHING ELSE THAT DEPENDS ON THE INITIAL ORIENTATION, THAT DATA
 WILL NOT BE USED CORRECTLY IN THIS RUN.

 THE PURPOSE OF COORD=PRINAXIS IS TO BE USED ONCE, ONLY AT THE VERY
 BEGINNING OF A SERIES OF COMPUTATIONS, PERHAPS TO FIND THE SYMMETRY
 UNIQUE ATOMS FROM AN ARBITRARY INITIAL ORIENTATION.

 AFTER THE FIRST RUN, YOU SHOULD USE ONLY COORD=UNIQUE, TO ENSURE THAT
 THE COORDINATES WHICH YOU READ IN ARE THE COORDINATES THAT ARE USED.


     BASIS OPTIONS
     -------------
     GBASIS=N31          IGAUSS=       6      POLAR=POPN31  
     NDFUNC=       1     NFFUNC=       0     DIFFSP=       F
     NPFUNC=       0      DIFFS=       F     BASNAM=        


     RUN TITLE
     ---------
 C2H3OF                                                                          

 THE POINT GROUP OF THE MOLECULE IS C1      
 THE ORDER OF THE PRINCIPAL AXIS IS     1

 THE MOMENTS OF INERTIA ARE (AMU-ANGSTROM**2)
 IXX=    10.584   IYY=   114.272   IZZ=   123.501

 ATOM      ATOMIC                      COORDINATES (BOHR)
           CHARGE         X                   Y                   Z
 C           6.0    -0.8454303890       -0.9579019562       -0.1954337619
 C           6.0     1.0655053974        0.6769447358        0.1008832488
 O           8.0     3.4968536789       -0.0235597396        0.0006727140
 H           1.0     0.4223689743        2.6269873546       -0.3492129155
 F           9.0    -3.1278033559        0.2961057514        0.0310227130
 H           1.0     1.1379215251       -2.0440504823       -0.3655196876
 H           1.0    -0.7163946846       -2.4455746791        1.2450471376

          INTERNUCLEAR DISTANCES (ANGS.)
          ------------------------------

                1 C          2 C          3 O          4 H          5 F     

   1 C       0.0000000    1.3400000 *  2.3527201 *  2.0138233 *  1.3832742 *
   2 C       1.3400000 *  0.0000000    1.3400000 *  1.1123901 *  2.2284431 *
   3 O       2.3527201 *  1.3400000 *  0.0000000    2.1560500 *  3.5097335  
   4 H       2.0138233 *  1.1123901 *  2.1560500 *  0.0000000    2.2563879 *
   5 F       1.3832742 *  2.2284431 *  3.5097335    2.2563879 *  0.0000000  
   6 H       1.2000000 *  1.4613909 *  1.6549836 *  2.5006565 *  2.5832299 *
   7 H       1.0979383 *  1.9965070 *  2.6546606 *  2.8775437 *  2.0361678 *

                6 H          7 H     

   1 C       1.2000000 *  1.0979383 *
   2 C       1.4613909 *  1.9965070 *
   3 O       1.6549836 *  2.6546606 *
   4 H       2.5006565 *  2.8775437 *
   5 F       2.5832299 *  2.0361678 *
   6 H       0.0000000    1.3169643 *
   7 H       1.3169643 *  0.0000000  

  * ... LESS THAN  3.000


     ATOMIC BASIS SET
     ----------------
 THE CONTRACTED PRIMITIVE FUNCTIONS HAVE BEEN UNNORMALIZED
 THE CONTRACTED BASIS FUNCTIONS ARE NOW NORMALIZED TO UNITY

  SHELL TYPE  PRIMITIVE        EXPONENT          CONTRACTION COEFFICIENT(S)

 C         

      1   S       1          3047.5248800    0.001834737132
      1   S       2           457.3695180    0.014037322813
      1   S       3           103.9486850    0.068842622264
      1   S       4            29.2101553    0.232184443216
      1   S       5             9.2866630    0.467941348435
      1   S       6             3.1639270    0.362311985337

      2   L       7             7.8682723   -0.119332419775    0.068999066591
      2   L       8             1.8812885   -0.160854151696    0.316423960957
      2   L       9             0.5442493    1.143456437840    0.744308290898

      3   L      10             0.1687145    1.000000000000    1.000000000000

      4   D      11             0.8000000    1.000000000000

 C         

      5   S      12          3047.5248800    0.001834737132
      5   S      13           457.3695180    0.014037322813
      5   S      14           103.9486850    0.068842622264
      5   S      15            29.2101553    0.232184443216
      5   S      16             9.2866630    0.467941348435
      5   S      17             3.1639270    0.362311985337

      6   L      18             7.8682723   -0.119332419775    0.068999066591
      6   L      19             1.8812885   -0.160854151696    0.316423960957
      6   L      20             0.5442493    1.143456437840    0.744308290898

      7   L      21             0.1687145    1.000000000000    1.000000000000

      8   D      22             0.8000000    1.000000000000

 O         

      9   S      23          5484.6716600    0.001831074430
      9   S      24           825.2349460    0.013950172200
      9   S      25           188.0469580    0.068445078098
      9   S      26            52.9645000    0.232714335992
      9   S      27            16.8975704    0.470192897984
      9   S      28             5.7996353    0.358520852987

     10   L      29            15.5396162   -0.110777549525    0.070874268231
     10   L      30             3.5999336   -0.148026262701    0.339752839147
     10   L      31             1.0137618    1.130767015354    0.727158577316

     11   L      32             0.2700058    1.000000000000    1.000000000000

     12   D      33             0.8000000    1.000000000000

 H         

     13   S      34            18.7311370    0.033494604338
     13   S      35             2.8253944    0.234726953484
     13   S      36             0.6401217    0.813757326146

     14   S      37             0.1612778    1.000000000000

 F         

     15   S      38          7001.7130900    0.001819616901
     15   S      39          1051.3660900    0.013916079607
     15   S      40           239.2856900    0.068405324535
     15   S      41            67.3974453    0.233185760119
     15   S      42            21.5199573    0.471267439240
     15   S      43             7.4031013    0.356618546182

     16   L      44            20.8479528   -0.108506975109    0.071628724237
     16   L      45             4.8083083   -0.146451658147    0.345912102697
     16   L      46             1.3440699    1.128688581135    0.722469956367

     17   L      47             0.3581514    1.000000000000    1.000000000000

     18   D      48             0.8000000    1.000000000000

 H         

     19   S      49            18.7311370    0.033494604338
     19   S      50             2.8253944    0.234726953484
     19   S      51             0.6401217    0.813757326146

     20   S      52             0.1612778    1.000000000000

 H         

     21   S      53            18.7311370    0.033494604338
     21   S      54             2.8253944    0.234726953484
     21   S      55             0.6401217    0.813757326146

     22   S      56             0.1612778    1.000000000000

 TOTAL NUMBER OF BASIS SET SHELLS             =   22
 NUMBER OF CARTESIAN GAUSSIAN BASIS FUNCTIONS =   66
 NUMBER OF ELECTRONS                          =   32
 CHARGE OF MOLECULE                           =    0
 SPIN MULTIPLICITY                            =    1
 NUMBER OF OCCUPIED ORBITALS (ALPHA)          =   16
 NUMBER OF OCCUPIED ORBITALS (BETA )          =   16
 TOTAL NUMBER OF ATOMS                        =    7
 THE NUCLEAR REPULSION ENERGY IS      115.2437896974

     LEBEDEV GRID-BASED DFT OPTIONS
     ------------------------------
     DFTTYP=B3LYP   
     NRAD  =      96     NLEB  =     302
     NRAD0 =      24     NLEB0 =     110
     SWOFF =    5.00E-03 (PURE SCF -> DFT)
     SWITCH=    3.00E-04 (COARSE -> TIGHT GRID)
     THRESH=    0.00E+00 GTHRE=    1.00E+00

 GRIMME'S EMPIRICAL DISPERSION CORRECTION= F

     $CONTRL OPTIONS
     ---------------
 SCFTYP=RHF          RUNTYP=SADPOINT     EXETYP=RUN     
 MPLEVL=       0     CITYP =NONE         CCTYP =NONE         VBTYP =NONE    
 DFTTYP=B3LYP        TDDFT =NONE    
 MULT  =       1     ICHARG=       0     NZVAR =       0     COORD =PRINAXIS
 PP    =NONE         RELWFN=NONE         LOCAL =NONE         NUMGRD=       F
 ISPHER=      -1     NOSYM =       0     MAXIT =      30     UNITS =ANGS    
 PLTORB=       F     MOLPLT=       F     AIMPAC=       F     FRIEND=        
 NPRINT=       7     IREST =       0     GEOM  =INPUT   
 NORMF =       0     NORMP =       0     ITOL  =      20     ICUT  =       9
 INTTYP=BEST         GRDTYP=BEST         QMTTOL= 1.0E-06

     $SYSTEM OPTIONS
     ---------------
  REPLICATED MEMORY=     1000000 WORDS (ON EVERY NODE).
 DISTRIBUTED MEMDDI=           0 MILLION WORDS IN AGGREGATE,
 MEMDDI DISTRIBUTED OVER   1 PROCESSORS IS           0 WORDS/PROCESSOR.
 TOTAL MEMORY REQUESTED ON EACH PROCESSOR=     1000000 WORDS.
 TIMLIM=      525600.00 MINUTES, OR     365.0 DAYS.
 PARALL= F  BALTYP=  DLB     KDIAG=    0  COREFL= F
 MXSEQ2=     300 MXSEQ3=     150  mem10=         0

          ----------------
          PROPERTIES INPUT
          ----------------

     MOMENTS            FIELD           POTENTIAL          DENSITY
 IEMOM =       1   IEFLD =       0   IEPOT =       0   IEDEN =       0
 WHERE =COMASS     WHERE =NUCLEI     WHERE =NUCLEI     WHERE =NUCLEI  
 OUTPUT=BOTH       OUTPUT=BOTH       OUTPUT=BOTH       OUTPUT=BOTH    
 IEMINT=       0   IEFINT=       0                     IEDINT=       0
                                                       MORB  =       0
          EXTRAPOLATION IN EFFECT
          DIIS IN EFFECT
 ORBITAL PRINTING OPTION: NPREO=     1    66     2     1

     -------------------------------
     INTEGRAL TRANSFORMATION OPTIONS
     -------------------------------
     NWORD  =            0
     CUTOFF = 1.0E-09     MPTRAN =       0
     DIRTRF =       F     AOINTS =DUP     

          ----------------------
          INTEGRAL INPUT OPTIONS
          ----------------------
 NOPK  =       1 NORDER=       0 SCHWRZ=       T

     ------------------------------------------
     THE POINT GROUP IS C1 , NAXIS= 1, ORDER= 1
     ------------------------------------------

     DIMENSIONS OF THE SYMMETRY SUBSPACES ARE
 A   =   66

 ..... DONE SETTING UP THE RUN .....
 STEP CPU TIME =     0.01 TOTAL CPU TIME =          0.0 (      0.0 MIN)
 TOTAL WALL CLOCK TIME=          0.0 SECONDS, CPU UTILIZATION IS    33.33%


          -----------------------------
          STATIONARY POINT LOCATION RUN
          -----------------------------

 OBTAINING INITIAL HESSIAN, HESS=CALC    

     ---------------------------------
     HESSIAN MATRIX CONTROL PARAMETERS
     ---------------------------------
     METHOD=SEMINUM    NVIB  =       2   VIBSIZ= 0.01000
     RDHESS=       F   PURIFY=       F   PRTIFC=       F
     VIBANL=       F   DECOMP=       F   PROJCT=       F
     SCLFAC= 1.00000   PRTSCN=       F   NPRT  =       0
     PULCOR=       F   NPUN  =       0   REDOVB=       T
     HSSTYP=GENERAL 

               * * * EFFICIENCY NOTE * * *
 THIS CALCULATION CAN BE RUN WITH DIFFERENTIATION METHOD=ANALYTIC
 THIS MIGHT BE MORE ACCURATE AND/OR FASTER THAN YOUR CHOICE,
 BUT THE REQUESTED CALCULATION METHOD=SEMINUM  IS PROCEEDING.

1   ATOM  0
                                        -------------------
   COORD  0                             NUCLEAR COORDINATES
                                        -------------------
     VIB  0

                       ATOM             X              Y              Z

                 1  C               -0.845430      -0.957902      -0.195434
                 2  C                1.065505       0.676945       0.100883
                 3  O                3.496854      -0.023560       0.000673
                 4  H                0.422369       2.626987      -0.349213
                 5  F               -3.127803       0.296106       0.031023
                 6  H                1.137922      -2.044050      -0.365520
                 7  H               -0.716395      -2.445575       1.245047

          ********************
          1 ELECTRON INTEGRALS
          ********************
 ...... END OF ONE-ELECTRON INTEGRALS ......
 STEP CPU TIME =     0.02 TOTAL CPU TIME =          0.0 (      0.0 MIN)
 TOTAL WALL CLOCK TIME=          0.0 SECONDS, CPU UTILIZATION IS   100.00%

          -------------
          GUESS OPTIONS
          -------------
          GUESS =HUCKEL            NORB  =       0          NORDER=       0
          MIX   =       F          PRTMO =       F          PUNMO =       F
          TOLZ  = 1.0E-08          TOLE  = 1.0E-05
          SYMDEN=       F          PURIFY=       F

 INITIAL GUESS ORBITALS GENERATED BY HUCKEL   ROUTINE.
 HUCKEL GUESS REQUIRES     39228 WORDS.

 SYMMETRIES FOR INITIAL GUESS ORBITALS FOLLOW.   BOTH SET(S).
    16 ORBITALS ARE OCCUPIED (    4 CORE ORBITALS).
     5=A        6=A        7=A        8=A        9=A       10=A       11=A   
    12=A       13=A       14=A       15=A       16=A       17=A       18=A   
    19=A       20=A       21=A       22=A       23=A       24=A       25=A   
    26=A   
 ...... END OF INITIAL ORBITAL SELECTION ......
 STEP CPU TIME =     0.00 TOTAL CPU TIME =          0.0 (      0.0 MIN)
 TOTAL WALL CLOCK TIME=          0.0 SECONDS, CPU UTILIZATION IS    75.00%

                    ----------------------
                    AO INTEGRAL TECHNOLOGY
                    ----------------------
     S,P,L SHELL ROTATED AXIS INTEGRALS, REPROGRAMMED BY
        KAZUYA ISHIMURA (IMS) AND JOSE SIERRA (SYNSTAR).
     S,P,D,L SHELL ROTATED AXIS INTEGRALS PROGRAMMED BY
        KAZUYA ISHIMURA (INSTITUTE FOR MOLECULAR SCIENCE).
     S,P,D,F,G SHELL TO TOTAL QUARTET ANGULAR MOMENTUM SUM 5,
        ERIC PROGRAM BY GRAHAM FLETCHER (ELORET AND NASA ADVANCED
        SUPERCOMPUTING DIVISION, AMES RESEARCH CENTER).
     S,P,D,F,G,L SHELL GENERAL RYS QUADRATURE PROGRAMMED BY
        MICHEL DUPUIS (PACIFIC NORTHWEST NATIONAL LABORATORY).

          --------------------
          2 ELECTRON INTEGRALS
          --------------------

 THE -PK- OPTION IS OFF, THE INTEGRALS ARE NOT IN SUPERMATRIX FORM.
 STORING   15000 INTEGRALS/RECORD ON DISK, USING 12 BYTES/INTEGRAL.
 TWO ELECTRON INTEGRAL EVALUATION REQUIRES   90649 WORDS OF MEMORY.
 SCHWARZ INEQUALITY OVERHEAD:      2200 INTEGRALS, T=        0.01
 II,JST,KST,LST =  1  1  1  1 NREC =         1 INTLOC =    1
 II,JST,KST,LST =  2  1  1  1 NREC =         1 INTLOC =    2
 II,JST,KST,LST =  3  1  1  1 NREC =         1 INTLOC =   34
 II,JST,KST,LST =  4  1  1  1 NREC =         1 INTLOC =  214
 II,JST,KST,LST =  5  1  1  1 NREC =         1 INTLOC = 1189
 II,JST,KST,LST =  6  1  1  1 NREC =         1 INTLOC = 3244
 II,JST,KST,LST =  7  1  1  1 NREC =         2 INTLOC =  996
 II,JST,KST,LST =  8  1  1  1 NREC =         3 INTLOC = 8256
 II,JST,KST,LST =  9  1  1  1 NREC =         7 INTLOC = 6201
 II,JST,KST,LST = 10  1  1  1 NREC =         8 INTLOC = 4824
 II,JST,KST,LST = 11  1  1  1 NREC =        13 INTLOC = 3724
 II,JST,KST,LST = 12  1  1  1 NREC =        20 INTLOC = 3110
 II,JST,KST,LST = 13  1  1  1 NREC =        35 INTLOC = 1724
 II,JST,KST,LST = 14  1  1  1 NREC =        38 INTLOC = 5044
 II,JST,KST,LST = 15  1  1  1 NREC =        41 INTLOC =11809
 II,JST,KST,LST = 16  1  1  1 NREC =        44 INTLOC = 1774
 II,JST,KST,LST = 17  1  1  1 NREC =        56 INTLOC = 8077
 II,JST,KST,LST = 18  1  1  1 NREC =        76 INTLOC = 2180
 II,JST,KST,LST = 19  1  1  1 NREC =       109 INTLOC = 3747
 II,JST,KST,LST = 20  1  1  1 NREC =       116 INTLOC =13847
 II,JST,KST,LST = 21  1  1  1 NREC =       125 INTLOC = 2598
 II,JST,KST,LST = 22  1  1  1 NREC =       133 INTLOC = 8944
 SCHWARZ INEQUALITY TEST SKIPPED        2447 INTEGRAL BLOCKS.
 TOTAL NUMBER OF NONZERO TWO-ELECTRON INTEGRALS =             2125151
        142 INTEGRAL RECORDS WERE STORED ON DISK FILE  8.
  ...... END OF TWO-ELECTRON INTEGRALS .....
 STEP CPU TIME =     0.21 TOTAL CPU TIME =          0.2 (      0.0 MIN)
 TOTAL WALL CLOCK TIME=          0.3 SECONDS, CPU UTILIZATION IS    92.31%

          --------------------------
             R-B3LYP SCF CALCULATION
          --------------------------

     NUCLEAR ENERGY =       115.2437896974
     MAXIT =   30     NPUNCH=    2
     EXTRAP=T  DAMP=F  SHIFT=F  RSTRCT=F  DIIS=T  DEM=F  SOSCF=F
         DENSITY MATRIX CONVERGENCE THRESHOLD=  1.00E-05
     COARSE -> FINE DFT GRID SWITCH THRESHOLD=  3.00E-04 (SWITCH IN $DFT)
                   HF -> DFT SWITCH THRESHOLD=  5.00E-03 (SWOFF IN $DFT)
     MEMORY REQUIRED FOR RHF ITERS=    319420 WORDS.

 DFT CODE IS SWITCHING FROM THE FINE GRID NRAD= 96,  NLEB=  302
                      TO THE COARSE GRID NRAD0= 24, NLEB0=  110

     EXCHANGE FUNCTIONAL   =B88&HFX   
     CORRELATION FUNCTIONAL=LYP88&VWN5
     DFT THRESHOLD         =.197E-07
     GRID CHANGE THRESHOLD =.300E-03
 FOR AN EULER-MACLAURIN QUADRATURE USING  96 RADIAL POINTS:
 SMALLEST GAUSSIAN PRIMITIVE EXPONENT=        0.1612777588 OF TYPE -S-
 ON ATOM NUMBER   4 HAS RADIAL NORMALIZATION=  1.000000
  LARGEST GAUSSIAN PRIMITIVE EXPONENT=     7001.7130900000 OF TYPE -S-
 ON ATOM NUMBER   5 HAS RADIAL NORMALIZATION=  1.000000
 DFT IS SWITCHED OFF, PERFORMING PURE SCF UNTIL SWOFF THRESHOLD IS REACHED.

 ITER EX DEM     TOTAL ENERGY        E CHANGE  DENSITY CHANGE    DIIS ERROR
   1  0  0     -250.6350372846  -250.6350372846   0.446632223   0.790388622
          * * *   INITIATING DIIS PROCEDURE   * * *
   2  1  0     -251.2551738568    -0.6201365722   0.385868379   0.228979383
   3  2  0     -251.3256323731    -0.0704585163   0.206513194   0.179998705
   4  3  0     -251.5103204754    -0.1846881022   0.027666153   0.010393087
   5  4  0     -251.5128419253    -0.0025214499   0.010326418   0.006997038
   6  5  0     -251.5133510702    -0.0005091449   0.004062291   0.002713571
 CONVERGED TO SWOFF, SO DFT CALCULATION IS NOW SWITCHED ON.
          * * *   INITIATING DIIS PROCEDURE   * * *
   7  6  0     -252.7045940770    -1.1912430068   0.148562592   0.086299362
   8  7  0     -252.7212480139    -0.0166539369   0.160811985   0.038052912
   9  8  0     -252.7043586091     0.0168894048   0.114297774   0.064510504
  10  9  0     -252.7327955611    -0.0284369520   0.016591718   0.008995461
  11 10  0     -252.7334392295    -0.0006436684   0.003994215   0.002548062
  12 11  0     -252.7334865204    -0.0000472909   0.000960577   0.000622035
  13 12  0     -252.7334885655    -0.0000020451   0.000271611   0.000184622
 DFT CODE IS SWITCHING BACK TO THE FINE GRID
          * * *   INITIATING DIIS PROCEDURE   * * *
  14 13  0     -252.7358293628    -0.0023407972   0.004072805   0.002114686
  15 14  0     -252.7358580930    -0.0000287302   0.002794854   0.000600833
  16 15  0     -252.7358492520     0.0000088410   0.002597814   0.001351753
  17 16  0     -252.7358612408    -0.0000119888   0.000530337   0.000247677
  18 17  0     -252.7358618684    -0.0000006276   0.000053653   0.000051316
  19 18  0     -252.7358618838    -0.0000000154   0.000011962   0.000008113
  20 19  0     -252.7358618843    -0.0000000005   0.000005469   0.000005437
  21 20  0     -252.7358618845    -0.0000000002   0.000003062   0.000001685

          -----------------
          DENSITY CONVERGED
          -----------------
     TIME TO FORM FOCK OPERATORS=       6.5 SECONDS (       0.3 SEC/ITER)
     TIME TO SOLVE SCF EQUATIONS=       0.0 SECONDS (       0.0 SEC/ITER)

 FINAL R-B3LYP ENERGY IS     -252.7358618845 AFTER  21 ITERATIONS
 DFT EXCHANGE + CORRELATION ENERGY =       -24.8987995558
 TOTAL ELECTRON NUMBER             =        31.9999216599

          ------------
          EIGENVECTORS
          ------------

                      1          2          3          4          5
                  -24.7209   -19.1620   -10.2901   -10.2791    -1.2215
                     A          A          A          A          A   
    1  C  1  S   -0.000029  -0.000017   0.037179   0.992113  -0.062663
    2  C  1  S    0.000014  -0.000001   0.001467   0.049862   0.112597
    3  C  1  X   -0.000543  -0.000031  -0.000303  -0.000664  -0.077520
    4  C  1  Y    0.000348   0.000044  -0.000369   0.000495   0.048710
    5  C  1  Z    0.000056   0.000022  -0.000013   0.000549   0.012237
    6  C  1  S    0.000133   0.000344   0.004010  -0.015733   0.031398
    7  C  1  X    0.000970   0.001035   0.000401  -0.004067   0.003368
    8  C  1  Y   -0.000167  -0.000638   0.002399  -0.000497  -0.013235
    9  C  1  Z    0.000028  -0.000111  -0.000111  -0.001898  -0.003197
   10  C  1 XX    0.000478  -0.000130  -0.000580  -0.008673   0.011531
   11  C  1 YY    0.000155  -0.000034  -0.000592  -0.009231  -0.002733
   12  C  1 ZZ   -0.000051  -0.000025  -0.000479  -0.009538  -0.009626
   13  C  1 XY   -0.000254   0.000013  -0.000121  -0.000366  -0.014452
   14  C  1 XZ   -0.000039   0.000007  -0.000052  -0.000074  -0.002737
   15  C  1 YZ    0.000040  -0.000014  -0.000018  -0.000021   0.000125
   16  C  2  S   -0.000001  -0.000010   0.992075  -0.037620  -0.015279
   17  C  2  S    0.000161   0.000456   0.048939  -0.002379   0.027764
   18  C  2  X    0.000017   0.000297   0.000389   0.000193  -0.021448
   19  C  2  Y    0.000020  -0.000073  -0.000666   0.000146  -0.009436
   20  C  2  Z    0.000018   0.000003  -0.000365   0.000059  -0.002223
   21  C  2  S   -0.000405  -0.002199  -0.011194   0.007018   0.021407
   22  C  2  X    0.000310  -0.002049   0.003085  -0.002428  -0.014357
   23  C  2  Y    0.000392   0.000787   0.000347  -0.002224  -0.005746
   24  C  2  Z   -0.000018   0.000051   0.000926   0.000038   0.000567
   25  C  2 XX   -0.000183  -0.000222  -0.008680   0.000090   0.004230
   26  C  2 YY   -0.000081  -0.000061  -0.009263   0.000225   0.000398
   27  C  2 ZZ   -0.000012  -0.000036  -0.009719   0.000205  -0.002257
   28  C  2 XY   -0.000018   0.000098  -0.000050   0.000031   0.002669
   29  C  2 XZ   -0.000004   0.000016   0.000032  -0.000063   0.000678
   30  C  2 YZ   -0.000010  -0.000010  -0.000006  -0.000049   0.000132
   31  O  3  S    0.000004   0.992846  -0.000026   0.000027  -0.003626
   32  O  3  S    0.000009   0.025722   0.000311   0.000045   0.006477
   33  O  3  X   -0.000015  -0.000907   0.000087  -0.000021  -0.003871
   34  O  3  Y    0.000024   0.000121  -0.000039  -0.000078  -0.000007
   35  O  3  Z   -0.000000   0.000116   0.000030   0.000016   0.000015
   36  O  3  S   -0.000062   0.011957  -0.001390  -0.000559   0.013168
   37  O  3  X   -0.000031  -0.000979   0.001237   0.000131  -0.002347
   38  O  3  Y   -0.000096   0.000158  -0.000380   0.000510   0.001066
   39  O  3  Z    0.000007  -0.000007  -0.000281  -0.000046  -0.000179
   40  O  3 XX    0.000053  -0.007740  -0.000498   0.000197  -0.000361
   41  O  3 YY    0.000007  -0.007853   0.000153   0.000073  -0.000529
   42  O  3 ZZ    0.000003  -0.007900   0.000393   0.000013  -0.000798
   43  O  3 XY   -0.000005  -0.000018   0.000273  -0.000028  -0.000065
   44  O  3 XZ   -0.000006   0.000000   0.000089   0.000013   0.000066
   45  O  3 YZ    0.000000   0.000010  -0.000043   0.000003   0.000018
   46  H  4  S    0.000066  -0.000002  -0.000165  -0.000104   0.006123
   47  H  4  S   -0.000286  -0.000250   0.002261   0.000082   0.005181
   48  F  5  S    0.992988  -0.000031   0.000054   0.000029  -0.221917
   49  F  5  S    0.019536  -0.000177   0.000271   0.000512   0.494523
   50  F  5  X    0.000621   0.000018   0.000002   0.000083   0.080132
   51  F  5  Y   -0.000383   0.000042  -0.000028  -0.000066  -0.042599
   52  F  5  Z   -0.000112   0.000011  -0.000040  -0.000084  -0.008585
   53  F  5  S    0.015469   0.000781  -0.001314  -0.001235   0.473838
   54  F  5  X   -0.000296   0.000022  -0.000109  -0.001099   0.044678
   55  F  5  Y    0.000175  -0.000233   0.000195   0.000768  -0.022382
   56  F  5  Z    0.000033  -0.000052   0.000176   0.000472  -0.004300
   57  F  5 XX   -0.008398  -0.000140   0.000294  -0.000406   0.021284
   58  F  5 YY   -0.008138  -0.000087   0.000199   0.000148   0.010927
   59  F  5 ZZ   -0.008050  -0.000095   0.000142   0.000561   0.005591
   60  F  5 XY    0.000236  -0.000061   0.000075   0.000558  -0.009565
   61  F  5 XZ    0.000042  -0.000012   0.000041   0.000180  -0.002592
   62  F  5 YZ   -0.000021   0.000003   0.000011  -0.000109   0.001171
   63  H  6  S   -0.000117   0.000008  -0.000012  -0.000055   0.007032
   64  H  6  S   -0.000264  -0.001026   0.001130   0.002275  -0.011209
   65  H  7  S   -0.000010  -0.000069   0.000012   0.000077   0.016974
   66  H  7  S   -0.000056   0.000099   0.000487   0.002541   0.001193

                      6          7          8          9         10
                   -1.0225    -0.8236    -0.6308    -0.5703    -0.4945
                     A          A          A          A          A   
    1  C  1  S   -0.043682  -0.152839   0.043391  -0.056666   0.019844
    2  C  1  S    0.084060   0.300632  -0.084784   0.123009  -0.053348
    3  C  1  X    0.075976   0.154951   0.015617  -0.306400  -0.059352
    4  C  1  Y    0.009830   0.015044   0.265384   0.057765  -0.175890
    5  C  1  Z    0.009343   0.048258  -0.075462   0.038187   0.229948
    6  C  1  S    0.045167   0.241878  -0.142394   0.128845  -0.000083
    7  C  1  X    0.025018   0.065860  -0.022719  -0.050265  -0.014706
    8  C  1  Y   -0.010759  -0.024952   0.070978  -0.002652  -0.061808
    9  C  1  Z    0.002391   0.016301  -0.030745   0.012304   0.124618
   10  C  1 XX    0.007306   0.005433  -0.004515  -0.001728  -0.011433
   11  C  1 YY   -0.000793   0.001777   0.006014  -0.000981   0.004998
   12  C  1 ZZ   -0.003657  -0.009851  -0.003997  -0.003550   0.014143
   13  C  1 XY    0.004468  -0.000928   0.016590  -0.011175   0.005235
   14  C  1 XZ    0.002179   0.003661  -0.001175  -0.004516  -0.001884
   15  C  1 YZ   -0.001554  -0.006919   0.012732  -0.001771  -0.005017
   16  C  2  S   -0.116513  -0.078311  -0.121958   0.034668  -0.046498
   17  C  2  S    0.223072   0.159345   0.254620  -0.074169   0.103897
   18  C  2  X    0.110144  -0.205202  -0.108502  -0.004540   0.099383
   19  C  2  Y   -0.076114  -0.098097   0.182555   0.111084   0.216831
   20  C  2  Z   -0.013993  -0.018942  -0.051770   0.024966   0.108464
   21  C  2  S    0.090166   0.094185   0.272949  -0.058334   0.122263
   22  C  2  X   -0.019464  -0.017631  -0.059536  -0.000239   0.033711
   23  C  2  Y    0.003722  -0.007026   0.045613   0.053071   0.088664
   24  C  2  Z   -0.001753  -0.004101  -0.018614   0.003316   0.045430
   25  C  2 XX    0.013536  -0.013742  -0.004550   0.015518  -0.001227
   26  C  2 YY   -0.002603   0.013447  -0.001766  -0.011188   0.001777
   27  C  2 ZZ   -0.017471  -0.006510  -0.008490   0.003172  -0.004227
   28  C  2 XY   -0.011694   0.014868  -0.005321   0.001698  -0.005210
   29  C  2 XZ   -0.000890   0.003846   0.005334  -0.000355  -0.004883
   30  C  2 YZ    0.001304   0.001611  -0.004080  -0.004706  -0.013433
   31  O  3  S   -0.181557   0.103017   0.033223  -0.043579   0.029392
   32  O  3  S    0.396411  -0.231946  -0.077771   0.098773  -0.055930
   33  O  3  X   -0.134021   0.007600  -0.033542   0.088827  -0.073505
   34  O  3  Y    0.020386  -0.031224   0.080254   0.039890   0.145233
   35  O  3  Z    0.004022  -0.005946  -0.009173   0.010161   0.066023
   36  O  3  S    0.398810  -0.261043  -0.091058   0.151460  -0.131138
   37  O  3  X   -0.068777   0.005366  -0.019774   0.046504  -0.025467
   38  O  3  Y    0.002476  -0.012966   0.041846   0.018795   0.076577
   39  O  3  Z    0.001668  -0.001504  -0.003691   0.006370   0.037259
   40  O  3 XX    0.012808   0.004695   0.003924  -0.011050   0.005211
   41  O  3 YY   -0.007769   0.002953  -0.000264  -0.000561   0.005729
   42  O  3 ZZ   -0.010432   0.002182  -0.000850   0.001158   0.004721
   43  O  3 XY   -0.001581   0.002780  -0.010019  -0.003681  -0.011486
   44  O  3 XZ   -0.000968   0.000892   0.001016  -0.001159  -0.005676
   45  O  3 YZ    0.000246   0.000059   0.000015  -0.000216   0.000605
   46  H  4  S    0.028670   0.037776   0.185310   0.011429   0.126647
   47  H  4  S   -0.006023   0.002415   0.075852  -0.013706   0.070630
   48  F  5  S    0.020259   0.052626   0.006361   0.065781  -0.004922
   49  F  5  S   -0.047505  -0.124921  -0.010914  -0.119675   0.007695
   50  F  5  X    0.006855   0.082873   0.074056   0.403611  -0.142253
   51  F  5  Y    0.001714  -0.023531   0.111124  -0.270873  -0.092592
   52  F  5  Z    0.001020   0.002886  -0.031212  -0.030466   0.317560
   53  F  5  S   -0.041934  -0.132988  -0.031717  -0.275226   0.017672
   54  F  5  X    0.003353   0.050339   0.044518   0.242485  -0.095731
   55  F  5  Y   -0.002692  -0.014345   0.069987  -0.163264  -0.058870
   56  F  5  Z   -0.000946  -0.001323  -0.016889  -0.019409   0.206335
   57  F  5 XX   -0.000930   0.002963   0.009839   0.026662  -0.009009
   58  F  5 YY   -0.001592  -0.004640  -0.004557   0.014811   0.005752
   59  F  5 ZZ   -0.001380  -0.005674   0.001029   0.006024  -0.002254
   60  F  5 XY   -0.000214  -0.002221   0.006079  -0.015624  -0.001726
   61  F  5 XZ    0.000070   0.000205  -0.002651  -0.002673   0.013719
   62  F  5 YZ   -0.000188  -0.000406   0.000591   0.001654  -0.006497
   63  H  6  S    0.074684   0.133439  -0.120866  -0.115306  -0.053110
   64  H  6  S    0.001202   0.001713  -0.064883  -0.072641  -0.051733
   65  H  7  S    0.024035   0.110917  -0.159140   0.030745   0.149181
   66  H  7  S    0.001007   0.014724  -0.074890   0.017152   0.114798

                     11         12         13         14         15
                   -0.4697    -0.4286    -0.3983    -0.3766    -0.2905
                     A          A          A          A          A   
    1  C  1  S    0.007588  -0.023326   0.001578   0.005269  -0.048476
    2  C  1  S   -0.018351   0.046022  -0.008731   0.000308   0.093529
    3  C  1  X    0.074540   0.040553  -0.064370   0.068851   0.126894
    4  C  1  Y    0.155716  -0.144753  -0.125977   0.148204   0.098869
    5  C  1  Z    0.163816  -0.010455   0.089854   0.088480   0.044596
    6  C  1  S   -0.015492   0.082816   0.029002  -0.065252   0.362168
    7  C  1  X    0.053978   0.002838   0.058599  -0.049878   0.125595
    8  C  1  Y    0.092854  -0.030791  -0.001155   0.075668   0.041311
    9  C  1  Z    0.105630  -0.027000  -0.004691   0.024124   0.042691
   10  C  1 XX   -0.011660  -0.016518  -0.014701   0.005580  -0.000803
   11  C  1 YY    0.004817   0.015732   0.014315  -0.008738  -0.006666
   12  C  1 ZZ    0.004153   0.003888   0.005289   0.002256   0.000463
   13  C  1 XY    0.001233  -0.000716  -0.015821   0.016947   0.009707
   14  C  1 XZ   -0.001897   0.003426   0.017831   0.018344   0.003432
   15  C  1 YZ    0.011544  -0.012661  -0.010397   0.006591  -0.002274
   16  C  2  S    0.029533   0.036373   0.009396  -0.035049  -0.006831
   17  C  2  S   -0.070027  -0.086685  -0.013050   0.077335   0.025909
   18  C  2  X   -0.169919  -0.216868   0.160193  -0.174501  -0.035179
   19  C  2  Y   -0.111035   0.249463   0.049170  -0.082225  -0.167787
   20  C  2  Z    0.103317  -0.063204   0.176056   0.262860  -0.025995
   21  C  2  S   -0.141286  -0.105176  -0.128206   0.160897  -0.030313
   22  C  2  X   -0.062617  -0.041053   0.025493   0.007353   0.083268
   23  C  2  Y   -0.015470   0.112689   0.034272  -0.101154   0.004284
   24  C  2  Z    0.059177  -0.028448   0.123874   0.170867  -0.034690
   25  C  2 XX    0.002246  -0.008206   0.007636  -0.000712   0.020630
   26  C  2 YY   -0.003957   0.010940  -0.004168   0.000153  -0.026321
   27  C  2 ZZ    0.000084   0.008434  -0.002456  -0.004890   0.000050
   28  C  2 XY    0.006885   0.005514  -0.003134   0.005831   0.035137
   29  C  2 XZ   -0.001386   0.001769   0.003045   0.013311  -0.005279
   30  C  2 YZ   -0.002100  -0.005238  -0.009747  -0.009625   0.004839
   31  O  3  S   -0.047952  -0.064010   0.017304  -0.013058  -0.010362
   32  O  3  S    0.089353   0.133943  -0.039426   0.033320   0.036061
   33  O  3  X    0.173257   0.404686  -0.116311   0.116525   0.131423
   34  O  3  Y   -0.114312  -0.024582   0.107724  -0.081784   0.529799
   35  O  3  Z    0.053095  -0.060546   0.188518   0.330756  -0.094986
   36  O  3  S    0.238665   0.271558  -0.044285   0.011010   0.002666
   37  O  3  X    0.068905   0.229280  -0.075272   0.084855   0.108774
   38  O  3  Y   -0.058527  -0.004567   0.071667  -0.055041   0.365272
   39  O  3  Z    0.029281  -0.033903   0.118194   0.212174  -0.071702
   40  O  3 XX   -0.014531  -0.029411   0.003735  -0.004648  -0.004284
   41  O  3 YY   -0.008561   0.002315  -0.000099  -0.000023   0.003718
   42  O  3 ZZ   -0.005751   0.001645  -0.000300   0.003272   0.005209
   43  O  3 XY    0.007055  -0.000883  -0.007141   0.004604  -0.021465
   44  O  3 XZ   -0.004265   0.004865  -0.012574  -0.020641   0.004753
   45  O  3 YZ   -0.000085  -0.001238   0.001506   0.002277   0.000111
   46  H  4  S   -0.073855   0.147818  -0.017530  -0.019386  -0.164719
   47  H  4  S   -0.040442   0.131575   0.039736  -0.012789  -0.225978
   48  F  5  S   -0.000968  -0.001342  -0.000587   0.002239   0.001013
   49  F  5  S    0.004106  -0.008717  -0.008035   0.003923  -0.006231
   50  F  5  X    0.179703  -0.155092   0.189098  -0.214855  -0.091798
   51  F  5  Y    0.280436   0.123271   0.388857  -0.244110   0.022311
   52  F  5  Z    0.344547  -0.142586  -0.318321  -0.200042  -0.027407
   53  F  5  S   -0.001744   0.014637   0.029844  -0.042986  -0.004304
   54  F  5  X    0.118358  -0.101303   0.135510  -0.155493  -0.071288
   55  F  5  Y    0.186219   0.087988   0.266613  -0.169062   0.015448
   56  F  5  Z    0.228782  -0.097548  -0.226350  -0.141927  -0.022673
   57  F  5 XX    0.014034  -0.009342   0.002479  -0.000908  -0.001029
   58  F  5 YY   -0.008607  -0.004151  -0.011586   0.008147  -0.003916
   59  F  5 ZZ   -0.001481  -0.002635  -0.001925   0.004220  -0.000873
   60  F  5 XY    0.006509   0.006304   0.005808  -0.002068   0.001532
   61  F  5 XZ    0.012096  -0.003501  -0.007852  -0.002801   0.000108
   62  F  5 YZ   -0.007517   0.001314   0.002764   0.003550   0.000048
   63  H  6  S   -0.037653   0.016656  -0.007599  -0.066790  -0.098180
   64  H  6  S   -0.007912   0.067553  -0.028384  -0.080555  -0.299672
   65  H  7  S   -0.013399   0.115680   0.126837  -0.049319   0.011096
   66  H  7  S   -0.013722   0.107262   0.151688  -0.019845  -0.020933

                     16         17         18         19         20
                   -0.2662    -0.0746    -0.0246     0.0946     0.1451
                     A          A          A          A          A   
    1  C  1  S   -0.035015   0.056017  -0.082931  -0.084269   0.015561
    2  C  1  S    0.064250  -0.134963   0.149853   0.099572  -0.034020
    3  C  1  X    0.028537   0.115678  -0.160490   0.070853   0.014267
    4  C  1  Y   -0.099169  -0.039580  -0.105369  -0.278868   0.138973
    5  C  1  Z   -0.365030   0.022613  -0.248748   0.227092  -0.157466
    6  C  1  S    0.243359  -0.085058   0.510720   1.621378  -0.444451
    7  C  1  X    0.078905   0.220099  -0.220071   0.448036  -0.279435
    8  C  1  Y   -0.098690  -0.026033  -0.272439  -0.569360   0.551696
    9  C  1  Z   -0.224656   0.102527  -0.263445   0.611105  -0.458352
   10  C  1 XX    0.009513   0.033455  -0.027330   0.016130   0.006650
   11  C  1 YY   -0.000334  -0.008715  -0.000044  -0.012369  -0.009879
   12  C  1 ZZ   -0.012033  -0.013781   0.007492  -0.012445   0.004470
   13  C  1 XY   -0.014732  -0.036585   0.018373  -0.008370  -0.003911
   14  C  1 XZ   -0.018795   0.010938   0.007653   0.005004   0.006909
   15  C  1 YZ    0.007754   0.025414   0.017358  -0.006317   0.005478
   16  C  2  S    0.022781   0.004458  -0.028075   0.039284   0.089859
   17  C  2  S   -0.049701  -0.004781   0.035116  -0.037259  -0.179042
   18  C  2  X    0.057182   0.034521  -0.023297   0.053174   0.000397
   19  C  2  Y    0.057867   0.067952   0.043242  -0.139976  -0.335585
   20  C  2  Z   -0.032333   0.324429   0.390847  -0.021792   0.143752
   21  C  2  S   -0.120811  -0.189324   0.403317  -0.858921  -1.185080
   22  C  2  X    0.024042   0.113389  -0.230241   0.236773   0.290420
   23  C  2  Y    0.102962   0.195757   0.069350  -0.256404  -1.017734
   24  C  2  Z    0.009063   0.324285   0.383357  -0.099712   0.393724
   25  C  2 XX   -0.000435  -0.015612   0.002163  -0.007031   0.016294
   26  C  2 YY    0.002413   0.022153  -0.018018   0.027189  -0.001783
   27  C  2 ZZ    0.003674  -0.001891   0.000333  -0.008142   0.000084
   28  C  2 XY    0.004957   0.004218  -0.000671   0.001770  -0.004637
   29  C  2 XZ    0.029238  -0.017397  -0.008481  -0.007286   0.001021
   30  C  2 YZ    0.006917   0.005144   0.010086  -0.003661   0.002021
   31  O  3  S    0.003741   0.024169  -0.012834  -0.014030  -0.010266
   32  O  3  S   -0.010595  -0.064194   0.019233   0.028057   0.049340
   33  O  3  X    0.090871   0.145951  -0.061883  -0.007962  -0.079069
   34  O  3  Y    0.155343   0.159629  -0.108587  -0.045769   0.119549
   35  O  3  Z    0.404219  -0.216759  -0.250114   0.039416  -0.078777
   36  O  3  S   -0.004488  -0.132651   0.154072   0.106271  -0.063175
   37  O  3  X    0.061309   0.123902  -0.084691  -0.054803  -0.024012
   38  O  3  Y    0.112641   0.129661  -0.081407  -0.041382   0.193606
   39  O  3  Z    0.301320  -0.209628  -0.250380   0.025795  -0.116511
   40  O  3 XX   -0.006356  -0.006470  -0.000120   0.006789   0.002345
   41  O  3 YY    0.003530   0.008880  -0.009345  -0.005903   0.004916
   42  O  3 ZZ    0.002251   0.000037  -0.002465  -0.008323   0.005944
   43  O  3 XY   -0.004975   0.001746  -0.003123   0.004569   0.005756
   44  O  3 XZ   -0.016183   0.001271  -0.003147   0.000685  -0.003074
   45  O  3 YZ    0.003788   0.003722   0.003679  -0.000123  -0.002298
   46  H  4  S    0.008358   0.019650  -0.071924   0.103228   0.058684
   47  H  4  S   -0.000435   0.051400  -0.245008   0.891294   1.843867
   48  F  5  S   -0.003959  -0.030039   0.029592  -0.007791   0.019932
   49  F  5  S   -0.007444   0.057435  -0.071319  -0.005405  -0.039456
   50  F  5  X    0.054781   0.170955  -0.146570   0.016372  -0.028942
   51  F  5  Y    0.024254  -0.135908   0.144596   0.016681  -0.061423
   52  F  5  Z    0.246650  -0.044811   0.099245  -0.041934   0.059326
   53  F  5  S    0.064583   0.224712  -0.189666   0.121120  -0.207366
   54  F  5  X    0.049443   0.163310  -0.140264   0.024947  -0.083191
   55  F  5  Y    0.015892  -0.125099   0.147889   0.030926  -0.019750
   56  F  5  Z    0.193806  -0.044907   0.099430  -0.086657   0.086465
   57  F  5 XX   -0.009123  -0.007763  -0.001228  -0.015449  -0.006860
   58  F  5 YY   -0.007399  -0.007393   0.001078  -0.003631   0.004768
   59  F  5 ZZ   -0.006794  -0.006817   0.002509  -0.012769   0.005285
   60  F  5 XY    0.000996   0.001123  -0.000520  -0.002203   0.008708
   61  F  5 XZ   -0.000518   0.002046  -0.002022   0.002136  -0.002084
   62  F  5 YZ    0.000418   0.003169   0.006697   0.000729  -0.001665
   63  H  6  S    0.118307   0.285647  -0.147053   0.010752  -0.020776
   64  H  6  S    0.134604   0.668828  -0.279815  -0.800856  -0.087244
   65  H  7  S   -0.119891  -0.147844  -0.075811  -0.055564  -0.003303
   66  H  7  S   -0.166264  -0.422624  -0.290109  -1.560161   0.896037

                     21         22         23         24         25
                    0.2034     0.2710     0.3193     0.4829     0.5153
                     A          A          A          A          A   
    1  C  1  S   -0.031637  -0.058346   0.111983   0.012255   0.006185
    2  C  1  S    0.105959   0.026962  -0.140579   0.214255  -0.248567
    3  C  1  X   -0.216252  -0.391621  -0.059405   0.287840   0.130332
    4  C  1  Y    0.192161   0.140930  -0.158289   0.523284  -0.096006
    5  C  1  Z    0.224938   0.197232   0.159803   0.241920   0.475593
    6  C  1  S   -0.204026   1.161716  -3.267563   0.390303   0.013440
    7  C  1  X   -0.609756  -0.844461  -2.024479   0.122784   0.071227
    8  C  1  Y   -0.136923   1.108339  -1.602742  -0.949746   0.433185
    9  C  1  Z    0.336867   0.313715  -0.190339  -0.170371  -0.647332
   10  C  1 XX   -0.033101  -0.009861   0.027342  -0.028594  -0.058546
   11  C  1 YY    0.021665  -0.026812  -0.005316   0.035748  -0.019235
   12  C  1 ZZ    0.004502   0.022247  -0.016555  -0.016656   0.030283
   13  C  1 XY    0.002498   0.014193   0.016753   0.051597  -0.037975
   14  C  1 XZ   -0.002480  -0.004196  -0.001514   0.007973   0.023698
   15  C  1 YZ    0.011395   0.000721   0.022770   0.019681  -0.003441
   16  C  2  S    0.078905  -0.018437  -0.106480   0.037862  -0.009653
   17  C  2  S   -0.088281  -0.065900   0.137152   0.159799  -0.060677
   18  C  2  X   -0.235728   0.226106  -0.041994  -0.284485   0.073239
   19  C  2  Y    0.106587  -0.053125  -0.326546  -0.307647   0.210851
   20  C  2  Z   -0.015126  -0.042065  -0.018481   0.077777   0.777330
   21  C  2  S   -0.763562   0.203858   3.365171  -0.231091   0.047316
   22  C  2  X   -1.157372   1.834364  -1.529194   0.702009   0.034840
   23  C  2  Y    0.439771  -0.415363  -1.538659   1.141899  -0.407962
   24  C  2  Z   -0.129186  -0.075881  -0.357546  -0.028988  -0.758917
   25  C  2 XX    0.054955   0.000441  -0.023762   0.081063   0.015273
   26  C  2 YY   -0.018900  -0.024058   0.017524  -0.000232  -0.022988
   27  C  2 ZZ   -0.019185   0.021439   0.003263  -0.024951   0.008181
   28  C  2 XY   -0.009750   0.009073  -0.003238   0.047001   0.009161
   29  C  2 XZ   -0.006162  -0.011003  -0.008867  -0.003124  -0.001693
   30  C  2 YZ   -0.005837  -0.010997  -0.012972   0.006485  -0.037008
   31  O  3  S   -0.058032   0.091254   0.020280   0.002651   0.002800
   32  O  3  S    0.075359  -0.110894  -0.080167   0.029994   0.051961
   33  O  3  X   -0.251343   0.136251   0.183993  -0.142024  -0.026220
   34  O  3  Y    0.196992  -0.025511   0.102785  -0.144350  -0.025847
   35  O  3  Z    0.071804   0.031363   0.036466   0.014990   0.066409
   36  O  3  S    0.958256  -1.549236  -0.075233  -0.209070  -0.196867
   37  O  3  X   -0.532882   0.703570   0.274666   0.019638   0.087646
   38  O  3  Y    0.317091  -0.153125   0.263109  -0.163804   0.046415
   39  O  3  Z    0.098636  -0.006840   0.064739  -0.001977   0.074465
   40  O  3 XX   -0.017506  -0.005008   0.003774  -0.027804   0.002457
   41  O  3 YY   -0.014058   0.046510  -0.020895   0.019148   0.014688
   42  O  3 ZZ   -0.026876   0.047661  -0.006697   0.013965   0.032232
   43  O  3 XY   -0.003031   0.007217  -0.004512   0.010562  -0.016075
   44  O  3 XZ    0.000530   0.004319  -0.001664  -0.001583  -0.035122
   45  O  3 YZ    0.003058  -0.001774  -0.003581   0.004561   0.011248
   46  H  4  S    0.027267  -0.112972   0.015656  -0.100403  -0.036345
   47  H  4  S   -0.268053   0.432651   0.178151  -0.125738   0.047436
   48  F  5  S    0.043073   0.067957   0.001623  -0.022087  -0.004027
   49  F  5  S   -0.107532  -0.023503  -0.013991   0.076714   0.071589
   50  F  5  X   -0.196466  -0.139660   0.132126   0.026189   0.041220
   51  F  5  Y    0.033304   0.152661   0.062560   0.064048  -0.082869
   52  F  5  Z   -0.030819   0.008798  -0.015136   0.010370   0.086678
   53  F  5  S   -0.336807  -0.966298  -0.031830   0.255483  -0.121738
   54  F  5  X   -0.216674  -0.354168   0.150703   0.211417  -0.002473
   55  F  5  Y    0.097190   0.222195   0.161856   0.030531  -0.050337
   56  F  5  Z   -0.030478   0.029630   0.015682   0.009102   0.060023
   57  F  5 XX    0.011936   0.048368  -0.016415   0.062047   0.018084
   58  F  5 YY   -0.005568   0.054608   0.007329   0.000633   0.014719
   59  F  5 ZZ   -0.007026   0.054888  -0.009324  -0.009010   0.034466
   60  F  5 XY    0.003304  -0.012953   0.019767  -0.003402   0.011641
   61  F  5 XZ    0.006168   0.004291   0.012560   0.005695   0.006749
   62  F  5 YZ   -0.001135  -0.003753  -0.001010  -0.000916  -0.019841
   63  H  6  S    0.094429  -0.022231  -0.004602  -0.248221  -0.128713
   64  H  6  S    1.429571   0.983814   0.414317   0.284256  -0.122084
   65  H  7  S   -0.053620  -0.057044  -0.133668  -0.025009   0.202752
   66  H  7  S   -0.777669  -0.393462  -0.247730  -0.190221   0.300002

                     26         27         28         29         30
                    0.5414     0.5879     0.6048     0.6796     0.7595
                     A          A          A          A          A   
    1  C  1  S   -0.001623   0.005265   0.039076   0.013245   0.005301
    2  C  1  S    0.383370   0.156455  -0.149480   0.046095  -0.750434
    3  C  1  X   -0.752257   0.058170  -0.355287   0.178921  -0.246887
    4  C  1  Y    0.260027  -0.105631  -0.464161  -0.447016   0.171681
    5  C  1  Z   -0.205871  -0.499555   0.188956  -0.464063  -0.151502
    6  C  1  S   -0.892751  -0.137513  -0.413615   0.229966   1.364601
    7  C  1  X    1.478578  -0.831676   0.577223  -0.308931   0.795666
    8  C  1  Y   -1.044485   0.145765   0.224217   0.754996  -0.957668
    9  C  1  Z    0.198374   0.966755  -0.645901   0.940682   0.547816
   10  C  1 XX   -0.044397   0.055582  -0.049783   0.015177  -0.030538
   11  C  1 YY    0.017474   0.030517   0.037600   0.046881  -0.002534
   12  C  1 ZZ    0.009718  -0.026690   0.000183   0.005808  -0.052379
   13  C  1 XY    0.082615  -0.000123   0.094583   0.057716  -0.014631
   14  C  1 XZ    0.029511   0.012718   0.012519  -0.000748  -0.045446
   15  C  1 YZ   -0.006302   0.026934  -0.016052  -0.033219   0.031412
   16  C  2  S   -0.037709   0.016781  -0.029249  -0.016563  -0.049287
   17  C  2  S    0.311100  -0.113255  -0.423794   0.353574  -0.704119
   18  C  2  X    0.106193  -0.605971  -0.686406   0.111422  -0.091956
   19  C  2  Y   -0.200364   0.190577  -0.063061  -0.516825  -0.200540
   20  C  2  Z    0.297233   0.466318  -0.270320   0.199169   0.116069
   21  C  2  S   -0.234611   0.620176   0.822248  -0.892667   1.116463
   22  C  2  X   -0.769225   1.116655   0.586611  -0.291909  -0.647528
   23  C  2  Y    0.092311  -0.728091  -0.488686   1.556619   1.067434
   24  C  2  Z   -0.428019  -0.884589   0.491322  -0.463401  -0.446394
   25  C  2 XX   -0.007165   0.048402   0.003933  -0.008600  -0.094741
   26  C  2 YY   -0.003549   0.038096  -0.120408  -0.058974  -0.130623
   27  C  2 ZZ    0.023160  -0.034413   0.024948   0.050755   0.044645
   28  C  2 XY   -0.027399  -0.036899  -0.100051  -0.010356  -0.009204
   29  C  2 XZ    0.012246   0.013275  -0.017798   0.012854  -0.032669
   30  C  2 YZ   -0.023082  -0.017396  -0.017136   0.028598   0.059818
   31  O  3  S   -0.000630  -0.002441  -0.002606   0.010491  -0.019072
   32  O  3  S   -0.051474   0.045923   0.021239  -0.125907   0.064225
   33  O  3  X    0.170457  -0.198067  -0.238943  -0.051148   0.154772
   34  O  3  Y    0.040366   0.075980   0.096432  -0.008506  -0.233803
   35  O  3  Z    0.007193   0.029737  -0.027131   0.125870   0.241822
   36  O  3  S    0.457323  -0.667411  -0.473902   0.398024   0.341175
   37  O  3  X   -0.078350   0.157870   0.202069   0.027519  -0.434688
   38  O  3  Y    0.051571  -0.051861   0.064135  -0.010611   0.074226
   39  O  3  Z    0.068100   0.093094  -0.049592   0.016479  -0.121589
   40  O  3 XX    0.034946  -0.083490  -0.091636  -0.001729   0.035415
   41  O  3 YY   -0.034659   0.030105  -0.012526  -0.037026   0.015328
   42  O  3 ZZ   -0.023959   0.029563   0.056869  -0.044155   0.020638
   43  O  3 XY    0.003569   0.051161   0.051856  -0.033229   0.032669
   44  O  3 XZ   -0.021118  -0.024739   0.022941  -0.013274   0.021605
   45  O  3 YZ   -0.001526  -0.007556  -0.009181   0.006566   0.001480
   46  H  4  S    0.122701   0.145742  -0.069669  -0.220292  -0.575600
   47  H  4  S    0.062109   0.160781   0.203977  -0.661703  -0.522107
   48  F  5  S   -0.028335   0.009477  -0.023104   0.005167  -0.006388
   49  F  5  S    0.007321   0.039905   0.190397   0.042845  -0.143482
   50  F  5  X   -0.232079   0.087561   0.001141   0.065181  -0.078027
   51  F  5  Y    0.089782   0.124292  -0.021898  -0.130696  -0.066238
   52  F  5  Z    0.027424  -0.028932   0.053484  -0.065444  -0.136195
   53  F  5  S    0.862397  -0.350773   0.108743  -0.336590   0.421391
   54  F  5  X    0.271914  -0.054755   0.201164  -0.082363   0.032547
   55  F  5  Y   -0.147322   0.094874  -0.115588   0.011218   0.032598
   56  F  5  Z   -0.071912  -0.071675   0.035579  -0.047340   0.012515
   57  F  5 XX    0.086688  -0.005197   0.074640  -0.026296  -0.046358
   58  F  5 YY    0.000956   0.030387   0.079536   0.029996  -0.059429
   59  F  5 ZZ   -0.058341   0.020116   0.042581   0.034446  -0.065204
   60  F  5 XY   -0.088822   0.003224  -0.035831   0.034943   0.033895
   61  F  5 XZ   -0.034633  -0.024729   0.004074  -0.016151   0.013783
   62  F  5 YZ    0.014967   0.001678   0.008488   0.004933  -0.002252
   63  H  6  S   -0.064684   0.254564  -0.338947  -0.529365   0.380941
   64  H  6  S   -0.562516  -0.189130  -0.083218   2.010838  -1.032066
   65  H  7  S    0.047180  -0.173718   0.181374   0.268124  -0.044371
   66  H  7  S   -0.028421  -0.023181   0.122369  -0.677031  -0.543680

                     31         32         33         34         35
                    0.7834     0.8414     0.8540     0.9311     0.9966
                     A          A          A          A          A   
    1  C  1  S   -0.013463  -0.002636  -0.058143   0.042615  -0.015480
    2  C  1  S    0.140371  -0.642053   0.337204   0.197678  -0.300872
    3  C  1  X   -0.136891   0.020467   0.175338  -0.171459  -0.023386
    4  C  1  Y   -0.424544   0.398708  -0.026601  -0.100676  -0.002784
    5  C  1  Z    0.348500  -0.215934   0.011491   0.180553  -0.078335
    6  C  1  S    0.911101   1.353313  -1.707530  -0.669647   0.610097
    7  C  1  X    0.713729  -0.114264   0.016733   0.241272   0.184408
    8  C  1  Y    1.496077  -0.519939  -1.070561   0.047020  -0.281977
    9  C  1  Z   -0.559326   0.434698   0.124016  -0.556148   0.540882
   10  C  1 XX    0.142798  -0.050643  -0.110961   0.081275  -0.051830
   11  C  1 YY   -0.063077  -0.061657  -0.046094   0.108363   0.033690
   12  C  1 ZZ   -0.019425   0.027542   0.083336  -0.115605  -0.014212
   13  C  1 XY    0.028830  -0.046543  -0.024791  -0.043975   0.002244
   14  C  1 XZ    0.002671   0.020532  -0.028369  -0.016545  -0.031855
   15  C  1 YZ    0.074472  -0.090553   0.136451  -0.007865   0.020214
   16  C  2  S    0.028580   0.023448   0.005233   0.009863  -0.012426
   17  C  2  S   -0.068584  -0.697681  -0.881269   0.414560  -0.127798
   18  C  2  X   -0.056994   0.185557   0.382711   0.024542   0.043562
   19  C  2  Y   -0.674809  -0.376910   0.122405  -0.143763  -0.086907
   20  C  2  Z    0.100864   0.058723   0.044088  -0.000940   0.123634
   21  C  2  S   -1.071313   1.541657   2.675908  -0.216494   0.108662
   22  C  2  X    0.415854  -0.046862  -1.020733  -0.386860  -0.279998
   23  C  2  Y    2.213623   0.489070  -0.600275   0.369964   0.417842
   24  C  2  Z   -0.015632  -0.142143  -0.356921   0.083494  -0.727747
   25  C  2 XX   -0.133618  -0.008408   0.078265   0.161272  -0.005410
   26  C  2 YY    0.129697   0.066124  -0.105233   0.034953  -0.058739
   27  C  2 ZZ   -0.047494  -0.074104  -0.025320  -0.056309   0.030049
   28  C  2 XY   -0.051323  -0.092207   0.020112  -0.101568  -0.010977
   29  C  2 XZ   -0.025040   0.040929  -0.053670  -0.006864  -0.016495
   30  C  2 YZ   -0.023382  -0.019510  -0.052029   0.078081  -0.031786
   31  O  3  S   -0.012820   0.006372   0.005240  -0.016176  -0.000687
   32  O  3  S    0.119797  -0.187364  -0.164821  -0.605060  -0.019355
   33  O  3  X    0.123161  -0.188919  -0.344342  -0.511531  -0.030888
   34  O  3  Y   -0.053016   0.126193   0.013462  -0.050098  -0.166013
   35  O  3  Z    0.009819  -0.004269   0.143129  -0.008548  -0.880325
   36  O  3  S    0.184534   0.063231   0.097099   1.418952   0.146781
   37  O  3  X   -0.423989   0.376574   0.636622   0.591517   0.011018
   38  O  3  Y   -0.154534  -0.192845   0.016223  -0.087159   0.200180
   39  O  3  Z    0.011137  -0.012047  -0.084244  -0.008102   1.216281
   40  O  3 XX    0.094463  -0.056444  -0.111154  -0.172317   0.007183
   41  O  3 YY    0.024838  -0.084524  -0.077692  -0.219668  -0.003773
   42  O  3 ZZ    0.003544  -0.044597  -0.013609  -0.257040  -0.010334
   43  O  3 XY    0.048988   0.067460  -0.030518   0.033081   0.004756
   44  O  3 XZ   -0.000519  -0.012166   0.000774   0.014320   0.039523
   45  O  3 YZ    0.012312   0.010530  -0.030095   0.017772  -0.024390
   46  H  4  S    0.482298   0.712002   0.067664  -0.282988  -0.079597
   47  H  4  S   -1.732417  -1.293408  -0.305807  -0.024252  -0.326849
   48  F  5  S    0.011439   0.008401  -0.005929  -0.010699  -0.003020
   49  F  5  S   -0.050591   0.041580   0.174884  -0.205710  -0.066297
   50  F  5  X   -0.001400   0.024371  -0.143075  -0.083568  -0.032050
   51  F  5  Y    0.065590   0.044619   0.008763  -0.114543  -0.052395
   52  F  5  Z   -0.015120   0.022099  -0.204999   0.089145  -0.142022
   53  F  5  S   -0.114889  -0.250655   0.081002   0.523730   0.125452
   54  F  5  X   -0.171132  -0.083422   0.285536   0.053916   0.026983
   55  F  5  Y   -0.079906   0.032347  -0.076550   0.084562   0.042333
   56  F  5  Z    0.064557  -0.033794   0.084090  -0.024068   0.068609
   57  F  5 XX   -0.055321   0.035523   0.141281  -0.079037  -0.020356
   58  F  5 YY    0.002577  -0.016559   0.064298  -0.085454  -0.027824
   59  F  5 ZZ    0.012578   0.050669   0.046635  -0.122543  -0.031768
   60  F  5 XY   -0.031981   0.030291  -0.005088   0.015193   0.025591
   61  F  5 XZ    0.023356  -0.020856   0.044495  -0.006586   0.009958
   62  F  5 YZ   -0.015759   0.017153  -0.009368  -0.003165  -0.024323
   63  H  6  S    0.227560   0.056078  -0.431401   0.673762  -0.076307
   64  H  6  S    0.077670  -0.185065  -0.216373  -0.841141   0.210221
   65  H  7  S   -0.497470   0.559727  -0.660481   0.021226  -0.118159
   66  H  7  S    1.522083  -1.213738   0.310021   0.760878  -0.437853

                     36         37         38         39         40
                    1.0215     1.1098     1.1600     1.2547     1.2800
                     A          A          A          A          A   
    1  C  1  S    0.052828  -0.053025   0.004065  -0.027876   0.003479
    2  C  1  S    1.014032  -1.128266   0.026643  -0.452446   0.105158
    3  C  1  X    0.174420  -0.070282  -0.255595  -0.027782   0.088020
    4  C  1  Y   -0.043148  -0.019192   0.142290   0.032930   0.011797
    5  C  1  Z    0.099099  -0.004960   0.051668  -0.146350   0.074957
    6  C  1  S   -3.787550   4.989759   0.617715   1.932937  -0.145836
    7  C  1  X   -1.173317   1.557774   0.966482   0.570956  -0.306868
    8  C  1  Y   -0.824487   0.994347  -0.390382  -0.220437  -0.059588
    9  C  1  Z   -0.428679   0.286757  -0.149381   0.633855  -0.402402
   10  C  1 XX    0.050450  -0.067555   0.106282  -0.058733   0.017165
   11  C  1 YY    0.099065  -0.120279   0.029684   0.032826   0.022683
   12  C  1 ZZ   -0.035205   0.046845  -0.035875  -0.004242  -0.045311
   13  C  1 XY   -0.026745   0.096082  -0.107624  -0.049647   0.062106
   14  C  1 XZ   -0.033713  -0.064105  -0.071421   0.298418  -0.079836
   15  C  1 YZ   -0.115817   0.096410   0.069649   0.181892  -0.032415
   16  C  2  S   -0.030751   0.031821  -0.002419   0.000475   0.005786
   17  C  2  S   -0.906156   0.745223  -0.053053   0.028329   0.120736
   18  C  2  X    0.107022  -0.109743  -0.070800  -0.053287  -0.130412
   19  C  2  Y   -0.157919  -0.035596  -0.001384  -0.063825   0.092992
   20  C  2  Z    0.107928   0.005205   0.031338  -0.050411   0.006656
   21  C  2  S    3.888584  -3.666617   0.032648  -0.782448  -0.884532
   22  C  2  X   -1.200321   1.694146   0.286954   0.375131  -0.211611
   23  C  2  Y    0.093503   1.439005   0.320933   0.758228  -0.285952
   24  C  2  Z   -0.397348   0.153908  -0.005549  -0.224063   0.215526
   25  C  2 XX   -0.003547   0.069061   0.012794   0.039123  -0.054647
   26  C  2 YY   -0.085447   0.000078  -0.036423   0.011914   0.111471
   27  C  2 ZZ   -0.009576   0.011100   0.026362  -0.051608  -0.059240
   28  C  2 XY    0.092038  -0.019110  -0.001226   0.062184   0.012000
   29  C  2 XZ    0.049820  -0.061951  -0.016338  -0.221420   0.140606
   30  C  2 YZ    0.096074   0.036750   0.017556  -0.268716   0.025530
   31  O  3  S   -0.005001   0.002194   0.001348  -0.007500  -0.036587
   32  O  3  S   -0.061281   0.061545   0.078547  -0.182263  -0.730607
   33  O  3  X    0.189166  -0.035949  -0.044317   0.106457   0.270773
   34  O  3  Y    0.521741   0.593073   0.298922   0.154667  -0.042456
   35  O  3  Z   -0.159145  -0.007340   0.010884  -0.006505   0.039471
   36  O  3  S    0.082212  -0.049908  -0.208761   0.426553   1.754666
   37  O  3  X   -0.236249  -0.037145   0.091741  -0.265215  -0.784723
   38  O  3  Y   -0.764454  -1.104921  -0.517869  -0.367127   0.202895
   39  O  3  Z    0.248523  -0.004842  -0.017731   0.107376  -0.135721
   40  O  3 XX   -0.087870   0.047055   0.000797  -0.092666  -0.289428
   41  O  3 YY    0.010366   0.045127  -0.004685   0.010061  -0.178928
   42  O  3 ZZ    0.028597  -0.055254   0.048542  -0.066030  -0.128938
   43  O  3 XY   -0.056390  -0.056520  -0.039498  -0.055222   0.065857
   44  O  3 XZ    0.009743   0.024939   0.005774   0.078063  -0.085678
   45  O  3 YZ    0.015070   0.009779  -0.005317  -0.111186   0.041314
   46  H  4  S   -0.259858  -0.093723   0.019461   0.024912   0.224773
   47  H  4  S   -0.731411   0.177869  -0.143761  -0.373111   0.098984
   48  F  5  S    0.003763   0.023811  -0.055172  -0.004820   0.004513
   49  F  5  S    0.113182   0.441744  -0.905468  -0.088152   0.064968
   50  F  5  X   -0.126741  -0.137043   0.556183  -0.131586  -0.360366
   51  F  5  Y    0.023337   0.163880  -0.335654  -0.434816  -0.481055
   52  F  5  Z    0.119732  -0.258867  -0.259784   0.471746  -0.409503
   53  F  5  S   -0.013516  -1.079106   2.086739   0.152425  -0.188365
   54  F  5  X    0.233087   0.060130  -0.668327   0.144418   0.460459
   55  F  5  Y   -0.034952  -0.189743   0.401460   0.540599   0.625806
   56  F  5  Z   -0.082733   0.245955   0.293588  -0.610375   0.540683
   57  F  5 XX    0.114353   0.116943  -0.358646  -0.053120  -0.045421
   58  F  5 YY    0.071325   0.191107  -0.447933  -0.062584   0.090021
   59  F  5 ZZ   -0.011795   0.282661  -0.473787   0.003737   0.040974
   60  F  5 XY    0.027673  -0.014515  -0.066920   0.010983  -0.034265
   61  F  5 XZ   -0.022928   0.043722   0.010271  -0.003658  -0.018189
   62  F  5 YZ    0.002982  -0.038515  -0.002837   0.060542   0.001276
   63  H  6  S    0.273820   0.084428  -0.197684  -0.072322  -0.019867
   64  H  6  S   -0.118770  -0.901459  -0.703745  -0.409106  -0.234507
   65  H  7  S    0.188744  -0.185168  -0.050740  -0.181932   0.064769
   66  H  7  S    0.447148  -0.091582   0.079202  -0.364402   0.186273

                     41         42         43         44         45
                    1.4022     1.4454     1.4779     1.6414     1.7503
                     A          A          A          A          A   
    1  C  1  S   -0.029732  -0.010781  -0.011912  -0.016124  -0.030289
    2  C  1  S   -0.303511  -0.269808  -0.094564  -0.378280  -0.067071
    3  C  1  X   -0.004085  -0.036908  -0.009331  -0.172734   0.041717
    4  C  1  Y    0.076281  -0.114975  -0.065709   0.022502   0.045427
    5  C  1  Z   -0.073449   0.035967  -0.000425  -0.001323   0.027603
    6  C  1  S    1.227302   1.075636   0.913599   0.901902   0.591592
    7  C  1  X    0.323350   0.310107   0.932523   1.103232   0.338758
    8  C  1  Y   -0.183132   0.197123   0.240543  -0.345090  -0.327744
    9  C  1  Z    0.594925   0.175106  -0.159943   0.122274   0.209245
   10  C  1 XX    0.005100  -0.196383  -0.214471   0.263477  -0.011996
   11  C  1 YY   -0.090620   0.374067   0.257752  -0.395928  -0.029983
   12  C  1 ZZ    0.051118  -0.163796  -0.031007   0.104476  -0.013875
   13  C  1 XY    0.121018  -0.062122  -0.061464   0.140836  -0.012631
   14  C  1 XZ   -0.472426   0.022458  -0.108755   0.082971   0.024887
   15  C  1 YZ    0.048708  -0.033167   0.213063  -0.072903  -0.147079
   16  C  2  S    0.008968  -0.001892  -0.000922  -0.004522  -0.013109
   17  C  2  S    0.004965   0.088821   0.259597  -0.067284  -0.190549
   18  C  2  X    0.010183   0.010223  -0.050770   0.031267   0.038652
   19  C  2  Y    0.040186  -0.125603  -0.031384  -0.018526   0.165620
   20  C  2  Z    0.059752  -0.126803   0.007931  -0.029407  -0.004865
   21  C  2  S   -0.479151  -0.201700  -2.597837  -1.587005   0.203426
   22  C  2  X    0.266034   0.782126  -0.733793  -1.824978  -0.148248
   23  C  2  Y    0.150365   0.221821   0.618147   1.130241   0.464230
   24  C  2  Z   -0.134445   0.073832   0.198436  -0.061296  -0.155162
   25  C  2 XX   -0.029006   0.188625  -0.010534  -0.150375  -0.162888
   26  C  2 YY   -0.019241  -0.204980   0.005370   0.006190   0.446131
   27  C  2 ZZ    0.060483   0.014276  -0.027684   0.080238  -0.253154
   28  C  2 XY   -0.047391  -0.053669  -0.021516   0.295586  -0.168326
   29  C  2 XZ    0.189128   0.425847  -0.110364   0.173293   0.049396
   30  C  2 YZ    0.200121  -0.397138   0.073524  -0.210271  -0.023721
   31  O  3  S    0.001350   0.024457  -0.053961  -0.065960  -0.001802
   32  O  3  S    0.045088   0.259708  -1.151169  -0.849209  -0.031885
   33  O  3  X   -0.023010   0.038294   0.348208  -0.054568   0.007579
   34  O  3  Y    0.032170   0.030097  -0.014870  -0.045332   0.155262
   35  O  3  Z   -0.025452  -0.011845   0.023492  -0.056891  -0.016149
   36  O  3  S   -0.111952  -0.929314   3.155179   3.167352   0.151292
   37  O  3  X    0.033107   0.247847  -1.212748  -0.919878  -0.070325
   38  O  3  Y   -0.047153  -0.227270   0.154396   0.199228  -0.221396
   39  O  3  Z    0.007070  -0.178533  -0.001214   0.097519   0.042960
   40  O  3 XX    0.020821   0.072456  -0.390047  -0.471073   0.178779
   41  O  3 YY   -0.015257   0.054687  -0.244921   0.124157   0.274557
   42  O  3 ZZ    0.028678   0.089628  -0.204343  -0.262657  -0.452185
   43  O  3 XY    0.026912  -0.075754   0.079340  -0.160047   0.474218
   44  O  3 XZ   -0.086211  -0.415694   0.089238  -0.217328  -0.172688
   45  O  3 YZ    0.078610   0.019472  -0.014541  -0.005073  -0.309344
   46  H  4  S    0.102925   0.024089   0.094751  -0.179385  -0.494980
   47  H  4  S   -0.045048  -0.048698   0.095158  -0.401481  -0.115315
   48  F  5  S   -0.000642  -0.007154  -0.011768   0.002776   0.001838
   49  F  5  S   -0.013201  -0.095595  -0.097049   0.135995  -0.001566
   50  F  5  X   -0.018491  -0.004980   0.179598   0.227967   0.023280
   51  F  5  Y   -0.184615   0.014491   0.286462   0.168431  -0.006733
   52  F  5  Z    0.437448   0.006828   0.051019   0.062655   0.038622
   53  F  5  S    0.002228   0.171293   0.345846  -0.064858   0.052575
   54  F  5  X    0.020368   0.005933  -0.270060  -0.365786  -0.039141
   55  F  5  Y    0.291250  -0.060806  -0.538044  -0.286820   0.000110
   56  F  5  Z   -0.726405  -0.031046  -0.101801  -0.116264  -0.077483
   57  F  5 XX   -0.057723   0.069816   0.224275  -0.062204   0.121081
   58  F  5 YY    0.091259  -0.155121  -0.280121   0.292752   0.034017
   59  F  5 ZZ   -0.047700  -0.036371  -0.086182  -0.093771  -0.128702
   60  F  5 XY   -0.103001   0.134798   0.201547  -0.110033   0.079382
   61  F  5 XZ    0.327761  -0.017589   0.137463   0.001395  -0.140490
   62  F  5 YZ   -0.236615  -0.058327  -0.078734   0.100268  -0.162397
   63  H  6  S   -0.144354   0.085060  -0.090007   0.032346  -0.292561
   64  H  6  S   -0.077052  -0.182003  -0.514805  -0.424858  -0.158823
   65  H  7  S   -0.161611  -0.239007  -0.004677  -0.073152  -0.221527
   66  H  7  S   -0.389942  -0.051563   0.283012  -0.090784  -0.147412

                     46         47         48         49         50
                    1.7876     1.7947     1.8168     1.8365     1.9184
                     A          A          A          A          A   
    1  C  1  S   -0.052821  -0.026411  -0.017641  -0.030099  -0.015973
    2  C  1  S   -0.497012  -0.187906  -0.216667  -0.099013  -0.069188
    3  C  1  X   -0.052064  -0.060569  -0.121713   0.055089  -0.204186
    4  C  1  Y    0.028550  -0.028034  -0.003541   0.138856  -0.039701
    5  C  1  Z    0.051747  -0.003890   0.003244   0.061251   0.066532
    6  C  1  S    1.974213   0.512438   0.370253   0.991334  -0.676839
    7  C  1  X    0.969926   0.337064   1.290025   1.656707   0.831848
    8  C  1  Y   -0.380589  -0.136709  -0.038851  -0.660755  -0.854650
    9  C  1  Z    0.590574   0.305747  -0.253296   0.318009  -0.041356
   10  C  1 XX   -0.017361  -0.032527   0.044448   0.129942  -0.036521
   11  C  1 YY    0.050470   0.026666   0.119104  -0.190171   0.168854
   12  C  1 ZZ   -0.066390  -0.070592  -0.217103   0.052273  -0.246823
   13  C  1 XY   -0.017079   0.051505   0.209623  -0.043532   0.088016
   14  C  1 XZ    0.147491   0.196926  -0.056188   0.160842  -0.062846
   15  C  1 YZ   -0.289332   0.139947   0.031362  -0.045989  -0.171372
   16  C  2  S    0.011235  -0.016335  -0.007031   0.011283  -0.013357
   17  C  2  S    0.049284  -0.203448  -0.119768   0.128343  -0.278251
   18  C  2  X    0.018516   0.046154   0.033034  -0.012727   0.009883
   19  C  2  Y    0.032137   0.129090   0.103760   0.106919   0.029228
   20  C  2  Z    0.004992  -0.019035   0.038729  -0.006133   0.077300
   21  C  2  S   -1.371496   0.343178  -0.209857  -1.419128   0.777688
   22  C  2  X   -0.201275   0.253689   0.586991  -0.480821  -0.365855
   23  C  2  Y    0.601671  -0.150703  -0.238676   1.363263  -0.677687
   24  C  2  Z   -0.091227  -0.269334   0.197979  -0.222528  -0.043429
   25  C  2 XX   -0.085130   0.031383   0.144319  -0.240462   0.058448
   26  C  2 YY   -0.007290   0.135783   0.020396   0.183680  -0.055491
   27  C  2 ZZ    0.114155  -0.202226  -0.253979   0.078852  -0.000982
   28  C  2 XY    0.020853  -0.019277   0.062531  -0.174446   0.196721
   29  C  2 XZ    0.076307   0.159183  -0.096473   0.148273   0.063398
   30  C  2 YZ    0.133405   0.146469   0.035232   0.044034   0.263746
   31  O  3  S   -0.017438   0.009899   0.010186  -0.027521   0.001153
   32  O  3  S   -0.263420   0.104744   0.130524  -0.311925  -0.003829
   33  O  3  X   -0.011137   0.012442   0.022084  -0.024877  -0.051419
   34  O  3  Y    0.032096   0.055919  -0.009113   0.144166  -0.034244
   35  O  3  Z    0.010340  -0.040168   0.044091  -0.052881   0.023240
   36  O  3  S    0.966473  -0.456219  -0.573705   1.353920  -0.036174
   37  O  3  X   -0.304864   0.145714   0.200346  -0.436247   0.131457
   38  O  3  Y   -0.028551  -0.121014  -0.067630  -0.227074   0.110070
   39  O  3  Z    0.013848   0.079692  -0.104003   0.127565  -0.038805
   40  O  3 XX   -0.129119   0.110805   0.004972  -0.059219  -0.105053
   41  O  3 YY   -0.102166   0.167329  -0.007005  -0.585316   0.449433
   42  O  3 ZZ    0.075864  -0.198362   0.058380   0.435111  -0.328303
   43  O  3 XY   -0.038963   0.162230  -0.181406   0.123440  -0.129357
   44  O  3 XZ    0.165365   0.050080   0.064791  -0.158295   0.044007
   45  O  3 YZ    0.387413   0.715369  -0.119971  -0.094361  -0.178171
   46  H  4  S    0.037113  -0.113755   0.222127  -0.389602   0.245459
   47  H  4  S   -0.088165   0.060442   0.041563  -0.278795   0.146540
   48  F  5  S   -0.003663  -0.007006  -0.054652  -0.042820  -0.042494
   49  F  5  S   -0.074033  -0.107492  -1.006944  -0.932011  -0.807808
   50  F  5  X    0.034025   0.006362  -0.141939  -0.131637  -0.104812
   51  F  5  Y   -0.005376  -0.018469   0.119606   0.169385   0.057561
   52  F  5  Z    0.126873   0.045923  -0.013004   0.103248   0.045946
   53  F  5  S    0.226008   0.279541   2.374403   2.237879   2.024318
   54  F  5  X   -0.063450   0.033080   0.464462   0.361356   0.400712
   55  F  5  Y   -0.007949   0.001164  -0.340009  -0.382086  -0.204077
   56  F  5  Z   -0.232770  -0.097294   0.009253  -0.211686  -0.101402
   57  F  5 XX   -0.062562   0.040389  -0.496302  -0.506481  -0.484363
   58  F  5 YY   -0.065030   0.011772   0.238847  -0.344896  -0.631181
   59  F  5 ZZ    0.066544  -0.152889  -0.747490  -0.031662   0.355602
   60  F  5 XY   -0.009190   0.141866   0.433391   0.080684   0.002748
   61  F  5 XZ   -0.534253   0.141305  -0.058784   0.061242   0.027032
   62  F  5 YZ   -0.489171   0.415571  -0.113327   0.241489   0.165951
   63  H  6  S   -0.225676  -0.197344  -0.166127  -0.250670  -0.202174
   64  H  6  S   -0.387734  -0.280857  -0.620772  -0.468458  -0.687066
   65  H  7  S   -0.552740  -0.107105   0.074364  -0.245837  -0.195615
   66  H  7  S   -0.349732  -0.109662   0.110193  -0.103739  -0.032330

                     51         52         53         54         55
                    1.9826     2.0583     2.0919     2.1589     2.2077
                     A          A          A          A          A   
    1  C  1  S   -0.078759   0.005417  -0.000706   0.033518  -0.034162
    2  C  1  S   -0.964162  -0.219116   0.172897   0.299818  -0.146056
    3  C  1  X    0.027600  -0.134645   0.064314  -0.406027  -0.000588
    4  C  1  Y   -0.079966  -0.167588   0.048837  -0.074233   0.049162
    5  C  1  Z    0.050491  -0.157318  -0.035660  -0.002888  -0.040816
    6  C  1  S    3.660904  -0.935974  -0.925322  -1.580963   1.272435
    7  C  1  X    0.195905  -0.797487   0.264567  -0.597672   0.599529
    8  C  1  Y    0.881602   0.003614  -0.258634  -0.366377   0.432791
    9  C  1  Z    0.847545  -0.124834  -0.154204  -0.038924  -0.212942
   10  C  1 XX    0.113642   0.412531  -0.010705  -0.266447   0.016901
   11  C  1 YY    0.185047  -0.123056   0.075243  -0.125550   0.300290
   12  C  1 ZZ   -0.324737  -0.436491  -0.142515   0.401684  -0.371071
   13  C  1 XY    0.057927  -0.239888   0.254258   0.498467   0.269498
   14  C  1 XZ    0.020474  -0.003998   0.126374   0.110775  -0.062045
   15  C  1 YZ   -0.220424   0.194610   0.199977   0.003159  -0.482120
   16  C  2  S    0.001814  -0.036507  -0.053317  -0.023255   0.013465
   17  C  2  S    0.082816  -0.174686  -0.651766  -0.215654   0.073134
   18  C  2  X    0.111336  -0.065459   0.191576   0.005721   0.215115
   19  C  2  Y    0.086052   0.017367   0.151421   0.001324   0.117981
   20  C  2  Z    0.071424  -0.057367  -0.013055  -0.029229   0.159210
   21  C  2  S   -1.915652   1.476669   1.280494   1.618283  -1.185125
   22  C  2  X    0.917121  -0.235465  -0.725328  -0.542633   0.065751
   23  C  2  Y    0.338527  -0.843958   0.036877  -0.481633   0.542289
   24  C  2  Z   -0.119107  -0.063138  -0.124687  -0.188534   0.362994
   25  C  2 XX    0.129763  -0.105032   0.465964  -0.080410  -0.170188
   26  C  2 YY   -0.000589   0.488994  -0.077107   0.272684   0.164409
   27  C  2 ZZ   -0.254036  -0.413638  -0.592174  -0.276775  -0.054464
   28  C  2 XY   -0.124593   0.193038  -0.166076   0.379778   0.147738
   29  C  2 XZ    0.116959  -0.055398  -0.058905   0.047307   0.085349
   30  C  2 YZ    0.382874  -0.038853  -0.037435   0.170016  -0.555725
   31  O  3  S    0.005805  -0.000584   0.011638  -0.003426  -0.007166
   32  O  3  S   -0.022081   0.324672  -0.357397   0.189217  -0.017185
   33  O  3  X    0.107973  -0.130350   0.286326  -0.128539  -0.082523
   34  O  3  Y   -0.041614  -0.035294  -0.062656  -0.027645   0.061818
   35  O  3  Z   -0.007979  -0.022355  -0.038785  -0.025891   0.073820
   36  O  3  S   -0.143124  -0.773896   0.481592  -0.316283   0.345265
   37  O  3  X   -0.063232   0.373187  -0.234128   0.199516  -0.103967
   38  O  3  Y    0.017060   0.192183   0.026410   0.093710  -0.143034
   39  O  3  Z    0.021439   0.060788   0.084199   0.081866  -0.249896
   40  O  3 XX   -0.034643  -0.121226   0.128315   0.105859   0.054074
   41  O  3 YY   -0.175957   0.024176  -0.225638  -0.215789  -0.153539
   42  O  3 ZZ    0.180158   0.182631  -0.034603   0.182743   0.119522
   43  O  3 XY   -0.195313  -0.271932   0.065232  -0.031226   0.195196
   44  O  3 XZ    0.011081  -0.119689  -0.106823  -0.127861   0.559755
   45  O  3 YZ   -0.287003   0.101917   0.054840  -0.060673  -0.000140
   46  H  4  S    0.138675  -0.246769  -0.231494  -0.073565  -0.148845
   47  H  4  S    0.068381   0.218414  -0.242249  -0.065387  -0.014912
   48  F  5  S    0.045155   0.031223  -0.025808  -0.020648   0.002441
   49  F  5  S    0.841717   0.020207  -0.028276   0.374363   0.154831
   50  F  5  X    0.114578  -0.214993   0.180347   0.224989   0.081686
   51  F  5  Y   -0.067291   0.080513   0.114049  -0.218943   0.018560
   52  F  5  Z    0.105354  -0.052564  -0.010441  -0.025200  -0.072923
   53  F  5  S   -2.177940  -0.445641   0.439625  -0.373962  -0.297579
   54  F  5  X   -0.517990   0.105168  -0.139839  -0.141800  -0.172542
   55  F  5  Y    0.252534   0.025788  -0.303804   0.293653  -0.087770
   56  F  5  Z   -0.199125   0.136771   0.011970   0.022120   0.163801
   57  F  5 XX    0.517722   0.373272  -0.464644   0.208928   0.009800
   58  F  5 YY    0.266941  -0.296213   0.069343  -0.280026   0.053494
   59  F  5 ZZ   -0.010495   0.071535   0.230133   0.207475   0.053427
   60  F  5 XY   -0.130160  -0.073679  -0.431001   0.371769  -0.098995
   61  F  5 XZ   -0.147779   0.138261  -0.011816  -0.004368   0.383224
   62  F  5 YZ    0.390667  -0.277760  -0.171564  -0.098625  -0.017623
   63  H  6  S   -0.260336  -0.288229  -0.026934   0.393030   0.035086
   64  H  6  S    0.235537   0.492540  -0.197381   0.058215  -0.197592
   65  H  7  S   -0.482268   0.435732   0.212160   0.006124  -0.215358
   66  H  7  S   -0.475106  -0.283755   0.033860   0.057463   0.191609

                     56         57         58         59         60
                    2.2788     2.4138     2.5351     2.6782     2.7792
[...]
   40  O  3 XX   -0.006183   0.000278  -0.003412   0.002355  -0.003388
   41  O  3 YY    0.008723   0.010053   0.025435  -0.001024   0.001175
   42  O  3 ZZ    0.007679   0.006924   0.011917  -0.008239  -0.012049
   43  O  3 XY   -0.005524   0.000360   0.003274   0.012869   0.000106
   44  O  3 XZ   -0.006165   0.000242   0.004631   0.000336  -0.001083
   45  O  3 YZ    0.001851   0.009310  -0.000359  -0.005319   0.000461
   46  H  4  S    0.015893   0.000186  -0.072133   0.114175   0.000732
   47  H  4  S    0.039036  -0.000359  -0.499137   1.648355  -0.935498
   48  F  5  S    0.002874  -0.009941  -0.020483  -0.033280  -0.004646
   49  F  5  S   -0.019248   0.032088   0.051529   0.050114  -0.017170
   50  F  5  X   -0.078550   0.067996   0.114012   0.125647  -0.027148
   51  F  5  Y    0.135930   0.015534  -0.127576  -0.074129   0.022888
   52  F  5  Z    0.225499   0.054163  -0.048599  -0.012197  -0.086235
   53  F  5  S    0.008970   0.047400   0.133436   0.312243   0.127086
   54  F  5  X   -0.057877   0.054152   0.117565   0.165809   0.016026
   55  F  5  Y    0.112137   0.008278  -0.135391  -0.092031   0.025378
   56  F  5  Z    0.181742   0.048742  -0.039446  -0.016572  -0.116701
   57  F  5 XX   -0.006378   0.003589  -0.000321  -0.010071  -0.006596
   58  F  5 YY   -0.004676   0.003719  -0.003333  -0.014517  -0.010290
   59  F  5 ZZ   -0.005307   0.002617   0.004575  -0.012181  -0.011697
   60  F  5 XY    0.000334  -0.001998   0.006464  -0.000730  -0.004016
   61  F  5 XZ   -0.001834  -0.000458   0.005143   0.003236   0.009251
   62  F  5 YZ    0.000556   0.003470  -0.001155  -0.000451   0.000119
   63  H  6  S    0.104946   0.136964   0.244723   0.054232   0.069789
   64  H  6  S    0.207719   0.341823   1.104998  -0.226860   0.015837
   65  H  7  S   -0.067164  -0.124876   0.016796  -0.003321  -0.054556
   66  H  7  S   -0.100211  -0.322783   0.441821  -0.509733  -1.901598

                     21         22         23         24         25
                    0.1601     0.2496     0.3387     0.5172     0.5286
                     A          A          A          A          A   
    1  C  1  S    0.053807   0.087012   0.092325   0.010331   0.004092
    2  C  1  S   -0.087230  -0.141020  -0.133759   0.111198   0.329887
    3  C  1  X    0.298320   0.185257  -0.099427   0.258634  -0.094456
    4  C  1  Y   -0.172114  -0.205556  -0.247207   0.539549   0.517490
    5  C  1  Z   -0.037867   0.014349   0.232544   0.186192  -0.119979
    6  C  1  S   -0.226780  -1.275262  -2.286533  -0.007982  -0.247806
    7  C  1  X    0.923679   0.427844  -2.014924  -0.244521  -0.165371
    8  C  1  Y   -0.147539  -0.986749  -1.121011  -0.594359  -0.929847
    9  C  1  Z    0.008364   0.162301   0.248812  -0.072737   0.220292
   10  C  1 XX    0.022036   0.014666   0.027342   0.011410   0.003847
   11  C  1 YY   -0.014525   0.017587   0.002502   0.012198   0.053407
   12  C  1 ZZ   -0.007902  -0.022774  -0.010344  -0.008677  -0.026279
   13  C  1 XY    0.007221  -0.003993   0.019780   0.004122   0.040083
   14  C  1 XZ    0.015694   0.007776   0.007764   0.025424  -0.029782
   15  C  1 YZ   -0.015775  -0.003101   0.002777   0.004920  -0.002047
   16  C  2  S   -0.085958   0.001312  -0.111883   0.038267   0.021678
   17  C  2  S    0.169945   0.066462   0.077496   0.233747   0.377365
   18  C  2  X    0.058968  -0.317334  -0.058609   0.010112  -0.340805
   19  C  2  Y    0.040695   0.028618  -0.397724  -0.096699  -0.120145
   20  C  2  Z   -0.048609   0.016952   0.014451   0.732008  -0.559828
   21  C  2  S    0.910091  -0.357005   2.939415  -0.262604  -0.121347
   22  C  2  X    0.634765  -1.930941  -0.524292   0.015647   0.237544
   23  C  2  Y    0.249070   0.383627  -2.111094   0.417625   0.213528
   24  C  2  Z   -0.152873   0.154643  -0.213236  -0.855544   0.632493
   25  C  2 XX   -0.039182  -0.015678  -0.023865   0.055927   0.063913
   26  C  2 YY    0.024321   0.011453  -0.018266   0.070431   0.065434
   27  C  2 ZZ    0.008999  -0.011797   0.023595  -0.038398  -0.021452
   28  C  2 XY    0.015227  -0.021699  -0.017048   0.048183   0.039403
   29  C  2 XZ    0.006878  -0.003576  -0.003586  -0.005199  -0.015847
   30  C  2 YZ   -0.009380  -0.003432  -0.014309  -0.025901   0.024633
   31  O  3  S    0.032453  -0.080687   0.061368  -0.012116  -0.005281
   32  O  3  S   -0.070702   0.056340  -0.076471   0.105865   0.051965
   33  O  3  X    0.166316  -0.045468   0.129300  -0.037808  -0.037968
   34  O  3  Y   -0.190940   0.219514  -0.023470  -0.045193   0.025506
   35  O  3  Z   -0.080233   0.020112   0.015523   0.053164  -0.051840
   36  O  3  S   -0.435273   1.593127  -1.206537   0.035716   0.006665
   37  O  3  X    0.249027  -0.523585   0.661629  -0.103618  -0.065006
   38  O  3  Y   -0.403644   0.495699   0.020467  -0.024199  -0.016945
   39  O  3  Z   -0.086601   0.143739  -0.049312   0.110808  -0.044325
   40  O  3 XX    0.006731  -0.011355   0.011242   0.016996   0.021531
   41  O  3 YY   -0.003424  -0.048620   0.000184   0.022178   0.010903
   42  O  3 ZZ    0.007201  -0.055268   0.039939   0.022798  -0.010858
   43  O  3 XY    0.005963  -0.013264  -0.014396   0.004205   0.009562
   44  O  3 XZ   -0.001424  -0.010599   0.000222  -0.042890   0.025836
   45  O  3 YZ   -0.009461  -0.001867  -0.001749   0.017843  -0.019074
   46  H  4  S    0.020639   0.059928  -0.140500   0.226374   0.239645
   47  H  4  S   -0.784864  -0.177054   1.004967  -0.274718  -0.196961
   48  F  5  S   -0.069732  -0.055512   0.017211  -0.001589   0.001368
   49  F  5  S    0.089892   0.011537   0.061220   0.008466   0.032541
   50  F  5  X    0.238234   0.166968   0.134563   0.036771  -0.036131
   51  F  5  Y   -0.006929  -0.045967   0.110535   0.030901   0.160712
   52  F  5  Z    0.099066   0.049020  -0.035273   0.034101  -0.083207
   53  F  5  S    0.737188   0.757505  -0.488838  -0.027956   0.030046
   54  F  5  X    0.370555   0.339216   0.017882   0.018530   0.053849
   55  F  5  Y   -0.079221  -0.014733   0.215449   0.065786   0.091984
   56  F  5  Z    0.128556   0.088325  -0.095277  -0.000405  -0.009797
   57  F  5 XX   -0.021968  -0.048747   0.008367  -0.003969   0.056833
   58  F  5 YY   -0.031056  -0.037717   0.051949  -0.007692   0.007536
   59  F  5 ZZ   -0.032126  -0.054066   0.040258   0.004083   0.003205
   60  F  5 XY   -0.009172   0.006986   0.006892   0.028851  -0.012419
   61  F  5 XZ   -0.001433   0.000378  -0.001805  -0.004159   0.025788
   62  F  5 YZ   -0.004116   0.001339  -0.005197  -0.002268   0.002016
   63  H  6  S   -0.083464   0.042180  -0.116524  -0.079091  -0.025606
   64  H  6  S   -0.790067  -0.079387   0.634374   0.065074   0.125314
   65  H  7  S    0.045680   0.000556  -0.057319   0.038507  -0.143297
   66  H  7  S    0.247258  -0.039811  -0.446022   0.089543  -0.187719

                     26
                    0.5521
                     A   
    1  C  1  S   -0.012555
    2  C  1  S   -0.088849
    3  C  1  X    0.688874
    4  C  1  Y    0.099365
    5  C  1  Z    0.073180
    6  C  1  S    0.114606
    7  C  1  X   -0.927516
    8  C  1  Y    0.038640
    9  C  1  Z   -0.130073
   10  C  1 XX    0.052135
   11  C  1 YY   -0.051843
   12  C  1 ZZ    0.011536
   13  C  1 XY   -0.065987
   14  C  1 XZ    0.012014
   15  C  1 YZ    0.008016
   16  C  2  S    0.018157
   17  C  2  S    0.214580
   18  C  2  X    0.665703
   19  C  2  Y    0.015162
   20  C  2  Z   -0.365764
   21  C  2  S   -0.297240
   22  C  2  X   -0.681816
   23  C  2  Y    0.198395
   24  C  2  Z    0.527080
   25  C  2 XX   -0.025227
   26  C  2 YY    0.061344
   27  C  2 ZZ   -0.008059
   28  C  2 XY    0.097385
   29  C  2 XZ    0.001153
   30  C  2 YZ    0.001105
   31  O  3  S    0.004126
   32  O  3  S   -0.017605
   33  O  3  X    0.143202
   34  O  3  Y   -0.107854
   35  O  3  Z   -0.027155
   36  O  3  S    0.336346
   37  O  3  X   -0.091780
   38  O  3  Y    0.042486
   39  O  3  Z   -0.024192
   40  O  3 XX    0.053031
   41  O  3 YY    0.016776
   42  O  3 ZZ   -0.036981
   43  O  3 XY   -0.094714
   44  O  3 XZ   -0.006717
   45  O  3 YZ    0.011024
   46  H  4  S    0.102843
   47  H  4  S   -0.203321
   48  F  5  S    0.011424
   49  F  5  S   -0.006974
   50  F  5  X    0.160976
   51  F  5  Y   -0.090320
   52  F  5  Z    0.011355
   53  F  5  S   -0.401280
   54  F  5  X   -0.125068
   55  F  5  Y    0.039347
   56  F  5  Z   -0.028590
   57  F  5 XX   -0.073873
   58  F  5 YY    0.013358
   59  F  5 ZZ    0.024888
   60  F  5 XY    0.051392
   61  F  5 XZ   -0.026265
   62  F  5 YZ    0.021220
   63  H  6  S   -0.182210
   64  H  6  S    0.584106
   65  H  7  S   -0.069430
   66  H  7  S   -0.052665

     ---------------------------------------------------------------------
     PROPERTIES FOR THE B3LYP    DFT FUNCTIONAL (RHF  TYPE) DENSITY MATRIX
     ---------------------------------------------------------------------

          -----------------
          ENERGY COMPONENTS
          -----------------

         WAVEFUNCTION NORMALIZATION =       1.0000000000

                ONE ELECTRON ENERGY =    -574.1435720003
                TWO ELECTRON ENERGY =     206.7930450832
           NUCLEAR REPULSION ENERGY =     114.5359629216
                                      ------------------
                       TOTAL ENERGY =    -252.8145639955

 ELECTRON-ELECTRON POTENTIAL ENERGY =     206.7930450832
  NUCLEUS-ELECTRON POTENTIAL ENERGY =    -825.1049139035
   NUCLEUS-NUCLEUS POTENTIAL ENERGY =     114.5359629216
                                      ------------------
             TOTAL POTENTIAL ENERGY =    -503.7759058986
               TOTAL KINETIC ENERGY =     250.9613419032
                 VIRIAL RATIO (V/T) =       2.0073844923

          ---------------------------------------
          MULLIKEN AND LOWDIN POPULATION ANALYSES
          ---------------------------------------

     ATOMIC MULLIKEN POPULATION IN EACH MOLECULAR ORBITAL

                      1          2          3          4          5

                  2.000000   2.000000   2.000000   2.000000   2.000000

    1            -0.000076   0.000051   0.000802   1.998602   0.181511
    2            -0.000010  -0.000640   1.999387   0.001207   0.014426
    3            -0.000000   2.000706  -0.000614  -0.000002   0.002607
    4            -0.000000  -0.000007   0.000371   0.000002   0.000093
    5             2.000087  -0.000000  -0.000000  -0.000512   1.800407
    6            -0.000000  -0.000109   0.000034   0.000172  -0.000204
    7            -0.000001   0.000000   0.000020   0.000531   0.001160

                      6          7          8          9         10

                  2.000000   2.000000   2.000000   2.000000   2.000000

    1             0.075377   0.857428   0.225913   0.446354   0.619044
    2             0.386972   0.604042   0.825866   0.215869   0.209421
    3             1.505448   0.251263   0.335212   0.335560   0.204821
    4            -0.003199   0.029491   0.369556   0.027072   0.001614
    5             0.008419   0.174247   0.067391   0.859267   0.663048
    6             0.025924   0.008410   0.103734   0.061021   0.007158
    7             0.001059   0.075119   0.072328   0.054857   0.294894

                     11         12         13         14         15

                  2.000000   2.000000   2.000000   2.000000   2.000000

    1             0.120663   0.301115   0.045592   0.150465   0.231569
    2             0.424060   0.242797   0.268965   0.120460   0.297788
    3             1.044534   0.279463   0.748787   0.815712   0.433859
    4             0.100849   0.141360   0.001429   0.039124   0.105314
    5             0.270815   0.913098   0.919519   0.648182   0.703476
    6             0.025752   0.107055   0.015217   0.046622   0.143941
    7             0.013326   0.015111   0.000490   0.179435   0.084053

                     16

                  2.000000

    1             0.884757
    2             0.161334
    3             0.508511
    4             0.003474
    5             0.261727
    6             0.156492
    7             0.023706

               ----- POPULATIONS IN EACH AO -----
                             MULLIKEN      LOWDIN
              1  C  1  S      1.99191     1.97681
              2  C  1  S      0.68408     0.37124
              3  C  1  X      0.55660     0.49610
              4  C  1  Y      0.69872     0.63200
              5  C  1  Z      0.72705     0.65343
              6  C  1  S      0.62154     0.33856
              7  C  1  X      0.13988     0.24547
              8  C  1  Y      0.28825     0.44529
              9  C  1  Z      0.39237     0.49691
             10  C  1 XX      0.01304     0.18117
             11  C  1 YY     -0.01038     0.14816
             12  C  1 ZZ     -0.00364     0.15157
             13  C  1 XY      0.02068     0.04628
             14  C  1 XZ      0.01323     0.02844
             15  C  1 YZ      0.00582     0.01092
             16  C  2  S      1.99190     1.97576
             17  C  2  S      0.74080     0.38045
             18  C  2  X      0.71891     0.63549
             19  C  2  Y      0.77879     0.68081
             20  C  2  Z      0.45685     0.40618
             21  C  2  S      0.46754     0.31244
             22  C  2  X      0.10885     0.25996
             23  C  2  Y      0.14948     0.37231
             24  C  2  Z      0.31090     0.35560
             25  C  2 XX      0.00732     0.18690
             26  C  2 YY      0.02251     0.19298
             27  C  2 ZZ     -0.02637     0.11158
             28  C  2 XY      0.02329     0.04783
             29  C  2 XZ      0.01611     0.03328
             30  C  2 YZ      0.00507     0.00831
             31  O  3  S      1.99269     1.97650
             32  O  3  S      0.91887     0.73677
             33  O  3  X      0.98003     0.92256
             34  O  3  Y      0.91257     0.86340
             35  O  3  Z      0.95439     0.91426
             36  O  3  S      1.03050     0.47780
             37  O  3  X      0.51283     0.58258
             38  O  3  Y      0.53489     0.60796
             39  O  3  Z      0.62151     0.64752
             40  O  3 XX      0.00198     0.18188
             41  O  3 YY     -0.00096     0.18192
             42  O  3 ZZ     -0.01332     0.17335
             43  O  3 XY      0.01100     0.01818
             44  O  3 XZ      0.00806     0.01147
             45  O  3 YZ      0.00082     0.00177
             46  H  4  S      0.52604     0.48133
             47  H  4  S      0.29051     0.34841
             48  F  5  S      1.99322     1.97691
             49  F  5  S      0.94736     0.85336
             50  F  5  X      0.95387     0.89665
             51  F  5  Y      1.16985     1.13326
             52  F  5  Z      1.18396     1.14997
             53  F  5  S      0.96951     0.51970
             54  F  5  X      0.57993     0.62954
             55  F  5  Y      0.71671     0.75399
             56  F  5  Z      0.71895     0.75598
             57  F  5 XX      0.03056     0.17153
             58  F  5 YY      0.00820     0.16103
             59  F  5 ZZ      0.00814     0.16035
             60  F  5 XY      0.00404     0.00819
             61  F  5 XZ      0.00439     0.00929
             62  F  5 YZ      0.00049     0.00101
             63  H  6  S      0.38086     0.34117
             64  H  6  S      0.32036     0.34863
             65  H  7  S      0.51687     0.47529
             66  H  7  S      0.29921     0.34426

          ----- MULLIKEN ATOMIC OVERLAP POPULATIONS -----
          (OFF-DIAGONAL ELEMENTS NEED TO BE MULTIPLIED BY 2)

             1           2           3           4           5

    1    5.2023305
    2    0.3410941   4.9606455
    3   -0.1449749   0.3264313   8.2496437
    4   -0.0455083   0.3568691  -0.0390059   0.5283335
    5    0.2474341  -0.0326557   0.0015474   0.0002277   9.1054675
    6    0.1943267  -0.1244027   0.0719147   0.0140155  -0.0034261
    7    0.3444654  -0.0560383   0.0003092   0.0016127  -0.0294242

             6           7

    6    0.5606498
    7   -0.0118579   0.5670218

          TOTAL MULLIKEN AND LOWDIN ATOMIC POPULATIONS
       ATOM         MULL.POP.    CHARGE          LOW.POP.     CHARGE
    1 C             6.139168   -0.139168         6.222352   -0.222352
    2 C             5.771943    0.228057         5.959890    0.040110
    3 O             8.465865   -0.465865         8.297921   -0.297921
    4 H             0.816544    0.183456         0.829745    0.170255
    5 F             9.289171   -0.289171         9.180752   -0.180752
    6 H             0.701220    0.298780         0.689793    0.310207
    7 H             0.816089    0.183911         0.819546    0.180454

          -------------------------------
          BOND ORDER AND VALENCE ANALYSIS     BOND ORDER THRESHOLD=0.050
          -------------------------------

                   BOND                       BOND                       BOND
  ATOM PAIR DIST  ORDER      ATOM PAIR DIST  ORDER      ATOM PAIR DIST  ORDER
    1   2  1.422  1.218        1   3  2.191  0.147        1   5  1.369  0.950
    1   6  1.527  0.427        1   7  1.097  0.878        2   3  1.285  1.426
    2   4  1.092  0.909        3   6  1.287  0.398

                       TOTAL       BONDED        FREE
      ATOM            VALENCE     VALENCE     VALENCE
    1 C                 3.612       3.612      -0.000
    2 C                 3.627       3.627       0.000
    3 O                 2.015       2.015      -0.000
    4 H                 0.926       0.926      -0.000
    5 F                 1.048       1.048       0.000
    6 H                 0.893       0.893      -0.000
    7 H                 0.919       0.919       0.000

          ---------------------
          ELECTROSTATIC MOMENTS
          ---------------------

 POINT   1           X           Y           Z (BOHR)    CHARGE
                -0.195469   -0.198256   -0.209399       -0.00 (A.U.)
         DX          DY          DZ         /D/  (DEBYE)
     0.315840    0.745153    0.923871    1.228228
 ...... END OF PROPERTY EVALUATION ......
 STEP CPU TIME =     0.01 TOTAL CPU TIME =        480.9 (      8.0 MIN)
 TOTAL WALL CLOCK TIME=        485.1 SECONDS, CPU UTILIZATION IS    99.14%
  $VIB   
          IVIB=   0 IATOM=   0 ICOORD=   0 E=     -252.8145639955
 -2.651023743E-06-4.022166652E-06-3.049189679E-07-7.472316618E-06 4.646645576E-05
  2.137490989E-05 1.790041332E-05-6.188820066E-06-3.362878245E-06-1.483437533E-06
 -2.473811542E-05-1.359847406E-05 2.858776785E-06-2.719020521E-07 1.800711436E-06
 -8.860043490E-06-5.489474319E-06 2.001597688E-07-2.923687186E-07-5.755977251E-06
 -6.109509820E-06
  3.158396115E-01 7.451531958E-01 9.238705785E-01
 ......END OF GEOMETRY SEARCH......
 STEP CPU TIME =     0.01 TOTAL CPU TIME =        480.9 (      8.0 MIN)
 TOTAL WALL CLOCK TIME=        485.1 SECONDS, CPU UTILIZATION IS    99.14%
                998100  WORDS OF DYNAMIC MEMORY USED
 EXECUTION OF GAMESS TERMINATED NORMALLY Fri Oct 18 09:55:26 2019
 DDI: 263640 bytes (0.3 MB / 0 MWords) used by master data server.

 ----------------------------------------
 CPU timing information for all processes
 ========================================
 0: 469.808 + 11.111 = 480.919
 ----------------------------------------
 ddikick.x: exited gracefully.
----- accounting info -----
Files used on the master node crcfe02.crc.nd.edu were:
-rw-r--r-- 1 cdrisko campus      489 Oct 18 09:47 /afs/crc.nd.edu/user/c/cdrisko/TS-F_opt.F05
-rw-r--r-- 1 cdrisko campus   465533 Oct 18 09:55 /afs/crc.nd.edu/user/c/cdrisko/TS-F_opt.F07
-rw-r--r-- 1 cdrisko campus 25742288 Oct 18 09:55 /afs/crc.nd.edu/user/c/cdrisko/TS-F_opt.F08
-rw-r--r-- 1 cdrisko campus  2126800 Oct 18 09:55 /afs/crc.nd.edu/user/c/cdrisko/TS-F_opt.F10
-rw-r--r-- 1 cdrisko campus  2041032 Oct 18 09:55 /afs/crc.nd.edu/user/c/cdrisko/TS-F_opt.F22
Fri Oct 18 09:55:29 EDT 2019
0.457u 0.276s 8:08.82 0.1%	0+0k 0+16io 0pf+0w
