----- GAMESS execution script 'rungms' -----
This job is running on host crcfe02.crc.nd.edu
under operating system Linux at Fri Oct 18 10:26:25 EDT 2019
Available scratch disk space (Kbyte units) at beginning of the job is
Filesystem      1K-blocks  Used  Available Use% Mounted on
AFS            2147483647     0 2147483647   0% /afs
GAMESS temporary binary files will be written to /afs/crc.nd.edu/user/c/cdrisko
GAMESS supplementary output files will be written to /afs/crc.nd.edu/user/c/cdrisko/scr
Copying input file TS-F_vib.inp to your run's scratch directory...

 Distributed Data Interface kickoff program.
 Initiating 1 compute processes on 1 nodes to run the following command:
 /afs/crc.nd.edu/x86_64_linux/g/gamess/nov-2017/gamess/gamess.00.x TS-F_vib 

          ******************************************************
          *         GAMESS VERSION = 11 NOV 2017 (R3)         *
          *             FROM IOWA STATE UNIVERSITY             *
          * M.W.SCHMIDT, K.K.BALDRIDGE, J.A.BOATZ, S.T.ELBERT, *
          *   M.S.GORDON, J.H.JENSEN, S.KOSEKI, N.MATSUNAGA,   *
          *          K.A.NGUYEN, S.J.SU, T.L.WINDUS,           *
          *       TOGETHER WITH M.DUPUIS, J.A.MONTGOMERY       *
          *         J.COMPUT.CHEM.  14, 1347-1363(1993)        *
          **************** 64 BIT INTEL VERSION ****************

  SINCE 1993, STUDENTS AND POSTDOCS WORKING AT IOWA STATE UNIVERSITY
  AND ALSO IN THEIR VARIOUS JOBS AFTER LEAVING ISU HAVE MADE IMPORTANT
  CONTRIBUTIONS TO THE CODE:
     IVANA ADAMOVIC, CHRISTINE AIKENS, YURI ALEXEEV, POOJA ARORA,
     ANDREY ASADCHEV, ROB BELL, PRADIPTA BANDYOPADHYAY, JONATHAN BENTZ,
     BRETT BODE, KURT BRORSEN, CALEB CARLIN, GALINA CHABAN, WEI CHEN,
     CHEOL HO CHOI, PAUL DAY, ALBERT DEFUSCO, NUWAN DESILVA, TIM DUDLEY,
     DMITRI FEDOROV, ALEX FINDLATER, GRAHAM FLETCHER, MARK FREITAG,
     KURT GLAESEMANN, ANASTASIA GUININA,
     DAN KEMP, GRANT MERRILL, NORIYUKI MINEZAWA, JONATHAN MULLIN,
     TAKESHI NAGATA, SEAN NEDD, HEATHER NETZLOFF, BOSILJKA NJEGIC, RYAN OLSON,
     MIKE PAK, BUU PHAM,
     SPENCER PRUITT, LUKE ROSKOP, JIM SHOEMAKER, LYUDMILA SLIPCHENKO,
     TONY SMITH, SAROM SOK LEANG, JIE SONG, TETSUYA TAKETSUGU, SIMON WEBB,
     PENG XU, SOOHAENG YOO, FEDERICO ZAHARIEV

  ADDITIONAL CODE HAS BEEN PROVIDED BY COLLABORATORS IN OTHER GROUPS:
     IOWA STATE UNIVERSITY:
          JOE IVANIC, AARON WEST, LAIMUTIS BYTAUTAS, KLAUS RUEDENBERG
     UNIVERSITY OF TOKYO: KIMIHIKO HIRAO, TAKAHITO NAKAJIMA,
          TAKAO TSUNEDA, MUNEAKI KAMIYA, SUSUMU YANAGISAWA,
          KIYOSHI YAGI, MAHITO CHIBA, SEIKEN TOKURA, NAOAKI KAWAKAMI
     UNIVERSITY OF AARHUS: FRANK JENSEN
     UNIVERSITY OF IOWA: VISVALDAS KAIRYS, HUI LI
     NATIONAL INST. OF STANDARDS AND TECHNOLOGY: WALT STEVENS, DAVID GARMER
     UNIVERSITY OF PISA: BENEDETTA MENNUCCI, JACOPO TOMASI
     UNIVERSITY OF MEMPHIS: HENRY KURTZ, PRAKASHAN KORAMBATH
     UNIVERSITY OF ALBERTA: TOBY ZENG, MARIUSZ KLOBUKOWSKI
     UNIVERSITY OF NEW ENGLAND: MARK SPACKMAN
     MIE UNIVERSITY: HIROAKI UMEDA
     NAT. INST. OF ADVANCED INDUSTRIAL SCIENCE AND TECHNOLOGY: KAZUO KITAURA
     MICHIGAN STATE UNIVERSITY:
          KAROL KOWALSKI, MARTA WLOCH, JEFFREY GOUR, JESSE LUTZ,
          WEI LI, PIOTR PIECUCH
     UNIVERSITY OF SILESIA: MONIKA MUSIAL, STANISLAW KUCHARSKI
     FACULTES UNIVERSITAIRES NOTRE-DAME DE LA PAIX:
          OLIVIER QUINET, BENOIT CHAMPAGNE
     UNIVERSITY OF CALIFORNIA - SANTA BARBARA: BERNARD KIRTMAN
     INSTITUTE FOR MOLECULAR SCIENCE:
          KAZUYA ISHIMURA, MICHIO KATOUDA, AND SHIGERU NAGASE
     UNIVERSITY OF NOTRE DAME: ANNA POMOGAEVA, DAN CHIPMAN
     KYUSHU UNIVERSITY:
          HARUYUKI NAKANO,
          FENG LONG GU, JACEK KORCHOWIEC, MARCIN MAKOWSKI, AND YURIKO AOKI,
          HIROTOSHI MORI AND EISAKU MIYOSHI
     PENNSYLVANIA STATE UNIVERSITY:
          TZVETELIN IORDANOV, CHET SWALINA, JONATHAN SKONE,
          SHARON HAMMES-SCHIFFER
     WASEDA UNIVERSITY:
          MASATO KOBAYASHI, TOMOKO AKAMA, TSUGUKI TOUMA,
          TAKESHI YOSHIKAWA, YASUHIRO IKABATA, JUNJI SEINO,
          YUYA NAKAJIMA, HIROMI NAKAI
     NANJING UNIVERSITY: SHUHUA LI
     UNIVERSITY OF NEBRASKA:
          PEIFENG SU, DEJUN SI, NANDUN THELLAMUREGE, YALI WANG, HUI LI
     UNIVERSITY OF ZURICH: ROBERTO PEVERATI, KIM BALDRIDGE
     N. COPERNICUS UNIVERSITY AND JACKSON STATE UNIVERSITY:
          MARIA BARYSZ
     UNIVERSITY OF COPENHAGEN: Jimmy Kromann, CASPER STEINMANN
     TOKYO INSTITUTE OF TECHNOLOGY: HIROYA NAKATA
     NAGOYA UNIVERSITY: YOSHIO NISHIMOTO, STEPHAN IRLE
     MOSCOW STATE UNIVERSITY: VLADIMIR MIRONOV

 EXECUTION OF GAMESS BEGUN Fri Oct 18 10:26:25 2019

            ECHO OF THE FIRST FEW INPUT CARDS -
 INPUT CARD> $CONTRL SCFTYP= RHF RUNTYP=HESSIAN DFTTYP=B3LYP                                
 INPUT CARD>       ISPHER=1 MULT=1 COORD=CART $END                                          
 INPUT CARD> $SCF DIRSCF=.TRUE. $END                                                        
 INPUT CARD> $BASIS GBASIS=N31 NGAUSS=6 NDFUNC=1 $END                                       
 INPUT CARD> $FORCE METHOD=SEMINUM $END                                                     
 INPUT CARD> $DATA                                                                          
 INPUT CARD>C2H3OF                                                                          
 INPUT CARD>C1 1                                                                            
 INPUT CARD>C 6 0.00000000 0.00000000 0.00000000                                            
 INPUT CARD>C 6 1.03594561 0.97295056 -0.04147930                                           
 INPUT CARD>O 8 2.14718721 0.36023491 -0.24264331                                           
 INPUT CARD>H 1 1.01436261 2.06066763 0.05010898                                            
 INPUT CARD>F 9 -1.28769228 0.34410541 -0.31358854                                          
 INPUT CARD>H 1 0.03751390 -0.58487706 0.92734428                                           
 INPUT CARD>H 1 1.32363666 -0.60348078 -0.46513599                                          
 INPUT CARD> $END                                                                           
    1000000 WORDS OF MEMORY AVAILABLE


                    * * * WARNING * * *
 OLD KEYWORD COORD=CART SELECTED, AUTOMATICALLY CHANGED TO COORD=PRINAXIS.
 YOUR MOLECULE'S COORDINATES WILL BE CHANGED TO PRINCIPAL AXES BY
   A) TRANSLATION TO THE CENTER OF MASS, THEN
   B) ROTATION TO HAVE A DIAGONAL MOMENT OF INERTIA TENSOR.

 HOWEVER, NOTHING ELSE IN YOUR INPUT WILL BE ROTATED IN THE SAME WAY,
 SO IF YOU HAVE A $VEC, $VIB, $GRAD, $HESS, EFP PARTICLE COORDINATES,
 OR ANYTHING ELSE THAT DEPENDS ON THE INITIAL ORIENTATION, THAT DATA
 WILL NOT BE USED CORRECTLY IN THIS RUN.

 THE PURPOSE OF COORD=PRINAXIS IS TO BE USED ONCE, ONLY AT THE VERY
 BEGINNING OF A SERIES OF COMPUTATIONS, PERHAPS TO FIND THE SYMMETRY
 UNIQUE ATOMS FROM AN ARBITRARY INITIAL ORIENTATION.

 AFTER THE FIRST RUN, YOU SHOULD USE ONLY COORD=UNIQUE, TO ENSURE THAT
 THE COORDINATES WHICH YOU READ IN ARE THE COORDINATES THAT ARE USED.


     BASIS OPTIONS
     -------------
     GBASIS=N31          IGAUSS=       6      POLAR=POPN31  
     NDFUNC=       1     NFFUNC=       0     DIFFSP=       F
     NPFUNC=       0      DIFFS=       F     BASNAM=        


     RUN TITLE
     ---------
 C2H3OF                                                                          

 THE POINT GROUP OF THE MOLECULE IS C1      
 THE ORDER OF THE PRINCIPAL AXIS IS     1

 THE MOMENTS OF INERTIA ARE (AMU-ANGSTROM**2)
 IXX=    12.488   IYY=   113.983   IZZ=   121.858

 ATOM      ATOMIC                      COORDINATES (BOHR)
           CHARGE         X                   Y                   Z
 C           6.0    -0.8001817025       -0.7122348332        0.2867600636
 C           6.0     1.2850574727        0.9813230930        0.2350256824
 O           8.0     3.2864393887       -0.3094024890       -0.2376429055
 H           1.0     1.3985589791        3.0256984231        0.4885876334
 F           9.0    -3.1906839773        0.1360581780       -0.2243936795
 H           1.0    -0.7755456628       -1.8895345825        1.9929185297
 H           1.0     1.5927275013       -1.9945289740       -0.6927344876

          INTERNUCLEAR DISTANCES (ANGS.)
          ------------------------------

                1 C          2 C          3 O          4 H          5 F     

   1 C       0.0000000    1.4218075 *  2.1906752 *  2.2973449 *  1.3692690 *
   2 C       1.4218075 *  0.0000000    1.2848133 *  1.0917796 *  2.4225571 *
   3 O       2.1906752 *  1.2848133 *  0.0000000    2.0640899 *  3.4356499  
   4 H       2.2973449 *  1.0917796 *  2.0640899 *  0.0000000    2.8945325 *
   5 F       1.3692690 *  2.4225571 *  3.4356499    2.8945325 *  0.0000000  
   6 H       1.0970214 *  2.0886148 *  2.5909128 *  2.9534187 *  2.0393857 *
   7 H       1.5272703 *  1.6575243 *  1.2870456 *  2.7310830 *  2.7820721 *

                6 H          7 H     

   1 C       1.0970214 *  1.5272703 *
   2 C       2.0886148 *  1.6575243 *
   3 O       2.5909128 *  1.2870456 *
   4 H       2.9534187 *  2.7310830 *
   5 F       2.0393857 *  2.7820721 *
   6 H       0.0000000    1.8956421 *
   7 H       1.8956421 *  0.0000000  

  * ... LESS THAN  3.000


     ATOMIC BASIS SET
     ----------------
 THE CONTRACTED PRIMITIVE FUNCTIONS HAVE BEEN UNNORMALIZED
 THE CONTRACTED BASIS FUNCTIONS ARE NOW NORMALIZED TO UNITY

  SHELL TYPE  PRIMITIVE        EXPONENT          CONTRACTION COEFFICIENT(S)

 C         

      1   S       1          3047.5248800    0.001834737132
      1   S       2           457.3695180    0.014037322813
      1   S       3           103.9486850    0.068842622264
      1   S       4            29.2101553    0.232184443216
      1   S       5             9.2866630    0.467941348435
      1   S       6             3.1639270    0.362311985337

      2   L       7             7.8682723   -0.119332419775    0.068999066591
      2   L       8             1.8812885   -0.160854151696    0.316423960957
      2   L       9             0.5442493    1.143456437840    0.744308290898

      3   L      10             0.1687145    1.000000000000    1.000000000000

      4   D      11             0.8000000    1.000000000000

 C         

      5   S      12          3047.5248800    0.001834737132
      5   S      13           457.3695180    0.014037322813
      5   S      14           103.9486850    0.068842622264
      5   S      15            29.2101553    0.232184443216
      5   S      16             9.2866630    0.467941348435
      5   S      17             3.1639270    0.362311985337

      6   L      18             7.8682723   -0.119332419775    0.068999066591
      6   L      19             1.8812885   -0.160854151696    0.316423960957
      6   L      20             0.5442493    1.143456437840    0.744308290898

      7   L      21             0.1687145    1.000000000000    1.000000000000

      8   D      22             0.8000000    1.000000000000

 O         

      9   S      23          5484.6716600    0.001831074430
      9   S      24           825.2349460    0.013950172200
      9   S      25           188.0469580    0.068445078098
      9   S      26            52.9645000    0.232714335992
      9   S      27            16.8975704    0.470192897984
      9   S      28             5.7996353    0.358520852987

     10   L      29            15.5396162   -0.110777549525    0.070874268231
     10   L      30             3.5999336   -0.148026262701    0.339752839147
     10   L      31             1.0137618    1.130767015354    0.727158577316

     11   L      32             0.2700058    1.000000000000    1.000000000000

     12   D      33             0.8000000    1.000000000000

 H         

     13   S      34            18.7311370    0.033494604338
     13   S      35             2.8253944    0.234726953484
     13   S      36             0.6401217    0.813757326146

     14   S      37             0.1612778    1.000000000000

 F         

     15   S      38          7001.7130900    0.001819616901
     15   S      39          1051.3660900    0.013916079607
     15   S      40           239.2856900    0.068405324535
     15   S      41            67.3974453    0.233185760119
     15   S      42            21.5199573    0.471267439240
     15   S      43             7.4031013    0.356618546182

     16   L      44            20.8479528   -0.108506975109    0.071628724237
     16   L      45             4.8083083   -0.146451658147    0.345912102697
     16   L      46             1.3440699    1.128688581135    0.722469956367

     17   L      47             0.3581514    1.000000000000    1.000000000000

     18   D      48             0.8000000    1.000000000000

 H         

     19   S      49            18.7311370    0.033494604338
     19   S      50             2.8253944    0.234726953484
     19   S      51             0.6401217    0.813757326146

     20   S      52             0.1612778    1.000000000000

 H         

     21   S      53            18.7311370    0.033494604338
     21   S      54             2.8253944    0.234726953484
     21   S      55             0.6401217    0.813757326146

     22   S      56             0.1612778    1.000000000000

 TOTAL NUMBER OF BASIS SET SHELLS             =   22
 NUMBER OF CARTESIAN GAUSSIAN BASIS FUNCTIONS =   66
 NOTE: THIS RUN WILL RESTRICT THE MO VARIATION SPACE TO SPHERICAL HARMONICS.
 THE NUMBER OF ORBITALS KEPT IN THE VARIATIONAL SPACE WILL BE PRINTED LATER.
 NUMBER OF ELECTRONS                          =   32
 CHARGE OF MOLECULE                           =    0
 SPIN MULTIPLICITY                            =    1
 NUMBER OF OCCUPIED ORBITALS (ALPHA)          =   16
 NUMBER OF OCCUPIED ORBITALS (BETA )          =   16
 TOTAL NUMBER OF ATOMS                        =    7
 THE NUCLEAR REPULSION ENERGY IS      114.5359629743

     LEBEDEV GRID-BASED DFT OPTIONS
     ------------------------------
     DFTTYP=B3LYP   
     NRAD  =      96     NLEB  =     302
     NRAD0 =      96     NLEB0 =     302
     SWOFF =    5.00E-03 (PURE SCF -> DFT)
     SWITCH=    3.00E-04 (COARSE -> TIGHT GRID)
     THRESH=    0.00E+00 GTHRE=    1.00E+00

 GRIMME'S EMPIRICAL DISPERSION CORRECTION= F

     $CONTRL OPTIONS
     ---------------
 SCFTYP=RHF          RUNTYP=HESSIAN      EXETYP=RUN     
 MPLEVL=       0     CITYP =NONE         CCTYP =NONE         VBTYP =NONE    
 DFTTYP=B3LYP        TDDFT =NONE    
 MULT  =       1     ICHARG=       0     NZVAR =       0     COORD =PRINAXIS
 PP    =NONE         RELWFN=NONE         LOCAL =NONE         NUMGRD=       F
 ISPHER=       1     NOSYM =       0     MAXIT =      30     UNITS =ANGS    
 PLTORB=       F     MOLPLT=       F     AIMPAC=       F     FRIEND=        
 NPRINT=       7     IREST =       0     GEOM  =INPUT   
 NORMF =       0     NORMP =       0     ITOL  =      20     ICUT  =       9
 INTTYP=BEST         GRDTYP=BEST         QMTTOL= 1.0E-06

     $SYSTEM OPTIONS
     ---------------
  REPLICATED MEMORY=     1000000 WORDS (ON EVERY NODE).
 DISTRIBUTED MEMDDI=           0 MILLION WORDS IN AGGREGATE,
 MEMDDI DISTRIBUTED OVER   1 PROCESSORS IS           0 WORDS/PROCESSOR.
 TOTAL MEMORY REQUESTED ON EACH PROCESSOR=     1000000 WORDS.
 TIMLIM=      525600.00 MINUTES, OR     365.0 DAYS.
 PARALL= F  BALTYP=  DLB     KDIAG=    0  COREFL= F
 MXSEQ2=     300 MXSEQ3=     150  mem10=         0

          ----------------
          PROPERTIES INPUT
          ----------------

     MOMENTS            FIELD           POTENTIAL          DENSITY
 IEMOM =       1   IEFLD =       0   IEPOT =       0   IEDEN =       0
 WHERE =COMASS     WHERE =NUCLEI     WHERE =NUCLEI     WHERE =NUCLEI  
 OUTPUT=BOTH       OUTPUT=BOTH       OUTPUT=BOTH       OUTPUT=BOTH    
 IEMINT=       0   IEFINT=       0                     IEDINT=       0
                                                       MORB  =       0
          EXTRAPOLATION IN EFFECT
          DIIS IN EFFECT
 ORBITAL PRINTING OPTION: NPREO=     1    66     2     1

     -------------------------------
     INTEGRAL TRANSFORMATION OPTIONS
     -------------------------------
     NWORD  =            0
     CUTOFF = 1.0E-09     MPTRAN =       0
     DIRTRF =       T     AOINTS =DUP     

          ----------------------
          INTEGRAL INPUT OPTIONS
          ----------------------
 NOPK  =       1 NORDER=       0 SCHWRZ=       T

     ------------------------------------------
     THE POINT GROUP IS C1 , NAXIS= 1, ORDER= 1
     ------------------------------------------

 -- VARIATIONAL SPACE WILL BE RESTRICTED TO PURE SPHERICAL HARMONICS ONLY --
 AFTER EXCLUDING CONTAMINANT COMBINATIONS FROM THE CARTESIAN GAUSSIAN BASIS
 SET, THE NUMBER OF SPHERICAL HARMONICS KEPT IN THE VARIATION SPACE IS   62

     DIMENSIONS OF THE SYMMETRY SUBSPACES ARE
 A   =   62

 ..... DONE SETTING UP THE RUN .....
 STEP CPU TIME =     0.01 TOTAL CPU TIME =          0.0 (      0.0 MIN)
 TOTAL WALL CLOCK TIME=          0.0 SECONDS, CPU UTILIZATION IS   100.00%

     ---------------------------------
     HESSIAN MATRIX CONTROL PARAMETERS
     ---------------------------------
     METHOD=SEMINUM    NVIB  =       2   VIBSIZ= 0.01000
     RDHESS=       F   PURIFY=       F   PRTIFC=       F
     VIBANL=       T   DECOMP=       F   PROJCT=       F
     SCLFAC= 1.00000   PRTSCN=       F   NPRT  =       0
     PULCOR=       F   NPUN  =       0   REDOVB=       T
     HSSTYP=GENERAL 
     THERMOCHEMISTRY WILL BE PRINTED FOR    1 TEMPERATURES:
      298.15000

               * * * EFFICIENCY NOTE * * *
 THIS CALCULATION CAN BE RUN WITH DIFFERENTIATION METHOD=ANALYTIC
 THIS MIGHT BE MORE ACCURATE AND/OR FASTER THAN YOUR CHOICE,
 BUT THE REQUESTED CALCULATION METHOD=SEMINUM  IS PROCEEDING.

1   ATOM  0
                                        -------------------
   COORD  0                             NUCLEAR COORDINATES
                                        -------------------
     VIB  0

                       ATOM             X              Y              Z

                 1  C               -0.800182      -0.712235       0.286760
                 2  C                1.285057       0.981323       0.235026
                 3  O                3.286439      -0.309402      -0.237643
                 4  H                1.398559       3.025698       0.488588
                 5  F               -3.190684       0.136058      -0.224394
                 6  H               -0.775546      -1.889535       1.992919
                 7  H                1.592728      -1.994529      -0.692734

          ********************
          1 ELECTRON INTEGRALS
          ********************
 ...... END OF ONE-ELECTRON INTEGRALS ......
 STEP CPU TIME =     0.01 TOTAL CPU TIME =          0.0 (      0.0 MIN)
 TOTAL WALL CLOCK TIME=          0.0 SECONDS, CPU UTILIZATION IS   100.00%

          -------------
          GUESS OPTIONS
          -------------
          GUESS =HUCKEL            NORB  =       0          NORDER=       0
          MIX   =       F          PRTMO =       F          PUNMO =       F
          TOLZ  = 1.0E-08          TOLE  = 1.0E-05
          SYMDEN=       F          PURIFY=       F

 INITIAL GUESS ORBITALS GENERATED BY HUCKEL   ROUTINE.
 HUCKEL GUESS REQUIRES     39228 WORDS.

 STATISTICS FOR GENERATION OF SYMMETRY ORBITAL -Q- MATRIX
 NUMBER OF CARTESIAN ATOMIC ORBITALS=         66
 NUMBER OF SPHERICAL CONTAMINANTS DROPPED=     4
 NUMBER OF LINEARLY DEPENDENT MOS DROPPED=     0
 TOTAL NUMBER OF MOS IN VARIATION SPACE=      62

 SYMMETRIES FOR INITIAL GUESS ORBITALS FOLLOW.   BOTH SET(S).
    16 ORBITALS ARE OCCUPIED (    4 CORE ORBITALS).
     5=A        6=A        7=A        8=A        9=A       10=A       11=A   
    12=A       13=A       14=A       15=A       16=A       17=A       18=A   
    19=A       20=A       21=A       22=A       23=A       24=A       25=A   
    26=A   
 ...... END OF INITIAL ORBITAL SELECTION ......
 STEP CPU TIME =     0.00 TOTAL CPU TIME =          0.0 (      0.0 MIN)
 TOTAL WALL CLOCK TIME=          0.0 SECONDS, CPU UTILIZATION IS    66.67%

                    ----------------------
                    AO INTEGRAL TECHNOLOGY
                    ----------------------
     S,P,L SHELL ROTATED AXIS INTEGRALS, REPROGRAMMED BY
        KAZUYA ISHIMURA (IMS) AND JOSE SIERRA (SYNSTAR).
     S,P,D,L SHELL ROTATED AXIS INTEGRALS PROGRAMMED BY
        KAZUYA ISHIMURA (INSTITUTE FOR MOLECULAR SCIENCE).
     S,P,D,F,G SHELL TO TOTAL QUARTET ANGULAR MOMENTUM SUM 5,
        ERIC PROGRAM BY GRAHAM FLETCHER (ELORET AND NASA ADVANCED
        SUPERCOMPUTING DIVISION, AMES RESEARCH CENTER).
     S,P,D,F,G,L SHELL GENERAL RYS QUADRATURE PROGRAMMED BY
        MICHEL DUPUIS (PACIFIC NORTHWEST NATIONAL LABORATORY).

          --------------------
          2 ELECTRON INTEGRALS
          --------------------

 DIRECT SCF METHOD SKIPS INTEGRAL STORAGE ON DISK.
 DIRECT TRANSFORMATION SKIPS AO INTEGRAL STORAGE ON DISK.
  ...... END OF TWO-ELECTRON INTEGRALS .....
 STEP CPU TIME =     0.01 TOTAL CPU TIME =          0.0 (      0.0 MIN)
 TOTAL WALL CLOCK TIME=          0.0 SECONDS, CPU UTILIZATION IS    75.00%

          --------------------------
             R-B3LYP SCF CALCULATION
          --------------------------

     NUCLEAR ENERGY =       114.5359629743
     MAXIT =   30     NPUNCH=    2
     EXTRAP=T  DAMP=F  SHIFT=F  RSTRCT=F  DIIS=T  DEM=F  SOSCF=F
         DENSITY MATRIX CONVERGENCE THRESHOLD=  2.00E-05
     COARSE -> FINE DFT GRID SWITCH THRESHOLD=  3.00E-04 (SWITCH IN $DFT)
                   HF -> DFT SWITCH THRESHOLD=  5.00E-03 (SWOFF IN $DFT)
     MEMORY REQUIRED FOR RHF ITERS=    335322 WORDS.

 DIRECT SCF CALCULATION, SCHWRZ=T   FDIFF=T,  DIRTHR=  0.00E+00 NITDIR=10
 SCHWARZ INEQUALITY OVERHEAD:      2201 INTEGRALS, T=        0.00

     EXCHANGE FUNCTIONAL   =B88&HFX   
     CORRELATION FUNCTIONAL=LYP88&VWN5
     DFT THRESHOLD         =.493E-08
 FOR AN EULER-MACLAURIN QUADRATURE USING  96 RADIAL POINTS:
 SMALLEST GAUSSIAN PRIMITIVE EXPONENT=        0.1612777588 OF TYPE -S-
 ON ATOM NUMBER   4 HAS RADIAL NORMALIZATION=  1.000000
  LARGEST GAUSSIAN PRIMITIVE EXPONENT=     7001.7130900000 OF TYPE -S-
 ON ATOM NUMBER   5 HAS RADIAL NORMALIZATION=  1.000000
 DFT IS SWITCHED OFF, PERFORMING PURE SCF UNTIL SWOFF THRESHOLD IS REACHED.

                                                                                   NONZERO     BLOCKS
 ITER EX DEM     TOTAL ENERGY        E CHANGE  DENSITY CHANGE    DIIS ERROR      INTEGRALS    SKIPPED
   1  0  0     -250.8769399543  -250.8769399543   0.306211594   0.637214289        2223897       2458
          * * *   INITIATING DIIS PROCEDURE   * * *
   2  1  0     -251.5517176306    -0.6747776763   0.111976456   0.060221100        2223446       2653
   3  2  0     -251.5895725779    -0.0378549473   0.050199398   0.049307158        2220792       2980
   4  3  0     -251.6015043892    -0.0119318112   0.021438015   0.010845526        2217076       3320
   5  4  0     -251.6032821687    -0.0017777796   0.009645978   0.003665913        2211200       3570
   6  5  0     -251.6036139687    -0.0003318000   0.005264781   0.001967709        2201654       3907
   7  6  0     -251.6037569329    -0.0001429641   0.003826921   0.001122660        2195005       4066
 CONVERGED TO SWOFF, SO DFT CALCULATION IS NOW SWITCHED ON.
          * * *   INITIATING DIIS PROCEDURE   * * *
   8  7  0     -252.7858527687    -1.1820958358   0.104897491   0.057441338        2224063       2456
   9  8  0     -252.8049333817    -0.0190806130   0.057072338   0.027549312        2221297       2942
  10  9  0     -252.8021638641     0.0027695176   0.044863127   0.033178654        2218439       3188
  11 10  0     -252.8100239547    -0.0078600906   0.013770927   0.009524286        2214736       3396
  12 11  0     -252.8106077290    -0.0005837743   0.001957841   0.001716404        2204073       3805
  13 12  0     -252.8106374234    -0.0000296944   0.000672238   0.000323075        2184629       4434
  14 13  0     -252.8106386781    -0.0000012547   0.000180049   0.000096159        2153086       5095
  15 14  0     -252.8106387953    -0.0000001172   0.000046837   0.000029586        2124460       5736
  16 15  0     -252.8106388054    -0.0000000101   0.000016220   0.000010369        2085283       6592
  17 16  0     -252.8106388072    -0.0000000018   0.000006874   0.000004112        2037196       7488

          -----------------
          DENSITY CONVERGED
          -----------------
     TIME TO FORM FOCK OPERATORS=      11.8 SECONDS (       0.7 SEC/ITER)
     FOCK TIME ON FIRST ITERATION=       0.2, LAST ITERATION=       0.8
     TIME TO SOLVE SCF EQUATIONS=       0.0 SECONDS (       0.0 SEC/ITER)

 FINAL R-B3LYP ENERGY IS     -252.8106388072 AFTER  17 ITERATIONS
 DFT EXCHANGE + CORRELATION ENERGY =       -24.9135909390
 TOTAL ELECTRON NUMBER             =        31.9999896506

          ------------
          EIGENVECTORS
          ------------

                      1          2          3          4          5
                  -24.6776   -19.1921   -10.2939   -10.2449    -1.1888
                     A          A          A          A          A   
    1  C  1  S   -0.000083   0.000032   0.003687   0.995117  -0.061559
    2  C  1  S    0.000342  -0.000039  -0.001186   0.036576   0.109708
    3  C  1  X   -0.001076  -0.000255  -0.000951  -0.001532  -0.088008
    4  C  1  Y    0.000336  -0.000329  -0.000985   0.001445   0.035710
    5  C  1  Z   -0.000300  -0.000125   0.000121   0.000256  -0.015418
    6  C  1  S    0.005671  -0.004615   0.004474  -0.022746   0.027879
    7  C  1  X   -0.004448  -0.003292   0.000677  -0.006250   0.009690
    8  C  1  Y    0.002719  -0.000192   0.002823  -0.000103  -0.012275
    9  C  1  Z   -0.000604   0.001100  -0.000441  -0.002924   0.002809
   10  C  1 XX    0.000681  -0.000074  -0.000557   0.001567   0.015036
   11  C  1 YY   -0.000137   0.000154  -0.000058  -0.000642  -0.006751
   12  C  1 ZZ   -0.000544  -0.000081   0.000615  -0.000925  -0.008285
   13  C  1 XY   -0.000441  -0.000209  -0.001074  -0.000453  -0.011095
   14  C  1 XZ    0.000358   0.000012   0.000119   0.000618   0.004996
   15  C  1 YZ   -0.000236   0.000090  -0.000018  -0.000324  -0.002873
   16  C  2  S    0.000049   0.000093   0.995033  -0.003653  -0.012268
   17  C  2  S    0.000189  -0.000158   0.035393  -0.001401   0.021461
   18  C  2  X    0.000065   0.000346   0.001626   0.000789  -0.011076
   19  C  2  Y    0.000138  -0.000214  -0.001655   0.000625  -0.009747
   20  C  2  Z    0.000025  -0.000136  -0.000649  -0.000041  -0.001789
   21  C  2  S   -0.001616   0.011407  -0.016401   0.007098   0.019232
   22  C  2  X    0.001392   0.002826   0.003392  -0.003074  -0.013555
   23  C  2  Y   -0.000925  -0.006726  -0.001446  -0.001720   0.002466
   24  C  2  Z    0.000103  -0.001433  -0.000403   0.000993  -0.001419
   25  C  2 XX   -0.000225  -0.000256   0.000794  -0.000573   0.003788
   26  C  2 YY    0.000115   0.000355   0.000415  -0.000129  -0.000947
   27  C  2 ZZ    0.000110  -0.000099  -0.001209   0.000702  -0.002841
   28  C  2 XY   -0.000025   0.000548  -0.000649  -0.000953   0.002050
   29  C  2 XZ   -0.000031   0.000107  -0.000479  -0.000059   0.000103
   30  C  2 YZ   -0.000087   0.000013   0.000340  -0.000059   0.000627
   31  O  3  S   -0.000004   0.995137   0.000076  -0.000016  -0.007279
   32  O  3  S   -0.000028   0.029541   0.000794  -0.000212   0.015605
   33  O  3  X    0.000044  -0.001916   0.000616   0.000050  -0.007018
   34  O  3  Y    0.000031   0.000482  -0.000497  -0.000205   0.001537
   35  O  3  Z   -0.000055   0.000401  -0.000174  -0.000069   0.001027
   36  O  3  S   -0.000268  -0.019753  -0.004155   0.000196   0.017176
   37  O  3  X   -0.000330   0.005812   0.003450  -0.000445  -0.001429
   38  O  3  Y   -0.000049  -0.001587  -0.001688   0.000852   0.001726
   39  O  3  Z    0.000167  -0.000816  -0.000668   0.000351   0.000559
   40  O  3 XX    0.000096  -0.000429  -0.001273   0.000252   0.000470
   41  O  3 YY   -0.000037   0.000127   0.000066  -0.000086  -0.000119
   42  O  3 ZZ   -0.000059   0.000302   0.001207  -0.000166  -0.000351
   43  O  3 XY   -0.000035   0.000147   0.001504   0.000052  -0.000165
   44  O  3 XZ   -0.000081   0.000075   0.000597  -0.000146  -0.000155
   45  O  3 YZ   -0.000048  -0.000123  -0.000469  -0.000101   0.000201
   46  H  4  S    0.000203  -0.000230  -0.001373  -0.000221   0.001939
   47  H  4  S    0.000594   0.001719   0.004859  -0.000051  -0.001706
   48  F  5  S    0.994973   0.000004   0.000010   0.000111  -0.225296
   49  F  5  S    0.027677   0.000029   0.000002   0.001469   0.481637
   50  F  5  X    0.001320  -0.000085  -0.000107   0.000092   0.084913
   51  F  5  Y   -0.000451  -0.000066  -0.000036  -0.000117  -0.028116
   52  F  5  Z    0.000342   0.000055   0.000010   0.000010   0.019567
   53  F  5  S   -0.014550  -0.000409  -0.000696  -0.003820   0.518375
   54  F  5  X   -0.004002   0.000273  -0.000068  -0.003519   0.048837
   55  F  5  Y    0.001319   0.000295   0.000076   0.001696  -0.014349
   56  F  5  Z   -0.001011  -0.000317  -0.000080  -0.000634   0.012422
   57  F  5 XX   -0.000783   0.000087   0.000018  -0.001928   0.010675
   58  F  5 YY    0.000384  -0.000014   0.000130   0.000746  -0.004654
   59  F  5 ZZ    0.000399  -0.000073  -0.000148   0.001182  -0.006021
   60  F  5 XY    0.000499   0.000016   0.000054   0.001390  -0.006383
   61  F  5 XZ   -0.000336  -0.000058   0.000026  -0.000757   0.004701
   62  F  5 YZ    0.000103   0.000056  -0.000042   0.000379  -0.001776
   63  H  6  S   -0.000179   0.000191  -0.000302  -0.000578   0.015822
   64  H  6  S   -0.000055  -0.000686   0.001221   0.005801  -0.001939
   65  H  7  S    0.000174   0.000942   0.000571   0.000432   0.004517
   66  H  7  S    0.000778   0.002094   0.000779   0.003233  -0.004302

                      6          7          8          9         10
                   -1.0844    -0.7399    -0.6221    -0.5390    -0.4980
                     A          A          A          A          A   
    1  C  1  S   -0.023915  -0.152933   0.069289  -0.045465   0.003516
    2  C  1  S    0.044414   0.298488  -0.135664   0.103569   0.001768
    3  C  1  X    0.050362   0.113965   0.006289  -0.284748  -0.058584
    4  C  1  Y    0.010633   0.064323   0.100097  -0.048417   0.217338
    5  C  1  Z   -0.000670   0.044535  -0.036722   0.075254  -0.259863
    6  C  1  S    0.045367   0.251856  -0.154094   0.076528  -0.036612
    7  C  1  X    0.024884   0.061907  -0.031139  -0.059447   0.004425
    8  C  1  Y   -0.002143  -0.011518   0.032493  -0.018921   0.072488
    9  C  1  Z   -0.003262   0.023115  -0.016100   0.042867  -0.106902
   10  C  1 XX    0.002869   0.000235  -0.003971   0.002982   0.009745
   11  C  1 YY   -0.000651   0.001375   0.007025  -0.004490   0.004377
   12  C  1 ZZ   -0.002218  -0.001609  -0.003054   0.001508  -0.014123
   13  C  1 XY    0.004692   0.007273   0.007482  -0.009920  -0.007181
   14  C  1 XZ   -0.001219  -0.001418   0.001963   0.004133   0.002695
   15  C  1 YZ   -0.000685  -0.005951   0.005895  -0.005746   0.004395
   16  C  2  S   -0.105315  -0.106764  -0.124622   0.030492   0.005717
   17  C  2  S    0.200942   0.218161   0.264891  -0.064820  -0.016106
   18  C  2  X    0.117451  -0.198714   0.072091   0.095727  -0.149062
   19  C  2  Y   -0.100063  -0.045204   0.241976   0.181923   0.009362
   20  C  2  Z   -0.031441   0.026944   0.013913   0.041994  -0.125809
   21  C  2  S    0.048904   0.159702   0.271123  -0.032979  -0.010730
   22  C  2  X   -0.004384  -0.041131   0.001901   0.044424  -0.059434
   23  C  2  Y    0.027860   0.002375   0.066106   0.055234   0.028941
   24  C  2  Z    0.004446   0.003649   0.007495   0.011146  -0.060130
   25  C  2 XX    0.010792  -0.005908  -0.000427   0.011373   0.000809
   26  C  2 YY    0.003139   0.011528   0.007439  -0.010125  -0.003807
   27  C  2 ZZ   -0.013931  -0.005620  -0.007013  -0.001248   0.002999
   28  C  2 XY   -0.018815   0.018823   0.000728  -0.000874   0.004467
   29  C  2 XZ   -0.007031   0.002780  -0.000018  -0.002121   0.003346
   30  C  2 YZ    0.005692  -0.000157   0.001359  -0.004363   0.009011
   31  O  3  S   -0.192058   0.086206   0.038987  -0.045257  -0.020788
   32  O  3  S    0.419226  -0.201063  -0.085508   0.113182   0.041901
   33  O  3  X   -0.137162  -0.057562  -0.016027   0.189339   0.050141
   34  O  3  Y    0.048288  -0.016030   0.215496   0.105119  -0.107025
   35  O  3  Z    0.025618   0.006179   0.039698   0.026180  -0.154265
   36  O  3  S    0.414859  -0.230668  -0.138271   0.129709   0.104243
   37  O  3  X   -0.070460  -0.027762   0.004513   0.120913   0.015117
   38  O  3  Y    0.006074  -0.001753   0.111319   0.058850  -0.054214
   39  O  3  Z    0.008443   0.004461   0.017758   0.012809  -0.088881
   40  O  3 XX    0.011102   0.007458  -0.005142  -0.017707   0.001836
   41  O  3 YY   -0.001583  -0.004930   0.004389   0.009568   0.000438
   42  O  3 ZZ   -0.009519  -0.002528   0.000753   0.008139  -0.002274
   43  O  3 XY   -0.001396  -0.001886  -0.018980  -0.007183   0.005907
   44  O  3 XZ   -0.003361  -0.002249  -0.002341   0.000018   0.011425
   45  O  3 YZ    0.002377  -0.000304   0.002643   0.001195  -0.002592
   46  H  4  S    0.024560   0.060866   0.215668   0.059309  -0.015738
   47  H  4  S   -0.013463   0.013116   0.098807   0.032475  -0.020950
   48  F  5  S    0.016872   0.053867  -0.018952   0.050028   0.023320
   49  F  5  S   -0.037350  -0.124030   0.043783  -0.107401  -0.048747
   50  F  5  X   -0.000841   0.113118  -0.063548   0.323555   0.335412
   51  F  5  Y    0.002301  -0.016753   0.070291  -0.193923   0.063964
   52  F  5  Z   -0.001222   0.027685  -0.029643   0.146651  -0.139938
   53  F  5  S   -0.035941  -0.149068   0.055440  -0.183129  -0.086849
   54  F  5  X   -0.000853   0.069119  -0.040021   0.196970   0.211742
   55  F  5  Y   -0.001378  -0.011552   0.043456  -0.119356   0.043845
   56  F  5  Z    0.001092   0.016374  -0.018199   0.088911  -0.088609
   57  F  5 XX   -0.000292   0.007382  -0.001752   0.008368   0.015278
   58  F  5 YY    0.000003  -0.003761   0.000297  -0.003363  -0.007111
   59  F  5 ZZ    0.000289  -0.003621   0.001455  -0.005004  -0.008167
   60  F  5 XY   -0.000145  -0.002367   0.004886  -0.010884   0.001908
   61  F  5 XZ    0.000102   0.003154  -0.002000   0.008557  -0.005249
   62  F  5 YZ   -0.000101  -0.000870   0.001588  -0.004070   0.003937
   63  H  6  S    0.008191   0.102546  -0.093699   0.087169  -0.188310
   64  H  6  S    0.001410   0.012756  -0.038903   0.046207  -0.129527
   65  H  7  S    0.066099   0.040938  -0.110560  -0.099932   0.030265
   66  H  7  S   -0.009540  -0.003967  -0.057385  -0.040657   0.028231

                     11         12         13         14         15
                   -0.4689    -0.4339    -0.4065    -0.3723    -0.3415
                     A          A          A          A          A   
    1  C  1  S    0.003085   0.006898   0.012798  -0.047364   0.023422
    2  C  1  S   -0.004117  -0.015833  -0.025168   0.087906  -0.063894
    3  C  1  X    0.087574   0.002724  -0.038835   0.077447  -0.138731
    4  C  1  Y    0.048121   0.202075   0.008581  -0.089945  -0.205144
    5  C  1  Z    0.104280   0.085093   0.050247   0.089731   0.048268
    6  C  1  S   -0.015361   0.006263  -0.031908   0.200320  -0.015650
    7  C  1  X   -0.001440   0.036871  -0.054488   0.066248   0.051383
    8  C  1  Y    0.053865   0.123564   0.012071   0.019702  -0.043431
    9  C  1  Z    0.053104   0.067121   0.074540  -0.001491  -0.004872
   10  C  1 XX   -0.014850   0.000785   0.003119  -0.022231  -0.007845
   11  C  1 YY    0.011119   0.004819   0.000602   0.007201   0.002244
   12  C  1 ZZ    0.003731  -0.005604  -0.003722   0.015029   0.005601
   13  C  1 XY    0.002581  -0.006087  -0.005352   0.001360  -0.025124
   14  C  1 XZ   -0.001262  -0.000015  -0.020238   0.003162   0.001957
   15  C  1 YZ    0.002459   0.005227   0.002108  -0.015792  -0.008502
   16  C  2  S    0.011145   0.004709  -0.000617   0.022329   0.027045
   17  C  2  S   -0.036812  -0.004460   0.006901  -0.051878  -0.061096
   18  C  2  X   -0.255697   0.015156   0.007213   0.013854   0.231074
   19  C  2  Y    0.204750  -0.207333   0.039652  -0.021655   0.171806
   20  C  2  Z    0.120817   0.109405  -0.213654  -0.135454   0.031145
   21  C  2  S    0.002170  -0.077009  -0.009817  -0.094207  -0.213644
   22  C  2  X   -0.054290  -0.002242  -0.018965   0.045502   0.050931
   23  C  2  Y    0.061730  -0.024261   0.016079   0.032234   0.139501
   24  C  2  Z    0.047294   0.065728  -0.129814  -0.087843   0.029702
   25  C  2 XX   -0.013097   0.019181  -0.006490   0.013188  -0.018841
   26  C  2 YY    0.010359  -0.016076   0.000376  -0.019185   0.020649
   27  C  2 ZZ    0.002738  -0.003105   0.006114   0.005998  -0.001808
   28  C  2 XY    0.014519  -0.006683   0.000680   0.010001  -0.011800
   29  C  2 XZ    0.004567   0.003602  -0.015959  -0.013070   0.001661
   30  C  2 YZ   -0.005202  -0.009408   0.012099  -0.001342   0.002757
   31  O  3  S   -0.058642  -0.007136   0.009880  -0.016826   0.024837
   32  O  3  S    0.125233   0.016662  -0.024136   0.046913  -0.065989
   33  O  3  X    0.348971  -0.019621  -0.134307   0.175475  -0.248811
   34  O  3  Y   -0.288968   0.101601   0.028777   0.307866  -0.175362
   35  O  3  Z   -0.042780   0.222721  -0.368007  -0.224456   0.033899
   36  O  3  S    0.246933   0.050176  -0.033911   0.040163  -0.046771
   37  O  3  X    0.181307  -0.013160  -0.091295   0.133611  -0.192277
   38  O  3  Y   -0.155926   0.061307   0.024422   0.208288  -0.118446
   39  O  3  Z   -0.016091   0.141648  -0.241848  -0.152598   0.034700
   40  O  3 XX   -0.014547   0.000544   0.009535  -0.009881   0.007130
   41  O  3 YY    0.007500  -0.005360   0.000525   0.007024  -0.000573
   42  O  3 ZZ    0.007046   0.004816  -0.010061   0.002857  -0.006557
   43  O  3 XY    0.015871  -0.005793  -0.002550  -0.017222   0.009107
   44  O  3 XZ    0.002390  -0.014415   0.021342   0.013114  -0.003032
   45  O  3 YZ   -0.001221   0.003008  -0.005071  -0.003843   0.002042
   46  H  4  S    0.110487  -0.138521   0.012895  -0.076998   0.123767
   47  H  4  S    0.091160  -0.125240   0.017892  -0.078806   0.124181
   48  F  5  S   -0.009916   0.002662   0.001527   0.000190  -0.001049
   49  F  5  S    0.020169  -0.006153   0.000195  -0.003745  -0.001546
   50  F  5  X   -0.132188   0.153988  -0.056301  -0.016537   0.217950
   51  F  5  Y    0.188105   0.347896   0.074205   0.285535   0.341224
   52  F  5  Z    0.070650   0.231550   0.444283  -0.272843  -0.100019
   53  F  5  S    0.031721  -0.004965  -0.021401  -0.003187   0.031861
   54  F  5  X   -0.083837   0.103647  -0.045260  -0.010833   0.159531
   55  F  5  Y    0.123773   0.231300   0.054034   0.198166   0.241884
   56  F  5  Z    0.043426   0.155220   0.303831  -0.192251  -0.067945
   57  F  5 XX   -0.002547   0.007466  -0.004253   0.002682   0.004639
   58  F  5 YY   -0.000905  -0.009316  -0.001720  -0.001797  -0.003792
   59  F  5 ZZ    0.003452   0.001850   0.005973  -0.000885  -0.000848
   60  F  5 XY    0.008281   0.011778   0.003291   0.006517   0.004825
   61  F  5 XZ    0.002871   0.010114   0.013483  -0.006618  -0.000785
   62  F  5 YZ    0.000691   0.000787  -0.003962   0.003042   0.002010
   63  H  6  S    0.035153  -0.042583   0.002023   0.161120   0.097511
   64  H  6  S    0.035848  -0.034668  -0.023981   0.151626   0.129470
   65  H  7  S    0.027465  -0.103020   0.046030  -0.091755   0.132736
   66  H  7  S    0.085539  -0.102816   0.056546  -0.080817   0.155703

                     16         17         18         19         20
                   -0.2255    -0.0686     0.0727     0.1103     0.1490
                     A          A          A          A          A   
    1  C  1  S    0.048513  -0.010932   0.083612  -0.016431   0.081942
    2  C  1  S   -0.079668  -0.000960  -0.157380  -0.003099  -0.091936
    3  C  1  X   -0.094850   0.091746   0.038028   0.222902   0.054803
    4  C  1  Y    0.202258  -0.053125   0.251226   0.027455   0.136917
    5  C  1  Z    0.335364  -0.085677   0.211848   0.177662  -0.351522
    6  C  1  S   -0.298953   0.243495  -0.610670   0.498857  -1.686665
    7  C  1  X   -0.084904   0.129685   0.089045   0.498308  -0.360912
    8  C  1  Y    0.141777  -0.046109   0.425657   0.106466   0.458919
    9  C  1  Z    0.205435  -0.041629   0.165899   0.411938  -0.883208
   10  C  1 XX   -0.004645   0.016399   0.004334   0.022959   0.002250
   11  C  1 YY   -0.004630  -0.005819  -0.002069  -0.017033  -0.000949
   12  C  1 ZZ    0.009275  -0.010579  -0.002266  -0.005926  -0.001301
   13  C  1 XY    0.011055  -0.011551  -0.014685  -0.010524  -0.002041
   14  C  1 XZ    0.019843   0.012967  -0.000548   0.004162   0.003186
   15  C  1 YZ    0.003072   0.023631   0.005662  -0.004613  -0.000223
   16  C  2  S   -0.018286   0.008530  -0.011505   0.086394   0.019733
   17  C  2  S    0.040366  -0.011533   0.013740  -0.128857  -0.101244
   18  C  2  X   -0.036585   0.092946  -0.004865   0.004636  -0.029108
   19  C  2  Y   -0.055510  -0.061342   0.094120  -0.265232  -0.185531
   20  C  2  Z    0.150643   0.477755  -0.139179  -0.140352   0.051282
   21  C  2  S    0.107717  -0.134209   0.139687  -1.469678  -0.004490
   22  C  2  X   -0.068711   0.168930   0.185352   0.287670  -0.075178
   23  C  2  Y   -0.056135   0.005716   0.322042  -0.651887  -0.821797
   24  C  2  Z    0.128573   0.482285  -0.132599  -0.338217   0.229857
   25  C  2 XX   -0.001592  -0.003531   0.010191  -0.005977   0.001309
   26  C  2 YY   -0.003665  -0.000930  -0.012631   0.017469  -0.006630
   27  C  2 ZZ    0.005256   0.004461   0.002440  -0.011492   0.005321
   28  C  2 XY   -0.011631   0.013856   0.003113   0.009750  -0.005337
   29  C  2 XZ   -0.023796  -0.009198  -0.005704  -0.007185   0.011424
   30  C  2 YZ   -0.002484   0.012597  -0.012530  -0.007081   0.011765
   31  O  3  S   -0.017463   0.021988   0.047076   0.005198   0.000917
   32  O  3  S    0.036914  -0.050450  -0.106517  -0.013382   0.014829
   33  O  3  X   -0.216116   0.082425   0.118396   0.052953  -0.012854
   34  O  3  Y   -0.139631   0.191171   0.196660   0.058103   0.018699
   35  O  3  Z   -0.272963  -0.297852   0.120819   0.040886  -0.072469
   36  O  3  S    0.131226  -0.159455  -0.426879  -0.100501  -0.182219
   37  O  3  X   -0.180336   0.076758   0.181278   0.087486   0.086834
   38  O  3  Y   -0.125956   0.190284   0.188725   0.056421   0.048974
   39  O  3  Z   -0.233734  -0.300374   0.143202   0.050972  -0.097337
   40  O  3 XX    0.010092  -0.005068  -0.013771   0.006830  -0.001482
   41  O  3 YY   -0.005691   0.003487   0.013514  -0.000009  -0.005831
   42  O  3 ZZ   -0.004401   0.001581   0.000257  -0.006821   0.007313
   43  O  3 XY    0.004205   0.001117   0.005269   0.011442  -0.000392
   44  O  3 XZ    0.005982   0.001065   0.005074  -0.000111   0.001259
   45  O  3 YZ   -0.002529   0.009407  -0.000127  -0.005032  -0.001230
   46  H  4  S   -0.016096   0.000352  -0.071931   0.114207  -0.000961
   47  H  4  S   -0.037860  -0.003377  -0.506199   1.654612   0.922997
   48  F  5  S   -0.004179  -0.010712  -0.020642  -0.030113   0.001989
   49  F  5  S    0.012785   0.028237   0.050194   0.064514   0.005735
   50  F  5  X    0.063768   0.070012   0.102782   0.118794   0.028141
   51  F  5  Y   -0.132094   0.008317  -0.133538  -0.082361  -0.028705
   52  F  5  Z   -0.232410   0.053202  -0.056179  -0.018330   0.085367
   53  F  5  S    0.012471   0.061027   0.138416   0.259509  -0.082720
   54  F  5  X    0.048738   0.056564   0.108170   0.151265  -0.008258
   55  F  5  Y   -0.109601   0.001844  -0.143113  -0.100783  -0.031659
   56  F  5  Z   -0.186905   0.048408  -0.046502  -0.025709   0.118359
   57  F  5 XX    0.001480  -0.000060   0.001135   0.001386  -0.001651
   58  F  5 YY   -0.000902   0.000442  -0.004629  -0.001796  -0.000224
   59  F  5 ZZ   -0.000577  -0.000382   0.003493   0.000410   0.001875
   60  F  5 XY   -0.000914  -0.001847   0.005302  -0.000655   0.003909
   61  F  5 XZ    0.001938  -0.000271   0.005789   0.002754  -0.008490
   62  F  5 YZ   -0.000776   0.003582  -0.002170  -0.000624   0.000196
   63  H  6  S    0.067404  -0.125043   0.016562  -0.003319   0.054739
   64  H  6  S    0.098865  -0.322437   0.438756  -0.504519   1.902975
   65  H  7  S   -0.104726   0.136421   0.243840   0.054757  -0.070427
   66  H  7  S   -0.207509   0.337831   1.097741  -0.217349  -0.025148

                     21         22         23         24         25
                    0.1608     0.2521     0.3398     0.5187     0.5307
                     A          A          A          A          A   
    1  C  1  S    0.053058  -0.087400   0.089758  -0.008500  -0.001910
    2  C  1  S   -0.087559   0.140139  -0.123094  -0.084063  -0.353559
    3  C  1  X    0.284047  -0.170444  -0.116013  -0.298205   0.042788
    4  C  1  Y   -0.191488   0.224722  -0.244752  -0.462291  -0.586184
    5  C  1  Z   -0.048678  -0.006272   0.223859  -0.208992   0.075517
    6  C  1  S   -0.191653   1.290914  -2.273291  -0.036011   0.244173
    7  C  1  X    0.890114  -0.277376  -2.051642   0.238591   0.202518
    8  C  1  Y   -0.200707   1.014799  -0.982953   0.492470   1.014026
    9  C  1  Z   -0.016624  -0.120274   0.252659   0.107221  -0.184848
   10  C  1 XX    0.023844  -0.010817   0.022583  -0.008654   0.001187
   11  C  1 YY   -0.014235  -0.015200  -0.006542  -0.003802  -0.040006
   12  C  1 ZZ   -0.009609   0.026017  -0.016041   0.012456   0.038819
   13  C  1 XY    0.002767   0.005043   0.017083  -0.002534  -0.050439
   14  C  1 XZ    0.014020  -0.006889   0.007444  -0.027785   0.026637
   15  C  1 YZ   -0.017374   0.001724   0.002584  -0.003839  -0.003640
   16  C  2  S   -0.085223  -0.001380  -0.110740  -0.029212  -0.014797
   17  C  2  S    0.168248  -0.060883   0.068821  -0.221706  -0.435508
   18  C  2  X    0.062194   0.315616  -0.082024  -0.045777   0.365188
   19  C  2  Y    0.038016  -0.046989  -0.394613   0.120125   0.087132
   20  C  2  Z   -0.049599  -0.024088   0.000821  -0.784370   0.474826
   21  C  2  S    0.896938   0.256628   2.906720   0.247368   0.101776
   22  C  2  X    0.661858   1.859765  -0.678196   0.009527  -0.252334
   23  C  2  Y    0.202500  -0.432135  -2.036147  -0.465939  -0.247935
   24  C  2  Z   -0.159449  -0.199472  -0.283563   0.899223  -0.541383
   25  C  2 XX   -0.035073   0.015033  -0.017957  -0.028927  -0.034703
   26  C  2 YY    0.025051  -0.021040  -0.009804  -0.033263  -0.024635
   27  C  2 ZZ    0.010023   0.006007   0.027760   0.062190   0.059338
   28  C  2 XY    0.019724   0.017112  -0.016824  -0.043772  -0.046012
   29  C  2 XZ    0.007729   0.004306  -0.004407   0.005864   0.014421
   30  C  2 YZ   -0.009627   0.001829  -0.015430   0.024858  -0.024819
   31  O  3  S    0.031976   0.069398   0.057774   0.017025   0.009297
   32  O  3  S   -0.073989  -0.091932  -0.094318  -0.077081  -0.048399
   33  O  3  X    0.150890   0.027738   0.128219   0.038893   0.041196
   34  O  3  Y   -0.200014  -0.219220  -0.035629   0.046712  -0.025907
   35  O  3  Z   -0.090370  -0.031005   0.010107  -0.056745   0.046166
   36  O  3  S   -0.430866  -1.386465  -1.139090  -0.135913  -0.068041
   37  O  3  X    0.216925   0.442238   0.655319   0.115671   0.093042
   38  O  3  Y   -0.418534  -0.513437  -0.028570   0.013906   0.006900
   39  O  3  Z   -0.107623  -0.168613  -0.063689  -0.120122   0.027195
   40  O  3 XX    0.003776  -0.023651  -0.008495   0.004104  -0.018915
   41  O  3 YY   -0.006910   0.008131  -0.014768   0.001596  -0.002952
   42  O  3 ZZ    0.003135   0.015520   0.023263  -0.005700   0.021867
   43  O  3 XY    0.005261   0.015422  -0.014215  -0.004066  -0.004545
   44  O  3 XZ   -0.001719   0.011772   0.000381   0.044447  -0.017729
   45  O  3 YZ   -0.009953   0.000555  -0.003501  -0.022903   0.017430
   46  H  4  S    0.021281  -0.059580  -0.142581  -0.201531  -0.260404
   47  H  4  S   -0.777784   0.145320   0.999568   0.274889   0.250558
   48  F  5  S   -0.063246   0.045259   0.010317   0.000930   0.003964
   49  F  5  S    0.123966  -0.070095   0.017781  -0.009761  -0.001988
   50  F  5  X    0.238747  -0.167078   0.139237  -0.038410   0.026162
   51  F  5  Y   -0.027753   0.057314   0.101805  -0.011307  -0.169546
   52  F  5  Z    0.092283  -0.042800  -0.034318  -0.041647   0.072059
   53  F  5  S    0.624959  -0.568603  -0.361229   0.036262  -0.134458
   54  F  5  X    0.355750  -0.327603   0.039045  -0.019659  -0.074848
   55  F  5  Y   -0.107784   0.034374   0.213265  -0.054415  -0.090963
   56  F  5  Z    0.113422  -0.073807  -0.084778  -0.003602   0.003992
   57  F  5 XX    0.004317   0.001699  -0.022695  -0.000217  -0.036898
   58  F  5 YY   -0.000867  -0.008431   0.017041   0.007730   0.015305
   59  F  5 ZZ   -0.003450   0.006732   0.005654  -0.007512   0.021592
   60  F  5 XY   -0.009462  -0.008185   0.009442  -0.029227   0.016226
   61  F  5 XZ   -0.002601  -0.000151  -0.000378   0.004750  -0.025125
   62  F  5 YZ   -0.003594  -0.001906  -0.004998   0.003511   0.000078
   63  H  6  S    0.045159  -0.001637  -0.058263  -0.051865   0.140705
   64  H  6  S    0.236545   0.055503  -0.443862  -0.103822   0.188532
   65  H  7  S   -0.082589  -0.042225  -0.117807   0.075901   0.031381
   66  H  7  S   -0.785576   0.046230   0.618163  -0.028435  -0.096995

                     26         27         28         29         30
                    0.5528     0.5844     0.6339     0.6537     0.7417
                     A          A          A          A          A   
    1  C  1  S    0.013622   0.008986  -0.017746  -0.002344  -0.005342
    2  C  1  S    0.077223  -0.397526   0.004766   0.331259  -0.509028
    3  C  1  X   -0.701397   0.543281   0.201189   0.168920  -0.022357
    4  C  1  Y   -0.064945  -0.165769  -0.182133  -0.270686   0.254333
    5  C  1  Z   -0.062867   0.233174  -0.786724  -0.296382  -0.044078
    6  C  1  S   -0.130953   1.122012   0.587825   0.266512   2.304174
    7  C  1  X    0.930811  -0.865254  -0.698226   0.355165   1.289521
    8  C  1  Y   -0.084263   0.597052   0.081258   0.580372  -0.633107
    9  C  1  Z    0.107367  -0.461388   1.582595   0.494267   0.264656
   10  C  1 XX   -0.039929   0.034801   0.072975  -0.049881   0.007068
   11  C  1 YY    0.046344  -0.005216  -0.022873   0.052071   0.059047
   12  C  1 ZZ   -0.006415  -0.029585  -0.050102  -0.002189  -0.066115
   13  C  1 XY    0.072313  -0.026753  -0.010853   0.067566   0.002470
   14  C  1 XZ   -0.008601   0.011800  -0.026049   0.048087   0.006943
   15  C  1 YZ   -0.006285   0.004061   0.036322  -0.029129   0.047679
   16  C  2  S   -0.016556   0.042267   0.000498   0.034100  -0.011022
   17  C  2  S   -0.235948  -0.416753   0.151447   0.109841  -0.467677
   18  C  2  X   -0.651818  -0.621565  -0.069565  -0.224011   0.025640
   19  C  2  Y    0.021821   0.305579  -0.020538  -0.290660  -0.520609
   20  C  2  Z    0.378023  -0.075678   0.234244   0.030266  -0.064620
   21  C  2  S    0.311337   0.296467  -0.070870  -0.591398  -0.203269
   22  C  2  X    0.658936   1.217337   0.181020   0.593375   0.148334
   23  C  2  Y   -0.254577  -0.159508  -0.003675   1.428121   3.078814
   24  C  2  Z   -0.551446   0.238887  -0.724833  -0.019405   0.185474
   25  C  2 XX    0.020699   0.030987  -0.018644   0.053339  -0.000877
   26  C  2 YY   -0.039999   0.002449   0.049683  -0.031937  -0.077867
   27  C  2 ZZ    0.019300  -0.033436  -0.031039  -0.021402   0.078744
   28  C  2 XY   -0.105206  -0.033661   0.032951  -0.058466   0.046665
   29  C  2 XZ   -0.005078  -0.024556  -0.000677  -0.016469  -0.002081
   30  C  2 YZ   -0.001612   0.021905   0.001723  -0.004520  -0.054457
   31  O  3  S   -0.000706  -0.024000   0.006117  -0.001564  -0.012982
   32  O  3  S    0.027966   0.120910  -0.081007   0.085365  -0.062272
   33  O  3  X   -0.131416  -0.262678   0.098155  -0.405427   0.119893
   34  O  3  Y    0.117569   0.012119   0.061430  -0.038255  -0.335972
   35  O  3  Z    0.034456   0.053325   0.052909   0.044463  -0.089207
   36  O  3  S   -0.395711  -0.401326   0.056440  -0.240988   0.986214
   37  O  3  X    0.102310  -0.140855  -0.148110   0.221070  -0.545638
   38  O  3  Y   -0.053171  -0.030872  -0.055186  -0.022110   0.099570
   39  O  3  Z    0.017719  -0.054746   0.075982   0.025098   0.148728
   40  O  3 XX   -0.030759  -0.036508   0.012609  -0.048270   0.035381
   41  O  3 YY   -0.016833   0.007727   0.017696  -0.003655   0.020277
   42  O  3 ZZ    0.047592   0.028781  -0.030305   0.051924  -0.055658
   43  O  3 XY    0.097199   0.089074   0.034745  -0.047783   0.003841
   44  O  3 XZ    0.012252   0.049291  -0.022564  -0.018438  -0.019824
   45  O  3 YZ   -0.016630  -0.011620   0.002612  -0.022664  -0.002078
   46  H  4  S   -0.110822  -0.082254   0.053238  -0.110086  -0.579507
   47  H  4  S    0.221417  -0.120694  -0.046602  -0.693183  -1.443676
   48  F  5  S   -0.013789   0.010668   0.019359  -0.020745  -0.010258
   49  F  5  S   -0.007963   0.052650  -0.044245   0.075356   0.001297
   50  F  5  X   -0.153157   0.231814   0.068589  -0.003145  -0.056668
   51  F  5  Y    0.099048  -0.015628   0.034582  -0.062254  -0.068254
   52  F  5  Z   -0.003373   0.042652  -0.188902   0.005480  -0.013688
   53  F  5  S    0.442453  -0.637525  -0.263167   0.131927   0.288142
   54  F  5  X    0.121943  -0.187863  -0.110156   0.111872   0.094595
   55  F  5  Y   -0.052091   0.048709   0.045940  -0.072003   0.049434
   56  F  5  Z    0.024109  -0.012050  -0.153511  -0.023553   0.016033
   57  F  5 XX    0.054836  -0.081774  -0.024191   0.017530   0.004307
   58  F  5 YY   -0.016254   0.030469   0.019135   0.000896   0.011736
   59  F  5 ZZ   -0.038582   0.051306   0.005056  -0.018426  -0.016043
   60  F  5 XY   -0.059657   0.040895  -0.001604  -0.018629   0.031704
   61  F  5 XZ    0.019549  -0.024670  -0.027798  -0.014896   0.011542
   62  F  5 YZ   -0.020973   0.009363   0.003338   0.006378   0.013900
   63  H  6  S    0.071355  -0.018969  -0.285288   0.124634  -0.223135
   64  H  6  S    0.057174   0.108868  -0.482820  -0.205899  -0.349679
   65  H  7  S    0.185838   0.134840   0.341425  -0.768239   0.171495
   66  H  7  S   -0.580456  -0.198033  -0.021342   1.565074  -0.463676

                     31         32         33         34         35
                    0.7731     0.8204     0.8720     0.9308     0.9714
                     A          A          A          A          A   
    1  C  1  S   -0.027186   0.040215   0.016462  -0.000261  -0.013501
    2  C  1  S    0.199904  -0.267941  -0.545195  -0.118788   0.226339
    3  C  1  X    0.155777   0.106351   0.005537   0.028660   0.072660
    4  C  1  Y    0.352050   0.261256   0.348457  -0.045673  -0.076935
    5  C  1  Z   -0.118031  -0.356332  -0.327207   0.015459   0.203979
    6  C  1  S   -2.177824   0.445910   0.176416   0.783700  -0.172741
    7  C  1  X   -0.794454  -0.389327  -0.424851   0.122984   0.418261
    8  C  1  Y   -1.574572  -0.333970  -1.156217   0.236991   0.035150
    9  C  1  Z    0.772932   0.406428   0.719825   0.057210  -0.533076
   10  C  1 XX   -0.110832  -0.068769  -0.052442   0.021666   0.014695
   11  C  1 YY    0.069837   0.037887  -0.020615   0.021776   0.058171
   12  C  1 ZZ    0.040995   0.030883   0.073056  -0.043442  -0.072865
   13  C  1 XY   -0.067040   0.015218  -0.053510   0.004796  -0.000575
   14  C  1 XZ    0.063178  -0.012105   0.001796   0.007729  -0.024109
   15  C  1 YZ    0.055188  -0.127624  -0.078789  -0.033972   0.073964
   16  C  2  S   -0.010373  -0.033823   0.010731   0.005124   0.017728
   17  C  2  S   -0.684786   0.721811  -1.046366   0.363501   0.545509
   18  C  2  X    0.276458  -0.010336   0.190034  -0.006006   0.190922
   19  C  2  Y    0.722020   0.315273  -0.313061  -0.057325  -0.069190
   20  C  2  Z    0.070361   0.019573  -0.082247   0.064303  -0.042470
   21  C  2  S    2.495678  -1.037412   3.241249  -0.745350  -0.270837
   22  C  2  X   -1.200493  -0.117816  -0.404123   0.267910   0.011304
   23  C  2  Y   -2.427689  -0.753992  -0.224848   0.469061   0.267956
   24  C  2  Z   -0.527475   0.070398  -0.071376  -0.434627   0.164487
   25  C  2 XX    0.078661   0.089036  -0.026681   0.040083   0.093077
   26  C  2 YY   -0.091723  -0.117773   0.065630  -0.009022   0.004215
   27  C  2 ZZ    0.013061   0.028738  -0.038949  -0.031061  -0.097292
   28  C  2 XY   -0.013526   0.019696  -0.081913  -0.013634  -0.074958
   29  C  2 XZ   -0.058672   0.061421   0.011657  -0.011047  -0.056569
   30  C  2 YZ   -0.075548   0.041784   0.052519  -0.007343   0.030565
   31  O  3  S    0.003670   0.005868   0.032910   0.016119   0.048442
   32  O  3  S    0.040727  -0.029034  -0.170328  -0.146984  -0.382371
   33  O  3  X   -0.233025   0.031893  -0.254282  -0.179048  -0.544598
   34  O  3  Y    0.012759  -0.094978   0.201895   0.269954   0.068362
   35  O  3  Z   -0.079913   0.095128   0.053229  -0.846148   0.300694
   36  O  3  S   -0.690203   0.076845  -0.434430   0.217523   0.436552
   37  O  3  X    0.525249  -0.021458   0.684964   0.221495   0.907897
   38  O  3  Y    0.068227   0.143120  -0.379732  -0.430759  -0.353220
   39  O  3  Z    0.098811  -0.141005  -0.151639   1.085166  -0.465845
   40  O  3 XX   -0.114298  -0.023723   0.019607   0.014918   0.066072
   41  O  3 YY    0.028158   0.052791  -0.059149   0.038279   0.034471
   42  O  3 ZZ    0.086140  -0.029068   0.039542  -0.053197  -0.100543
   43  O  3 XY   -0.017920  -0.021366   0.060476   0.005362   0.042335
   44  O  3 XZ    0.002401   0.009425   0.011927   0.011567  -0.002234
   45  O  3 YZ   -0.055894   0.052175  -0.023711  -0.002159   0.043691
   46  H  4  S   -0.392948  -0.564782   0.490761  -0.101820  -0.250633
   47  H  4  S    1.422724   1.275108  -1.035997  -0.007231   0.090132
   48  F  5  S   -0.015438  -0.008260  -0.000862   0.010310  -0.009311
   49  F  5  S    0.012260   0.067193  -0.011323  -0.059318   0.037572
   50  F  5  X   -0.043891   0.052199  -0.011814  -0.007646  -0.046664
   51  F  5  Y    0.057288  -0.021903  -0.000770  -0.059466   0.007810
   52  F  5  Z   -0.045818   0.054372   0.032635   0.028309   0.039794
   53  F  5  S    0.322158  -0.134235   0.042436  -0.057056   0.116339
   54  F  5  X    0.256428  -0.009379   0.062929  -0.043825   0.091619
   55  F  5  Y    0.046070   0.042572   0.072971   0.047449  -0.029416
   56  F  5  Z   -0.017826  -0.047828  -0.067007  -0.039822   0.024774
   57  F  5 XX    0.058731   0.016154   0.030869  -0.019451  -0.003626
   58  F  5 YY   -0.019439  -0.003561  -0.009561   0.009116   0.008712
   59  F  5 ZZ   -0.039291  -0.012593  -0.021308   0.010335  -0.005086
   60  F  5 XY    0.017382   0.018401   0.047428   0.015672  -0.003509
   61  F  5 XZ    0.009495  -0.036160  -0.029923  -0.014777   0.018465
   62  F  5 YZ    0.005794   0.017131   0.019060  -0.005702  -0.006682
   63  H  6  S   -0.344076   0.833836   0.498715   0.039817  -0.287314
   64  H  6  S   -0.532015  -1.175022  -1.424500  -0.072571   0.801653
   65  H  7  S   -0.297452   0.167277   0.115949   0.157821   0.546942
   66  H  7  S   -0.080135   0.021518  -0.405070  -0.113879  -0.880485

                     36         37         38         39         40
                    1.0184     1.1461     1.2321     1.2813     1.3333
                     A          A          A          A          A   
    1  C  1  S   -0.037301  -0.041007  -0.016437  -0.005992  -0.008860
    2  C  1  S   -1.369871  -1.040258  -0.574701  -0.133994  -0.059364
    3  C  1  X   -0.310131  -0.138130   0.195093  -0.106125  -0.091708
    4  C  1  Y    0.060597   0.079601  -0.099188   0.098266  -0.002865
    5  C  1  Z   -0.116685  -0.050371   0.085014   0.100518   0.058359
    6  C  1  S    3.421655   3.967686   0.788540   0.786079   0.851417
    7  C  1  X    1.042645   1.303741   0.339064   0.366803   0.833418
    8  C  1  Y    0.524960   0.544980   0.245847  -0.272924   0.584348
    9  C  1  Z    0.489840   0.203143  -0.108516  -0.428213  -0.387872
   10  C  1 XX    0.007210  -0.019910  -0.161663   0.014596  -0.006343
   11  C  1 YY   -0.033428  -0.006876   0.041690   0.101530  -0.081688
   12  C  1 ZZ    0.026218   0.026786   0.119972  -0.116127   0.088030
   13  C  1 XY   -0.022648   0.026331   0.111710  -0.087240  -0.075110
   14  C  1 XZ    0.036442   0.163088  -0.163481  -0.121860  -0.038678
   15  C  1 YZ    0.103682   0.133781   0.041240  -0.040281   0.025418
   16  C  2  S    0.012055   0.021788   0.006008   0.001011   0.006358
   17  C  2  S    0.752396   0.401242   0.132802   0.019814   0.011136
   18  C  2  X   -0.041758  -0.082521  -0.001947  -0.055433   0.091344
   19  C  2  Y    0.180011  -0.048991  -0.003575   0.025505  -0.121974
   20  C  2  Z    0.023896  -0.027808   0.029331   0.021735   0.049917
   21  C  2  S   -3.078953  -1.854396  -0.533742   0.155229  -0.441545
   22  C  2  X    0.498093   1.651700   0.452207   0.518251   0.401162
   23  C  2  Y   -0.267033   1.333557   0.070278   0.165973   0.845475
   24  C  2  Z   -0.274232  -0.105329  -0.034936   0.089611   0.003139
   25  C  2 XX   -0.113594   0.068179   0.044623   0.059669  -0.001356
   26  C  2 YY    0.103403  -0.088692  -0.051505  -0.065856  -0.051397
   27  C  2 ZZ    0.010190   0.020514   0.006882   0.006187   0.052753
   28  C  2 XY   -0.082523  -0.066985  -0.020179  -0.051001  -0.067744
   29  C  2 XZ   -0.062325  -0.167993   0.053036   0.117853  -0.035676
   30  C  2 YZ   -0.023718  -0.149832   0.087151   0.104377   0.114125
   31  O  3  S    0.002322  -0.005200  -0.002096  -0.001329  -0.014313
   32  O  3  S    0.016787   0.175319   0.106843   0.074860   0.380187
   33  O  3  X   -0.218523   0.180365   0.039725   0.019032  -0.065495
   34  O  3  Y   -0.419211   0.588224   0.092872   0.246098   0.050315
   35  O  3  Z   -0.063364   0.196955  -0.005604   0.088121  -0.027002
   36  O  3  S    0.084026  -0.233271  -0.237017  -0.223543  -0.451819
   37  O  3  X    0.382472  -0.307547  -0.002995   0.001256   0.199747
   38  O  3  Y    0.745834  -1.293611  -0.237927  -0.596445  -0.240959
   39  O  3  Z    0.130345  -0.343947  -0.035086  -0.245864   0.048241
   40  O  3 XX    0.110115  -0.061161  -0.005825  -0.017717   0.072419
   41  O  3 YY   -0.078093   0.081034  -0.004514  -0.045481   0.014829
   42  O  3 ZZ   -0.032022  -0.019873   0.010340   0.063198  -0.087248
   43  O  3 XY    0.014880  -0.093796  -0.025564  -0.053796  -0.049143
   44  O  3 XZ   -0.040534  -0.056867   0.010426  -0.021361   0.053465
   45  O  3 YZ   -0.064292  -0.079372   0.029565   0.036369   0.032454
   46  H  4  S    0.245188  -0.099489   0.051770  -0.070068  -0.135106
   47  H  4  S    0.628566  -0.320455   0.044978  -0.074472  -0.369505
   48  F  5  S    0.015619   0.010920  -0.062067   0.010714   0.000428
   49  F  5  S   -0.071949  -0.062668   0.474186  -0.092569   0.000215
   50  F  5  X    0.057863   0.029136  -0.573604   0.176951   0.494096
   51  F  5  Y   -0.090200   0.038711   0.235197  -0.578228   0.572024
   52  F  5  Z   -0.067013   0.236257  -0.383999  -0.562442  -0.354756
   53  F  5  S   -0.142773  -0.088957  -0.279461   0.086144   0.059861
   54  F  5  X   -0.231229  -0.166223   0.910638  -0.264041  -0.682277
   55  F  5  Y    0.055649  -0.054704  -0.387762   0.730703  -0.793396
   56  F  5  Z   -0.002419  -0.263861   0.501674   0.698910   0.488234
   57  F  5 XX   -0.047874  -0.046803  -0.095729   0.026514   0.114451
   58  F  5 YY   -0.013417   0.000261   0.012832  -0.014735  -0.115044
   59  F  5 ZZ    0.061291   0.046542   0.082898  -0.011779   0.000593
   60  F  5 XY   -0.000489  -0.021005   0.045699  -0.012650   0.042052
   61  F  5 XZ   -0.006977  -0.040746  -0.016802   0.025113  -0.022159
   62  F  5 YZ    0.035307   0.058263   0.006556  -0.012248   0.033119
   63  H  6  S   -0.164871  -0.177221  -0.050380  -0.062290   0.032796
   64  H  6  S   -0.672643  -0.400761   0.000103   0.053292   0.275766
   65  H  7  S   -0.224851  -0.209524  -0.048351  -0.105505   0.017116
   66  H  7  S    0.133555  -0.770340  -0.164761  -0.616139  -0.063755

                     41         42         43         44         45
                    1.4390     1.4533     1.5750     1.6574     1.7001
                     A          A          A          A          A   
    1  C  1  S   -0.016860  -0.018058  -0.002607  -0.005494   0.005398
    2  C  1  S   -0.244277  -0.248449   0.117317  -0.245743   0.389061
    3  C  1  X   -0.034778  -0.014808   0.076179  -0.071258   0.149820
    4  C  1  Y   -0.042344   0.048355   0.188494   0.087770   0.069069
    5  C  1  Z    0.028289  -0.094123  -0.052013   0.040260   0.040650
    6  C  1  S    0.899210   0.981008  -0.348103   1.400744  -0.450654
    7  C  1  X    0.359841   0.261354  -0.283245   1.015125  -0.278479
    8  C  1  Y    0.214343  -0.079723  -0.340035   0.183984   0.032108
    9  C  1  Z    0.122439   0.539181   0.187756  -0.491368  -0.307264
   10  C  1 XX   -0.010067   0.039160   0.230668   0.238348   0.160162
   11  C  1 YY    0.134228   0.067449  -0.530913  -0.321735  -0.069412
   12  C  1 ZZ   -0.124161  -0.106610   0.300246   0.083387  -0.090751
   13  C  1 XY   -0.096055  -0.132260   0.165495   0.079755  -0.239010
   14  C  1 XZ   -0.063642  -0.460742  -0.087650  -0.223564  -0.015180
   15  C  1 YZ   -0.144214   0.026925   0.054448   0.120201  -0.183109
   16  C  2  S    0.003022   0.001570   0.002044   0.013739  -0.010144
   17  C  2  S    0.083868   0.013859  -0.217881   0.046535   0.125913
   18  C  2  X   -0.025606  -0.001168   0.099694  -0.069441  -0.094588
   19  C  2  Y    0.017707   0.037628   0.094716   0.079974   0.085996
   20  C  2  Z   -0.140631   0.121379  -0.050980   0.034447   0.029220
   21  C  2  S   -0.573968  -0.072884   1.437884  -2.368260   0.269554
   22  C  2  X    0.310475   0.377608   0.090170  -0.585576   0.344439
   23  C  2  Y    0.240065   0.150099  -0.092459   1.725181   0.578668
   24  C  2  Z    0.060503  -0.260584  -0.077507   0.413576   0.241484
   25  C  2 XX    0.126260  -0.014242  -0.109858  -0.069232  -0.357522
   26  C  2 YY    0.089725  -0.065281   0.141742   0.146739   0.394173
   27  C  2 ZZ   -0.215985   0.079523  -0.031884  -0.077507  -0.036650
   28  C  2 XY   -0.149753  -0.037251  -0.068422   0.176203  -0.119629
   29  C  2 XZ    0.450227   0.098003   0.108386   0.029215  -0.146629
   30  C  2 YZ   -0.318788   0.386018  -0.072272   0.006333  -0.006919
   31  O  3  S    0.000466  -0.007807  -0.026571   0.015847  -0.005810
   32  O  3  S    0.019016   0.226920   0.774887  -1.227058   0.093842
   33  O  3  X    0.010045  -0.010507  -0.171863   0.068147   0.069393
   34  O  3  Y    0.022705   0.077993   0.079758   0.066532   0.132641
   35  O  3  Z   -0.049991   0.015474  -0.023085   0.009813   0.049145
   36  O  3  S   -0.016763  -0.455609  -1.376639   3.046674  -0.119234
   37  O  3  X   -0.042382   0.103357   0.525579  -0.996973  -0.154154
   38  O  3  Y   -0.050874  -0.240573  -0.209956   0.191684  -0.219512
   39  O  3  Z   -0.175688   0.007447  -0.043080   0.103398  -0.076568
   40  O  3 XX   -0.078752   0.069541   0.145436  -0.255263   0.312543
   41  O  3 YY   -0.059177  -0.085457  -0.011040   0.157584  -0.123863
   42  O  3 ZZ    0.137929   0.015916  -0.134396   0.097678  -0.188681
   43  O  3 XY    0.093517  -0.079083   0.068413   0.065763   0.145490
   44  O  3 XZ   -0.436247   0.103987  -0.136465  -0.159333  -0.198242
   45  O  3 YZ    0.203318   0.000073   0.142190  -0.240358  -0.441383
   46  H  4  S   -0.012713  -0.096656  -0.307359  -0.214413  -0.538259
   47  H  4  S   -0.039682  -0.007604  -0.106035  -0.437951  -0.170157
   48  F  5  S    0.009662  -0.005342  -0.009804  -0.008009   0.027397
   49  F  5  S   -0.104930   0.050051   0.148848   0.121547  -0.260651
   50  F  5  X    0.023936   0.031704  -0.004304   0.131868  -0.236616
   51  F  5  Y    0.169658   0.004325  -0.104029   0.123232   0.022319
   52  F  5  Z    0.058626   0.357083   0.033992  -0.112977  -0.076773
   53  F  5  S    0.083248  -0.023949  -0.159678  -0.064705   0.154369
   54  F  5  X   -0.074355  -0.016264   0.029288  -0.250813   0.207754
   55  F  5  Y   -0.263335  -0.036165   0.259901  -0.181182  -0.000096
   56  F  5  Z   -0.111318  -0.615520  -0.081235   0.188607   0.107478
   57  F  5 XX    0.027820  -0.054046  -0.185275  -0.088165   0.085383
   58  F  5 YY   -0.058932  -0.094348   0.092021   0.010243  -0.149153
   59  F  5 ZZ    0.031112   0.148394   0.093254   0.077922   0.063770
   60  F  5 XY    0.133326   0.102051  -0.373555  -0.155768   0.207426
   61  F  5 XZ    0.063748   0.360515   0.005279   0.152896  -0.077767
   62  F  5 YZ   -0.019212  -0.134120  -0.129360   0.001680  -0.022431
   63  H  6  S   -0.165143  -0.145155   0.032710   0.148781   0.089789
   64  H  6  S   -0.081471  -0.351689  -0.215867   0.129996   0.213926
   65  H  7  S   -0.050752  -0.163794   0.085654  -0.340855  -0.079772
   66  H  7  S   -0.064286  -0.034033   0.190056  -0.321669   0.224541

                     46         47         48         49         50
                    1.7330     1.8112     1.8260     1.8952     1.9368
                     A          A          A          A          A   
    1  C  1  S    0.016410  -0.049011  -0.004941   0.001861   0.011222
    2  C  1  S    0.476698  -0.578602   0.036905   0.065400  -0.196567
    3  C  1  X    0.186964  -0.058166   0.041299  -0.023929  -0.088191
    4  C  1  Y    0.080399   0.113781   0.002915  -0.045254  -0.119346
    5  C  1  Z   -0.050441   0.078128   0.021240   0.074930  -0.069824
    6  C  1  S   -0.475074   2.610964   0.254153  -0.705157  -0.556839
    7  C  1  X   -0.464411   1.176494  -0.053130  -0.409819  -1.087471
    8  C  1  Y    0.011823   0.099503  -0.299337  -0.449012  -0.117205
    9  C  1  Z   -0.209040   0.479676   0.200830   0.402907  -0.173019
   10  C  1 XX   -0.047447   0.206872  -0.134433  -0.130443   0.104238
   11  C  1 YY   -0.096624  -0.128434  -0.102850   0.055699  -0.000635
   12  C  1 ZZ    0.144071  -0.078438   0.237283   0.074744  -0.103603
   13  C  1 XY   -0.225383   0.015206  -0.085219  -0.023174  -0.191458
   14  C  1 XZ    0.047704   0.224019  -0.026136   0.076062   0.056486
   15  C  1 YZ    0.369404  -0.241669  -0.169508  -0.188696   0.061447
   16  C  2  S   -0.000486   0.015000   0.006299  -0.010581  -0.028215
   17  C  2  S    0.271449   0.125028   0.201021  -0.123095  -0.189976
   18  C  2  X   -0.146385  -0.018073  -0.094871   0.009516  -0.078252
   19  C  2  Y   -0.084597   0.160446  -0.151095  -0.024744   0.040627
   20  C  2  Z   -0.037404   0.050271  -0.010194   0.041569  -0.011529
   21  C  2  S   -0.249035  -2.023194  -0.445992   0.874221   1.174046
   22  C  2  X    0.004067   0.325790  -0.277544  -0.382492  -0.221923
   23  C  2  Y    0.559534   1.588234   0.352972  -0.605127  -1.157620
   24  C  2  Z    0.103722  -0.104002   0.054709  -0.234059   0.035225
   25  C  2 XX   -0.227069  -0.115366  -0.012547   0.051361  -0.018397
   26  C  2 YY    0.100862   0.220545  -0.173047  -0.131816   0.219766
   27  C  2 ZZ    0.126207  -0.105179   0.185594   0.080456  -0.201369
   28  C  2 XY   -0.172300   0.049837  -0.027198   0.076162   0.108287
   29  C  2 XZ   -0.001441   0.224598   0.025383   0.241260  -0.200356
   30  C  2 YZ   -0.176522   0.369711  -0.055176   0.277319  -0.176306
   31  O  3  S    0.003484   0.000516   0.002352  -0.001500   0.002644
   32  O  3  S   -0.240136  -0.482760  -0.223117   0.063613  -0.029461
   33  O  3  X    0.063460   0.078299  -0.020805  -0.025839   0.049035
   34  O  3  Y    0.039925   0.143464  -0.050581   0.000599   0.039824
   35  O  3  Z   -0.047273   0.048672   0.000681   0.002880   0.015166
   36  O  3  S    0.603910   1.382462   0.672979  -0.242410  -0.345095
   37  O  3  X   -0.290039  -0.594201  -0.140859   0.125076   0.038763
   38  O  3  Y   -0.004167  -0.181523   0.164414   0.047614  -0.050193
   39  O  3  Z    0.107649   0.022143   0.039648   0.015103  -0.059983
   40  O  3 XX    0.073625   0.145969  -0.157929   0.007606   0.017669
   41  O  3 YY   -0.426082  -0.240163   0.007683   0.330817   0.451105
   42  O  3 ZZ    0.352457   0.094194   0.150245  -0.338423  -0.468774
   43  O  3 XY   -0.043757   0.091122  -0.092857   0.183316   0.269482
   44  O  3 XZ    0.163023   0.291244   0.026370  -0.131524   0.143738
   45  O  3 YZ    0.229267   0.390168  -0.041286  -0.104635   0.400415
   46  H  4  S   -0.149254  -0.390788   0.143890   0.104340   0.008272
   47  H  4  S   -0.174127  -0.340654  -0.131125   0.168339   0.411287
   48  F  5  S   -0.011172   0.019872  -0.009767  -0.004018  -0.020242
   49  F  5  S    0.240690  -0.210305   0.131559   0.025610   0.580205
   50  F  5  X   -0.026591  -0.096592   0.028593  -0.002714  -0.039633
   51  F  5  Y   -0.050649   0.114721  -0.065478  -0.055772  -0.090514
   52  F  5  Z    0.003535   0.052842   0.062330   0.086097  -0.035328
   53  F  5  S   -0.397278   0.237920  -0.136832   0.019380  -1.087804
   54  F  5  X   -0.028128  -0.007299  -0.021748   0.067703  -0.169305
   55  F  5  Y    0.098513  -0.147874   0.109470   0.106091   0.252727
   56  F  5  Z   -0.012995  -0.110917  -0.099163  -0.153212   0.001233
   57  F  5 XX    0.073342   0.035659   0.138984  -0.001842   0.322797
   58  F  5 YY   -0.229326   0.072583  -0.625726  -0.292135  -0.314755
   59  F  5 ZZ    0.155984  -0.108242   0.486742   0.293977  -0.008042
   60  F  5 XY   -0.058851  -0.054738  -0.090676  -0.227978   0.103381
   61  F  5 XZ    0.156120  -0.278262  -0.369468  -0.029919   0.191236
   62  F  5 YZ    0.402319  -0.018789  -0.427729   0.655035  -0.140669
   63  H  6  S    0.232477  -0.416248  -0.285577  -0.292175   0.180861
   64  H  6  S    0.216877  -0.331437  -0.102093  -0.130638  -0.128758
   65  H  7  S    0.113557  -0.406483   0.136248  -0.083243  -0.329894
   66  H  7  S    0.102574  -0.207854  -0.083138   0.071921   0.116458

                     51         52         53         54         55
                    1.9681     2.0125     2.0777     2.1678     2.2632
                     A          A          A          A          A   
    1  C  1  S    0.022181  -0.003996  -0.022334  -0.020142   0.023330
    2  C  1  S    0.105871  -0.234213  -0.502362  -0.374971   0.151294
    3  C  1  X   -0.122008   0.020776   0.078034  -0.104029  -0.367518
    4  C  1  Y    0.030435  -0.062969  -0.089689  -0.084232  -0.110584
    5  C  1  Z   -0.080098  -0.008584   0.035589  -0.013825  -0.007389
    6  C  1  S   -1.241758   0.107063   1.082155   1.450435  -1.272788
    7  C  1  X    0.603634  -0.676078  -0.295955   0.580488  -0.285758
    8  C  1  Y   -0.349446   0.444380   0.266567   0.476170  -0.873785
    9  C  1  Z   -0.256838  -0.097723  -0.016261  -0.153021   0.314074
   10  C  1 XX    0.265824   0.120804   0.470895   0.042570  -0.141670
   11  C  1 YY    0.034618   0.299132  -0.329197   0.165540  -0.317641
   12  C  1 ZZ   -0.300442  -0.419937  -0.141698  -0.208109   0.459311
   13  C  1 XY   -0.033438   0.093689  -0.301092   0.417956   0.174373
   14  C  1 XZ   -0.014262   0.077613   0.082719  -0.023368  -0.359581
   15  C  1 YZ   -0.039568  -0.039070  -0.397182  -0.167860  -0.237329
   16  C  2  S   -0.011777  -0.023574   0.018154   0.045586  -0.045449
   17  C  2  S   -0.300970  -0.419157   0.219006   0.202659  -0.331031
   18  C  2  X    0.031241   0.225880  -0.183259   0.251713  -0.148923
   19  C  2  Y    0.026660   0.134742  -0.076980   0.098324   0.009084
   20  C  2  Z    0.008315  -0.005596   0.044469   0.005567   0.052012
   21  C  2  S    0.732579   1.078479  -0.584931  -1.268543   1.775255
   22  C  2  X   -0.451492   0.355789   0.160150   0.136505  -0.491266
   23  C  2  Y   -0.224576  -0.737782  -0.064665   0.808497  -0.719457
   24  C  2  Z    0.133301  -0.068937   0.058570   0.177332  -0.073115
   25  C  2 XX    0.077705   0.398254  -0.086455  -0.297648   0.183897
   26  C  2 YY    0.026848   0.178512  -0.047991   0.025210   0.369279
   27  C  2 ZZ   -0.104553  -0.576766   0.134446   0.272439  -0.553176
   28  C  2 XY    0.075320  -0.142563   0.046389   0.619200   0.154760
   29  C  2 XZ   -0.175651  -0.190095   0.067343   0.108918  -0.258564
   30  C  2 YZ   -0.196614   0.110480  -0.114922  -0.298733  -0.067456
   31  O  3  S   -0.002606   0.020022  -0.013498  -0.032746   0.004872
   32  O  3  S    0.059827   0.123315   0.254211   0.347298   0.094402
   33  O  3  X   -0.066974   0.197361  -0.200023  -0.312565   0.016456
   34  O  3  Y   -0.046861  -0.122030  -0.054282   0.236630  -0.067574
   35  O  3  Z    0.038949  -0.061426   0.027095   0.084822  -0.008484
   36  O  3  S   -0.092329  -1.028358  -0.187941   0.236687  -0.492361
   37  O  3  X    0.174043   0.184831   0.247387   0.034197   0.231370
   38  O  3  Y    0.101417  -0.093552   0.218443  -0.218132   0.109137
   39  O  3  Z   -0.088843  -0.021276  -0.037967  -0.070406  -0.027976
   40  O  3 XX   -0.089352   0.174859  -0.333358   0.146005  -0.084978
   41  O  3 YY    0.106367  -0.327770   0.162103  -0.349742  -0.003840
   42  O  3 ZZ   -0.017015   0.152910   0.171256   0.203737   0.088818
   43  O  3 XY   -0.114821  -0.133401  -0.454711   0.178749  -0.288918
   44  O  3 XZ    0.190546  -0.046019   0.092062   0.121551   0.049658
   45  O  3 YZ    0.212071  -0.189178  -0.107688  -0.120308   0.104901
   46  H  4  S   -0.003712  -0.099415   0.146204  -0.112159  -0.240575
   47  H  4  S   -0.013077   0.160885   0.061836  -0.176570   0.186198
   48  F  5  S    0.051054  -0.021263   0.012675  -0.014227  -0.011092
   49  F  5  S   -0.931069   0.543889   0.195662   0.232939  -0.006296
   50  F  5  X   -0.179863   0.055521  -0.219565   0.105797   0.083113
   51  F  5  Y    0.122784   0.041153   0.060801  -0.000608  -0.163240
   52  F  5  Z   -0.158838   0.014831  -0.030197  -0.015960   0.083370
   53  F  5  S    1.451669  -1.007081  -0.721949  -0.322580   0.282241
   54  F  5  X    0.371825  -0.266601  -0.042075  -0.194300   0.088060
   55  F  5  Y   -0.216805  -0.017823   0.030709  -0.034077   0.316965
   56  F  5  Z    0.300902  -0.067483  -0.038685   0.051784  -0.145417
   57  F  5 XX   -0.440768   0.076033   0.258742   0.115177   0.116316
   58  F  5 YY   -0.140121  -0.208380   0.004782  -0.210233  -0.114908
   59  F  5 ZZ    0.580889   0.132348  -0.263524   0.095055  -0.001408
   60  F  5 XY   -0.035673  -0.403500  -0.101209   0.090958   0.440290
   61  F  5 XZ    0.100134  -0.009454   0.181979   0.122582  -0.156289
   62  F  5 YZ    0.057286   0.004392   0.138044   0.054690   0.321186
   63  H  6  S    0.321623   0.176704  -0.153321  -0.059509  -0.314200
   64  H  6  S    0.054374  -0.046843  -0.070276   0.038444  -0.145094
   65  H  7  S   -0.059033   0.107550   0.301261   0.039948   0.124776
   66  H  7  S   -0.129019   0.142055  -0.016352  -0.063628  -0.107513

                     56         57         58         59         60
                    2.3502     2.4741     2.4917     2.7264     2.7701
                     A          A          A          A          A   
    1  C  1  S    0.042758   0.030039   0.005526   0.058192   0.010992
    2  C  1  S    0.029036   0.120075   0.022665  -0.126316  -0.173352
    3  C  1  X   -0.161734  -0.151144   0.045848  -0.212978   0.345962
    4  C  1  Y   -0.133837  -0.096381  -0.091291  -0.305494  -0.122269
    5  C  1  Z    0.013519  -0.027018  -0.042876   0.024498   0.048003
    6  C  1  S   -1.728065  -1.160891  -0.136081  -1.405988   0.272887
    7  C  1  X   -0.753467  -0.416741   0.014368  -0.515540   0.418183
    8  C  1  Y   -0.480271  -0.449149  -0.157641  -0.471219  -0.132091
    9  C  1  Z    0.277779   0.027972  -0.131537   0.025324   0.011446
   10  C  1 XX    0.264058  -0.050454  -0.123305  -0.345487   0.260050
   11  C  1 YY   -0.079014  -0.176791  -0.222973  -0.089264  -0.309589
   12  C  1 ZZ   -0.185044   0.227245   0.346278   0.434751   0.049539
[...]
  7   H            X-0.143205-0.056456-0.026873
                   Y-0.056456 0.088802 0.028696
                   Z-0.026873 0.028696 0.064135

          ------------------------          ----------------
          DIPOLE DERIVATIVE TENSOR          (DEBYE/ANGSTROM)
          ------------------------          ----------------

        ATOM                 MU-X           MU-Y           MU-Z
     C          D/DX     3.992403599   -0.757993378    0.900341458
                D/DY    -3.348987213   -2.053527757   -0.603675148
                D/DZ     0.659658654   -1.346911511    0.098420157
     C          D/DX     3.994154699    2.407849680   -0.202284639
                D/DY    -0.059175632    2.307177679    0.311052859
                D/DZ    -0.677116988    0.063529571    0.779184038
     O          D/DX    -5.788552982   -0.576224693    0.288321257
                D/DY     0.126807388   -0.121374061    0.112231461
                D/DZ     0.219591615    0.350429196   -1.396292741
     H          D/DX     0.491350245   -0.120140128   -0.082136383
                D/DY    -0.005964583   -0.303401739   -0.143464336
                D/DZ     0.177300392    0.187807563    0.716312619
     F          D/DX    -5.021081923    0.442023964   -0.727450691
                D/DY     1.938280978   -1.006878702    0.392066481
                D/DZ    -0.477180065    0.140857919   -0.910591892
     H          D/DX    -0.231997937   -0.154593738    0.060020412
                D/DY     0.548129366    1.093969830    0.260139620
                D/DZ     0.183720531    0.935669882    0.037869357
     H          D/DX     2.565848813   -1.241073221   -0.235361115
                D/DY     0.808949734    0.086178757   -0.328338332
                D/DZ    -0.088781654   -0.329977498    0.673413528

          --------------------------------------------------------
          NORMAL COORDINATE ANALYSIS IN THE HARMONIC APPROXIMATION
          --------------------------------------------------------

     *******************************************************
     * THIS IS NOT A STATIONARY POINT ON THE MOLECULAR PES *
     *     THE VIBRATIONAL ANALYSIS IS NOT VALID !!!       *
     *******************************************************

          ATOMIC WEIGHTS (AMU)

    1     C                12.00000
    2     C                12.00000
    3     O                15.99491
    4     H                 1.00782
    5     F                18.99840
    6     H                 1.00782
    7     H                 1.00782

 MODE(S)     1 TO     1 TREATED AS IMAGINARY.

 MODES    2 TO    7 ARE TAKEN AS ROTATIONS AND TRANSLATIONS.

 ANALYZING SYMMETRY OF NORMAL MODES...

     FREQUENCIES IN CM**-1, IR INTENSITIES IN DEBYE**2/AMU-ANGSTROM**2,
     REDUCED MASSES IN AMU.

     *******************************************************
     * THIS IS NOT A STATIONARY POINT ON THE MOLECULAR PES *
     *     THE VIBRATIONAL ANALYSIS IS NOT VALID !!!       *
     *******************************************************

                            1           2           3           4           5
       FREQUENCY:      2214.42 I      0.15        0.07        0.09        7.19  
        SYMMETRY:         A           A           A           A           A   
    REDUCED MASS:      1.10675     8.88049     8.86124     8.87885     7.50621
    IR INTENSITY:      6.52118     0.00000     0.00000     0.00000     0.02220

  1   C            X -0.01501398  0.06445113  0.10904298  0.00673987  0.01050605
                   Y  0.04096141  0.08446349 -0.05502499  0.07745223  0.01736067
                   Z  0.00834140 -0.06966167  0.03446950  0.09979368  0.06936809
  2   C            X -0.05659078  0.06482956  0.10890768  0.00692423  0.01741868
                   Y  0.00522570  0.08402565 -0.05482315  0.07726128  0.00361605
                   Z  0.00447602 -0.06936135  0.03567306  0.10107852 -0.10361409
  3   O            X -0.00214567  0.06464744  0.10915927  0.00684163 -0.01189611
                   Y -0.04440911  0.08351903 -0.05447094  0.07734579 -0.02831194
                   Z -0.00966436 -0.06871266  0.03576518  0.10051117 -0.14048046
  4   H            X  0.00073203  0.06521622  0.10864343  0.00712407  0.04069539
                   Y -0.00233401  0.08402939 -0.05490090  0.07709232  0.01419415
                   Z -0.06479654 -0.06960441  0.03642224  0.10233718 -0.19934178
  5   F            X -0.00315531  0.06475187  0.10911978  0.00689207 -0.00882704
                   Y  0.00364313  0.08495858 -0.05502719  0.07804182  0.00779395
                   Z  0.00541378 -0.07040487  0.03409032  0.10000993  0.14426559
  6   H            X  0.04513034  0.06369093  0.10864699  0.00637239  0.08482101
                   Y -0.12541983  0.08475843 -0.05568115  0.07639431  0.09256616
                   Z -0.11261162 -0.06944821  0.03401387  0.09906771  0.12013529
  7   H            X  0.90010327  0.06445018  0.10943237  0.00678469 -0.04266962
                   Y  0.21359376  0.08383863 -0.05444303  0.07781298 -0.03907697
                   Z  0.07578574 -0.06886601  0.03466080  0.09929482  0.01341200

 TRANS. SAYVETZ    X -0.00015484  4.01045061  6.76378119  0.42477839  0.06061507
                   Y -0.00034927  5.22642958 -3.40118042  4.80948028  0.01515927
                   Z -0.00033597 -4.31445464  2.16735242  6.22121492  0.01658166
               TOTAL  0.00050877  7.87488407  7.87490830  7.87496364  0.06464473

   ROT. SAYVETZ    X  0.00097381 -0.00597170  0.01640894  0.02748095 -1.97301712
                   Y  0.00185771 -0.10286960 -0.11548446 -0.04886782 19.13516314
                   Z -0.00173547 -0.09630003  0.03720899 -0.04722271 -2.38643893
               TOTAL  0.00272236  0.14103727  0.12243538  0.07330246 19.38407480

                            6           7           8           9          10
       FREQUENCY:         9.89       22.64      326.29      398.28      641.80  
        SYMMETRY:         A           A           A           A           A   
    REDUCED MASS:      9.18816     2.12314     6.76922     4.84795     6.19715
    IR INTENSITY:      0.00351     0.09894     0.15549     0.14358     0.54165

  1   C            X -0.03585010  0.00192628 -0.01396245  0.00450569 -0.05969341
                   Y  0.03860773 -0.03784647 -0.06843638  0.13582216  0.02506564
                   Z -0.00195327 -0.09014991  0.15975170  0.05385453  0.07332426
  2   C            X  0.04504113  0.00667735 -0.04060738  0.07825902  0.05761881
                   Y -0.06092700 -0.03725787 -0.03811894  0.07440274 -0.08356565
                   Z  0.00512644  0.12163638  0.07398929  0.08683748  0.00688840
  3   O            X -0.01344770 -0.00421805 -0.03271211 -0.02654485  0.14894546
                   Y -0.15779854  0.02423697  0.03983414 -0.06529308  0.04698668
                   Z  0.02155332 -0.09231268 -0.09989288 -0.06110947 -0.01622940
  4   H            X  0.14150774  0.01736715 -0.08614695  0.28098712 -0.02845186
                   Y -0.06556330 -0.07401284 -0.03165452  0.04554850 -0.05215578
                   Z -0.00089302  0.41307043  0.04461183  0.21053376 -0.17328819
  5   F            X  0.00754500 -0.00305343  0.07153575 -0.04248133 -0.11525438
                   Y  0.14999773  0.04082395  0.03544533 -0.08863567  0.01088874
                   Z -0.02070114  0.06451344 -0.08121219 -0.04828422 -0.02081110
  6   H            X -0.10362562  0.02408756 -0.13826768  0.03125563 -0.14953422
                   Y  0.04417258 -0.28377689  0.01181926  0.07782552 -0.19231523
                   Z  0.00298880 -0.26056961  0.21410155  0.01206906 -0.08945491
  7   H            X -0.09065418 -0.01650794  0.04400055 -0.07530076  0.01139131
                   Y -0.07870849  0.09437675 -0.01265519  0.08065201 -0.00980721
                   Z  0.01797311 -0.30927737  0.07443474 -0.01736559 -0.04268915

 TRANS. SAYVETZ    X -0.01464442  0.00290785 -0.00082611  0.00031278 -0.00007322
                   Y -0.04297032 -0.00346835 -0.00086039  0.00002858  0.00014817
                   Z  0.00975898 -0.03104660 -0.00003247  0.00038393 -0.00023562
               TOTAL  0.04643431  0.03137477  0.00119322  0.00049604  0.00028781

   ROT. SAYVETZ    X -0.16040996  6.37775789 -0.00241366 -0.03186625 -0.01175849
                   Y -2.56344867  5.85538049  0.01202118 -0.02406953 -0.00772499
                   Z-20.68489688 -1.25819336  0.04034975  0.06338190  0.01282624
               TOTAL 20.84375109  8.74896148  0.04217152  0.07491372  0.01903812

                           11          12          13          14          15
       FREQUENCY:       696.87      974.89     1106.00     1173.05     1187.90  
        SYMMETRY:         A           A           A           A           A   
    REDUCED MASS:      1.41044     1.59612     3.25747     1.11991     1.61988
    IR INTENSITY:      4.03230     0.38024     3.17034     0.55117     0.70071

  1   C            X -0.00763765 -0.01633066 -0.07244709 -0.01718348 -0.14367616
                   Y -0.08434510  0.06501923  0.14349418 -0.01199109 -0.00661987
                   Z -0.07457909  0.06332590 -0.07833913 -0.01385378 -0.00045824
  2   C            X  0.04971319 -0.03393704 -0.03061945  0.04294505 -0.00908135
                   Y -0.00637836 -0.05199294 -0.11008662  0.02051415 -0.02158798
                   Z  0.02373056 -0.13906610  0.06790999 -0.02497425 -0.03149021
  3   O            X  0.02427231  0.01838517  0.01715518 -0.04190634  0.00591179
                   Y  0.02605323  0.01371424  0.02143463  0.04312608  0.03615297
                   Z -0.02053417  0.02336116 -0.02760502 -0.00939435  0.02666439
  4   H            X  0.16377878 -0.07534172 -0.27085980  0.36863464  0.59346107
                   Y -0.04379994 -0.16351424 -0.08025450 -0.01011420 -0.04382088
                   Z  0.26757214  0.72822257 -0.11627994  0.06030325 -0.07722758
  5   F            X -0.06737996  0.01206427  0.06933916  0.01299594  0.06871313
                   Y  0.01546019 -0.00427010 -0.03744679 -0.00255066 -0.02600513
                   Z  0.00453325 -0.00792673  0.02412105  0.01229625  0.01770579
  6   H            X -0.04434825  0.12434029 -0.05389641 -0.30354401 -0.18246444
                   Y  0.55430730 -0.01641012  0.24962341 -0.34961211  0.09660531
                   Z  0.39246913 -0.00928967  0.00166743 -0.24967191  0.07338940
  7   H            X  0.26449313  0.03061635 -0.02704929  0.04820863  0.01889094
                   Y -0.13592663 -0.11209525 -0.20106484 -0.37825724  0.19970640
                   Z  0.18621414 -0.03848998  0.22210254  0.56889686 -0.37283538

 TRANS. SAYVETZ    X -0.00004361  0.00029654  0.00037175 -0.00006142  0.00015934
                   Y -0.00073171  0.00024377  0.00036259 -0.00014217  0.00018001
                   Z  0.00037732 -0.00005069 -0.00009702 -0.00009090 -0.00012633
               TOTAL  0.00082443  0.00038721  0.00052829  0.00017958  0.00027158

   ROT. SAYVETZ    X  0.01093165 -0.00723897  0.00030476 -0.00207289 -0.00170962
                   Y  0.01867247 -0.00981714  0.00329282  0.00202402 -0.00534080
                   Z  0.02210453  0.00401248  0.00622816  0.00610183  0.00218646
               TOTAL  0.03093174  0.01284052  0.00705163  0.00675469  0.00601893

                           16          17          18          19          20
       FREQUENCY:      1290.20     1430.32     1559.51     1851.68     3079.18  
        SYMMETRY:         A           A           A           A           A   
    REDUCED MASS:      1.35297     2.48708     3.80850     1.09622     1.08242
    IR INTENSITY:      0.49491     2.73648     1.94538     0.24561     0.16709

  1   C            X  0.03475895  0.16387260 -0.08504310 -0.00030442  0.00268236
                   Y  0.01804352  0.05769997 -0.01486319 -0.00989214  0.04886591
                   Z  0.01339494  0.00772169  0.01347443 -0.01817278 -0.06215320
  2   C            X -0.01382812  0.01241125  0.20543334  0.03818668 -0.00185362
                   Y -0.10073724 -0.10398638 -0.01695981 -0.06433162  0.00158225
                   Z  0.02426841 -0.01736260 -0.02334180 -0.02684841 -0.00188413
  3   O            X -0.05157500 -0.07810101 -0.10006087 -0.01689461  0.00047981
                   Y  0.05351637  0.04018486  0.03429596  0.01127760  0.00031231
                   Z  0.00999253  0.02154455  0.02282526 -0.00349835  0.00044943
  4   H            X  0.37542561  0.08120513 -0.34919043 -0.00540555 -0.00140884
                   Y -0.10998385 -0.12251528  0.02651038 -0.08686910 -0.04213936
                   Z -0.18200097 -0.07424715 -0.03303866  0.07469881 -0.00366007
  5   F            X -0.02785802 -0.02897603  0.01132399 -0.00035449 -0.00065567
                   Y  0.02081945 -0.00491783 -0.00532552 -0.00025717 -0.00016650
                   Z -0.02369811  0.00443791 -0.00227653  0.00247764 -0.00047900
  6   H            X  0.71781142 -0.49060321  0.10761440  0.00478412 -0.00403748
                   Y -0.02535898  0.09601057 -0.05150302 -0.00056739 -0.55838587
                   Z -0.02044539  0.01634718 -0.00419883 -0.00496328  0.77710925
  7   H            X  0.00131337  0.09600795  0.18263353 -0.17567884  0.00037271
                   Y -0.12175623  0.03225587 -0.04007350  0.79699870 -0.00197490
                   Z  0.04207338 -0.25288881 -0.16458690  0.47516237 -0.00907451

 TRANS. SAYVETZ    X  0.00008989 -0.00015312 -0.00004764 -0.00005526  0.00004957
                   Y  0.00009014 -0.00031844 -0.00006672 -0.00007206 -0.00000464
                   Z -0.00006423  0.00000453  0.00002555  0.00002291 -0.00000364
               TOTAL  0.00014259  0.00035337  0.00008587  0.00009366  0.00004992

   ROT. SAYVETZ    X -0.00575654  0.00170845 -0.00173752  0.00255782  0.00153558
                   Y -0.01330681  0.00863102 -0.00552937  0.00369170  0.00262269
                   Z -0.00475363  0.01086138 -0.01348472  0.00617420  0.00174662
               TOTAL  0.01525798  0.01397794  0.01467755  0.00763491  0.00350531

                           21
       FREQUENCY:      3178.86  
        SYMMETRY:         A   
    REDUCED MASS:      1.09539
    IR INTENSITY:      0.26174

  1   C            X  0.00515274
                   Y  0.00545368
                   Z -0.00295255
  2   C            X -0.00720133
                   Y -0.08393884
                   Z -0.01016896
  3   O            X -0.00192189
                   Y  0.00050735
                   Z -0.00006063
  4   H            X  0.05920245
                   Y  0.94137522
                   Z  0.11974094
  5   F            X -0.00069114
                   Y -0.00009371
                   Z -0.00006960
  6   H            X -0.00037843
                   Y -0.02113665
                   Z  0.03106834
  7   H            X  0.00911698
                   Y  0.00800990
                   Z  0.00768613

 TRANS. SAYVETZ    X  0.00001848
                   Y  0.00002466
                   Z -0.00001447
               TOTAL  0.00003404

   ROT. SAYVETZ    X  0.00012499
                   Y  0.00029992
                   Z  0.00002912
               TOTAL  0.00032622

 REFERENCE ON SAYVETZ CONDITIONS - A. SAYVETZ, J.CHEM.PHYS., 7, 383-389(1939).

 NOTE - THE MODES J,K ARE ORTHONORMALIZED ACCORDING TO
 SUM ON I   M(I) * (X(I,J)*X(I,K) + Y(I,J)*Y(I,K) + Z(I,J)*Z(I,K)) = DELTA(J,K)

  MODE FREQ(CM**-1)  SYMMETRY  RED. MASS  IR INTENS.
     1    2214.421    A        1.106746    6.521180
     2       0.151    A        8.880487    0.000002
     3       0.070    A        8.861243    0.000002
     4       0.089    A        8.878850    0.000002
     5       7.193    A        7.506209    0.022197
     6       9.890    A        9.188163    0.003514
     7      22.645    A        2.123139    0.098944
     8     326.293    A        6.769221    0.155493
     9     398.280    A        4.847955    0.143585
    10     641.804    A        6.197153    0.541649
    11     696.866    A        1.410438    4.032303
    12     974.894    A        1.596121    0.380237
    13    1105.995    A        3.257468    3.170342
    14    1173.046    A        1.119908    0.551165
    15    1187.897    A        1.619881    0.700709
    16    1290.203    A        1.352974    0.494915
    17    1430.315    A        2.487077    2.736476
    18    1559.515    A        3.808502    1.945382
    19    1851.681    A        1.096215    0.245614
    20    3079.185    A        1.082420    0.167086
    21    3178.860    A        1.095387    0.261739

     -------------------------------
     THERMOCHEMISTRY AT T=  298.15 K
     -------------------------------

 USING IDEAL GAS, RIGID ROTOR, HARMONIC NORMAL MODE APPROXIMATIONS.
 P=  1.01325E+05 PASCAL.
 ALL FREQUENCIES ARE SCALED BY   1.00000
 THE MOMENTS OF INERTIA ARE (IN AMU*BOHR**2)
     44.59677   407.03910   435.16275
 THE ROTATIONAL SYMMETRY NUMBER IS  1.0
 THE ROTATIONAL CONSTANTS ARE (IN GHZ)
     40.43091     4.42977     4.14348
   1 IMAGINARY FREQUENCY VIBRATION(S) IS(ARE) EXCLUDED
     FROM THE FOLLOWING THERMOCHEMICAL ANALYSIS.
      8 -     21 VIBRATIONAL MODES ARE USED IN THERMOCHEMISTRY.
 THE HARMONIC ZERO POINT ENERGY IS (SCALED BY   1.000)
        0.043046 HARTREE/MOLECULE     9447.416212 CM**-1/MOLECULE 
       27.011546 KCAL/MOL              113.016306 KJ/MOL

               Q               LN Q
 ELEC.     1.00000E+00       0.000000
 TRANS.    1.91963E+07      16.770228
 ROT.      3.18154E+04      10.367705
 VIB.      1.64218E+00       0.496024
 TOT.      1.00294E+12      27.633957

              E         H         G         CV        CP        S
           KJ/MOL    KJ/MOL    KJ/MOL   J/MOL-K   J/MOL-K   J/MOL-K
 ELEC.      0.000     0.000     0.000     0.000     0.000     0.000
 TRANS.     3.718     6.197   -41.572    12.472    20.786   160.221
 ROT.       3.718     3.718   -25.701    12.472    12.472    98.673
 VIB.     115.841   115.841   111.787    26.456    26.456    13.599
 TOTAL    123.278   125.757    44.513    51.399    59.713   272.492
 VIB. THERMAL CORRECTION E(T)-E(0) = H(T)-H(0) =  2824.903 J/MOL

              E         H         G         CV        CP        S
         KCAL/MOL  KCAL/MOL  KCAL/MOL CAL/MOL-K CAL/MOL-K CAL/MOL-K
 ELEC.      0.000     0.000     0.000     0.000     0.000     0.000
 TRANS.     0.889     1.481    -9.936     2.981     4.968    38.294
 ROT.       0.889     0.889    -6.143     2.981     2.981    23.583
 VIB.      27.687    27.687    26.718     6.323     6.323     3.250
 TOTAL     29.464    30.057    10.639    12.285    14.272    65.127
 VIB. THERMAL CORRECTION E(T)-E(0) = H(T)-H(0) =   675.168 CAL/MOL

     *******************************************************
     * THIS IS NOT A STATIONARY POINT ON THE MOLECULAR PES *
     *     THE VIBRATIONAL ANALYSIS IS NOT VALID !!!       *
     *******************************************************
 ......END OF NORMAL COORDINATE ANALYSIS......
 STEP CPU TIME =     0.01 TOTAL CPU TIME =        326.5 (      5.4 MIN)
 TOTAL WALL CLOCK TIME=        328.6 SECONDS, CPU UTILIZATION IS    99.36%
                990930  WORDS OF DYNAMIC MEMORY USED
 EXECUTION OF GAMESS TERMINATED NORMALLY Fri Oct 18 10:31:54 2019
 DDI: 263640 bytes (0.3 MB / 0 MWords) used by master data server.

 ----------------------------------------
 CPU timing information for all processes
 ========================================
 0: 325.324 + 1.194 = 326.519
 ----------------------------------------
 ddikick.x: exited gracefully.
----- accounting info -----
Files used on the master node crcfe02.crc.nd.edu were:
-rw-r--r-- 1 cdrisko campus     475 Oct 18 10:26 /afs/crc.nd.edu/user/c/cdrisko/TS-F_vib.F05
-rw-r--r-- 1 cdrisko campus   90343 Oct 18 10:31 /afs/crc.nd.edu/user/c/cdrisko/TS-F_vib.F07
-rw-r--r-- 1 cdrisko campus 2061360 Oct 18 10:31 /afs/crc.nd.edu/user/c/cdrisko/TS-F_vib.F10
-rw-r--r-- 1 cdrisko campus 2041032 Oct 18 10:31 /afs/crc.nd.edu/user/c/cdrisko/TS-F_vib.F22
Fri Oct 18 10:31:57 EDT 2019
0.403u 0.221s 5:32.27 0.1%	0+0k 0+160io 0pf+0w
