----- GAMESS execution script 'rungms' -----
This job is running on host crcfe02.crc.nd.edu
under operating system Linux at Sun Sep 29 10:52:18 EDT 2019
Available scratch disk space (Kbyte units) at beginning of the job is
Filesystem      1K-blocks  Used  Available Use% Mounted on
AFS            2147483647     0 2147483647   0% /afs
GAMESS temporary binary files will be written to /afs/crc.nd.edu/user/c/cdrisko
GAMESS supplementary output files will be written to /afs/crc.nd.edu/user/c/cdrisko/scr
Copying input file SO2.inp to your run's scratch directory...

 Distributed Data Interface kickoff program.
 Initiating 1 compute processes on 1 nodes to run the following command:
 /afs/crc.nd.edu/x86_64_linux/g/gamess/nov-2017/gamess/gamess.00.x SO2 

          ******************************************************
          *         GAMESS VERSION = 11 NOV 2017 (R3)         *
          *             FROM IOWA STATE UNIVERSITY             *
          * M.W.SCHMIDT, K.K.BALDRIDGE, J.A.BOATZ, S.T.ELBERT, *
          *   M.S.GORDON, J.H.JENSEN, S.KOSEKI, N.MATSUNAGA,   *
          *          K.A.NGUYEN, S.J.SU, T.L.WINDUS,           *
          *       TOGETHER WITH M.DUPUIS, J.A.MONTGOMERY       *
          *         J.COMPUT.CHEM.  14, 1347-1363(1993)        *
          **************** 64 BIT INTEL VERSION ****************

  SINCE 1993, STUDENTS AND POSTDOCS WORKING AT IOWA STATE UNIVERSITY
  AND ALSO IN THEIR VARIOUS JOBS AFTER LEAVING ISU HAVE MADE IMPORTANT
  CONTRIBUTIONS TO THE CODE:
     IVANA ADAMOVIC, CHRISTINE AIKENS, YURI ALEXEEV, POOJA ARORA,
     ANDREY ASADCHEV, ROB BELL, PRADIPTA BANDYOPADHYAY, JONATHAN BENTZ,
     BRETT BODE, KURT BRORSEN, CALEB CARLIN, GALINA CHABAN, WEI CHEN,
     CHEOL HO CHOI, PAUL DAY, ALBERT DEFUSCO, NUWAN DESILVA, TIM DUDLEY,
     DMITRI FEDOROV, ALEX FINDLATER, GRAHAM FLETCHER, MARK FREITAG,
     KURT GLAESEMANN, ANASTASIA GUININA,
     DAN KEMP, GRANT MERRILL, NORIYUKI MINEZAWA, JONATHAN MULLIN,
     TAKESHI NAGATA, SEAN NEDD, HEATHER NETZLOFF, BOSILJKA NJEGIC, RYAN OLSON,
     MIKE PAK, BUU PHAM,
     SPENCER PRUITT, LUKE ROSKOP, JIM SHOEMAKER, LYUDMILA SLIPCHENKO,
     TONY SMITH, SAROM SOK LEANG, JIE SONG, TETSUYA TAKETSUGU, SIMON WEBB,
     PENG XU, SOOHAENG YOO, FEDERICO ZAHARIEV

  ADDITIONAL CODE HAS BEEN PROVIDED BY COLLABORATORS IN OTHER GROUPS:
     IOWA STATE UNIVERSITY:
          JOE IVANIC, AARON WEST, LAIMUTIS BYTAUTAS, KLAUS RUEDENBERG
     UNIVERSITY OF TOKYO: KIMIHIKO HIRAO, TAKAHITO NAKAJIMA,
          TAKAO TSUNEDA, MUNEAKI KAMIYA, SUSUMU YANAGISAWA,
          KIYOSHI YAGI, MAHITO CHIBA, SEIKEN TOKURA, NAOAKI KAWAKAMI
     UNIVERSITY OF AARHUS: FRANK JENSEN
     UNIVERSITY OF IOWA: VISVALDAS KAIRYS, HUI LI
     NATIONAL INST. OF STANDARDS AND TECHNOLOGY: WALT STEVENS, DAVID GARMER
     UNIVERSITY OF PISA: BENEDETTA MENNUCCI, JACOPO TOMASI
     UNIVERSITY OF MEMPHIS: HENRY KURTZ, PRAKASHAN KORAMBATH
     UNIVERSITY OF ALBERTA: TOBY ZENG, MARIUSZ KLOBUKOWSKI
     UNIVERSITY OF NEW ENGLAND: MARK SPACKMAN
     MIE UNIVERSITY: HIROAKI UMEDA
     NAT. INST. OF ADVANCED INDUSTRIAL SCIENCE AND TECHNOLOGY: KAZUO KITAURA
     MICHIGAN STATE UNIVERSITY:
          KAROL KOWALSKI, MARTA WLOCH, JEFFREY GOUR, JESSE LUTZ,
          WEI LI, PIOTR PIECUCH
     UNIVERSITY OF SILESIA: MONIKA MUSIAL, STANISLAW KUCHARSKI
     FACULTES UNIVERSITAIRES NOTRE-DAME DE LA PAIX:
          OLIVIER QUINET, BENOIT CHAMPAGNE
     UNIVERSITY OF CALIFORNIA - SANTA BARBARA: BERNARD KIRTMAN
     INSTITUTE FOR MOLECULAR SCIENCE:
          KAZUYA ISHIMURA, MICHIO KATOUDA, AND SHIGERU NAGASE
     UNIVERSITY OF NOTRE DAME: ANNA POMOGAEVA, DAN CHIPMAN
     KYUSHU UNIVERSITY:
          HARUYUKI NAKANO,
          FENG LONG GU, JACEK KORCHOWIEC, MARCIN MAKOWSKI, AND YURIKO AOKI,
          HIROTOSHI MORI AND EISAKU MIYOSHI
     PENNSYLVANIA STATE UNIVERSITY:
          TZVETELIN IORDANOV, CHET SWALINA, JONATHAN SKONE,
          SHARON HAMMES-SCHIFFER
     WASEDA UNIVERSITY:
          MASATO KOBAYASHI, TOMOKO AKAMA, TSUGUKI TOUMA,
          TAKESHI YOSHIKAWA, YASUHIRO IKABATA, JUNJI SEINO,
          YUYA NAKAJIMA, HIROMI NAKAI
     NANJING UNIVERSITY: SHUHUA LI
     UNIVERSITY OF NEBRASKA:
          PEIFENG SU, DEJUN SI, NANDUN THELLAMUREGE, YALI WANG, HUI LI
     UNIVERSITY OF ZURICH: ROBERTO PEVERATI, KIM BALDRIDGE
     N. COPERNICUS UNIVERSITY AND JACKSON STATE UNIVERSITY:
          MARIA BARYSZ
     UNIVERSITY OF COPENHAGEN: Jimmy Kromann, CASPER STEINMANN
     TOKYO INSTITUTE OF TECHNOLOGY: HIROYA NAKATA
     NAGOYA UNIVERSITY: YOSHIO NISHIMOTO, STEPHAN IRLE
     MOSCOW STATE UNIVERSITY: VLADIMIR MIRONOV

 EXECUTION OF GAMESS BEGUN Sun Sep 29 10:52:18 2019

            ECHO OF THE FIRST FEW INPUT CARDS -
 INPUT CARD> $BASIS GBASIS=PCSEG-1 $END                                                     
 INPUT CARD> $CONTRL COORD=ZMT ISPHER=1 RUNTYP=ENERGY DFTTYP=PBE MULT=1 $END                
 INPUT CARD>                                                                                
 INPUT CARD> $DATA                                                                          
 INPUT CARD>Title SO2 single-point calculation template with Z-Matrix                       
 INPUT CARD>C1                                                                              
 INPUT CARD>S                                                                               
 INPUT CARD>O 1 1.65                                                                        
 INPUT CARD>O 1 1.65 2 95                                                                   
 INPUT CARD> $END                                                                           
    1000000 WORDS OF MEMORY AVAILABLE

     BASIS OPTIONS
     -------------
     GBASIS=PCSEG-1      IGAUSS=       0      POLAR=NONE    
     NDFUNC=       0     NFFUNC=       0     DIFFSP=       F
     NPFUNC=       0      DIFFS=       F     BASNAM=        


     RUN TITLE
     ---------
 Title SO2 single-point calculation template with Z-Matrix                       

 THE POINT GROUP OF THE MOLECULE IS C1      
 THE ORDER OF THE PRINCIPAL AXIS IS     0

 YOUR FULLY SUBSTITUTED Z-MATRIX IS
 S   
 O      1   1.6500000
 O      1   1.6500000  2   95.0000

 THE MOMENTS OF INERTIA ARE (AMU-ANGSTROM**2)
 IXX=    19.870   IYY=    47.341   IZZ=    67.211

 ATOM      ATOMIC                      COORDINATES (BOHR)
           CHARGE         X                   Y                   Z
 S          16.0     0.0000000000       -1.0535535967        0.0000000000
 O           8.0     2.2988660368        1.0529690177        0.0000000000
 O           8.0    -2.2988660368        1.0529690177        0.0000000000

          INTERNUCLEAR DISTANCES (ANGS.)
          ------------------------------

                1 S          2 O          3 O     

   1 S       0.0000000    1.6500000 *  1.6500000 *
   2 O       1.6500000 *  0.0000000    2.4330152 *
   3 O       1.6500000 *  2.4330152 *  0.0000000  

  * ... LESS THAN  3.000


     ATOMIC BASIS SET
     ----------------
 THE CONTRACTED PRIMITIVE FUNCTIONS HAVE BEEN UNNORMALIZED
 THE CONTRACTED BASIS FUNCTIONS ARE NOW NORMALIZED TO UNITY

  SHELL TYPE  PRIMITIVE        EXPONENT          CONTRACTION COEFFICIENT(S)

 S         

      1   S       1         49299.4000000    0.000677492991
      1   S       2          7395.8400000    0.005232317766
      1   S       3          1683.3000000    0.026769459077
      1   S       4           476.1440000    0.102869580705
      1   S       5           154.3290000    0.286438127414
      1   S       6            55.0288000    0.454278639081
      1   S       7            20.5029000    0.271743121997

      2   S       8            45.9596000   -0.088421914560
      2   S       9             4.9274000    0.564350486135
      2   S      10             1.9179900    0.505415953466

      3   S      11             0.3684980    1.000000000000

      4   S      12             0.1291650    1.000000000000

      5   P      13           451.6620000    0.003707705453
      5   P      14           106.0980000    0.029219352245
      5   P      15            33.6996000    0.124444551509
      5   P      16            12.3054000    0.321808587656
      5   P      17             4.7141200    0.462822172957
      5   P      18             1.7810500    0.266513371364

      6   P      19             0.8722350    0.349265132972
      6   P      20             0.3102780    0.717115018770

      7   P      21             0.1001940    1.000000000000

      8   D      22             0.5500000    1.000000000000

 O         

      9   S      23          2288.6400000    0.005451138222
      9   S      24           344.4160000    0.040718922842
      9   S      25            78.2538000    0.181369420873
      9   S      26            21.7195000    0.465536820246
      9   S      27             6.5590700    0.451211321214

     10   S      28            10.4656000   -0.150211201174
     10   S      29             0.9643510    1.052867983385

     11   S      30             0.2851270    1.000000000000

     12   P      31            17.0590000    0.068749256972
     12   P      32             3.6899900    0.351671941499
     12   P      33             0.9929960    0.724532099722

     13   P      34             0.2449240    1.000000000000

     14   D      35             1.0000000    1.000000000000

 O         

     15   S      36          2288.6400000    0.005451138222
     15   S      37           344.4160000    0.040718922842
     15   S      38            78.2538000    0.181369420873
     15   S      39            21.7195000    0.465536820246
     15   S      40             6.5590700    0.451211321214

     16   S      41            10.4656000   -0.150211201174
     16   S      42             0.9643510    1.052867983385

     17   S      43             0.2851270    1.000000000000

     18   P      44            17.0590000    0.068749256972
     18   P      45             3.6899900    0.351671941499
     18   P      46             0.9929960    0.724532099722

     19   P      47             0.2449240    1.000000000000

     20   D      48             1.0000000    1.000000000000

 TOTAL NUMBER OF BASIS SET SHELLS             =   20
 NUMBER OF CARTESIAN GAUSSIAN BASIS FUNCTIONS =   49
 NOTE: THIS RUN WILL RESTRICT THE MO VARIATION SPACE TO SPHERICAL HARMONICS.
 THE NUMBER OF ORBITALS KEPT IN THE VARIATIONAL SPACE WILL BE PRINTED LATER.
 NUMBER OF ELECTRONS                          =   32
 CHARGE OF MOLECULE                           =    0
 SPIN MULTIPLICITY                            =    1
 NUMBER OF OCCUPIED ORBITALS (ALPHA)          =   16
 NUMBER OF OCCUPIED ORBITALS (BETA )          =   16
 TOTAL NUMBER OF ATOMS                        =    3
 THE NUCLEAR REPULSION ENERGY IS       96.0225583778

     LEBEDEV GRID-BASED DFT OPTIONS
     ------------------------------
     DFTTYP=PBE     
     NRAD  =      96     NLEB  =     302
     NRAD0 =      24     NLEB0 =     110
     SWOFF =    5.00E-03 (PURE SCF -> DFT)
     SWITCH=    3.00E-04 (COARSE -> TIGHT GRID)
     THRESH=    0.00E+00 GTHRE=    1.00E+00

 GRIMME'S EMPIRICAL DISPERSION CORRECTION= F

     $CONTRL OPTIONS
     ---------------
 SCFTYP=RHF          RUNTYP=ENERGY       EXETYP=RUN     
 MPLEVL=       0     CITYP =NONE         CCTYP =NONE         VBTYP =NONE    
 DFTTYP=PBE          TDDFT =NONE    
 MULT  =       1     ICHARG=       0     NZVAR =       0     COORD =ZMT     
 PP    =NONE         RELWFN=NONE         LOCAL =NONE         NUMGRD=       F
 ISPHER=       1     NOSYM =       0     MAXIT =      30     UNITS =ANGS    
 PLTORB=       F     MOLPLT=       F     AIMPAC=       F     FRIEND=        
 NPRINT=       7     IREST =       0     GEOM  =INPUT   
 NORMF =       0     NORMP =       0     ITOL  =      20     ICUT  =       9
 INTTYP=BEST         GRDTYP=BEST         QMTTOL= 1.0E-06

     $SYSTEM OPTIONS
     ---------------
  REPLICATED MEMORY=     1000000 WORDS (ON EVERY NODE).
 DISTRIBUTED MEMDDI=           0 MILLION WORDS IN AGGREGATE,
 MEMDDI DISTRIBUTED OVER   1 PROCESSORS IS           0 WORDS/PROCESSOR.
 TOTAL MEMORY REQUESTED ON EACH PROCESSOR=     1000000 WORDS.
 TIMLIM=      525600.00 MINUTES, OR     365.0 DAYS.
 PARALL= F  BALTYP=  DLB     KDIAG=    0  COREFL= F
 MXSEQ2=     300 MXSEQ3=     150  mem10=         0

          ----------------
          PROPERTIES INPUT
          ----------------

     MOMENTS            FIELD           POTENTIAL          DENSITY
 IEMOM =       1   IEFLD =       0   IEPOT =       0   IEDEN =       0
 WHERE =COMASS     WHERE =NUCLEI     WHERE =NUCLEI     WHERE =NUCLEI  
 OUTPUT=BOTH       OUTPUT=BOTH       OUTPUT=BOTH       OUTPUT=BOTH    
 IEMINT=       0   IEFINT=       0                     IEDINT=       0
                                                       MORB  =       0
          EXTRAPOLATION IN EFFECT
          DIIS IN EFFECT
 ORBITAL PRINTING OPTION: NPREO=     1    49     2     1

     -------------------------------
     INTEGRAL TRANSFORMATION OPTIONS
     -------------------------------
     NWORD  =            0
     CUTOFF = 1.0E-09     MPTRAN =       0
     DIRTRF =       F     AOINTS =DUP     

          ----------------------
          INTEGRAL INPUT OPTIONS
          ----------------------
 NOPK  =       1 NORDER=       0 SCHWRZ=       F

   --- ENCODED Z MATRIX ---
 COORD  TYPE   I   J   K   L   M   N
    1      1    2   1
    2      1    3   1
    3      2    3   1   2

 THE DETERMINANT OF THE G MATRIX IS 10**(    -4)

 THE DETERMINANT OF THE G MATRIX IS 10**(    -4)
 * * * WARNING * * *
 YOUR B MATRIX HAS A SMALL DETERMINANT.
 THIS SUGGESTS YOU MAY HAVE BADLY CHOSEN COORDINATES.

     ------------------------------------------
     THE POINT GROUP IS C1 , NAXIS= 0, ORDER= 1
     ------------------------------------------

 -- VARIATIONAL SPACE WILL BE RESTRICTED TO PURE SPHERICAL HARMONICS ONLY --
 AFTER EXCLUDING CONTAMINANT COMBINATIONS FROM THE CARTESIAN GAUSSIAN BASIS
 SET, THE NUMBER OF SPHERICAL HARMONICS KEPT IN THE VARIATION SPACE IS   46

     DIMENSIONS OF THE SYMMETRY SUBSPACES ARE
 A   =   46

 ..... DONE SETTING UP THE RUN .....
 STEP CPU TIME =     0.04 TOTAL CPU TIME =          0.0 (      0.0 MIN)
 TOTAL WALL CLOCK TIME=          0.0 SECONDS, CPU UTILIZATION IS   100.00%

          ********************
          1 ELECTRON INTEGRALS
          ********************
 ...... END OF ONE-ELECTRON INTEGRALS ......
 STEP CPU TIME =     0.00 TOTAL CPU TIME =          0.0 (      0.0 MIN)
 TOTAL WALL CLOCK TIME=          0.0 SECONDS, CPU UTILIZATION IS   100.00%

          -------------
          GUESS OPTIONS
          -------------
          GUESS =HUCKEL            NORB  =       0          NORDER=       0
          MIX   =       F          PRTMO =       F          PUNMO =       F
          TOLZ  = 1.0E-08          TOLE  = 1.0E-05
          SYMDEN=       F          PURIFY=       F

 INITIAL GUESS ORBITALS GENERATED BY HUCKEL   ROUTINE.
 HUCKEL GUESS REQUIRES     21634 WORDS.

 STATISTICS FOR GENERATION OF SYMMETRY ORBITAL -Q- MATRIX
 NUMBER OF CARTESIAN ATOMIC ORBITALS=         49
 NUMBER OF SPHERICAL CONTAMINANTS DROPPED=     3
 NUMBER OF LINEARLY DEPENDENT MOS DROPPED=     0
 TOTAL NUMBER OF MOS IN VARIATION SPACE=      46

 SYMMETRIES FOR INITIAL GUESS ORBITALS FOLLOW.   BOTH SET(S).
    16 ORBITALS ARE OCCUPIED (    7 CORE ORBITALS).
     8=A        9=A       10=A       11=A       12=A       13=A       14=A   
    15=A       16=A       17=A       18=A       19=A       20=A       21=A   
    22=A       23=A       24=A       25=A       26=A   
 ...... END OF INITIAL ORBITAL SELECTION ......
 STEP CPU TIME =     0.00 TOTAL CPU TIME =          0.0 (      0.0 MIN)
 TOTAL WALL CLOCK TIME=          0.0 SECONDS, CPU UTILIZATION IS    80.00%

                    ----------------------
                    AO INTEGRAL TECHNOLOGY
                    ----------------------
     S,P,L SHELL ROTATED AXIS INTEGRALS, REPROGRAMMED BY
        KAZUYA ISHIMURA (IMS) AND JOSE SIERRA (SYNSTAR).
     S,P,D,L SHELL ROTATED AXIS INTEGRALS PROGRAMMED BY
        KAZUYA ISHIMURA (INSTITUTE FOR MOLECULAR SCIENCE).
     S,P,D,F,G SHELL TO TOTAL QUARTET ANGULAR MOMENTUM SUM 5,
        ERIC PROGRAM BY GRAHAM FLETCHER (ELORET AND NASA ADVANCED
        SUPERCOMPUTING DIVISION, AMES RESEARCH CENTER).
     S,P,D,F,G,L SHELL GENERAL RYS QUADRATURE PROGRAMMED BY
        MICHEL DUPUIS (PACIFIC NORTHWEST NATIONAL LABORATORY).

          --------------------
          2 ELECTRON INTEGRALS
          --------------------

 THE -PK- OPTION IS OFF, THE INTEGRALS ARE NOT IN SUPERMATRIX FORM.
 STORING   15000 INTEGRALS/RECORD ON DISK, USING 12 BYTES/INTEGRAL.
 TWO ELECTRON INTEGRAL EVALUATION REQUIRES   90606 WORDS OF MEMORY.
 II,JST,KST,LST =  1  1  1  1 NREC =         1 INTLOC =    1
 II,JST,KST,LST =  2  1  1  1 NREC =         1 INTLOC =    2
 II,JST,KST,LST =  3  1  1  1 NREC =         1 INTLOC =    7
 II,JST,KST,LST =  4  1  1  1 NREC =         1 INTLOC =   22
 II,JST,KST,LST =  5  1  1  1 NREC =         1 INTLOC =   56
 II,JST,KST,LST =  6  1  1  1 NREC =         1 INTLOC =  125
 II,JST,KST,LST =  7  1  1  1 NREC =         1 INTLOC =  329
 II,JST,KST,LST =  8  1  1  1 NREC =         1 INTLOC =  776
 II,JST,KST,LST =  9  1  1  1 NREC =         1 INTLOC = 2864
 II,JST,KST,LST = 10  1  1  1 NREC =         1 INTLOC = 4882
 II,JST,KST,LST = 11  1  1  1 NREC =         1 INTLOC = 7534
 II,JST,KST,LST = 12  1  1  1 NREC =         1 INTLOC =10644
 II,JST,KST,LST = 13  1  1  1 NREC =         2 INTLOC = 6523
 II,JST,KST,LST = 14  1  1  1 NREC =         3 INTLOC = 6769
 II,JST,KST,LST = 15  1  1  1 NREC =         6 INTLOC = 8684
 II,JST,KST,LST = 16  1  1  1 NREC =         7 INTLOC = 1201
 II,JST,KST,LST = 17  1  1  1 NREC =         7 INTLOC =13014
 II,JST,KST,LST = 18  1  1  1 NREC =         8 INTLOC =11449
 II,JST,KST,LST = 19  1  1  1 NREC =        11 INTLOC = 7366
 II,JST,KST,LST = 20  1  1  1 NREC =        14 INTLOC =14611
 TOTAL NUMBER OF NONZERO TWO-ELECTRON INTEGRALS =              343634
         23 INTEGRAL RECORDS WERE STORED ON DISK FILE  8.
  ...... END OF TWO-ELECTRON INTEGRALS .....
 STEP CPU TIME =     0.11 TOTAL CPU TIME =          0.2 (      0.0 MIN)
 TOTAL WALL CLOCK TIME=          0.2 SECONDS, CPU UTILIZATION IS    93.75%

          --------------------------
               R-PBE SCF CALCULATION
          --------------------------

     NUCLEAR ENERGY =        96.0225583778
     MAXIT =   30     NPUNCH=    2
     EXTRAP=T  DAMP=F  SHIFT=F  RSTRCT=F  DIIS=T  DEM=F  SOSCF=F
         DENSITY MATRIX CONVERGENCE THRESHOLD=  1.00E-05
     COARSE -> FINE DFT GRID SWITCH THRESHOLD=  3.00E-04 (SWITCH IN $DFT)
                   HF -> DFT SWITCH THRESHOLD=  5.00E-03 (SWOFF IN $DFT)
     MEMORY REQUIRED FOR RHF ITERS=    183108 WORDS.

 DFT CODE IS SWITCHING FROM THE FINE GRID NRAD= 96,  NLEB=  302
                      TO THE COARSE GRID NRAD0= 24, NLEB0=  110

     EXCHANGE FUNCTIONAL   =PBE       
     CORRELATION FUNCTIONAL=PBE       
     DFT THRESHOLD         =.460E-07
     GRID CHANGE THRESHOLD =.300E-03
 FOR AN EULER-MACLAURIN QUADRATURE USING  96 RADIAL POINTS:
 SMALLEST GAUSSIAN PRIMITIVE EXPONENT=        0.1001940000 OF TYPE -P-
 ON ATOM NUMBER   1 HAS RADIAL NORMALIZATION=  1.000000
  LARGEST GAUSSIAN PRIMITIVE EXPONENT=    49299.4000000000 OF TYPE -S-
 ON ATOM NUMBER   1 HAS RADIAL NORMALIZATION=  1.000000
 DFT IS SWITCHED OFF, PERFORMING PURE SCF UNTIL SWOFF THRESHOLD IS REACHED.

 ITER EX DEM     TOTAL ENERGY        E CHANGE  DENSITY CHANGE    DIIS ERROR
   1  0  0     -545.9867773073  -545.9867773073   0.706955127   0.948172810
          * * *   INITIATING DIIS PROCEDURE   * * *
   2  1  0     -546.4946317577    -0.5078544504   0.769315826   0.354567800
   3  2  0     -546.4882789356     0.0063528221   0.304452000   0.368389712
   4  3  0     -546.9857239359    -0.4974450003   0.027145859   0.009682419
   5  4  0     -546.9867153382    -0.0009914023   0.007228233   0.007263541
   6  5  0     -546.9869201405    -0.0002048023   0.003104579   0.002513538
 CONVERGED TO SWOFF, SO DFT CALCULATION IS NOW SWITCHED ON.
          * * *   INITIATING DIIS PROCEDURE   * * *
   7  6  0     -548.1439628803    -1.1570427397   0.465990846   0.097680521
   8  7  0     -548.1141873017     0.0297755786   0.414300119   0.155554066
   9  8  0     -548.1363836704    -0.0221963688   0.123835981   0.132799580
  10  9  0     -548.1850094230    -0.0486257526   0.028593149   0.013577451
  11 10  0     -548.1856873013    -0.0006778783   0.002498465   0.001070695
  12 11  0     -548.1856923065    -0.0000050051   0.000680339   0.000606644
  13 12  0     -548.1856927591    -0.0000004526   0.000435085   0.000502119
  14 13  0     -548.1856931717    -0.0000004126   0.000114409   0.000134223
 DFT CODE IS SWITCHING BACK TO THE FINE GRID
          * * *   INITIATING DIIS PROCEDURE   * * *
  15 14  0     -548.1929404228    -0.0072472511   0.017117834   0.011954463
  16 15  0     -548.1929293769     0.0000110459   0.024931901   0.008786173
  17 16  0     -548.1928431114     0.0000862655   0.014957461   0.011211598
  18 17  0     -548.1931691601    -0.0003260487   0.000927441   0.000516641
  19 18  0     -548.1931699594    -0.0000007993   0.000474653   0.000124334
  20 19  0     -548.1931694396     0.0000005198   0.000404461   0.000587994
  21 20  0     -548.1931700427    -0.0000006031   0.000018833   0.000014107
  22 21  0     -548.1931700433    -0.0000000006   0.000001666   0.000001614
  23 22  0     -548.1931700433    -0.0000000000   0.000001192   0.000000743

          -----------------
          DENSITY CONVERGED
          -----------------
     TIME TO FORM FOCK OPERATORS=       2.5 SECONDS (       0.1 SEC/ITER)
     TIME TO SOLVE SCF EQUATIONS=       0.0 SECONDS (       0.0 SEC/ITER)

 FINAL R-PBE ENERGY IS     -548.1931700433 AFTER  23 ITERATIONS
 DFT EXCHANGE + CORRELATION ENERGY =       -42.3098589506
 TOTAL ELECTRON NUMBER             =        32.0000209507

          ------------
          EIGENVECTORS
          ------------

                      1          2          3          4          5
                  -88.2287   -18.8045   -18.8045    -7.8450    -5.8706
                     A          A          A          A          A   
    1  S  1  S    0.997761  -0.000010  -0.000000  -0.308394  -0.000000
    2  S  1  S    0.008223   0.000002   0.000000   1.031756   0.000000
    3  S  1  S   -0.002903  -0.001075  -0.000018   0.027848   0.000000
    4  S  1  S    0.001043   0.007852   0.000133  -0.006106  -0.000000
    5  S  1  X   -0.000000   0.000002  -0.000125  -0.000000   0.994713
    6  S  1  Y    0.000123  -0.000185  -0.000003   0.007686  -0.000002
    7  S  1  Z    0.000000   0.000000   0.000000   0.000000   0.000000
    8  S  1  X    0.000000  -0.000026   0.001554  -0.000000   0.016964
    9  S  1  Y   -0.000321   0.001707   0.000029   0.000914  -0.000000
   10  S  1  Z    0.000000   0.000000   0.000000   0.000000   0.000000
   11  S  1  X    0.000000  -0.000044   0.002604  -0.000000  -0.002802
   12  S  1  Y    0.000058   0.003774   0.000064  -0.000212   0.000000
   13  S  1  Z    0.000000   0.000000   0.000000   0.000000   0.000000
   14  S  1 XX   -0.000079   0.000466   0.000008   0.000321  -0.000000
   15  S  1 YY   -0.000035   0.000399   0.000007   0.000023  -0.000000
   16  S  1 ZZ    0.000114  -0.000864  -0.000015  -0.000343   0.000000
   17  S  1 XY    0.000000  -0.000012   0.000735  -0.000000   0.001077
   18  S  1 XZ    0.000000   0.000000   0.000000   0.000000   0.000000
   19  S  1 YZ    0.000000   0.000000   0.000000   0.000000   0.000000
   20  O  2  S   -0.000009   0.690377   0.714081   0.000011  -0.000095
   21  O  2  S   -0.000094   0.023353   0.023823  -0.000091  -0.000067
   22  O  2  S    0.000151  -0.011769  -0.010233  -0.000065  -0.000600
   23  O  2  X   -0.000008  -0.000546  -0.000736   0.000175  -0.000026
   24  O  2  Y    0.000002  -0.000610  -0.000673   0.000138   0.000042
   25  O  2  Z    0.000000   0.000000   0.000000   0.000000   0.000000
   26  O  2  X   -0.000215   0.002118   0.001741   0.000532   0.000729
   27  O  2  Y   -0.000226   0.001681   0.001644   0.000575   0.000743
   28  O  2  Z    0.000000   0.000000   0.000000   0.000000   0.000000
   29  O  2 XX    0.000066  -0.000080  -0.000171  -0.000095   0.000173
   30  O  2 YY    0.000039  -0.000030  -0.000068  -0.000065  -0.000057
   31  O  2 ZZ   -0.000104   0.000110   0.000239   0.000160  -0.000116
   32  O  2 XY    0.000183  -0.000306  -0.000232  -0.000277   0.000193
   33  O  2 XZ    0.000000   0.000000   0.000000   0.000000   0.000000
   34  O  2 YZ    0.000000   0.000000   0.000000   0.000000   0.000000
   35  O  3  S   -0.000009   0.714102  -0.690356   0.000011   0.000095
   36  O  3  S   -0.000094   0.024145  -0.023021  -0.000091   0.000067
   37  O  3  S    0.000151  -0.012108   0.009830  -0.000065   0.000600
   38  O  3  X    0.000008   0.000570  -0.000718  -0.000175  -0.000026
   39  O  3  Y    0.000002  -0.000633   0.000652   0.000138  -0.000042
   40  O  3  Z    0.000000   0.000000   0.000000   0.000000   0.000000
   41  O  3  X    0.000215  -0.002176   0.001669  -0.000532   0.000729
   42  O  3  Y   -0.000226   0.001736  -0.001586   0.000575  -0.000743
   43  O  3  Z    0.000000   0.000000   0.000000   0.000000   0.000000
   44  O  3 XX    0.000066  -0.000086   0.000168  -0.000095  -0.000173
   45  O  3 YY    0.000039  -0.000032   0.000067  -0.000065   0.000057
   46  O  3 ZZ   -0.000104   0.000118  -0.000235   0.000160   0.000116
   47  O  3 XY   -0.000183   0.000314  -0.000222   0.000277   0.000193
   48  O  3 XZ    0.000000   0.000000   0.000000   0.000000   0.000000
   49  O  3 YZ    0.000000   0.000000   0.000000   0.000000   0.000000

                      6          7          8          9         10
                   -5.8693    -5.8665    -0.9736    -0.8867    -0.6300
                     A          A          A          A          A   
    1  S  1  S    0.000000   0.002376   0.046147  -0.000000   0.072678
    2  S  1  S    0.000000  -0.008132  -0.285353   0.000001  -0.464089
    3  S  1  S    0.000000  -0.000642   0.404672  -0.000002   0.707776
    4  S  1  S    0.000000   0.001926   0.082556   0.000005   0.271928
    5  S  1  X    0.000000   0.000002   0.000000   0.090245   0.000000
    6  S  1  Y    0.000000   0.994783  -0.061800  -0.000000   0.052542
    7  S  1  Z    0.994949   0.000000   0.000000   0.000000   0.000000
    8  S  1  X    0.000000   0.000000   0.000000  -0.206078  -0.000000
    9  S  1  Y    0.000000   0.016566   0.136863   0.000001  -0.126970
   10  S  1  Z    0.015969   0.000000   0.000000   0.000000   0.000000
   11  S  1  X    0.000000  -0.000000   0.000001   0.000971  -0.000001
   12  S  1  Y    0.000000  -0.002472  -0.013275   0.000003  -0.044613
   13  S  1  Z   -0.003158   0.000000   0.000000   0.000000   0.000000
   14  S  1 XX    0.000000  -0.000024   0.018604   0.000000  -0.004717
   15  S  1 YY    0.000000   0.000636   0.011066   0.000000  -0.009909
   16  S  1 ZZ    0.000000  -0.000612  -0.029670  -0.000001   0.014626
   17  S  1 XY    0.000000   0.000000   0.000000  -0.066532  -0.000000
   18  S  1 XZ   -0.000000   0.000000   0.000000   0.000000   0.000000
   19  S  1 YZ    0.000378   0.000000   0.000000   0.000000   0.000000
   20  O  2  S    0.000000  -0.000091  -0.137837   0.168158   0.104728
   21  O  2  S    0.000000   0.000032   0.281843  -0.349704  -0.222374
   22  O  2  S    0.000000  -0.000898   0.266043  -0.342154  -0.273228
   23  O  2  X    0.000000   0.000016  -0.075725   0.051315  -0.064707
   24  O  2  Y    0.000000  -0.000052  -0.064111   0.064052  -0.080057
   25  O  2  Z   -0.000066   0.000000   0.000000   0.000000   0.000000
   26  O  2  X    0.000000   0.000772  -0.028354   0.019023  -0.028708
   27  O  2  Y    0.000000   0.000510  -0.026058   0.024796  -0.035556
   28  O  2  Z   -0.000080   0.000000   0.000000   0.000000   0.000000
   29  O  2 XX    0.000000  -0.000049   0.002686   0.000152   0.000791
   30  O  2 YY    0.000000   0.000215   0.001792  -0.001960   0.002787
   31  O  2 ZZ    0.000000  -0.000166  -0.004477   0.001808  -0.003579
   32  O  2 XY    0.000000   0.000297   0.011224  -0.008593   0.004272
   33  O  2 XZ    0.000144   0.000000   0.000000   0.000000   0.000000
   34  O  2 YZ    0.000126   0.000000   0.000000   0.000000   0.000000
   35  O  3  S    0.000000  -0.000091  -0.137838  -0.168157   0.104728
   36  O  3  S    0.000000   0.000032   0.281843   0.349704  -0.222375
   37  O  3  S    0.000000  -0.000898   0.266047   0.342147  -0.273229
   38  O  3  X    0.000000  -0.000016   0.075725   0.051315   0.064707
   39  O  3  Y    0.000000  -0.000052  -0.064111  -0.064051  -0.080058
   40  O  3  Z   -0.000066   0.000000   0.000000   0.000000   0.000000
   41  O  3  X    0.000000  -0.000772   0.028355   0.019021   0.028708
   42  O  3  Y    0.000000   0.000510  -0.026060  -0.024795  -0.035556
   43  O  3  Z   -0.000080   0.000000   0.000000   0.000000   0.000000
   44  O  3 XX    0.000000  -0.000049   0.002686  -0.000152   0.000791
   45  O  3 YY    0.000000   0.000215   0.001792   0.001960   0.002787
   46  O  3 ZZ    0.000000  -0.000166  -0.004478  -0.001808  -0.003579
   47  O  3 XY    0.000000  -0.000297  -0.011224  -0.008593  -0.004272
   48  O  3 XZ   -0.000144   0.000000   0.000000   0.000000   0.000000
   49  O  3 YZ    0.000126   0.000000   0.000000   0.000000   0.000000

                     11         12         13         14         15
                   -0.4226    -0.4143    -0.4060    -0.2963    -0.2950
                     A          A          A          A          A   
    1  S  1  S    0.000000  -0.009434   0.000000   0.012542   0.000000
    2  S  1  S   -0.000000   0.059153   0.000000  -0.081475   0.000000
    3  S  1  S    0.000000  -0.054108   0.000000   0.107508   0.000000
    4  S  1  S    0.000001  -0.216136   0.000000   0.209551   0.000000
    5  S  1  X   -0.195006  -0.000001   0.000000   0.000000   0.000000
    6  S  1  Y    0.000001  -0.212417   0.000000   0.069426   0.000000
    7  S  1  Z    0.000000   0.000000  -0.224132   0.000000   0.000000
    8  S  1  X    0.528297   0.000002   0.000000  -0.000000   0.000000
    9  S  1  Y   -0.000002   0.573313   0.000000  -0.190708   0.000000
   10  S  1  Z    0.000000   0.000000   0.609823   0.000000  -0.000001
   11  S  1  X    0.059405   0.000001   0.000000   0.000001   0.000000
   12  S  1  Y   -0.000000   0.087898   0.000000  -0.016031   0.000000
   13  S  1  Z    0.000000   0.000000   0.177443   0.000000  -0.000000
   14  S  1 XX   -0.000000  -0.018399   0.000000  -0.106602   0.000000
   15  S  1 YY   -0.000000   0.041441   0.000000   0.074928   0.000000
   16  S  1 ZZ    0.000000  -0.023042   0.000000   0.031674   0.000000
   17  S  1 XY    0.049709   0.000000   0.000000  -0.000000   0.000000
   18  S  1 XZ    0.000000   0.000000  -0.000000   0.000000  -0.088238
   19  S  1 YZ    0.000000   0.000000   0.042949   0.000000   0.000000
   20  O  2  S    0.063381   0.044895   0.000000  -0.001495   0.000000
   21  O  2  S   -0.133584  -0.095816   0.000000   0.003835   0.000000
   22  O  2  S   -0.212238  -0.139761   0.000000  -0.014035   0.000000
   23  O  2  X   -0.183968  -0.308667   0.000000  -0.142998   0.000000
   24  O  2  Y   -0.295525  -0.055135   0.000000   0.425339   0.000000
   25  O  2  Z    0.000000   0.000000   0.280966   0.000000  -0.475405
   26  O  2  X   -0.099150  -0.183320   0.000000  -0.109430   0.000000
   27  O  2  Y   -0.162130  -0.026809   0.000000   0.309924   0.000000
   28  O  2  Z    0.000000   0.000000   0.172918   0.000000  -0.339105
   29  O  2 XX   -0.001220   0.012932   0.000000   0.010954   0.000000
   30  O  2 YY    0.008608  -0.006814   0.000000  -0.014468   0.000000
   31  O  2 ZZ   -0.007388  -0.006118   0.000000   0.003514   0.000000
   32  O  2 XY    0.010075   0.008466   0.000000  -0.007567   0.000000
   33  O  2 XZ    0.000000   0.000000  -0.012982   0.000000   0.010795
   34  O  2 YZ    0.000000   0.000000  -0.011670   0.000000   0.012966
   35  O  3  S   -0.063381   0.044895   0.000000  -0.001495   0.000000
   36  O  3  S    0.133583  -0.095816   0.000000   0.003835   0.000000
   37  O  3  S    0.212239  -0.139758   0.000000  -0.014034   0.000000
   38  O  3  X   -0.183970   0.308667   0.000000   0.143002   0.000000
   39  O  3  Y    0.295526  -0.055133   0.000000   0.425340   0.000000
   40  O  3  Z    0.000000   0.000000   0.280967   0.000000   0.475405
   41  O  3  X   -0.099150   0.183320   0.000000   0.109433   0.000000
   42  O  3  Y    0.162131  -0.026808   0.000000   0.309924   0.000000
   43  O  3  Z    0.000000   0.000000   0.172918   0.000000   0.339105
   44  O  3 XX    0.001220   0.012932   0.000000   0.010954   0.000000
   45  O  3 YY   -0.008608  -0.006814   0.000000  -0.014468   0.000000
   46  O  3 ZZ    0.007388  -0.006118   0.000000   0.003514   0.000000
   47  O  3 XY    0.010075  -0.008466   0.000000   0.007567   0.000000
   48  O  3 XZ    0.000000   0.000000   0.012983   0.000000   0.010795
   49  O  3 YZ    0.000000   0.000000  -0.011670   0.000000  -0.012966

                     16         17         18         19         20
                   -0.2584    -0.2115    -0.0911    -0.0278     0.2097
                     A          A          A          A          A   
    1  S  1  S   -0.000000   0.000000  -0.000000   0.033664   0.000000
    2  S  1  S    0.000001   0.000000   0.000001  -0.227988   0.000000
    3  S  1  S   -0.000002   0.000000  -0.000002   0.383864   0.000000
    4  S  1  S    0.000004   0.000000  -0.000004   0.520986   0.000000
    5  S  1  X   -0.016832   0.000000  -0.212789  -0.000002   0.000000
    6  S  1  Y   -0.000000   0.000000   0.000001  -0.179602   0.000000
    7  S  1  Z    0.000000  -0.213001   0.000000   0.000000   0.250520
    8  S  1  X    0.045669   0.000000   0.644758   0.000007   0.000000
    9  S  1  Y    0.000001   0.000000  -0.000004   0.558892   0.000000
   10  S  1  Z    0.000000   0.622792   0.000000   0.000000  -0.990197
   11  S  1  X    0.145953   0.000000   0.602895  -0.000001   0.000000
   12  S  1  Y    0.000003   0.000000  -0.000004   0.724948   0.000000
   13  S  1  Z    0.000000   0.263246   0.000000   0.000000   1.305327
   14  S  1 XX    0.000001   0.000000   0.000000  -0.069520   0.000000
   15  S  1 YY   -0.000000   0.000000   0.000000  -0.109805   0.000000
   16  S  1 ZZ   -0.000000   0.000000  -0.000000   0.179325   0.000000
   17  S  1 XY   -0.080265   0.000000  -0.187985  -0.000000   0.000000
   18  S  1 XZ    0.000000  -0.000000   0.000000   0.000000   0.000000
   19  S  1 YZ    0.000000  -0.073552   0.000000   0.000000  -0.105927
   20  O  2  S    0.006899   0.000000   0.035646   0.052968   0.000000
   21  O  2  S   -0.015406   0.000000  -0.070745  -0.097723   0.000000
   22  O  2  S   -0.056114   0.000000  -0.291126  -0.443134   0.000000
   23  O  2  X    0.441209   0.000000   0.052917   0.306098   0.000000
   24  O  2  Y   -0.206666   0.000000   0.335097   0.154162   0.000000
   25  O  2  Z    0.000000  -0.388879   0.000000   0.000000  -0.035903
   26  O  2  X    0.302118   0.000000   0.043557   0.342157   0.000000
   27  O  2  Y   -0.140178   0.000000   0.291924   0.131639   0.000000
   28  O  2  Z    0.000000  -0.311040   0.000000   0.000000  -0.134449
   29  O  2 XX   -0.012699   0.000000  -0.000890   0.001085   0.000000
   30  O  2 YY    0.012056   0.000000   0.003337  -0.004304   0.000000
   31  O  2 ZZ    0.000643   0.000000  -0.002447   0.003219   0.000000
   32  O  2 XY   -0.005334   0.000000   0.001524   0.003031   0.000000
   33  O  2 XZ    0.000000   0.003876   0.000000   0.000000   0.013602
   34  O  2 YZ    0.000000   0.001988   0.000000   0.000000   0.009491
   35  O  3  S   -0.006899   0.000000  -0.035646   0.052968   0.000000
   36  O  3  S    0.015406   0.000000   0.070743  -0.097725   0.000000
   37  O  3  S    0.056108   0.000000   0.291134  -0.443130   0.000000
   38  O  3  X    0.441207   0.000000   0.052918  -0.306100   0.000000
   39  O  3  Y    0.206663   0.000000  -0.335098   0.154158   0.000000
   40  O  3  Z    0.000000  -0.388879   0.000000   0.000000  -0.035903
   41  O  3  X    0.302114   0.000000   0.043562  -0.342154   0.000000
   42  O  3  Y    0.140176   0.000000  -0.291926   0.131636   0.000000
   43  O  3  Z    0.000000  -0.311040   0.000000   0.000000  -0.134449
   44  O  3 XX    0.012699   0.000000   0.000890   0.001085   0.000000
   45  O  3 YY   -0.012056   0.000000  -0.003337  -0.004304   0.000000
   46  O  3 ZZ   -0.000643   0.000000   0.002447   0.003219   0.000000
   47  O  3 XY   -0.005333   0.000000   0.001524  -0.003031   0.000000
   48  O  3 XZ    0.000000  -0.003875   0.000000   0.000000  -0.013602
   49  O  3 YZ    0.000000   0.001988   0.000000   0.000000   0.009491

                     21         22         23         24         25
                    0.2209     0.2368     0.2467     0.4892     0.4941
                     A          A          A          A          A   
    1  S  1  S    0.018207   0.000003  -0.062214   0.000000   0.000000
    2  S  1  S   -0.135192  -0.000022   0.459731   0.000000   0.000000
    3  S  1  S    0.498040   0.000088  -1.843890   0.000000   0.000000
    4  S  1  S   -0.514815  -0.000111   2.265661   0.000000   0.000000
    5  S  1  X   -0.000002   0.266149   0.000012   0.000000   0.000000
    6  S  1  Y    0.269011  -0.000000   0.043728   0.000000   0.000000
    7  S  1  Z    0.000000   0.000000   0.000000  -0.000000   0.028268
    8  S  1  X    0.000007  -1.037751  -0.000044   0.000000   0.000000
    9  S  1  Y   -1.042032   0.000000  -0.157254   0.000000   0.000000
   10  S  1  Z    0.000000   0.000000   0.000000   0.000001  -0.121151
   11  S  1  X   -0.000008   1.421019   0.000066   0.000000   0.000000
   12  S  1  Y    1.220789  -0.000028   0.752343   0.000000   0.000000
   13  S  1  Z    0.000000   0.000000   0.000000  -0.000001   0.101853
   14  S  1 XX    0.126608   0.000001  -0.019151   0.000000   0.000000
   15  S  1 YY   -0.045558   0.000003  -0.097234   0.000000   0.000000
   16  S  1 ZZ   -0.081051  -0.000004   0.116386   0.000000   0.000000
   17  S  1 XY    0.000001   0.069846   0.000006   0.000000   0.000000
   18  S  1 XZ    0.000000   0.000000   0.000000   0.911058   0.000006
   19  S  1 YZ    0.000000   0.000000   0.000000  -0.000006   0.897322
   20  O  2  S   -0.005632   0.007248   0.028876   0.000000   0.000000
   21  O  2  S    0.063600   0.033603  -0.019776   0.000000   0.000000
   22  O  2  S   -0.197798  -0.357790  -0.581150   0.000000   0.000000
   23  O  2  X   -0.127769  -0.184340  -0.126577   0.000000   0.000000
   24  O  2  Y   -0.089037  -0.092268  -0.114710   0.000000   0.000000
   25  O  2  Z    0.000000   0.000000   0.000000  -0.281810  -0.294334
   26  O  2  X   -0.005027  -0.095090   0.181788   0.000000   0.000000
   27  O  2  Y   -0.124560   0.047636   0.074602   0.000000   0.000000
   28  O  2  Z    0.000000   0.000000   0.000000   0.115815   0.130405
   29  O  2 XX   -0.018914   0.000375  -0.020842   0.000000   0.000000
   30  O  2 YY    0.012382  -0.014055  -0.004611   0.000000   0.000000
   31  O  2 ZZ    0.006531   0.013680   0.025453   0.000000   0.000000
   32  O  2 XY   -0.008422  -0.023657  -0.030769   0.000000   0.000000
   33  O  2 XZ    0.000000   0.000000   0.000000  -0.025962  -0.043872
   34  O  2 YZ    0.000000   0.000000   0.000000  -0.044949  -0.017300
   35  O  3  S   -0.005632  -0.007250   0.028876   0.000000   0.000000
   36  O  3  S    0.063598  -0.033608  -0.019786   0.000000   0.000000
   37  O  3  S   -0.197799   0.357849  -0.581108   0.000000   0.000000
   38  O  3  X    0.127769  -0.184354   0.126556   0.000000   0.000000
   39  O  3  Y   -0.089039   0.092278  -0.114703   0.000000   0.000000
   40  O  3  Z    0.000000   0.000000   0.000000   0.281813  -0.294330
   41  O  3  X    0.005031  -0.095069  -0.181789   0.000000   0.000000
   42  O  3  Y   -0.124560  -0.047647   0.074594   0.000000   0.000000
   43  O  3  Z    0.000000   0.000000   0.000000  -0.115816   0.130404
   44  O  3 XX   -0.018914  -0.000374  -0.020842   0.000000   0.000000
   45  O  3 YY    0.012382   0.014056  -0.004609   0.000000   0.000000
   46  O  3 ZZ    0.006532  -0.013682   0.025451   0.000000   0.000000
   47  O  3 XY    0.008422  -0.023659   0.030767   0.000000   0.000000
   48  O  3 XZ    0.000000   0.000000   0.000000  -0.025963   0.043871
   49  O  3 YZ    0.000000   0.000000   0.000000   0.044949  -0.017299

                     26         27         28         29         30
                    0.5026     0.6156     0.6900     0.7769     0.8205
                     A          A          A          A          A   
    1  S  1  S   -0.000837  -0.001863   0.000000   0.006195   0.000000
    2  S  1  S    0.006195   0.011666  -0.000000  -0.052997   0.000000
    3  S  1  S   -0.025433   0.137107   0.000002   0.225828   0.000000
    4  S  1  S    0.030019  -0.900447  -0.000006   0.140897   0.000000
    5  S  1  X   -0.000000   0.000000  -0.104127   0.000000   0.000000
    6  S  1  Y    0.033916   0.078717   0.000000  -0.019324   0.000000
    7  S  1  Z    0.000000   0.000000   0.000000   0.000000  -0.000000
    8  S  1  X    0.000001  -0.000002   0.526390  -0.000000   0.000000
    9  S  1  Y   -0.143198  -0.355682  -0.000001   0.162175   0.000000
   10  S  1  Z    0.000000   0.000000   0.000000   0.000000   0.000000
   11  S  1  X   -0.000000  -0.000002   0.187759   0.000001   0.000000
   12  S  1  Y    0.148238  -0.279899  -0.000003   0.287651   0.000000
   13  S  1  Z    0.000000   0.000000   0.000000   0.000000  -0.000002
   14  S  1 XX   -0.692055  -0.546890  -0.000001  -0.481820   0.000000
   15  S  1 YY    0.744295  -0.403951  -0.000001   0.404197   0.000000
   16  S  1 ZZ   -0.052240   0.950842   0.000002   0.077623   0.000000
   17  S  1 XY    0.000000  -0.000003   0.854408  -0.000000   0.000000
   18  S  1 XZ    0.000000   0.000000   0.000000   0.000000   0.427603
   19  S  1 YZ    0.000000   0.000000   0.000000   0.000000  -0.000002
   20  O  2  S    0.002596  -0.067686   0.076043   0.003308   0.000000
   21  O  2  S   -0.017652   0.269011  -0.307468   0.012873   0.000000
   22  O  2  S   -0.011030   0.243028  -0.145852  -0.126695   0.000000
   23  O  2  X    0.227929   0.031628  -0.129617  -0.531906   0.000000
   24  O  2  Y   -0.302012   0.042058  -0.136917   0.175809   0.000000
   25  O  2  Z    0.000000   0.000000   0.000000   0.000000   0.587491
   26  O  2  X   -0.095926  -0.405779   0.588619   0.710349   0.000000
   27  O  2  Y    0.104449  -0.360438   0.557115  -0.231228   0.000000
   28  O  2  Z    0.000000   0.000000   0.000000   0.000000  -0.782778
   29  O  2 XX    0.053680  -0.008135   0.015210   0.034155   0.000000
   30  O  2 YY   -0.053782  -0.012943   0.000880  -0.042438   0.000000
   31  O  2 ZZ    0.000102   0.021077  -0.016089   0.008284   0.000000
   32  O  2 XY   -0.012935  -0.001560   0.034660   0.020541   0.000000
   33  O  2 XZ    0.000000   0.000000   0.000000   0.000000  -0.036913
   34  O  2 YZ    0.000000   0.000000   0.000000   0.000000  -0.032287
   35  O  3  S    0.002596  -0.067686  -0.076043   0.003308   0.000000
   36  O  3  S   -0.017653   0.269015   0.307469   0.012873   0.000000
   37  O  3  S   -0.011029   0.243020   0.145856  -0.126695   0.000000
   38  O  3  X   -0.227929  -0.031623  -0.129620   0.531901   0.000000
   39  O  3  Y   -0.302012   0.042058   0.136919   0.175809   0.000000
   40  O  3  Z    0.000000   0.000000   0.000000   0.000000  -0.587495
   41  O  3  X    0.095927   0.405770   0.588624  -0.710343   0.000000
   42  O  3  Y    0.104449  -0.360434  -0.557119  -0.231227   0.000000
   43  O  3  Z    0.000000   0.000000   0.000000   0.000000   0.782784
   44  O  3 XX    0.053680  -0.008134  -0.015209   0.034154   0.000000
   45  O  3 YY   -0.053782  -0.012943  -0.000880  -0.042438   0.000000
   46  O  3 ZZ    0.000102   0.021077   0.016089   0.008284   0.000000
   47  O  3 XY    0.012935   0.001560   0.034660  -0.020541   0.000000
   48  O  3 XZ    0.000000   0.000000   0.000000   0.000000  -0.036913
   49  O  3 YZ    0.000000   0.000000   0.000000   0.000000   0.032288

                     31         32         33         34         35
                    0.8351     0.8374     0.8680     0.9423     1.4017
                     A          A          A          A          A   
    1  S  1  S    0.014876   0.000000  -0.000000   0.000000  -0.000000
    2  S  1  S   -0.127263   0.000000   0.000000  -0.000000   0.000001
    3  S  1  S    0.636826   0.000000  -0.000000   0.000000   0.000008
    4  S  1  S   -0.097031   0.000000   0.000001   0.000005  -0.000057
    5  S  1  X    0.000000   0.000000  -0.007464  -0.004604   0.063761
    6  S  1  Y   -0.035643   0.000000   0.000000  -0.000000   0.000003
    7  S  1  Z    0.000000  -0.001098   0.000000   0.000000   0.000000
    8  S  1  X   -0.000000   0.000000   0.162159   0.117989  -0.422412
    9  S  1  Y    0.313832   0.000000   0.000000   0.000002  -0.000016
   10  S  1  Z    0.000000   0.004914   0.000000   0.000000   0.000000
   11  S  1  X    0.000000   0.000000   0.053606  -0.618832  -0.578788
   12  S  1  Y   -0.351523   0.000000   0.000000   0.000001  -0.000025
   13  S  1  Z    0.000000  -0.516419   0.000000   0.000000   0.000000
   14  S  1 XX    0.054522   0.000000   0.000000   0.000002  -0.000006
   15  S  1 YY   -0.360436   0.000000   0.000000  -0.000001  -0.000005
   16  S  1 ZZ    0.305914   0.000000  -0.000000  -0.000001   0.000011
   17  S  1 XY    0.000001   0.000000  -0.529832  -0.407870  -0.336185
   18  S  1 XZ    0.000000  -0.000001   0.000000   0.000000   0.000000
   19  S  1 YZ    0.000000  -0.449715   0.000000   0.000000   0.000000
   20  O  2  S    0.004065   0.000000  -0.008834  -0.000426   0.078699
   21  O  2  S   -0.022609   0.000000   0.007102  -0.105051  -1.172262
   22  O  2  S    0.078629   0.000000   0.057906   0.332396   1.617005
   23  O  2  X   -0.245781   0.000000  -0.098954  -0.610347   0.117402
   24  O  2  Y   -0.537497   0.000000  -0.613053   0.132403   0.055062
   25  O  2  Z    0.000000  -0.578725   0.000000   0.000000   0.000000
   26  O  2  X    0.288098   0.000000  -0.017861   0.773221  -0.453446
   27  O  2  Y    0.764668   0.000000   0.676994  -0.360607  -0.382312
   28  O  2  Z    0.000000   0.851204   0.000000   0.000000   0.000000
   29  O  2 XX   -0.019759   0.000000  -0.014973   0.049578  -0.098540
   30  O  2 YY    0.036035   0.000000   0.015353  -0.024975  -0.023453
   31  O  2 ZZ   -0.016277   0.000000  -0.000381  -0.024603   0.121993
   32  O  2 XY    0.045649   0.000000  -0.000002  -0.020587  -0.119365
   33  O  2 XZ    0.000000   0.036090   0.000000   0.000000   0.000000
   34  O  2 YZ    0.000000   0.033748   0.000000   0.000000   0.000000
   35  O  3  S    0.004064   0.000000   0.008834   0.000425  -0.078694
   36  O  3  S   -0.022604   0.000000  -0.007103   0.105067   1.172174
   37  O  3  S    0.078625   0.000000  -0.057906  -0.332415  -1.616868
   38  O  3  X    0.245781   0.000000  -0.098953  -0.610350   0.117401
   39  O  3  Y   -0.537497   0.000000   0.613052  -0.132405  -0.055059
   40  O  3  Z    0.000000  -0.578720   0.000000   0.000000   0.000000
   41  O  3  X   -0.288099   0.000000  -0.017862   0.773222  -0.453415
   42  O  3  Y    0.764668   0.000000  -0.676992   0.360612   0.382286
   43  O  3  Z    0.000000   0.851199   0.000000   0.000000   0.000000
   44  O  3 XX   -0.019759   0.000000   0.014973  -0.049579   0.098539
   45  O  3 YY    0.036035   0.000000  -0.015353   0.024976   0.023451
   46  O  3 ZZ   -0.016277   0.000000   0.000381   0.024603  -0.121990
   47  O  3 XY   -0.045649   0.000000  -0.000002  -0.020587  -0.119355
   48  O  3 XZ    0.000000  -0.036090   0.000000   0.000000   0.000000
   49  O  3 YZ    0.000000   0.033747   0.000000   0.000000   0.000000

                     36         37         38         39         40
                    1.4716     2.0896     2.0932     2.0967     2.1026
                     A          A          A          A          A   
    1  S  1  S    0.000738  -0.000000   0.000000   0.000000   0.001171
    2  S  1  S   -0.002786   0.000000   0.000000   0.000000  -0.008359
    3  S  1  S    0.409300  -0.000001   0.000000   0.000000   0.048953
    4  S  1  S   -1.919080   0.000002   0.000000   0.000000  -0.149613
    5  S  1  X   -0.000002  -0.019500   0.000000   0.000000  -0.000000
    6  S  1  Y    0.074011  -0.000000   0.000000   0.000000  -0.001192
    7  S  1  Z    0.000000   0.000000  -0.008414   0.000000   0.000000
    8  S  1  X    0.000016   0.062086   0.000000   0.000000   0.000000
    9  S  1  Y   -0.428974   0.000000   0.000000   0.000000  -0.007013
   10  S  1  Z    0.000000   0.000000   0.026992  -0.000001   0.000000
   11  S  1  X    0.000013   0.054069   0.000000   0.000000   0.000000
   12  S  1  Y   -0.885557   0.000001   0.000000   0.000000  -0.089586
   13  S  1  Z    0.000000   0.000000   0.023435  -0.000001   0.000000
   14  S  1 XX   -0.199596  -0.000000   0.000000   0.000000   0.017565
   15  S  1 YY   -0.184241   0.000000   0.000000   0.000000   0.030504
   16  S  1 ZZ    0.383836   0.000000   0.000000   0.000000  -0.048069
   17  S  1 XY    0.000008  -0.040718   0.000000   0.000000  -0.000000
   18  S  1 XZ    0.000000   0.000000   0.000001   0.026206   0.000000
   19  S  1 YZ    0.000000   0.000000   0.002137  -0.000000   0.000000
   20  O  2  S    0.071850  -0.000555   0.000000   0.000000   0.006024
   21  O  2  S   -1.245821   0.019618   0.000000   0.000000  -0.089240
   22  O  2  S    2.079371  -0.042969   0.000000   0.000000   0.144243
   23  O  2  X    0.009609   0.023723   0.000000   0.000000   0.027756
   24  O  2  Y    0.036101  -0.021943   0.000000   0.000000  -0.000422
   25  O  2  Z    0.000000   0.000000   0.019456   0.020414   0.000000
   26  O  2  X   -0.478201  -0.031263   0.000000   0.000000  -0.061810
   27  O  2  Y   -0.368292   0.037737   0.000000   0.000000  -0.007506
   28  O  2  Z    0.000000   0.000000  -0.032879  -0.031765   0.000000
   29  O  2 XX   -0.022765   0.224007   0.000000   0.000000  -0.330656
   30  O  2 YY   -0.014868  -0.658220   0.000000   0.000000  -0.300751
   31  O  2 ZZ    0.037633   0.434214   0.000000   0.000000   0.631406
   32  O  2 XY   -0.151377   0.233205   0.000000   0.000000   0.316361
   33  O  2 XZ    0.000000   0.000000  -0.371334   0.592648   0.000000
   34  O  2 YZ    0.000000   0.000000   0.601935  -0.386189   0.000000
   35  O  3  S    0.071855   0.000554   0.000000   0.000000   0.006024
   36  O  3  S   -1.245899  -0.019616   0.000000   0.000000  -0.089240
   37  O  3  S    2.079474   0.042966   0.000000   0.000000   0.144242
   38  O  3  X   -0.009621   0.023723   0.000000   0.000000  -0.027755
   39  O  3  Y    0.036103   0.021943   0.000000   0.000000  -0.000421
   40  O  3  Z    0.000000   0.000000   0.019455  -0.020415   0.000000
   41  O  3  X    0.478239  -0.031264   0.000000   0.000000   0.061808
   42  O  3  Y   -0.368312  -0.037737   0.000000   0.000000  -0.007506
   43  O  3  Z    0.000000   0.000000  -0.032877   0.031767   0.000000
   44  O  3 XX   -0.022775  -0.224004   0.000000   0.000000  -0.330663
   45  O  3 YY   -0.014869   0.658224   0.000000   0.000000  -0.300743
   46  O  3 ZZ    0.037644  -0.434220   0.000000   0.000000   0.631406
   47  O  3 XY    0.151386   0.233207   0.000000   0.000000  -0.316361
   48  O  3 XZ    0.000000   0.000000   0.371371   0.592625   0.000000
   49  O  3 YZ    0.000000   0.000000   0.601960   0.386150   0.000000

                     41         42         43         44         45
                    2.1374     2.1545     2.1900     2.2619     2.5175
                     A          A          A          A          A   
    1  S  1  S   -0.000000   0.000000   0.000000  -0.002722  -0.027849
    2  S  1  S    0.000000   0.000000   0.000000   0.021830   0.213441
    3  S  1  S   -0.000002   0.000000   0.000000  -0.082642  -0.455686
    4  S  1  S    0.000004   0.000000   0.000000   0.022990  -0.702351
    5  S  1  X   -0.015169   0.000000   0.000000   0.000000   0.000000
    6  S  1  Y    0.000000   0.000000   0.000000  -0.023217   0.144280
    7  S  1  Z    0.000000  -0.000000  -0.044042   0.000000   0.000000
    8  S  1  X    0.017751   0.000000   0.000000  -0.000000  -0.000001
    9  S  1  Y   -0.000000   0.000000   0.000000   0.051585  -0.695635
   10  S  1  Z    0.000000   0.000000   0.141469   0.000000   0.000000
   11  S  1  X    0.058241   0.000000   0.000000  -0.000000  -0.000002
   12  S  1  Y    0.000002   0.000000   0.000000   0.089485  -0.170084
   13  S  1  Z    0.000000   0.000000   0.086508   0.000000   0.000000
   14  S  1 XX   -0.000000   0.000000   0.000000  -0.334859  -0.206546
   15  S  1 YY    0.000000   0.000000   0.000000   0.325403  -0.162474
   16  S  1 ZZ   -0.000000   0.000000   0.000000   0.009456   0.369020
   17  S  1 XY   -0.006176   0.000000   0.000000   0.000000  -0.000002
   18  S  1 XZ    0.000000  -0.282796   0.000001   0.000000   0.000000
   19  S  1 YZ    0.000000   0.000001   0.273193   0.000000   0.000000
   20  O  2  S    0.006817   0.000000   0.000000   0.003143   0.010816
   21  O  2  S   -0.094249   0.000000   0.000000  -0.031256  -0.453802
   22  O  2  S    0.095936   0.000000   0.000000   0.008478   0.887234
   23  O  2  X    0.093009   0.000000   0.000000   0.007623   0.044225
   24  O  2  Y   -0.029312   0.000000   0.000000   0.039082   0.051507
   25  O  2  Z    0.000000  -0.041670   0.045690   0.000000   0.000000
   26  O  2  X   -0.165738   0.000000   0.000000   0.022873  -0.403283
   27  O  2  Y    0.048813   0.000000   0.000000  -0.105536  -0.358345
   28  O  2  Z    0.000000   0.081670  -0.112937   0.000000   0.000000
   29  O  2 XX    0.632691   0.000000   0.000000  -0.588389   0.273663
   30  O  2 YY   -0.221065   0.000000   0.000000   0.652302   0.071788
   31  O  2 ZZ   -0.411626   0.000000   0.000000  -0.063914  -0.345451
   32  O  2 XY   -0.297566   0.000000   0.000000   0.088050   0.662935
   33  O  2 XZ    0.000000  -0.392156   0.610854   0.000000   0.000000
   34  O  2 YZ    0.000000  -0.597738   0.380655   0.000000   0.000000
   35  O  3  S   -0.006817   0.000000   0.000000   0.003143   0.010816
   36  O  3  S    0.094252   0.000000   0.000000  -0.031256  -0.453801
   37  O  3  S   -0.095942   0.000000   0.000000   0.008478   0.887231
   38  O  3  X    0.093009   0.000000   0.000000  -0.007623  -0.044225
   39  O  3  Y    0.029313   0.000000   0.000000   0.039082   0.051506
   40  O  3  Z    0.000000   0.041670   0.045690   0.000000   0.000000
   41  O  3  X   -0.165739   0.000000   0.000000  -0.022873   0.403283
   42  O  3  Y   -0.048813   0.000000   0.000000  -0.105536  -0.358342
   43  O  3  Z    0.000000  -0.081670  -0.112936   0.000000   0.000000
   44  O  3 XX   -0.632688   0.000000   0.000000  -0.588388   0.273663
   45  O  3 YY    0.221069   0.000000   0.000000   0.652301   0.071787
   46  O  3 ZZ    0.411620   0.000000   0.000000  -0.063914  -0.345450
   47  O  3 XY   -0.297565   0.000000   0.000000  -0.088051  -0.662932
   48  O  3 XZ    0.000000  -0.392159  -0.610851   0.000000   0.000000
   49  O  3 YZ    0.000000   0.597739   0.380652   0.000000   0.000000

                     46
                    2.6616
                     A   
    1  S  1  S   -0.000000
    2  S  1  S    0.000000
    3  S  1  S    0.000001
    4  S  1  S   -0.000007
    5  S  1  X   -0.170627
    6  S  1  Y    0.000000
    7  S  1  Z    0.000000
    8  S  1  X    0.829601
    9  S  1  Y   -0.000002
   10  S  1  Z    0.000000
   11  S  1  X    0.153443
   12  S  1  Y   -0.000003
   13  S  1  Z    0.000000
   14  S  1 XX   -0.000001
   15  S  1 YY   -0.000001
   16  S  1 ZZ    0.000002
   17  S  1 XY    0.676683
   18  S  1 XZ    0.000000
   19  S  1 YZ    0.000000
   20  O  2  S   -0.006563
   21  O  2  S    0.476488
   22  O  2  S   -0.904175
   23  O  2  X   -0.046578
   24  O  2  Y   -0.022364
   25  O  2  Z    0.000000
   26  O  2  X    0.462157
   27  O  2  Y    0.408263
   28  O  2  Z    0.000000
   29  O  2 XX   -0.238320
   30  O  2 YY   -0.167510
   31  O  2 ZZ    0.405830
   32  O  2 XY   -0.670782
   33  O  2 XZ    0.000000
   34  O  2 YZ    0.000000
   35  O  3  S    0.006564
   36  O  3  S   -0.476493
   37  O  3  S    0.904186
   38  O  3  X   -0.046579
   39  O  3  Y    0.022365
   40  O  3  Z    0.000000
   41  O  3  X    0.462161
   42  O  3  Y   -0.408266
   43  O  3  Z    0.000000
   44  O  3 XX    0.238321
   45  O  3 YY    0.167510
   46  O  3 ZZ   -0.405832
   47  O  3 XY   -0.670785
   48  O  3 XZ    0.000000
   49  O  3 YZ    0.000000
 ...... END OF RHF CALCULATION ......
 STEP CPU TIME =     2.56 TOTAL CPU TIME =          2.7 (      0.0 MIN)
 TOTAL WALL CLOCK TIME=          2.8 SECONDS, CPU UTILIZATION IS    98.55%

     ---------------------------------------------------------------------
     PROPERTIES FOR THE PBE      DFT FUNCTIONAL (RHF  TYPE) DENSITY MATRIX
     ---------------------------------------------------------------------

          -----------------
          ENERGY COMPONENTS
          -----------------

         WAVEFUNCTION NORMALIZATION =       1.0000000000

                ONE ELECTRON ENERGY =    -946.6348559657
                TWO ELECTRON ENERGY =     302.4191275446
           NUCLEAR REPULSION ENERGY =      96.0225583778
                                      ------------------
                       TOTAL ENERGY =    -548.1931700433

 ELECTRON-ELECTRON POTENTIAL ENERGY =     302.4191275446
  NUCLEUS-ELECTRON POTENTIAL ENERGY =   -1493.5797326669
   NUCLEUS-NUCLEUS POTENTIAL ENERGY =      96.0225583778
                                      ------------------
             TOTAL POTENTIAL ENERGY =   -1095.1380467445
               TOTAL KINETIC ENERGY =     546.9448767012
                 VIRIAL RATIO (V/T) =       2.0022823019

          ---------------------------------------
          MULLIKEN AND LOWDIN POPULATION ANALYSES
          ---------------------------------------

     ATOMIC MULLIKEN POPULATION IN EACH MOLECULAR ORBITAL

                      1          2          3          4          5

                  2.000000   2.000000   2.000000   2.000000   2.000000

    1             1.999976   0.001255   0.000483   2.000463   2.000251
    2             0.000012   0.965611   1.033520  -0.000231  -0.000126
    3             0.000012   1.033134   0.965997  -0.000231  -0.000126

                      6          7          8          9         10

                  2.000000   2.000000   2.000000   2.000000   2.000000

    1             2.000009   2.000227   0.634320   0.235574   1.263013
    2            -0.000005  -0.000113   0.682835   0.882219   0.368493
    3            -0.000005  -0.000113   0.682844   0.882207   0.368494

                     11         12         13         14         15

                  2.000000   2.000000   2.000000   2.000000   2.000000

    1             0.652653   0.939356   1.174738   0.204318   0.044428
    2             0.673671   0.530323   0.412630   0.897837   0.977786
    3             0.673676   0.530321   0.412632   0.897845   0.977786

                     16

                  2.000000

    1             0.127935
    2             0.936040
    3             0.936025

               ----- POPULATIONS IN EACH AO -----
                             MULLIKEN      LOWDIN
              1  S  1  S      1.99983     1.99926
              2  S  1  S      1.99237     1.88710
              3  S  1  S      1.35093     0.69094
              4  S  1  S      0.52405     0.46497
              5  S  1  X      1.99360     1.95804
              6  S  1  Y      1.99455     1.96424
              7  S  1  Z      1.99401     1.96213
              8  S  1  X      0.82431     0.71426
              9  S  1  Y      0.99402     0.89890
             10  S  1  Z      0.91865     0.82787
             11  S  1  X      0.10936     0.23323
             12  S  1  Y      0.09484     0.26215
             13  S  1  Z      0.25137     0.35693
             14  S  1 XX      0.02029     0.28891
             15  S  1 YY      0.07205     0.29044
             16  S  1 ZZ      0.08962     0.27844
             17  S  1 XY      0.04443     0.10763
             18  S  1 XZ      0.01072     0.05187
             19  S  1 YZ      0.00000     0.01039
             20  O  2  S      1.99567     1.97293
             21  O  2  S      0.96312     0.70789
             22  O  2  S      0.97669     0.55308
             23  O  2  X      0.98745     0.95262
             24  O  2  Y      0.91746     0.88384
             25  O  2  Z      0.83299     0.80249
             26  O  2  X      0.55921     0.63398
             27  O  2  Y      0.56100     0.64482
             28  O  2  Z      0.55369     0.58773
             29  O  2 XX      0.00160     0.20591
             30  O  2 YY      0.00289     0.20654
             31  O  2 ZZ      0.00502     0.20974
             32  O  2 XY      0.00191     0.00939
             33  O  2 XZ      0.00182     0.00275
             34  O  2 YZ      0.00000     0.00242
             35  O  3  S      1.99567     1.97293
             36  O  3  S      0.96312     0.70789
             37  O  3  S      0.97668     0.55308
             38  O  3  X      0.98745     0.95262
             39  O  3  Y      0.91746     0.88384
             40  O  3  Z      0.83299     0.80250
             41  O  3  X      0.55921     0.63398
             42  O  3  Y      0.56099     0.64482
             43  O  3  Z      0.55369     0.58773
             44  O  3 XX      0.00160     0.20591
             45  O  3 YY      0.00289     0.20654
             46  O  3 ZZ      0.00502     0.20974
             47  O  3 XY      0.00191     0.00939
             48  O  3 XZ      0.00182     0.00275
             49  O  3 YZ      0.00000     0.00242

          ----- MULLIKEN ATOMIC OVERLAP POPULATIONS -----
          (OFF-DIAGONAL ELEMENTS NEED TO BE MULTIPLIED BY 2)

             1           2           3

    1   14.6604808
    2    0.3092554   8.1297967
    3    0.3092640  -0.0785504   8.1297845

          TOTAL MULLIKEN AND LOWDIN ATOMIC POPULATIONS
       ATOM         MULL.POP.    CHARGE          LOW.POP.     CHARGE
    1 S            15.279000    0.721000        15.247707    0.752293
    2 O             8.360502   -0.360502         8.376147   -0.376147
    3 O             8.360498   -0.360498         8.376146   -0.376146

          MULLIKEN SPHERICAL HARMONIC POPULATIONS
       ATOM           S       P       D      F      G      H      I    TOTAL
    1 S             5.87    9.17    0.24   0.00   0.00   0.00   0.00   15.28
    2 O             3.94    4.41    0.01   0.00   0.00   0.00   0.00    8.36
    3 O             3.94    4.41    0.01   0.00   0.00   0.00   0.00    8.36

          -------------------------------
          BOND ORDER AND VALENCE ANALYSIS     BOND ORDER THRESHOLD=0.050
          -------------------------------

                   BOND                       BOND                       BOND
  ATOM PAIR DIST  ORDER      ATOM PAIR DIST  ORDER      ATOM PAIR DIST  ORDER
    1   2  1.650  1.684        1   3  1.650  1.684        2   3  2.433  0.408

                       TOTAL       BONDED        FREE
      ATOM            VALENCE     VALENCE     VALENCE
    1 S                 3.367       3.367       0.000
    2 O                 2.092       2.092      -0.000
    3 O                 2.092       2.092      -0.000

          ---------------------
          ELECTROSTATIC MOMENTS
          ---------------------

 POINT   1           X           Y           Z (BOHR)    CHARGE
                 0.000000    0.000000    0.000000        0.00 (A.U.)
         DX          DY          DZ         /D/  (DEBYE)
    -0.000004   -3.007017    0.000000    3.007017
 ...... END OF PROPERTY EVALUATION ......
 STEP CPU TIME =     0.01 TOTAL CPU TIME =          2.7 (      0.0 MIN)
 TOTAL WALL CLOCK TIME=          2.8 SECONDS, CPU UTILIZATION IS    98.55%
                580000  WORDS OF DYNAMIC MEMORY USED
 EXECUTION OF GAMESS TERMINATED NORMALLY Sun Sep 29 10:52:21 2019
 DDI: 263640 bytes (0.3 MB / 0 MWords) used by master data server.

 ----------------------------------------
 CPU timing information for all processes
 ========================================
 0: 2.651 + 0.73 = 2.724
 ----------------------------------------
 ddikick.x: exited gracefully.
----- accounting info -----
Files used on the master node crcfe02.crc.nd.edu were:
-rw-r--r-- 1 cdrisko campus     207 Sep 29 10:52 /afs/crc.nd.edu/user/c/cdrisko/SO2.F05
-rw-r--r-- 1 cdrisko campus   37566 Sep 29 10:52 /afs/crc.nd.edu/user/c/cdrisko/SO2.F07
-rw-r--r-- 1 cdrisko campus 4140368 Sep 29 10:52 /afs/crc.nd.edu/user/c/cdrisko/SO2.F08
-rw-r--r-- 1 cdrisko campus 1766880 Sep 29 10:52 /afs/crc.nd.edu/user/c/cdrisko/SO2.F10
Sun Sep 29 10:52:24 EDT 2019
0.438u 0.239s 0:06.41 10.2%	0+0k 0+24io 0pf+0w
