   4   4   0   0
  0.1710448E+02  0.4090000E-09  0.4090000E-09  0.4090000E-09  0.5000000E-15
  1.000000000000000E-004
  CAR 
 unknown system                          
     39.76200943     -1.21556184  301      8.25330465      1.00000000
     -1.216  0.0000E+00  0.0000E+00
     -1.079  0.0000E+00  0.0000E+00
     -0.942  0.0000E+00  0.0000E+00
     -0.806  0.0000E+00  0.0000E+00
     -0.669  0.0000E+00  0.0000E+00
     -0.533  0.0000E+00  0.0000E+00
     -0.396  0.0000E+00  0.0000E+00
     -0.259 -0.2859E-35 -0.3906E-36
     -0.123 -0.2136E-25 -0.2918E-26
      0.014 -0.3703E-17 -0.5059E-18
      0.150 -0.1408E-10 -0.1924E-11
      0.287 -0.1190E-05 -0.1626E-06
      0.424 -0.1886E-02 -0.2578E-03
      0.560 -0.1203E-02 -0.4221E-03
      0.697  0.4740E+00  0.6432E-01
      0.833  0.7802E-01  0.7497E-01
      0.970 -0.6572E-02  0.7408E-01
      1.107 -0.1333E-04  0.7407E-01
      1.243 -0.1841E-08  0.7407E-01
      1.380 -0.5027E-04  0.7407E-01
      1.516 -0.3157E-01  0.6975E-01
      1.653  0.3340E+00  0.1154E+00
      1.789  0.2898E+01  0.5112E+00
      1.926  0.1967E+00  0.5380E+00
      2.063  0.1618E+01  0.7590E+00
      2.199  0.5244E+01  0.1475E+01
      2.336  0.8259E+00  0.1588E+01
      2.472  0.2128E+02  0.4495E+01
      2.609  0.1309E+02  0.6283E+01
      2.746  0.1038E+02  0.7700E+01
      2.882  0.6318E+01  0.8563E+01
      3.019  0.1901E+02  0.1116E+02
      3.155  0.1780E+01  0.1140E+02
      3.292  0.1502E+02  0.1345E+02
      3.429  0.1321E+02  0.1526E+02
      3.565  0.2508E+01  0.1560E+02
      3.702  0.1519E+02  0.1768E+02
      3.838  0.1094E+02  0.1917E+02
      3.975  0.1331E+02  0.2099E+02
      4.112  0.1620E+02  0.2320E+02
      4.248  0.1509E+02  0.2526E+02
      4.385  0.1952E+02  0.2793E+02
      4.521 -0.4532E+00  0.2787E+02
      4.658  0.6262E+01  0.2872E+02
      4.794  0.3863E+01  0.2925E+02
      4.931  0.1939E+02  0.3190E+02
      5.068  0.2520E+02  0.3534E+02
      5.204  0.1577E+02  0.3750E+02
      5.341  0.1702E+01  0.3773E+02
      5.477  0.1316E+02  0.3953E+02
      5.614  0.1146E+02  0.4109E+02
      5.751  0.6964E+01  0.4204E+02
      5.887 -0.2897E+00  0.4200E+02
      6.024 -0.4472E-01  0.4200E+02
      6.160  0.2993E+00  0.4204E+02
      6.297  0.2928E+01  0.4244E+02
      6.434  0.7277E-01  0.4245E+02
      6.570 -0.1621E-01  0.4244E+02
      6.707 -0.1378E-04  0.4244E+02
      6.843 -0.2146E-09  0.4244E+02
      6.980  0.0000E+00  0.4244E+02
      7.117  0.0000E+00  0.4244E+02
      7.253  0.0000E+00  0.4244E+02
      7.390 -0.6195E-27  0.4244E+02
      7.526 -0.3497E-18  0.4244E+02
      7.663 -0.4382E-11  0.4244E+02
      7.800 -0.1240E-05  0.4244E+02
      7.936 -0.7052E-02  0.4244E+02
      8.073 -0.4449E+00  0.4238E+02
      8.209  0.7715E+01  0.4344E+02
      8.346  0.6149E+01  0.4428E+02
      8.482 -0.3926E+00  0.4422E+02
      8.619 -0.3564E-02  0.4422E+02
      8.756 -0.3312E-01  0.4422E+02
      8.892 -0.2136E+00  0.4419E+02
      9.029  0.1094E+02  0.4568E+02
      9.165  0.2522E+01  0.4603E+02
      9.302 -0.1959E+00  0.4600E+02
      9.439 -0.5157E-03  0.4600E+02
      9.575 -0.4730E-07  0.4600E+02
      9.712 -0.2774E-03  0.4600E+02
      9.848 -0.4295E-01  0.4599E+02
      9.985  0.6420E+00  0.4608E+02
     10.122  0.1086E+01  0.4623E+02
     10.258 -0.5627E-01  0.4622E+02
     10.395 -0.1346E-02  0.4622E+02
     10.531 -0.3080E-06  0.4622E+02
     10.668 -0.1399E-11  0.4622E+02
     10.805 -0.1083E-21  0.4622E+02
     10.941 -0.6103E-14  0.4622E+02
     11.078 -0.7434E-08  0.4622E+02
     11.214 -0.1970E-03  0.4622E+02
     11.351 -0.8682E-01  0.4621E+02
     11.487  0.1072E+01  0.4636E+02
     11.624  0.5601E+01  0.4712E+02
     11.761 -0.5843E-01  0.4711E+02
     11.897 -0.1980E-01  0.4711E+02
     12.034 -0.1302E-03  0.4711E+02
     12.170 -0.6853E-01  0.4710E+02
     12.307  0.7599E+00  0.4721E+02
     12.444  0.5785E+01  0.4800E+02
     12.580  0.5827E-01  0.4800E+02
     12.717 -0.2716E-01  0.4800E+02
     12.853 -0.2313E-01  0.4800E+02
     12.990 -0.3472E+00  0.4795E+02
     13.127  0.1030E+02  0.4936E+02
     13.263  0.3326E+01  0.4981E+02
     13.400 -0.2428E+00  0.4978E+02
     13.536 -0.8561E-03  0.4978E+02
     13.673 -0.4722E-07  0.4978E+02
     13.810 -0.8076E-06  0.4978E+02
     13.946 -0.4155E-02  0.4978E+02
     14.083 -0.2252E+00  0.4975E+02
     14.219  0.4047E+01  0.5030E+02
     14.356  0.2879E+01  0.5069E+02
     14.493 -0.1873E+00  0.5067E+02
     14.629 -0.1486E-02  0.5067E+02
     14.766 -0.7083E-05  0.5067E+02
     14.902 -0.8154E-02  0.5067E+02
     15.039  0.6605E-02  0.5067E+02
     15.175  0.1572E+01  0.5088E+02
     15.312  0.5979E+01  0.5170E+02
     15.449  0.6480E+00  0.5179E+02
     15.585 -0.6315E-01  0.5178E+02
     15.722 -0.1026E+00  0.5176E+02
     15.858  0.1338E+01  0.5195E+02
     15.995  0.5410E+01  0.5269E+02
     16.132 -0.1482E+00  0.5267E+02
     16.268 -0.1432E+00  0.5265E+02
     16.405  0.7821E+01  0.5371E+02
     16.541  0.3413E+01  0.5418E+02
     16.678 -0.2330E+00  0.5415E+02
     16.815 -0.3026E-02  0.5415E+02
     16.951 -0.1799E+00  0.5412E+02
     17.088  0.2727E+01  0.5450E+02
     17.224  0.4192E+01  0.5507E+02
     17.361 -0.2259E+00  0.5504E+02
     17.498 -0.4716E-02  0.5504E+02
     17.634 -0.5502E-03  0.5504E+02
     17.771 -0.2491E+00  0.5500E+02
     17.907  0.2621E+01  0.5536E+02
     18.044  0.2252E+02  0.5844E+02
     18.180  0.1312E+01  0.5862E+02
     18.317 -0.1705E+00  0.5859E+02
     18.454 -0.2549E-03  0.5859E+02
     18.590 -0.1367E-07  0.5859E+02
     18.727 -0.1424E-03  0.5859E+02
     18.863 -0.5115E-01  0.5859E+02
     19.000  0.6677E+00  0.5868E+02
     19.137  0.2706E+01  0.5905E+02
     19.273 -0.6118E-01  0.5904E+02
     19.410 -0.7732E-02  0.5904E+02
     19.546 -0.3644E-05  0.5904E+02
     19.683 -0.3281E-10  0.5904E+02
     19.820 -0.6083E-27  0.5904E+02
     19.956 -0.2714E-18  0.5904E+02
     20.093 -0.2683E-11  0.5904E+02
     20.229 -0.5971E-06  0.5904E+02
     20.366 -0.2642E-02  0.5904E+02
     20.503 -0.1126E+00  0.5902E+02
     20.639  0.2161E+01  0.5932E+02
     20.776  0.1179E+01  0.5948E+02
     20.912  0.1088E+01  0.5963E+02
     21.049  0.1170E+02  0.6122E+02
     21.186 -0.1808E+00  0.6120E+02
     21.322  0.7822E+01  0.6227E+02
     21.459  0.1247E+02  0.6397E+02
     21.595 -0.3040E+00  0.6393E+02
     21.732 -0.3316E+00  0.6389E+02
     21.868  0.4272E+01  0.6447E+02
     22.005  0.9482E+01  0.6576E+02
     22.142 -0.4250E+00  0.6571E+02
     22.278 -0.1575E-01  0.6570E+02
     22.415 -0.1073E+00  0.6569E+02
     22.551  0.1420E+01  0.6588E+02
     22.688  0.5347E+01  0.6661E+02
     22.825 -0.1382E+00  0.6659E+02
     22.961 -0.1432E-01  0.6659E+02
     23.098 -0.6375E-05  0.6659E+02
     23.234 -0.7965E-10  0.6659E+02
     23.371 -0.4448E-05  0.6659E+02
     23.508 -0.1540E-01  0.6659E+02
     23.644 -0.4253E+00  0.6653E+02
     23.781  0.9477E+01  0.6783E+02
     23.917  0.4278E+01  0.6841E+02
     24.054 -0.2973E+00  0.6837E+02
     24.191 -0.6261E-01  0.6836E+02
     24.327  0.7369E+00  0.6846E+02
     24.464  0.4196E+01  0.6904E+02
     24.600 -0.1988E+00  0.6901E+02
     24.737  0.2814E+01  0.6939E+02
     24.873  0.1382E+02  0.7128E+02
     25.010 -0.6185E-01  0.7127E+02
     25.147  0.5611E+01  0.7204E+02
     25.283  0.2586E+01  0.7239E+02
     25.420  0.7975E+01  0.7348E+02
     25.556  0.2308E+01  0.7380E+02
     25.693  0.7058E+01  0.7476E+02
     25.830  0.4500E+00  0.7482E+02
     25.966 -0.5668E-01  0.7481E+02
     26.103 -0.1236E-03  0.7481E+02
     26.239 -0.4942E-08  0.7481E+02
     26.376 -0.4335E-14  0.7481E+02
     26.513 -0.9183E-25  0.7481E+02
     26.649 -0.2016E-16  0.7481E+02
     26.786 -0.9735E-10  0.7481E+02
     26.922 -0.1049E-04  0.7481E+02
     27.059 -0.2154E-01  0.7481E+02
     27.196 -0.1509E+00  0.7479E+02
     27.332  0.7113E+01  0.7576E+02
     27.469  0.3916E+01  0.7630E+02
     27.605  0.4551E+01  0.7692E+02
     27.742 -0.2212E+00  0.7689E+02
     27.879 -0.1591E-01  0.7689E+02
     28.015  0.1413E+01  0.7708E+02
     28.152  0.2187E+00  0.7711E+02
     28.288  0.3043E-01  0.7711E+02
     28.425  0.6262E+01  0.7797E+02
     28.561  0.6526E+01  0.7886E+02
     28.698  0.2098E+00  0.7889E+02
     28.835  0.1140E+02  0.8045E+02
     28.971  0.1761E+01  0.8069E+02
     29.108 -0.1638E+00  0.8066E+02
     29.244 -0.4437E+00  0.8060E+02
     29.381  0.9034E+01  0.8184E+02
     29.518  0.4763E+01  0.8249E+02
     29.654 -0.3238E+00  0.8244E+02
     29.791 -0.1882E-02  0.8244E+02
     29.927 -0.3498E-01  0.8244E+02
     30.064  0.8341E-01  0.8245E+02
     30.201  0.7170E+01  0.8343E+02
     30.337  0.5895E+01  0.8424E+02
     30.474  0.2429E+01  0.8457E+02
     30.610  0.7855E+00  0.8467E+02
     30.747 -0.5897E-01  0.8467E+02
     30.884 -0.2293E-03  0.8467E+02
     31.020 -0.3872E-01  0.8466E+02
     31.157  0.1191E+00  0.8468E+02
     31.293  0.7753E+01  0.8574E+02
     31.430  0.9299E+00  0.8586E+02
     31.566 -0.8649E-01  0.8585E+02
     31.703 -0.1416E-03  0.8585E+02
     31.840 -0.4004E-08  0.8585E+02
     31.976 -0.3733E-06  0.8585E+02
     32.113 -0.3093E-02  0.8585E+02
     32.249 -0.3307E+00  0.8581E+02
     32.386  0.5206E+01  0.8652E+02
     32.523  0.6348E+01  0.8738E+02
     32.659 -0.3874E+00  0.8733E+02
     32.796  0.3752E+00  0.8738E+02
     32.932  0.1936E+00  0.8741E+02
     33.069 -0.2935E-01  0.8741E+02
     33.206 -0.5594E+00  0.8733E+02
     33.342  0.1131E+02  0.8887E+02
     33.479  0.1128E+02  0.9041E+02
     33.615  0.1366E+01  0.9060E+02
     33.752  0.1245E+02  0.9230E+02
     33.889  0.6909E+01  0.9324E+02
     34.025  0.6262E+01  0.9410E+02
     34.162  0.5149E+01  0.9480E+02
     34.298  0.1846E+01  0.9506E+02
     34.435 -0.1343E+00  0.9504E+02
     34.572 -0.1643E-01  0.9503E+02
     34.708 -0.1166E+00  0.9502E+02
     34.845  0.5434E+01  0.9576E+02
     34.981  0.1307E+01  0.9594E+02
     35.118 -0.1006E+00  0.9593E+02
     35.254 -0.2742E-03  0.9593E+02
     35.391 -0.1213E-07  0.9593E+02
     35.528 -0.1156E-13  0.9593E+02
     35.664  0.0000E+00  0.9593E+02
     35.801  0.0000E+00  0.9593E+02
     35.937  0.0000E+00  0.9593E+02
     36.074  0.0000E+00  0.9593E+02
     36.211  0.0000E+00  0.9593E+02
     36.347  0.0000E+00  0.9593E+02
     36.484  0.0000E+00  0.9593E+02
     36.620  0.0000E+00  0.9593E+02
     36.757  0.0000E+00  0.9593E+02
     36.894  0.0000E+00  0.9593E+02
     37.030 -0.2046E-32  0.9593E+02
     37.167 -0.5482E-23  0.9593E+02
     37.303 -0.3397E-15  0.9593E+02
     37.440 -0.4558E-09  0.9593E+02
     37.577 -0.1333E-04  0.9593E+02
     37.713 -0.6572E-02  0.9593E+02
     37.850  0.7802E-01  0.9594E+02
     37.986  0.4740E+00  0.9600E+02
     38.123 -0.1203E-02  0.9600E+02
     38.259 -0.1886E-02  0.9600E+02
     38.396 -0.1190E-05  0.9600E+02
     38.533 -0.1408E-10  0.9600E+02
     38.669  0.0000E+00  0.9600E+02
     38.806  0.0000E+00  0.9600E+02
     38.942  0.0000E+00  0.9600E+02
     39.079  0.0000E+00  0.9600E+02
     39.216  0.0000E+00  0.9600E+02
     39.352  0.0000E+00  0.9600E+02
     39.489  0.0000E+00  0.9600E+02
     39.625  0.0000E+00  0.9600E+02
     39.762  0.0000E+00  0.9600E+02
