    4    4    1    1
  0.1710448E+02  0.4090000E-09  0.4090000E-09  0.4090000E-09  0.5000000E-15
  1.000000000000000E-004
  CAR 
 unknown system                          
     44      4     48
 
  0.0000000E+00  0.0000000E+00  0.0000000E+00  0.3703704E-01
    1        0.647055   1.000000
    2        1.982109   1.000000
    3        1.982109   1.000000
    4        1.982109   1.000000
    5        2.123846   1.000000
    6        2.123846   1.000000
    7        2.123846   1.000000
    8        3.614213   1.000000
    9        3.614213   1.000000
   10        3.614213   1.000000
   11        4.642491   1.000000
   12        4.642491   1.000000
   13        5.402771   1.000000
   14        5.402771   1.000000
   15        5.402771   1.000000
   16        5.643610   1.000000
   17        5.643610   1.000000
   18        5.643610   1.000000
   19        5.643610   1.000000
   20        5.643610   1.000000
   21        5.643610   1.000000
   22       10.000783  -0.000000
   23       10.000783  -0.000000
   24       10.000783  -0.000000
   25       15.116027   0.000000
   26       15.116027   0.000000
   27       15.116027   0.000000
   28       19.040071   0.000000
   29       19.040071   0.000000
   30       19.040071   0.000000
   31       19.040071   0.000000
   32       19.040071   0.000000
   33       19.040071   0.000000
   34       24.412178   0.000000
   35       25.545447   0.000000
   36       25.545447   0.000000
   37       25.545447   0.000000
   38       25.609551   0.000000
   39       25.609551   0.000000
   40       25.609551   0.000000
   41       27.966932   0.000000
   42       27.966932   0.000000
   43       27.966932   0.000000
   44       32.775584   0.000000
   45       33.894489   0.000000
   46       33.894489   0.000000
   47       33.894489   0.000000
   48       37.899393   0.000000
 
  0.3333333E+00  0.0000000E+00  0.0000000E+00  0.2222222E+00
    1        1.710072   1.000000
    2        2.367965   1.000000
    3        2.464080   1.000000
    4        2.494500   1.000000
    5        2.494500   1.000000
    6        2.673215   1.000000
    7        2.673215   1.000000
    8        3.206227   1.000000
    9        4.021959   1.000000
   10        4.021959   1.000000
   11        4.220701   1.000000
   12        4.220701   1.000000
   13        4.316644   1.000000
   14        4.824742   1.000000
   15        4.888807   1.000000
   16        4.888807   1.000000
   17        5.012672   1.000000
   18        5.012672   1.000000
   19        5.204289   1.000000
   20        5.644120   1.000000
   21        5.644120   1.000000
   22        6.219761   1.000000
   23       12.361531   0.000000
   24       12.361531   0.000000
   25       15.254696   0.000000
   26       15.254696   0.000000
   27       16.396823   0.000000
   28       16.396823   0.000000
   29       17.100721   0.000000
   30       17.100721   0.000000
   31       20.623742   0.000000
   32       20.969103   0.000000
   33       20.969103   0.000000
   34       24.766640   0.000000
   35       25.319584   0.000000
   36       25.328350   0.000000
   37       25.328350   0.000000
   38       25.572476   0.000000
   39       25.649894   0.000000
   40       28.489670   0.000000
   41       28.489670   0.000000
   42       30.241364   0.000000
   43       30.241364   0.000000
   44       30.439510   0.000000
   45       33.952669   0.000000
   46       33.952669   0.000000
   47       34.133194   0.000000
   48       34.133194   0.000000
 
  0.3333333E+00  0.3333333E+00  0.0000000E+00  0.4444444E+00
    1        2.472934   1.000000
    2        2.655862   1.000000
    3        2.889229   1.000000
    4        2.889229   1.000000
    5        2.967992   1.000000
    6        2.967992   1.000000
    7        3.237091   1.000000
    8        3.239757   1.000000
    9        3.612767   1.000000
   10        3.612767   1.000000
   11        3.848237   1.000000
   12        3.859906   1.000000
   13        4.137572   1.000000
   14        4.281628   1.000000
   15        4.599070   1.000000
   16        4.840815   1.000000
   17        4.840815   1.000000
   18        5.000635   1.000000
   19        5.000635   1.000000
   20        5.158221   1.000000
   21        5.476413   1.000000
   22        8.202405   0.875000
   23        8.202405   0.875000
   24       11.533712   0.000000
   25       14.209032   0.000000
   26       15.898392   0.000000
   27       17.949225   0.000000
   28       17.949225   0.000000
   29       17.989423   0.000000
   30       17.989423   0.000000
   31       20.975186   0.000000
   32       21.319527   0.000000
   33       21.319527   0.000000
   34       21.379600   0.000000
   35       22.589577   0.000000
   36       25.090911   0.000000
   37       27.491279   0.000000
   38       28.367922   0.000000
   39       28.783508   0.000000
   40       28.783508   0.000000
   41       29.361844   0.000000
   42       29.361844   0.000000
   43       30.139310   0.000000
   44       32.392641   0.000000
   45       33.636530   0.000000
   46       33.742903   0.000000
   47       33.742903   0.000000
   48       34.804024   0.000000
 
  0.3333333E+00  0.3333333E+00  0.3333333E+00  0.2962963E+00
    1        2.144162   1.000000
    2        2.424774   1.000000
    3        2.424774   1.000000
    4        2.424774   1.000000
    5        3.358304   1.000000
    6        3.358304   1.000000
    7        3.358304   1.000000
    8        3.724390   1.000000
    9        3.724390   1.000000
   10        4.000371   1.000000
   11        4.000371   1.000000
   12        4.000371   1.000000
   13        4.274467   1.000000
   14        4.274467   1.000000
   15        4.274467   1.000000
   16        5.062186   1.000000
   17        5.062186   1.000000
   18        5.083873   1.000000
   19        5.462872   1.000000
   20        5.462872   1.000000
   21        5.462872   1.000000
   22        8.987112  -0.000000
   23        8.987112  -0.000000
   24        8.987112  -0.000000
   25       13.093577   0.000000
   26       13.093577   0.000000
   27       13.093577   0.000000
   28       16.345532   0.000000
   29       21.892198   0.000000
   30       21.892198   0.000000
   31       21.892198   0.000000
   32       23.757081   0.000000
   33       23.757081   0.000000
   34       23.757081   0.000000
   35       24.372565   0.000000
   36       24.785946   0.000000
   37       24.785946   0.000000
   38       24.785946   0.000000
   39       27.291036   0.000000
   40       27.291036   0.000000
   41       31.236992   0.000000
   42       31.236992   0.000000
   43       32.391182   0.000000
   44       33.317462   0.000000
   45       33.317462   0.000000
   46       33.319218   0.000000
   47       33.382121   0.000000
   48       33.382121   0.000000
