       N       E                     dE             d eps       ncg     rms          rms(c)
DAV:   1     0.190434450380E+03    0.19043E+03   -0.18678E+04   384   0.728E+02
DAV:   2    -0.831618521529E+01   -0.19875E+03   -0.18626E+03   504   0.184E+02
DAV:   3    -0.112666808698E+02   -0.29505E+01   -0.29486E+01   456   0.240E+01
DAV:   4    -0.112760621445E+02   -0.93813E-02   -0.93811E-02   528   0.143E+00
DAV:   5    -0.112761502994E+02   -0.88155E-04   -0.88154E-04   432   0.133E-01    0.108E+01
DAV:   6    -0.103417327807E+02    0.93442E+00   -0.23162E+00   528   0.842E+00    0.699E+00
DAV:   7    -0.103078004234E+02    0.33932E-01   -0.33046E-02   432   0.987E-01    0.381E+00
DAV:   8    -0.102968433108E+02    0.10957E-01   -0.23931E-03   528   0.189E-01    0.175E-01
DAV:   9    -0.102968689734E+02   -0.25663E-04   -0.22407E-05   336   0.186E-02
   1 F= -.10296869E+02 E0= -.10293761E+02  d E =-.932459E-02
