----- GAMESS execution script 'rungms' -----
This job is running on host crcfe02.crc.nd.edu
under operating system Linux at Thu Dec 12 13:20:28 EST 2019
Available scratch disk space (Kbyte units) at beginning of the job is
Filesystem      1K-blocks  Used  Available Use% Mounted on
AFS            2147483647     0 2147483647   0% /afs
GAMESS temporary binary files will be written to /afs/crc.nd.edu/user/c/cdrisko
GAMESS supplementary output files will be written to /afs/crc.nd.edu/user/c/cdrisko/scr
Copying input file acetaldehyde.inp to your run's scratch directory...

 Distributed Data Interface kickoff program.
 Initiating 1 compute processes on 1 nodes to run the following command:
 /afs/crc.nd.edu/x86_64_linux/g/gamess/nov-2017/gamess/gamess.00.x acetaldehyde 

          ******************************************************
          *         GAMESS VERSION = 11 NOV 2017 (R3)         *
          *             FROM IOWA STATE UNIVERSITY             *
          * M.W.SCHMIDT, K.K.BALDRIDGE, J.A.BOATZ, S.T.ELBERT, *
          *   M.S.GORDON, J.H.JENSEN, S.KOSEKI, N.MATSUNAGA,   *
          *          K.A.NGUYEN, S.J.SU, T.L.WINDUS,           *
          *       TOGETHER WITH M.DUPUIS, J.A.MONTGOMERY       *
          *         J.COMPUT.CHEM.  14, 1347-1363(1993)        *
          **************** 64 BIT INTEL VERSION ****************

  SINCE 1993, STUDENTS AND POSTDOCS WORKING AT IOWA STATE UNIVERSITY
  AND ALSO IN THEIR VARIOUS JOBS AFTER LEAVING ISU HAVE MADE IMPORTANT
  CONTRIBUTIONS TO THE CODE:
     IVANA ADAMOVIC, CHRISTINE AIKENS, YURI ALEXEEV, POOJA ARORA,
     ANDREY ASADCHEV, ROB BELL, PRADIPTA BANDYOPADHYAY, JONATHAN BENTZ,
     BRETT BODE, KURT BRORSEN, CALEB CARLIN, GALINA CHABAN, WEI CHEN,
     CHEOL HO CHOI, PAUL DAY, ALBERT DEFUSCO, NUWAN DESILVA, TIM DUDLEY,
     DMITRI FEDOROV, ALEX FINDLATER, GRAHAM FLETCHER, MARK FREITAG,
     KURT GLAESEMANN, ANASTASIA GUININA,
     DAN KEMP, GRANT MERRILL, NORIYUKI MINEZAWA, JONATHAN MULLIN,
     TAKESHI NAGATA, SEAN NEDD, HEATHER NETZLOFF, BOSILJKA NJEGIC, RYAN OLSON,
     MIKE PAK, BUU PHAM,
     SPENCER PRUITT, LUKE ROSKOP, JIM SHOEMAKER, LYUDMILA SLIPCHENKO,
     TONY SMITH, SAROM SOK LEANG, JIE SONG, TETSUYA TAKETSUGU, SIMON WEBB,
     PENG XU, SOOHAENG YOO, FEDERICO ZAHARIEV

  ADDITIONAL CODE HAS BEEN PROVIDED BY COLLABORATORS IN OTHER GROUPS:
     IOWA STATE UNIVERSITY:
          JOE IVANIC, AARON WEST, LAIMUTIS BYTAUTAS, KLAUS RUEDENBERG
     UNIVERSITY OF TOKYO: KIMIHIKO HIRAO, TAKAHITO NAKAJIMA,
          TAKAO TSUNEDA, MUNEAKI KAMIYA, SUSUMU YANAGISAWA,
          KIYOSHI YAGI, MAHITO CHIBA, SEIKEN TOKURA, NAOAKI KAWAKAMI
     UNIVERSITY OF AARHUS: FRANK JENSEN
     UNIVERSITY OF IOWA: VISVALDAS KAIRYS, HUI LI
     NATIONAL INST. OF STANDARDS AND TECHNOLOGY: WALT STEVENS, DAVID GARMER
     UNIVERSITY OF PISA: BENEDETTA MENNUCCI, JACOPO TOMASI
     UNIVERSITY OF MEMPHIS: HENRY KURTZ, PRAKASHAN KORAMBATH
     UNIVERSITY OF ALBERTA: TOBY ZENG, MARIUSZ KLOBUKOWSKI
     UNIVERSITY OF NEW ENGLAND: MARK SPACKMAN
     MIE UNIVERSITY: HIROAKI UMEDA
     NAT. INST. OF ADVANCED INDUSTRIAL SCIENCE AND TECHNOLOGY: KAZUO KITAURA
     MICHIGAN STATE UNIVERSITY:
          KAROL KOWALSKI, MARTA WLOCH, JEFFREY GOUR, JESSE LUTZ,
          WEI LI, PIOTR PIECUCH
     UNIVERSITY OF SILESIA: MONIKA MUSIAL, STANISLAW KUCHARSKI
     FACULTES UNIVERSITAIRES NOTRE-DAME DE LA PAIX:
          OLIVIER QUINET, BENOIT CHAMPAGNE
     UNIVERSITY OF CALIFORNIA - SANTA BARBARA: BERNARD KIRTMAN
     INSTITUTE FOR MOLECULAR SCIENCE:
          KAZUYA ISHIMURA, MICHIO KATOUDA, AND SHIGERU NAGASE
     UNIVERSITY OF NOTRE DAME: ANNA POMOGAEVA, DAN CHIPMAN
     KYUSHU UNIVERSITY:
          HARUYUKI NAKANO,
          FENG LONG GU, JACEK KORCHOWIEC, MARCIN MAKOWSKI, AND YURIKO AOKI,
          HIROTOSHI MORI AND EISAKU MIYOSHI
     PENNSYLVANIA STATE UNIVERSITY:
          TZVETELIN IORDANOV, CHET SWALINA, JONATHAN SKONE,
          SHARON HAMMES-SCHIFFER
     WASEDA UNIVERSITY:
          MASATO KOBAYASHI, TOMOKO AKAMA, TSUGUKI TOUMA,
          TAKESHI YOSHIKAWA, YASUHIRO IKABATA, JUNJI SEINO,
          YUYA NAKAJIMA, HIROMI NAKAI
     NANJING UNIVERSITY: SHUHUA LI
     UNIVERSITY OF NEBRASKA:
          PEIFENG SU, DEJUN SI, NANDUN THELLAMUREGE, YALI WANG, HUI LI
     UNIVERSITY OF ZURICH: ROBERTO PEVERATI, KIM BALDRIDGE
     N. COPERNICUS UNIVERSITY AND JACKSON STATE UNIVERSITY:
          MARIA BARYSZ
     UNIVERSITY OF COPENHAGEN: Jimmy Kromann, CASPER STEINMANN
     TOKYO INSTITUTE OF TECHNOLOGY: HIROYA NAKATA
     NAGOYA UNIVERSITY: YOSHIO NISHIMOTO, STEPHAN IRLE
     MOSCOW STATE UNIVERSITY: VLADIMIR MIRONOV

 EXECUTION OF GAMESS BEGUN Thu Dec 12 13:20:28 2019

            ECHO OF THE FIRST FEW INPUT CARDS -
 INPUT CARD> $CONTRL SCFTYP=RHF DFTTYP=B3LYP RUNTYP=ENERGY                                  
 INPUT CARD>       ISPHER=1 MULT=1 COORD=ZMT NZVAR=15 $END                                  
 INPUT CARD> $BASIS GBASIS=N31 NGAUSS=6 NDFUNC=1 $END                                       
 INPUT CARD> $STATPT IFREEZ(1)=9 $END                                                       
 INPUT CARD> $DATA                                                                          
 INPUT CARD>Title Single Point Energy Calculation of Acetaldehyde                           
 INPUT CARD>C1                                                                              
 INPUT CARD>C                                                                               
 INPUT CARD>C      1   1.5086892                                                            
 INPUT CARD>O      2   1.2107245  1  124.7161                                               
 INPUT CARD>H      2   1.1145804  1  114.7739  3  180.0000  0                               
 INPUT CARD>H      1   1.0926781  2  110.5176  3  190.      0                               
 INPUT CARD>H      1   1.0983769  2  109.8265  3  121.4889  0                               
 INPUT CARD>H      1   1.0983769  2  109.8265  3 -121.4889  0                               
 INPUT CARD> $END                                                                           
    1000000 WORDS OF MEMORY AVAILABLE

     BASIS OPTIONS
     -------------
     GBASIS=N31          IGAUSS=       6      POLAR=POPN31  
     NDFUNC=       1     NFFUNC=       0     DIFFSP=       F
     NPFUNC=       0      DIFFS=       F     BASNAM=        


     RUN TITLE
     ---------
 Title Single Point Energy Calculation of Acetaldehyde                           

 THE POINT GROUP OF THE MOLECULE IS C1      
 THE ORDER OF THE PRINCIPAL AXIS IS     0

 YOUR FULLY SUBSTITUTED Z-MATRIX IS
 C   
 C      1   1.5086892
 O      2   1.2107245  1  124.7161
 H      2   1.1145804  1  114.7739  3  180.0000  0
 H      1   1.0926781  2  110.5176  3  190.0000  0
 H      1   1.0983769  2  109.8265  3  121.4889  0
 H      1   1.0983769  2  109.8265  3 -121.4889  0

 THE MOMENTS OF INERTIA ARE (AMU-ANGSTROM**2)
 IXX=     7.459   IYY=    52.935   IZZ=    57.210

 ATOM      ATOMIC                      COORDINATES (BOHR)
           CHARGE         X                   Y                   Z
 C           6.0    -2.3260656164        0.5355822973       -0.0144837562
 C           6.0     0.2306681569       -0.7259002533       -0.0197354964
 O           8.0     2.2312020475        0.3837212200        0.0157972876
 H           1.0     0.1760937278       -2.8310608686       -0.0599349451
 H           1.0    -3.8201045973       -0.8580830176        0.2841806472
 H           1.0    -3.3965079946       -0.0358777416       -1.6984766696
 H           1.0    -3.4207283059       -0.0988276581        1.6309594054

          INTERNUCLEAR DISTANCES (ANGS.)
          ------------------------------

                1 C          2 C          3 O          4 H          5 H     

   1 C       0.0000000    1.5086892 *  2.4129941 *  2.2198436 *  1.0926781 *
   2 C       1.5086892 *  0.0000000    1.2107245 *  1.1145804 *  2.1507392 *
   3 O       2.4129941 *  1.2107245 *  0.0000000    2.0194911 *  3.2720283  
   4 H       2.2198436 *  1.1145804 *  2.0194911 *  0.0000000    2.3654080 *
   5 H       1.0926781 *  2.1507392 *  3.2720283    2.3654080 *  0.0000000  
   6 H       1.0983769 *  2.1463151 *  3.1210656    2.5522231 *  1.1577239 *
   7 H       1.0983769 *  2.1463151 *  3.1210656    2.5522231 *  0.8449924 *

                6 H          7 H     

   1 C       1.0983769 *  1.0983769 *
   2 C       2.1463151 *  2.1463151 *
   3 O       3.1210656    3.1210656  
   4 H       2.5522231 *  2.5522231 *
   5 H       1.1577239 *  0.8449924 *
   6 H       0.0000000    1.7622233 *
   7 H       1.7622233 *  0.0000000  

  * ... LESS THAN  3.000


     ATOMIC BASIS SET
     ----------------
 THE CONTRACTED PRIMITIVE FUNCTIONS HAVE BEEN UNNORMALIZED
 THE CONTRACTED BASIS FUNCTIONS ARE NOW NORMALIZED TO UNITY

  SHELL TYPE  PRIMITIVE        EXPONENT          CONTRACTION COEFFICIENT(S)

 C         

      1   S       1          3047.5248800    0.001834737132
      1   S       2           457.3695180    0.014037322813
      1   S       3           103.9486850    0.068842622264
      1   S       4            29.2101553    0.232184443216
      1   S       5             9.2866630    0.467941348435
      1   S       6             3.1639270    0.362311985337

      2   L       7             7.8682723   -0.119332419775    0.068999066591
      2   L       8             1.8812885   -0.160854151696    0.316423960957
      2   L       9             0.5442493    1.143456437840    0.744308290898

      3   L      10             0.1687145    1.000000000000    1.000000000000

      4   D      11             0.8000000    1.000000000000

 C         

      5   S      12          3047.5248800    0.001834737132
      5   S      13           457.3695180    0.014037322813
      5   S      14           103.9486850    0.068842622264
      5   S      15            29.2101553    0.232184443216
      5   S      16             9.2866630    0.467941348435
      5   S      17             3.1639270    0.362311985337

      6   L      18             7.8682723   -0.119332419775    0.068999066591
      6   L      19             1.8812885   -0.160854151696    0.316423960957
      6   L      20             0.5442493    1.143456437840    0.744308290898

      7   L      21             0.1687145    1.000000000000    1.000000000000

      8   D      22             0.8000000    1.000000000000

 O         

      9   S      23          5484.6716600    0.001831074430
      9   S      24           825.2349460    0.013950172200
      9   S      25           188.0469580    0.068445078098
      9   S      26            52.9645000    0.232714335992
      9   S      27            16.8975704    0.470192897984
      9   S      28             5.7996353    0.358520852987

     10   L      29            15.5396162   -0.110777549525    0.070874268231
     10   L      30             3.5999336   -0.148026262701    0.339752839147
     10   L      31             1.0137618    1.130767015354    0.727158577316

     11   L      32             0.2700058    1.000000000000    1.000000000000

     12   D      33             0.8000000    1.000000000000

 H         

     13   S      34            18.7311370    0.033494604338
     13   S      35             2.8253944    0.234726953484
     13   S      36             0.6401217    0.813757326146

     14   S      37             0.1612778    1.000000000000

 H         

     15   S      38            18.7311370    0.033494604338
     15   S      39             2.8253944    0.234726953484
     15   S      40             0.6401217    0.813757326146

     16   S      41             0.1612778    1.000000000000

 H         

     17   S      42            18.7311370    0.033494604338
     17   S      43             2.8253944    0.234726953484
     17   S      44             0.6401217    0.813757326146

     18   S      45             0.1612778    1.000000000000

 H         

     19   S      46            18.7311370    0.033494604338
     19   S      47             2.8253944    0.234726953484
     19   S      48             0.6401217    0.813757326146

     20   S      49             0.1612778    1.000000000000

 TOTAL NUMBER OF BASIS SET SHELLS             =   20
 NUMBER OF CARTESIAN GAUSSIAN BASIS FUNCTIONS =   53
 NOTE: THIS RUN WILL RESTRICT THE MO VARIATION SPACE TO SPHERICAL HARMONICS.
 THE NUMBER OF ORBITALS KEPT IN THE VARIATIONAL SPACE WILL BE PRINTED LATER.
 NUMBER OF ELECTRONS                          =   24
 CHARGE OF MOLECULE                           =    0
 SPIN MULTIPLICITY                            =    1
 NUMBER OF OCCUPIED ORBITALS (ALPHA)          =   12
 NUMBER OF OCCUPIED ORBITALS (BETA )          =   12
 TOTAL NUMBER OF ATOMS                        =    7
 THE NUCLEAR REPULSION ENERGY IS       69.6591683030

     LEBEDEV GRID-BASED DFT OPTIONS
     ------------------------------
     DFTTYP=B3LYP   
     NRAD  =      96     NLEB  =     302
     NRAD0 =      24     NLEB0 =     110
     SWOFF =    5.00E-03 (PURE SCF -> DFT)
     SWITCH=    3.00E-04 (COARSE -> TIGHT GRID)
     THRESH=    0.00E+00 GTHRE=    1.00E+00

 GRIMME'S EMPIRICAL DISPERSION CORRECTION= F

     $CONTRL OPTIONS
     ---------------
 SCFTYP=RHF          RUNTYP=ENERGY       EXETYP=RUN     
 MPLEVL=       0     CITYP =NONE         CCTYP =NONE         VBTYP =NONE    
 DFTTYP=B3LYP        TDDFT =NONE    
 MULT  =       1     ICHARG=       0     NZVAR =      15     COORD =ZMT     
 PP    =NONE         RELWFN=NONE         LOCAL =NONE         NUMGRD=       F
 ISPHER=       1     NOSYM =       0     MAXIT =      30     UNITS =ANGS    
 PLTORB=       F     MOLPLT=       F     AIMPAC=       F     FRIEND=        
 NPRINT=       7     IREST =       0     GEOM  =INPUT   
 NORMF =       0     NORMP =       0     ITOL  =      20     ICUT  =       9
 INTTYP=BEST         GRDTYP=BEST         QMTTOL= 1.0E-06

     $SYSTEM OPTIONS
     ---------------
  REPLICATED MEMORY=     1000000 WORDS (ON EVERY NODE).
 DISTRIBUTED MEMDDI=           0 MILLION WORDS IN AGGREGATE,
 MEMDDI DISTRIBUTED OVER   1 PROCESSORS IS           0 WORDS/PROCESSOR.
 TOTAL MEMORY REQUESTED ON EACH PROCESSOR=     1000000 WORDS.
 TIMLIM=      525600.00 MINUTES, OR     365.0 DAYS.
 PARALL= F  BALTYP=  DLB     KDIAG=    0  COREFL= F
 MXSEQ2=     300 MXSEQ3=     150  mem10=         0

          ----------------
          PROPERTIES INPUT
          ----------------

     MOMENTS            FIELD           POTENTIAL          DENSITY
 IEMOM =       1   IEFLD =       0   IEPOT =       0   IEDEN =       0
 WHERE =COMASS     WHERE =NUCLEI     WHERE =NUCLEI     WHERE =NUCLEI  
 OUTPUT=BOTH       OUTPUT=BOTH       OUTPUT=BOTH       OUTPUT=BOTH    
 IEMINT=       0   IEFINT=       0                     IEDINT=       0
                                                       MORB  =       0
          EXTRAPOLATION IN EFFECT
          DIIS IN EFFECT
 ORBITAL PRINTING OPTION: NPREO=     1    53     2     1

     -------------------------------
     INTEGRAL TRANSFORMATION OPTIONS
     -------------------------------
     NWORD  =            0
     CUTOFF = 1.0E-09     MPTRAN =       0
     DIRTRF =       F     AOINTS =DUP     

          ----------------------
          INTEGRAL INPUT OPTIONS
          ----------------------
 NOPK  =       1 NORDER=       0 SCHWRZ=       T

   --- ENCODED Z MATRIX ---
 COORD  TYPE   I   J   K   L   M   N
    1      1    2   1
    2      1    3   2
    3      2    3   2   1
    4      1    4   2
    5      2    4   2   1
    6      3    4   2   1   3
    7      1    5   1
    8      2    5   1   2
    9      3    5   1   2   3
   10      1    6   1
   11      2    6   1   2
   12      3    6   1   2   3
   13      1    7   1
   14      2    7   1   2
   15      3    7   1   2   3

 THE DETERMINANT OF THE G MATRIX IS 10**(    -8)


                     --------------------
                     INTERNAL COORDINATES
                     --------------------

                 - - ATOMS - -         COORDINATE      COORDINATE
 NO.   TYPE    I  J  K  L  M  N        (BOHR,RAD)       (ANG,DEG)
 ----------------------------------------------------------------
   1 STRETCH   2  1                     2.8510092       1.5086892
   2 STRETCH   3  2                     2.2879376       1.2107245
   3 BEND      3  2  1                  2.1767066     124.7161000
   4 STRETCH   4  2                     2.1062515       1.1145804
   5 BEND      4  2  1                  2.0031825     114.7739000
   6 TORSION   4  2  1  3               3.1415927     180.0000000
   7 STRETCH   5  1                     2.0648622       1.0926781
   8 BEND      5  1  2                  1.9288960     110.5176000
   9 TORSION   5  1  2  3              -2.9670597    -170.0000000
  10 STRETCH   6  1                     2.0756314       1.0983769
  11 BEND      6  1  2                  1.9168340     109.8265000
  12 TORSION   6  1  2  3               2.1203813     121.4889000
  13 STRETCH   7  1                     2.0756314       1.0983769
  14 BEND      7  1  2                  1.9168340     109.8265000
  15 TORSION   7  1  2  3              -2.1203813    -121.4889000

     ------------------------------------------
     THE POINT GROUP IS C1 , NAXIS= 0, ORDER= 1
     ------------------------------------------

 -- VARIATIONAL SPACE WILL BE RESTRICTED TO PURE SPHERICAL HARMONICS ONLY --
 AFTER EXCLUDING CONTAMINANT COMBINATIONS FROM THE CARTESIAN GAUSSIAN BASIS
 SET, THE NUMBER OF SPHERICAL HARMONICS KEPT IN THE VARIATION SPACE IS   50

     DIMENSIONS OF THE SYMMETRY SUBSPACES ARE
 A   =   50

 ..... DONE SETTING UP THE RUN .....
 STEP CPU TIME =     0.01 TOTAL CPU TIME =          0.0 (      0.0 MIN)
 TOTAL WALL CLOCK TIME=          0.0 SECONDS, CPU UTILIZATION IS    50.00%

          ********************
          1 ELECTRON INTEGRALS
          ********************
 ...... END OF ONE-ELECTRON INTEGRALS ......
 STEP CPU TIME =     0.01 TOTAL CPU TIME =          0.0 (      0.0 MIN)
 TOTAL WALL CLOCK TIME=          0.0 SECONDS, CPU UTILIZATION IS   100.00%

          -------------
          GUESS OPTIONS
          -------------
          GUESS =HUCKEL            NORB  =       0          NORDER=       0
          MIX   =       F          PRTMO =       F          PUNMO =       F
          TOLZ  = 1.0E-08          TOLE  = 1.0E-05
          SYMDEN=       F          PURIFY=       F

 INITIAL GUESS ORBITALS GENERATED BY HUCKEL   ROUTINE.
 HUCKEL GUESS REQUIRES     27154 WORDS.

 STATISTICS FOR GENERATION OF SYMMETRY ORBITAL -Q- MATRIX
 NUMBER OF CARTESIAN ATOMIC ORBITALS=         53
 NUMBER OF SPHERICAL CONTAMINANTS DROPPED=     3
 NUMBER OF LINEARLY DEPENDENT MOS DROPPED=     0
 TOTAL NUMBER OF MOS IN VARIATION SPACE=      50

 SYMMETRIES FOR INITIAL GUESS ORBITALS FOLLOW.   BOTH SET(S).
    12 ORBITALS ARE OCCUPIED (    3 CORE ORBITALS).
     4=A        5=A        6=A        7=A        8=A        9=A       10=A   
    11=A       12=A       13=A       14=A       15=A       16=A       17=A   
    18=A       19=A       20=A       21=A       22=A   
 ...... END OF INITIAL ORBITAL SELECTION ......
 STEP CPU TIME =     0.00 TOTAL CPU TIME =          0.0 (      0.0 MIN)
 TOTAL WALL CLOCK TIME=          0.0 SECONDS, CPU UTILIZATION IS    66.67%

                    ----------------------
                    AO INTEGRAL TECHNOLOGY
                    ----------------------
     S,P,L SHELL ROTATED AXIS INTEGRALS, REPROGRAMMED BY
        KAZUYA ISHIMURA (IMS) AND JOSE SIERRA (SYNSTAR).
     S,P,D,L SHELL ROTATED AXIS INTEGRALS PROGRAMMED BY
        KAZUYA ISHIMURA (INSTITUTE FOR MOLECULAR SCIENCE).
     S,P,D,F,G SHELL TO TOTAL QUARTET ANGULAR MOMENTUM SUM 5,
        ERIC PROGRAM BY GRAHAM FLETCHER (ELORET AND NASA ADVANCED
        SUPERCOMPUTING DIVISION, AMES RESEARCH CENTER).
     S,P,D,F,G,L SHELL GENERAL RYS QUADRATURE PROGRAMMED BY
        MICHEL DUPUIS (PACIFIC NORTHWEST NATIONAL LABORATORY).

          --------------------
          2 ELECTRON INTEGRALS
          --------------------

 THE -PK- OPTION IS OFF, THE INTEGRALS ARE NOT IN SUPERMATRIX FORM.
 STORING   15000 INTEGRALS/RECORD ON DISK, USING 12 BYTES/INTEGRAL.
 TWO ELECTRON INTEGRAL EVALUATION REQUIRES   90606 WORDS OF MEMORY.
 SCHWARZ INEQUALITY OVERHEAD:      1430 INTEGRALS, T=        0.01
 II,JST,KST,LST =  1  1  1  1 NREC =         1 INTLOC =    1
 II,JST,KST,LST =  2  1  1  1 NREC =         1 INTLOC =    2
 II,JST,KST,LST =  3  1  1  1 NREC =         1 INTLOC =   34
 II,JST,KST,LST =  4  1  1  1 NREC =         1 INTLOC =  214
 II,JST,KST,LST =  5  1  1  1 NREC =         1 INTLOC = 1189
 II,JST,KST,LST =  6  1  1  1 NREC =         1 INTLOC = 3195
 II,JST,KST,LST =  7  1  1  1 NREC =         2 INTLOC =  920
 II,JST,KST,LST =  8  1  1  1 NREC =         3 INTLOC = 8146
 II,JST,KST,LST =  9  1  1  1 NREC =         7 INTLOC = 6019
 II,JST,KST,LST = 10  1  1  1 NREC =         8 INTLOC = 3085
 II,JST,KST,LST = 11  1  1  1 NREC =        13 INTLOC =  143
 II,JST,KST,LST = 12  1  1  1 NREC =        19 INTLOC =13783
 II,JST,KST,LST = 13  1  1  1 NREC =        34 INTLOC = 8586
 II,JST,KST,LST = 14  1  1  1 NREC =        37 INTLOC =11377
 II,JST,KST,LST = 15  1  1  1 NREC =        41 INTLOC = 2877
 II,JST,KST,LST = 16  1  1  1 NREC =        44 INTLOC = 8432
 II,JST,KST,LST = 17  1  1  1 NREC =        48 INTLOC = 6557
 II,JST,KST,LST = 18  1  1  1 NREC =        52 INTLOC = 5579
 II,JST,KST,LST = 19  1  1  1 NREC =        56 INTLOC =11178
 II,JST,KST,LST = 20  1  1  1 NREC =        61 INTLOC = 2625
 SCHWARZ INEQUALITY TEST SKIPPED         976 INTEGRAL BLOCKS.
 TOTAL NUMBER OF NONZERO TWO-ELECTRON INTEGRALS =              976273
         66 INTEGRAL RECORDS WERE STORED ON DISK FILE  8.
  ...... END OF TWO-ELECTRON INTEGRALS .....
 STEP CPU TIME =     0.10 TOTAL CPU TIME =          0.1 (      0.0 MIN)
 TOTAL WALL CLOCK TIME=          0.1 SECONDS, CPU UTILIZATION IS    92.31%

          --------------------------
             R-B3LYP SCF CALCULATION
          --------------------------

     NUCLEAR ENERGY =        69.6591683030
     MAXIT =   30     NPUNCH=    2
     EXTRAP=T  DAMP=F  SHIFT=F  RSTRCT=F  DIIS=T  DEM=F  SOSCF=F
         DENSITY MATRIX CONVERGENCE THRESHOLD=  1.00E-05
     COARSE -> FINE DFT GRID SWITCH THRESHOLD=  3.00E-04 (SWITCH IN $DFT)
                   HF -> DFT SWITCH THRESHOLD=  5.00E-03 (SWOFF IN $DFT)
     MEMORY REQUIRED FOR RHF ITERS=    307426 WORDS.

 DFT CODE IS SWITCHING FROM THE FINE GRID NRAD= 96,  NLEB=  302
                      TO THE COARSE GRID NRAD0= 24, NLEB0=  110

     EXCHANGE FUNCTIONAL   =B88&HFX   
     CORRELATION FUNCTIONAL=LYP88&VWN5
     DFT THRESHOLD         =.197E-07
     GRID CHANGE THRESHOLD =.300E-03
 FOR AN EULER-MACLAURIN QUADRATURE USING  96 RADIAL POINTS:
 SMALLEST GAUSSIAN PRIMITIVE EXPONENT=        0.1612777588 OF TYPE -S-
 ON ATOM NUMBER   4 HAS RADIAL NORMALIZATION=  1.000000
  LARGEST GAUSSIAN PRIMITIVE EXPONENT=     5484.6716600000 OF TYPE -S-
 ON ATOM NUMBER   3 HAS RADIAL NORMALIZATION=  1.000000
 DFT IS SWITCHED OFF, PERFORMING PURE SCF UNTIL SWOFF THRESHOLD IS REACHED.

 ITER EX DEM     TOTAL ENERGY        E CHANGE  DENSITY CHANGE    DIIS ERROR
   1  0  0     -152.1431220517  -152.1431220517   0.284258067   0.543124124
          * * *   INITIATING DIIS PROCEDURE   * * *
   2  1  0     -152.6527915945    -0.5096695428   0.145876566   0.114775121
   3  2  0     -152.6863719679    -0.0335803734   0.075756048   0.101838003
   4  3  0     -152.7107852269    -0.0244132590   0.031117079   0.009733699
   5  4  0     -152.7117475979    -0.0009623710   0.008351948   0.003008791
   6  5  0     -152.7118535299    -0.0001059320   0.006516790   0.001341520
   7  6  0     -152.7118725863    -0.0000190564   0.002489194   0.000427865
 CONVERGED TO SWOFF, SO DFT CALCULATION IS NOW SWITCHED ON.
          * * *   INITIATING DIIS PROCEDURE   * * *
   8  7  0     -153.5392615182    -0.8273889319   0.102631097   0.053106253
   9  8  0     -153.5502486722    -0.0109871540   0.062492849   0.028311157
  10  9  0     -153.5472094182     0.0030392540   0.045216968   0.039399762
  11 10  0     -153.5535151750    -0.0063057568   0.008418225   0.007466876
  12 11  0     -153.5536581357    -0.0001429607   0.003895174   0.001120362
  13 12  0     -153.5536641667    -0.0000060310   0.000557664   0.000222787
  14 13  0     -153.5536643017    -0.0000001351   0.000088724   0.000075654
 DFT CODE IS SWITCHING BACK TO THE FINE GRID
          * * *   INITIATING DIIS PROCEDURE   * * *
  15 14  0     -153.5531829908     0.0004813109   0.002498807   0.001764606
  16 15  0     -153.5531919223    -0.0000089314   0.000716385   0.000257570
  17 16  0     -153.5531915730     0.0000003493   0.000486926   0.000413909
  18 17  0     -153.5531922877    -0.0000007147   0.000110308   0.000096077
  19 18  0     -153.5531923119    -0.0000000242   0.000071764   0.000025160
  20 19  0     -153.5531923150    -0.0000000030   0.000019733   0.000006635
  21 20  0     -153.5531923151    -0.0000000002   0.000003005   0.000001134
  22 21  0     -153.5531923152    -0.0000000000   0.000000204   0.000000170

          -----------------
          DENSITY CONVERGED
          -----------------
     TIME TO FORM FOCK OPERATORS=       5.6 SECONDS (       0.3 SEC/ITER)
     TIME TO SOLVE SCF EQUATIONS=       0.0 SECONDS (       0.0 SEC/ITER)

 FINAL R-B3LYP ENERGY IS     -153.5531923152 AFTER  22 ITERATIONS
 DFT EXCHANGE + CORRELATION ENERGY =       -16.8204680883
 TOTAL ELECTRON NUMBER             =        24.0000932736

          ------------
          EIGENVECTORS
          ------------

                      1          2          3          4          5
                  -19.1518   -10.2809   -10.1900    -1.0477    -0.8521
                     A          A          A          A          A   
    1  C  1  S   -0.000038   0.000756   0.995240  -0.018876  -0.160497
    2  C  1  S   -0.000694  -0.001403   0.036976   0.037180   0.308253
    3  C  1  X   -0.000284  -0.000927  -0.000870   0.021155  -0.095258
    4  C  1  Y    0.000054   0.000359  -0.003146  -0.012779  -0.144912
    5  C  1  Z    0.000005   0.000017   0.000130   0.001100   0.029617
    6  C  1  S    0.001548   0.007072  -0.031613   0.015197   0.243117
    7  C  1  X   -0.001244   0.002238   0.001341   0.004079  -0.021103
    8  C  1  Y   -0.001701  -0.002663   0.007830   0.003913  -0.044723
    9  C  1  Z   -0.000054  -0.000105   0.000311   0.000216   0.002435
   10  C  1 XX   -0.000368  -0.000861   0.000214   0.004809   0.005066
   11  C  1 YY    0.000395   0.000236  -0.000149  -0.002401  -0.001352
   12  C  1 ZZ   -0.000028   0.000625  -0.000065  -0.002407  -0.003713
   13  C  1 XY   -0.000044   0.000926   0.000056  -0.002063   0.020373
   14  C  1 XZ   -0.000015  -0.000006  -0.000060  -0.000152  -0.005106
   15  C  1 YZ   -0.000007  -0.000023  -0.000036  -0.000323  -0.006015
   16  C  2  S    0.000239   0.995158  -0.000771  -0.117615  -0.041093
   17  C  2  S    0.000113   0.035799  -0.001507   0.225002   0.079451
   18  C  2  X   -0.000067   0.001742   0.000518   0.159700  -0.118898
   19  C  2  Y   -0.000239   0.001226  -0.000328   0.092272  -0.006123
   20  C  2  Z   -0.000004   0.000025  -0.000005   0.002707   0.001887
   21  C  2  S    0.008556  -0.016431   0.007488   0.084309   0.048294
   22  C  2  X    0.005810   0.006436  -0.005659  -0.016928  -0.020415
   23  C  2  Y    0.004890   0.002523  -0.000346  -0.019652  -0.009371
   24  C  2  Z    0.000132   0.000108  -0.000085  -0.000317   0.001814
   25  C  2 XX   -0.000610   0.001436  -0.000855   0.018539   0.005091
   26  C  2 YY    0.000320  -0.000252   0.000346  -0.003178  -0.001174
   27  C  2 ZZ    0.000290  -0.001184   0.000509  -0.015361  -0.003917
   28  C  2 XY   -0.000744   0.001196   0.000869   0.021517  -0.009312
   29  C  2 XZ   -0.000021   0.000039   0.000020   0.000600  -0.000832
   30  C  2 YZ   -0.000004   0.000026   0.000001   0.000276   0.000068
   31  O  3  S    0.995118  -0.000045  -0.000030  -0.194483   0.033972
   32  O  3  S    0.029457   0.000493  -0.000654   0.429783  -0.078478
   33  O  3  X   -0.002023   0.000997   0.000103  -0.143542   0.005330
   34  O  3  Y   -0.001116   0.000477  -0.000012  -0.079739   0.012715
   35  O  3  Z   -0.000045   0.000017  -0.000004  -0.002694   0.001009
   36  O  3  S   -0.019561  -0.006159   0.002413   0.377062  -0.065976
   37  O  3  X    0.005218   0.003828  -0.000380  -0.043086  -0.003915
   38  O  3  Y    0.002580   0.002608  -0.000659  -0.023249   0.001968
   39  O  3  Z    0.000092   0.000077  -0.000003  -0.000955  -0.000384
   40  O  3 XX   -0.000187  -0.001227  -0.000050   0.006899   0.001355
   41  O  3 YY    0.000105   0.000112   0.000229  -0.003948  -0.000921
   42  O  3 ZZ    0.000082   0.001116  -0.000179  -0.002951  -0.000434
   43  O  3 XY   -0.000104  -0.001442   0.000115   0.009695  -0.000800
   44  O  3 XZ   -0.000005  -0.000049   0.000004   0.000426  -0.000081
   45  O  3 YZ   -0.000000  -0.000033   0.000010  -0.000005  -0.000049
   46  H  4  S   -0.000196  -0.000915  -0.000661   0.027977   0.025863
   47  H  4  S    0.001204   0.005146  -0.000415  -0.012651   0.000050
   48  H  5  S   -0.000437  -0.000533  -0.000087   0.011061   0.231132
   49  H  5  S    0.000154  -0.000666   0.004354   0.000658   0.070989
   50  H  6  S   -0.000130  -0.000639  -0.000311   0.007610   0.127434
   51  H  6  S   -0.000745   0.000536   0.005972  -0.000184   0.008041
   52  H  7  S   -0.000073  -0.000561  -0.000427   0.009602   0.191418
   53  H  7  S   -0.000728   0.000818   0.004780   0.000243   0.022869

                      6          7          8          9         10
                   -0.6173    -0.5051    -0.4739    -0.4360    -0.3755
                     A          A          A          A          A   
    1  C  1  S   -0.008449  -0.068467   0.003883  -0.011237  -0.011026
    2  C  1  S    0.009046   0.135491  -0.000918   0.010892   0.019555
    3  C  1  X    0.240778   0.192864   0.119260   0.118502  -0.030516
    4  C  1  Y   -0.017371   0.027816   0.013005  -0.051668   0.013391
    5  C  1  Z   -0.046719  -0.139131   0.363335   0.051594  -0.132989
    6  C  1  S    0.029519   0.188333  -0.032567   0.071056   0.045696
    7  C  1  X    0.060799   0.047913   0.049039   0.057540  -0.022362
    8  C  1  Y   -0.010386   0.002409   0.018428  -0.042696   0.000166
    9  C  1  Z   -0.007132  -0.033907   0.101067   0.017432  -0.033128
   10  C  1 XX   -0.000735   0.004844   0.001615  -0.006783   0.000332
   11  C  1 YY    0.004291  -0.007784  -0.000993   0.008744  -0.002028
   12  C  1 ZZ   -0.003557   0.002940  -0.000622  -0.001961   0.001696
   13  C  1 XY   -0.027221  -0.011587  -0.008897  -0.012168   0.002155
   14  C  1 XZ    0.005064   0.009738  -0.020485  -0.001787   0.019559
   15  C  1 YZ    0.004888   0.012090  -0.030416  -0.004383   0.009366
   16  C  2  S   -0.151746   0.015056  -0.017464   0.027239   0.003771
   17  C  2  S    0.316236  -0.028783   0.039525  -0.074930  -0.007662
   18  C  2  X   -0.161824  -0.179166  -0.042259  -0.320273   0.024349
   19  C  2  Y   -0.108987   0.353021   0.151988  -0.163783  -0.012776
   20  C  2  Z   -0.011329  -0.042265   0.158757   0.033271   0.322622
   21  C  2  S    0.277047  -0.038324   0.031829  -0.019333  -0.009074
   22  C  2  X   -0.077101  -0.046986  -0.035579  -0.053447   0.013119
   23  C  2  Y   -0.068087   0.116559   0.033348  -0.036934  -0.001582
   24  C  2  Z   -0.004892  -0.024590   0.087744   0.021651   0.188052
   25  C  2 XX   -0.009387   0.003298  -0.000580  -0.008863   0.001466
   26  C  2 YY    0.014065  -0.006079  -0.000416   0.006649  -0.001846
   27  C  2 ZZ   -0.004678   0.002781   0.000995   0.002213   0.000380
   28  C  2 XY   -0.010266  -0.003737   0.000199  -0.011750  -0.000681
   29  C  2 XZ    0.000571   0.002367  -0.004742  -0.000202   0.027733
   30  C  2 YZ   -0.000296  -0.002241   0.006212   0.001471   0.011652
   31  O  3  S    0.082023  -0.005759   0.018954  -0.081621   0.001423
   32  O  3  S   -0.196218   0.012909  -0.044838   0.177921  -0.001623
   33  O  3  X   -0.087973  -0.093702  -0.125893   0.441320  -0.006019
   34  O  3  Y   -0.053302   0.207502   0.049729   0.252618  -0.040946
   35  O  3  Z   -0.005012  -0.027759   0.118217   0.043760   0.495040
   36  O  3  S   -0.205577   0.019094  -0.060017   0.349589  -0.014526
   37  O  3  X   -0.058558  -0.050690  -0.069877   0.225747  -0.000076
   38  O  3  Y   -0.030163   0.108186   0.026916   0.130604  -0.023652
   39  O  3  Z   -0.002480  -0.012809   0.059694   0.023674   0.310950
   40  O  3 XX    0.005585   0.013444   0.009083  -0.013869  -0.000531
   41  O  3 YY    0.000248  -0.013747  -0.006273   0.001911   0.001718
   42  O  3 ZZ   -0.005833   0.000303  -0.002810   0.011958  -0.001187
   43  O  3 XY    0.006780  -0.010541  -0.000900  -0.015746   0.001716
   44  O  3 XZ    0.000504   0.002250  -0.008133  -0.002821  -0.027296
   45  O  3 YZ    0.000355   0.000685  -0.004248  -0.001610  -0.015733
   46  H  4  S    0.168565  -0.189647  -0.063833   0.068700  -0.002025
   47  H  4  S    0.063736  -0.133971  -0.059659   0.072643   0.000487
   48  H  5  S   -0.141982  -0.099260  -0.001591  -0.044810  -0.021838
   49  H  5  S   -0.089593  -0.104485  -0.034972  -0.038623  -0.016018
   50  H  6  S   -0.041454   0.071856  -0.252329  -0.060568   0.121250
   51  H  6  S   -0.007836   0.069367  -0.212909  -0.052969   0.134867
   52  H  7  S   -0.122683  -0.119328   0.192349  -0.008036  -0.101853
   53  H  7  S   -0.048007  -0.077154   0.199419   0.004476  -0.118010

                     11         12         13         14         15
                   -0.2746    -0.2365    -0.0303     0.0532     0.0963
                     A          A          A          A          A   
    1  C  1  S   -0.095491  -0.044380  -0.004020  -0.107231  -0.068281
    2  C  1  S    0.190168   0.104881   0.000870   0.092233   0.097545
    3  C  1  X    0.109457  -0.150209  -0.027438  -0.285706   0.036070
    4  C  1  Y    0.215214   0.409185  -0.034714  -0.223382   0.124796
    5  C  1  Z    0.050376   0.034302   0.022418   0.081630  -0.046868
    6  C  1  S    0.452383   0.023728   0.067689   1.982599   0.897077
    7  C  1  X   -0.008122  -0.179794  -0.027981  -0.614829  -0.081243
    8  C  1  Y    0.086874   0.350032  -0.054622  -0.683485   0.123723
    9  C  1  Z    0.022709   0.019235   0.108247   0.145865  -0.084084
   10  C  1 XX    0.001584   0.007199  -0.001735   0.001276   0.023463
   11  C  1 YY   -0.019622  -0.029279   0.001574   0.002549   0.010095
   12  C  1 ZZ    0.018038   0.022081   0.000161  -0.003824  -0.033558
   13  C  1 XY   -0.012593  -0.000362   0.001674   0.023402   0.020210
   14  C  1 XZ   -0.002152  -0.001561   0.031567  -0.007247   0.000058
   15  C  1 YZ   -0.002698   0.000031  -0.008507  -0.005705  -0.000949
   16  C  2  S    0.011476   0.009584   0.001627  -0.002151   0.039113
   17  C  2  S   -0.024215  -0.042934  -0.004089   0.036745  -0.018176
   18  C  2  X    0.006709   0.100087   0.002344   0.037331   0.003386
   19  C  2  Y    0.022529  -0.144707  -0.014184  -0.126726   0.117098
   20  C  2  Z    0.000283   0.001430   0.499677  -0.043925   0.034554
   21  C  2  S    0.031131   0.135783  -0.024076  -0.123512  -0.641449
   22  C  2  X    0.107509   0.002230  -0.006257   0.195721   0.093462
   23  C  2  Y    0.017693   0.087839  -0.024890  -0.166282   0.322958
   24  C  2  Z    0.002009   0.004068   0.538651  -0.076946   0.055992
   25  C  2 XX    0.024215  -0.030084   0.001494   0.005819   0.000575
   26  C  2 YY   -0.023542   0.033771  -0.000784  -0.001315   0.012844
   27  C  2 ZZ   -0.000673  -0.003687  -0.000710  -0.004504  -0.013420
   28  C  2 XY   -0.027597   0.003892   0.002537   0.008872  -0.009794
   29  C  2 XZ   -0.003245  -0.001870  -0.027390  -0.000425   0.000957
   30  C  2 YZ   -0.000638   0.000959  -0.015449   0.003965  -0.002800
   31  O  3  S    0.003871   0.005898  -0.001635  -0.009380   0.000386
   32  O  3  S   -0.001237  -0.007605   0.003690   0.030984  -0.005143
   33  O  3  X    0.272054  -0.104831  -0.009553  -0.080342   0.016715
   34  O  3  Y   -0.434161   0.294340   0.013057   0.069928  -0.056492
   35  O  3  Z   -0.034273  -0.010717  -0.433517   0.026263  -0.016570
   36  O  3  S   -0.085480  -0.088089   0.016962   0.024722  -0.004795
   37  O  3  X    0.209613  -0.048029  -0.011508  -0.103481   0.012232
   38  O  3  Y   -0.288975   0.219098   0.011896   0.092254  -0.082191
   39  O  3  Z   -0.024471  -0.008164  -0.446670   0.037166  -0.025260
   40  O  3 XX   -0.015992   0.002147   0.000410   0.002766   0.002429
   41  O  3 YY    0.015930  -0.002857  -0.000416  -0.001952   0.002801
   42  O  3 ZZ    0.000062   0.000710   0.000007  -0.000814  -0.005230
   43  O  3 XY    0.007612  -0.006851   0.000402   0.002983  -0.002597
   44  O  3 XZ    0.000993   0.000380  -0.000260  -0.000162  -0.000095
   45  O  3 YZ    0.001209   0.000205   0.000361   0.000756  -0.000730
   46  H  4  S   -0.088984   0.169774  -0.003679   0.019400   0.066336
   47  H  4  S   -0.127324   0.296910  -0.013159  -0.267326   0.718070
   48  H  5  S   -0.143310  -0.116460  -0.029959  -0.031443   0.213695
   49  H  5  S   -0.361082  -0.266411  -0.056085  -1.257018   1.477614
   50  H  6  S   -0.013682   0.030981   0.107721  -0.004417  -0.160675
   51  H  6  S    0.010709   0.122603   0.250562  -0.668355  -1.198380
   52  H  7  S    0.019755   0.051251  -0.100294   0.003745  -0.164874
   53  H  7  S    0.120908   0.200506  -0.262442  -0.759402  -1.421745

                     16         17         18         19         20
                    0.1371     0.1486     0.2616     0.2780     0.5161
                     A          A          A          A          A   
    1  C  1  S    0.024962  -0.032433  -0.028248   0.075910   0.019658
    2  C  1  S   -0.009046   0.008685  -0.046960  -0.092261  -0.051326
    3  C  1  X   -0.094174   0.032559   0.101810  -0.233517  -0.054297
    4  C  1  Y    0.111469  -0.105826  -0.067837  -0.052605  -0.004918
    5  C  1  Z   -0.273111  -0.380529   0.009361  -0.009219   0.226085
    6  C  1  S   -0.422140   0.669920   1.334209  -0.807418  -0.220222
    7  C  1  X   -0.355837   0.195949   0.949667  -1.566523   0.140106
    8  C  1  Y    0.439607  -0.454253  -0.649670  -0.061113   0.150132
    9  C  1  Z   -0.743986  -1.100229   0.013307  -0.039396  -0.540373
   10  C  1 XX    0.016488  -0.013719   0.000350   0.054328   0.004210
   11  C  1 YY   -0.003130   0.000249  -0.007360  -0.031448  -0.000782
   12  C  1 ZZ   -0.013358   0.013470   0.007009  -0.022880  -0.003428
   13  C  1 XY   -0.005232   0.002260   0.027274   0.000568   0.014384
   14  C  1 XZ    0.002664   0.003176  -0.001353  -0.001759  -0.049078
   15  C  1 YZ    0.007927   0.009878  -0.004551   0.001510  -0.050340
   16  C  2  S   -0.102530   0.068391  -0.002735  -0.082038  -0.004310
   17  C  2  S    0.159940  -0.102105  -0.030721   0.123741   0.014196
   18  C  2  X   -0.077541   0.065046   0.270106  -0.267227  -0.016459
   19  C  2  Y   -0.231337   0.119538  -0.085815   0.438829  -0.020946
   20  C  2  Z    0.059944   0.070374   0.014982   0.010903   0.873563
   21  C  2  S    1.642924  -1.139337   0.363990   1.873593  -0.119191
   22  C  2  X   -0.217326   0.254276   2.292681   0.204871  -0.256726
   23  C  2  Y   -0.469888   0.242891   0.096517   1.666574  -0.001537
   24  C  2  Z    0.218462   0.323926   0.017347   0.039191  -0.813816
   25  C  2 XX   -0.004964   0.003427  -0.010592   0.000560  -0.015774
   26  C  2 YY    0.002938  -0.002030   0.003468  -0.014029   0.010188
   27  C  2 ZZ    0.002026  -0.001398   0.007124   0.013468   0.005586
   28  C  2 XY    0.000283   0.001364  -0.017076   0.010652  -0.000155
   29  C  2 XZ    0.006293   0.009743  -0.000010   0.000490   0.016066
   30  C  2 YZ   -0.012880  -0.016939  -0.000429  -0.000999  -0.001888
   31  O  3  S    0.012536  -0.008728   0.083963   0.059861  -0.005941
   32  O  3  S   -0.027766   0.024642  -0.124903  -0.068367   0.002820
   33  O  3  X    0.055730  -0.051167   0.073468   0.152956   0.034627
   34  O  3  Y    0.071893  -0.027153   0.156650  -0.027446  -0.036959
   35  O  3  Z   -0.033620  -0.042119   0.000146  -0.001756   0.041865
   36  O  3  S   -0.126857   0.054106  -1.680151  -1.288658   0.195630
   37  O  3  X    0.072761  -0.061716   0.492076   0.671703  -0.061831
   38  O  3  Y    0.141034  -0.055240   0.554743   0.006955  -0.060526
   39  O  3  Z   -0.075053  -0.103355   0.011481   0.003053   0.051352
   40  O  3 XX   -0.004987   0.003162  -0.023959  -0.011858   0.008756
   41  O  3 YY   -0.000194  -0.000024   0.008242  -0.010246  -0.002127
   42  O  3 ZZ    0.005181  -0.003139   0.015717   0.022105  -0.006629
   43  O  3 XY    0.000821  -0.000569  -0.029722  -0.024799   0.004009
   44  O  3 XZ    0.002238   0.004064  -0.001631  -0.000933  -0.049001
   45  O  3 YZ   -0.003150  -0.003776  -0.000899  -0.001114  -0.035919
   46  H  4  S   -0.054106   0.038800  -0.021357  -0.051295   0.050700
   47  H  4  S   -1.431232   0.873195  -0.291913   1.058561   0.003288
   48  H  5  S    0.082476  -0.053501   0.146899   0.022662   0.176239
   49  H  5  S    0.565428  -0.929688   0.019928  -0.717180  -0.241849
   50  H  6  S   -0.075321   0.024444   0.035774  -0.019509  -0.258415
   51  H  6  S   -1.068945  -1.052863   0.093987  -0.137384   0.093889
   52  H  7  S   -0.027225   0.098082   0.054795  -0.012853   0.332924
   53  H  7  S    0.432542   1.583777  -0.072613   0.061528   0.205862

                     21         22         23         24         25
                    0.5416     0.5832     0.6077     0.6594     0.6843
                     A          A          A          A          A   
    1  C  1  S    0.008679   0.044060  -0.000934  -0.034473  -0.036248
    2  C  1  S   -0.231534  -0.239884  -0.179207  -0.081803   0.194680
    3  C  1  X   -0.729033  -0.282746  -0.344454  -0.255061   0.197801
    4  C  1  Y    0.661555  -0.597721  -0.418889  -0.025890  -0.114745
    5  C  1  Z    0.009351   0.231240  -0.466891   0.298426   0.199950
    6  C  1  S    0.142731  -0.831791  -0.328143   0.609865  -0.749360
    7  C  1  X    1.015951   0.388944   0.259710   0.314771  -0.963589
    8  C  1  Y   -0.594725   1.058287   0.569284  -0.047575   0.222571
    9  C  1  Z   -0.037944  -0.730130   1.316574  -0.671680  -0.443332
   10  C  1 XX   -0.002707  -0.024154  -0.048947  -0.064375  -0.058799
   11  C  1 YY   -0.022836   0.047249   0.054129   0.077949   0.028809
   12  C  1 ZZ    0.025543  -0.023095  -0.005182  -0.013574   0.029990
   13  C  1 XY    0.031355   0.061661   0.020264  -0.081250   0.006811
   14  C  1 XZ   -0.003994  -0.045852   0.074198  -0.017035  -0.004897
   15  C  1 YZ   -0.002368  -0.040671   0.063968  -0.018801  -0.010453
   16  C  2  S   -0.051564  -0.001963  -0.003196   0.022815  -0.048826
   17  C  2  S   -0.081097  -0.194112  -0.344491  -0.719746  -0.062131
   18  C  2  X    0.121883   0.137680   0.171408  -0.358703   0.947969
   19  C  2  Y    0.100886  -0.145113  -0.138693  -0.031921   0.262463
   20  C  2  Z   -0.091614  -0.382189   0.373190  -0.041592   0.005071
   21  C  2  S   -0.379845   0.229027   0.552071   0.765092   1.469668
   22  C  2  X   -0.404625  -0.871262  -0.424998   0.711547  -1.161450
   23  C  2  Y   -0.121163   0.189156   0.185352  -0.715039   0.042386
   24  C  2  Z    0.125831   0.731976  -0.899308   0.209864   0.102805
   25  C  2 XX   -0.111790  -0.009853   0.013351   0.091463  -0.014232
   26  C  2 YY    0.008047   0.002595  -0.043466  -0.126490  -0.063664
   27  C  2 ZZ    0.103743   0.007259   0.030115   0.035026   0.077897
   28  C  2 XY    0.040873   0.009120   0.031169   0.107711  -0.086237
   29  C  2 XZ   -0.000561   0.008211  -0.014745   0.002807  -0.003256
   30  C  2 YZ   -0.005409  -0.030331   0.043941  -0.016432  -0.011054
   31  O  3  S    0.011393  -0.002495   0.011598  -0.006323   0.046702
   32  O  3  S   -0.106687  -0.049472  -0.083928   0.016363  -0.183261
   33  O  3  X    0.170934   0.117054   0.037807  -0.312410   0.181623
   34  O  3  Y   -0.069938  -0.170424  -0.102717   0.052039   0.210212
   35  O  3  Z   -0.007434  -0.046521   0.049924   0.007247   0.016588
   36  O  3  S    0.332384   0.376166   0.041755  -0.264723  -0.013954
   37  O  3  X   -0.022266  -0.075820   0.060802  -0.007515   0.442114
   38  O  3  Y   -0.084837  -0.087096   0.018299   0.097814   0.144097
   39  O  3  Z   -0.017528  -0.104482   0.136693  -0.048559  -0.025546
   40  O  3 XX    0.033517   0.003731  -0.015611  -0.074657   0.040389
   41  O  3 YY   -0.023872   0.001898   0.006039   0.012071  -0.000563
   42  O  3 ZZ   -0.009645  -0.005629   0.009572   0.062586  -0.039826
   43  O  3 XY    0.017859  -0.006590  -0.010286  -0.067375   0.107670
   44  O  3 XZ    0.006823   0.029764  -0.034549   0.006558   0.007469
   45  O  3 YZ    0.002237   0.001236   0.007264  -0.009203  -0.003611
   46  H  4  S   -0.111922   0.104952  -0.138796  -0.615436  -0.344956
   47  H  4  S   -0.055297   0.091132   0.103546  -0.204578   0.082939
   48  H  5  S    0.058375   0.334288  -0.079732  -0.254536  -0.186986
   49  H  5  S    0.036864  -0.061620   0.424327   0.272435  -0.053784
   50  H  6  S    0.089657  -0.228556   0.152053  -0.334517  -0.188440
   51  H  6  S    0.003383   0.305080   0.220156  -0.195162  -0.352692
   52  H  7  S    0.105400   0.111007  -0.450487  -0.222664  -0.160840
   53  H  7  S   -0.052949   0.349185  -0.186983   0.314445   0.113085

                     26         27         28         29         30
                    0.7582     0.7737     0.8525     0.8711     0.8936
                     A          A          A          A          A   
    1  C  1  S   -0.009529  -0.007097  -0.011724   0.017958   0.031636
    2  C  1  S    0.064629   0.436889  -0.024202  -0.820854  -1.143342
    3  C  1  X    0.316372  -0.341478   0.142217   0.352689   0.256828
    4  C  1  Y    0.235872  -0.281846   0.174742   0.208074  -0.091154
    5  C  1  Z    0.118870   0.729117   0.180967   0.444651  -0.069373
    6  C  1  S   -0.884759  -0.673965  -0.312959   1.620172   2.095781
    7  C  1  X   -1.882708   0.695148  -0.697838  -0.518800  -0.336631
    8  C  1  Y   -0.661255   0.367043  -0.180432  -0.438581   0.190187
    9  C  1  Z   -0.278498  -1.166418  -0.283236  -0.665366   0.116167
   10  C  1 XX   -0.050806   0.005020  -0.016210   0.024860  -0.102940
   11  C  1 YY   -0.009010  -0.056886   0.023881   0.024722  -0.054647
   12  C  1 ZZ    0.059816   0.051866  -0.007671  -0.049583   0.157588
   13  C  1 XY    0.018115  -0.048757   0.063217   0.084574  -0.027280
   14  C  1 XZ    0.000889   0.100123   0.042216   0.118165  -0.021981
   15  C  1 YZ   -0.001516   0.023416   0.010134   0.028833  -0.007046
   16  C  2  S    0.009312   0.002067   0.048391  -0.023509  -0.006123
   17  C  2  S   -0.251301   0.378939  -1.021031  -0.268550  -0.423653
   18  C  2  X    0.190623  -0.059416   0.171393  -0.082941   0.049887
   19  C  2  Y   -0.876084   0.022816   0.429858  -0.111588   0.200582
   20  C  2  Z   -0.018060   0.044992   0.021024   0.020139  -0.001582
   21  C  2  S    1.267269  -0.616098   2.869406  -0.504839   0.757032
   22  C  2  X   -0.627187   0.265478  -0.171012  -0.144951  -0.056791
   23  C  2  Y    3.063994   0.038987  -0.266736  -0.106805  -0.704337
   24  C  2  Z    0.110097   0.086467   0.005918   0.031024  -0.015227
   25  C  2 XX    0.081938   0.005204   0.003013  -0.086216  -0.024147
   26  C  2 YY   -0.058304   0.031566   0.088810   0.000838  -0.009896
   27  C  2 ZZ   -0.023634  -0.036770  -0.091823   0.085378   0.034043
   28  C  2 XY    0.056190  -0.011079   0.099025  -0.059982   0.051971
   29  C  2 XZ    0.001474  -0.043740  -0.013106  -0.047085   0.008322
   30  C  2 YZ   -0.003786   0.015874   0.014128   0.025855  -0.007481
   31  O  3  S    0.016877   0.009632   0.020514  -0.036845   0.009683
   32  O  3  S   -0.015592  -0.048270  -0.048799   0.160296  -0.110259
   33  O  3  X   -0.148834   0.050255  -0.302087   0.273211  -0.055871
   34  O  3  Y   -0.281655  -0.074153  -0.269692   0.217637  -0.039050
   35  O  3  Z    0.001408   0.133017   0.047984   0.167763  -0.028924
   36  O  3  S   -0.851286  -0.019697  -0.591904   0.337263   0.131066
   37  O  3  X    0.522030   0.026107   0.662895  -0.677811   0.054924
   38  O  3  Y   -0.043706   0.070559   0.390943  -0.400661   0.126069
   39  O  3  Z   -0.015046  -0.120751  -0.041087  -0.172508   0.030298
   40  O  3 XX   -0.117109   0.017715  -0.013094   0.007761   0.010334
   41  O  3 YY    0.045946  -0.001722  -0.044446   0.000338  -0.015930
   42  O  3 ZZ    0.071164  -0.015994   0.057540  -0.008099   0.005596
   43  O  3 XY   -0.013000  -0.008366  -0.067495   0.022610  -0.022563
   44  O  3 XZ    0.001050   0.013599   0.001342   0.008562  -0.001152
   45  O  3 YZ   -0.003984  -0.007920  -0.003305   0.000509  -0.001032
   46  H  4  S   -0.136435   0.225440   0.694158  -0.199949  -0.054159
   47  H  4  S    1.749777  -0.031711  -1.460118   0.200423  -0.613465
   48  H  5  S   -0.137641  -0.579950   0.211245   0.565607  -0.430159
   49  H  5  S   -0.504366   1.363005  -0.612379  -1.284882   1.167405
   50  H  6  S    0.057251   0.561129  -0.004579   0.443070   0.525684
   51  H  6  S   -0.604415  -1.133455  -0.254199  -0.993629  -1.323210
   52  H  7  S    0.046368  -0.233240  -0.339052  -0.451645   0.756595
   53  H  7  S   -0.184066   0.758845   0.476588   0.778884  -1.861884

                     31         32         33         34         35
                    0.9366     0.9898     1.0850     1.3580     1.4186
                     A          A          A          A          A   
    1  C  1  S   -0.012873  -0.000621  -0.001916  -0.108233  -0.039010
    2  C  1  S    0.622265  -0.119631   0.037452  -1.535237  -0.520933
    3  C  1  X   -0.020036   0.016555  -0.100020  -0.034305  -0.015681
    4  C  1  Y   -0.092114   0.019811  -0.096908   0.146435   0.059363
    5  C  1  Z   -0.107472   0.188056  -0.014570   0.054419  -0.119327
    6  C  1  S   -1.630612   0.296275  -1.113385   5.000800   1.713017
    7  C  1  X   -0.669778   0.018892  -0.494016   0.010989  -0.028488
    8  C  1  Y    0.242580  -0.084866   0.167513  -1.969505  -0.702845
    9  C  1  Z    0.142915  -0.186722   0.016764  -0.104209  -0.140283
   10  C  1 XX    0.011559   0.002694  -0.036043  -0.057537  -0.047980
   11  C  1 YY   -0.074293   0.008041  -0.020509   0.129906   0.067834
   12  C  1 ZZ    0.062734  -0.010735   0.056552  -0.072369  -0.019854
   13  C  1 XY    0.012363   0.007980   0.041466  -0.205690  -0.117223
   14  C  1 XZ   -0.043785   0.034136  -0.006392  -0.142770   0.280813
   15  C  1 YZ   -0.007192   0.054346  -0.002524   0.163730  -0.442162
   16  C  2  S   -0.021704   0.001594  -0.005960   0.030086   0.009771
   17  C  2  S   -1.173108   0.069873  -0.113834   0.502977   0.164586
   18  C  2  X    0.002169  -0.003376   0.129373   0.036172   0.017356
   19  C  2  Y    0.010606  -0.007723  -0.285468  -0.090842  -0.036550
   20  C  2  Z    0.001673   0.118258  -0.005673  -0.011363   0.046647
   21  C  2  S    1.889643  -0.197299   0.348649  -3.119614  -1.149194
   22  C  2  X   -0.640914   0.071412  -1.021365   1.506375   0.468260
   23  C  2  Y    0.224254   0.007326   1.759838   0.296456   0.138296
   24  C  2  Z   -0.031197  -0.582696   0.031037   0.081885  -0.048381
   25  C  2 XX   -0.089604  -0.001503  -0.129876  -0.002457   0.014299
   26  C  2 YY    0.029605   0.004086   0.127444   0.152137   0.046531
   27  C  2 ZZ    0.059999  -0.002583   0.002433  -0.149679  -0.060831
   28  C  2 XY   -0.119904   0.007371   0.073758  -0.059743  -0.020071
   29  C  2 XZ    0.012679  -0.053193   0.003561   0.202265  -0.538154
   30  C  2 YZ   -0.014384   0.016547   0.000724  -0.086297   0.140034
   31  O  3  S   -0.038757   0.000902   0.001474   0.023196   0.010711
   32  O  3  S    0.212842  -0.005747  -0.034446  -0.430652  -0.225801
   33  O  3  X    0.513523  -0.014965  -0.371111   0.213829   0.087026
   34  O  3  Y    0.135041   0.022053   0.726516   0.039304   0.022991
   35  O  3  Z   -0.091923  -0.914786   0.015598  -0.011520   0.064941
   36  O  3  S   -0.062200   0.010360  -0.000732   0.410571   0.276121
   37  O  3  X   -0.856652   0.018659   0.708817  -0.463720  -0.207288
   38  O  3  Y   -0.418756  -0.023462  -1.398448  -0.066871  -0.063581
   39  O  3  Z    0.098839   1.256023  -0.029576  -0.064390   0.106257
   40  O  3 XX   -0.028616   0.004091   0.077064   0.019079  -0.002378
   41  O  3 YY   -0.019374  -0.000478  -0.093954   0.077551   0.024324
   42  O  3 ZZ    0.047989  -0.003612   0.016891  -0.096629  -0.021946
   43  O  3 XY   -0.011987  -0.000196  -0.070724  -0.060843  -0.036110
   44  O  3 XZ   -0.001751   0.031559  -0.001396  -0.037388   0.155143
   45  O  3 YZ   -0.003065   0.021116  -0.003832  -0.093583   0.257849
   46  H  4  S    0.281500  -0.005554   0.216264   0.403078   0.157068
   47  H  4  S   -0.561750   0.042079   0.761924   0.317896   0.135546
   48  H  5  S   -0.388081   0.063709  -0.079398  -0.493717  -0.191509
   49  H  5  S    0.585355  -0.155369   0.164205  -0.835745  -0.309603
   50  H  6  S   -0.157248   0.138412  -0.026444  -0.555138  -0.350545
   51  H  6  S    0.118943  -0.357769  -0.038408  -0.513860  -0.134294
   52  H  7  S    0.159186  -0.175159   0.014814  -0.450375  -0.004542
   53  H  7  S   -0.384636   0.379306  -0.118436  -0.263294  -0.125534

                     36         37         38         39         40
                    1.5303     1.6346     1.6683     1.7854     1.8126
                     A          A          A          A          A   
    1  C  1  S   -0.003499   0.050866   0.006333  -0.008901  -0.001108
    2  C  1  S   -0.043483   0.621573  -0.313625   0.361804  -0.013176
    3  C  1  X   -0.003465   0.016988  -0.205307   0.223324   0.002664
    4  C  1  Y    0.006199  -0.033541   0.040885  -0.051970  -0.004898
    5  C  1  Z    0.037216   0.000919  -0.000885   0.002212   0.083584
    6  C  1  S    0.139758  -2.213180   0.015761  -0.208584   0.055033
    7  C  1  X   -0.004626   0.115207  -0.181736  -0.339563   0.023528
    8  C  1  Y   -0.055315   1.081044  -0.023980  -0.048664  -0.001819
    9  C  1  Z   -0.351014   0.059091  -0.021159  -0.030336  -0.311209
   10  C  1 XX   -0.013118   0.179195   0.459481  -0.213176   0.026649
   11  C  1 YY    0.009179   0.010967  -0.411186   0.309646  -0.006248
   12  C  1 ZZ    0.003938  -0.190162  -0.048296  -0.096469  -0.020401
   13  C  1 XY   -0.027293   0.188939   0.035945   0.150950   0.032876
   14  C  1 XZ    0.129606   0.000325   0.003009  -0.001052  -0.324538
   15  C  1 YZ   -0.074841   0.015441  -0.003938   0.008864   0.421392
   16  C  2  S    0.000424  -0.029208  -0.002419  -0.023472   0.001046
   17  C  2  S    0.011224  -0.307610  -0.453680   0.028443   0.009625
   18  C  2  X    0.003505  -0.138444   0.144361   0.031779  -0.006514
   19  C  2  Y    0.000038   0.018510  -0.062006  -0.103547  -0.000895
   20  C  2  Z   -0.185030   0.001330   0.000975  -0.000952   0.089948
   21  C  2  S   -0.142157  -0.732504   1.489435   0.810858  -0.068745
   22  C  2  X    0.004437  -2.265334  -0.136344   0.533636   0.001568
   23  C  2  Y    0.005048  -1.380654   0.221068  -0.178074  -0.042360
   24  C  2  Z    0.214403  -0.057468   0.011946   0.009792   0.199759
   25  C  2 XX    0.000982  -0.119057   0.145064  -0.204055  -0.005756
   26  C  2 YY   -0.019394   0.168847   0.208554   0.396957   0.001411
   27  C  2 ZZ    0.018412  -0.049790  -0.353618  -0.192902   0.004345
   28  C  2 XY   -0.016397  -0.294467  -0.243896   0.284315   0.003136
   29  C  2 XZ    0.145403   0.006545  -0.013846  -0.000508  -0.130350
   30  C  2 YZ    0.715959  -0.013210   0.020544   0.019142  -0.072074
   31  O  3  S    0.002019   0.021816  -0.019105   0.004687  -0.000277
   32  O  3  S   -0.059141  -1.496975   0.567941   0.174077  -0.011820
   33  O  3  X    0.012730  -0.021060  -0.181000   0.187718  -0.004693
   34  O  3  Y    0.008163   0.027543   0.007329  -0.166831  -0.002820
   35  O  3  Z   -0.086785  -0.001389   0.001145  -0.000548   0.070021
   36  O  3  S    0.105906   3.933855  -1.075250  -0.744644   0.047661
   37  O  3  X   -0.042443  -1.043809   0.491820   0.010947  -0.013475
   38  O  3  Y   -0.021773  -0.600496   0.112748   0.395696  -0.000276
   39  O  3  Z   -0.117255  -0.014563   0.002934   0.004696  -0.107857
   40  O  3 XX    0.002166  -0.133020   0.049716   0.489348  -0.010084
   41  O  3 YY    0.003951   0.171520   0.452363  -0.096708  -0.047030
   42  O  3 ZZ   -0.006116  -0.038500  -0.502078  -0.392640   0.057114
   43  O  3 XY    0.001918  -0.182004  -0.093441  -0.425915   0.016592
   44  O  3 XZ   -0.501457   0.002024   0.000111  -0.005815  -0.184557
   45  O  3 YZ    0.083593  -0.011247   0.038008   0.020035   0.818726
   46  H  4  S    0.020207  -0.276320  -0.230246  -0.495702  -0.000556
   47  H  4  S    0.015608  -0.435018  -0.143954  -0.039553  -0.008657
   48  H  5  S   -0.015697   0.157527  -0.092402  -0.139453  -0.011375
   49  H  5  S   -0.035576   0.128044   0.066071  -0.092339  -0.010569
   50  H  6  S   -0.096202   0.285947  -0.036929   0.005479   0.006019
   51  H  6  S   -0.161586   0.330007  -0.174170   0.022751  -0.133372
   52  H  7  S    0.064639   0.211378  -0.001234   0.050474  -0.002609
   53  H  7  S    0.145199   0.287877  -0.178649   0.066262   0.139532

                     41         42         43         44         45
                    1.9527     1.9839     2.0561     2.2064     2.2763
                     A          A          A          A          A   
    1  C  1  S   -0.008469  -0.068635  -0.001819  -0.073494   0.005651
    2  C  1  S    0.130076  -0.553367   0.021522  -0.506573   0.053298
    3  C  1  X    0.089203   0.040357   0.015046   0.030851   0.006026
    4  C  1  Y   -0.044322  -0.107221  -0.003714  -0.063712   0.004471
    5  C  1  Z    0.005024  -0.005140  -0.043478  -0.001479  -0.072417
    6  C  1  S    0.067098   2.594727   0.001004   2.271270  -0.180738
    7  C  1  X    0.048686   0.496892  -0.014628  -0.417998   0.098209
    8  C  1  Y    0.143328  -0.565839   0.010461  -0.921379   0.094486
    9  C  1  Z    0.093010  -0.065843  -0.669685  -0.075916  -0.190690
   10  C  1 XX   -0.320676   0.419987  -0.039757   0.005065   0.008082
   11  C  1 YY   -0.556377  -0.548269  -0.047431   0.095662  -0.029787
   12  C  1 ZZ    0.877053   0.128282   0.087189  -0.100727   0.021705
   13  C  1 XY   -0.167825   0.187237   0.012324   0.787107  -0.128695
   14  C  1 XZ   -0.060952   0.020330   0.187339   0.095803   0.975490
   15  C  1 YZ   -0.071215  -0.009634   0.768940  -0.060568   0.274794
   16  C  2  S    0.010489   0.027510   0.002480   0.027448   0.002858
   17  C  2  S    0.257285   0.242291   0.044829   0.459129  -0.026377
   18  C  2  X   -0.150341  -0.031885  -0.027294  -0.320815   0.043304
   19  C  2  Y    0.042728  -0.142741   0.013706   0.083400  -0.016660
   20  C  2  Z    0.002348  -0.004044   0.044606  -0.015482  -0.078235
   21  C  2  S   -0.867170  -1.662251  -0.115305  -1.249173   0.003998
   22  C  2  X   -0.218122   0.749421  -0.028462   0.789219  -0.082575
   23  C  2  Y   -0.462824  -1.254244  -0.011697   0.292405  -0.097128
   24  C  2  Z   -0.046653   0.003556   0.398478  -0.004506  -0.057895
   25  C  2 XX   -0.232077  -0.352016  -0.030269  -0.424832   0.004845
   26  C  2 YY   -0.095163   0.483264  -0.062078  -0.029272  -0.010266
   27  C  2 ZZ    0.327241  -0.131248   0.092347   0.454105   0.005421
   28  C  2 XY   -0.049041  -0.071123   0.003420   0.016165  -0.032390
   29  C  2 XZ    0.023706  -0.023665  -0.302354   0.014984   0.225351
   30  C  2 YZ   -0.054170   0.044457   0.488013  -0.071746  -0.441811
   31  O  3  S   -0.005183  -0.011506  -0.001046  -0.014324  -0.000715
   32  O  3  S   -0.226028  -0.029144  -0.015882   0.235098  -0.012241
   33  O  3  X   -0.052629  -0.045012  -0.015306  -0.170115  -0.007639
   34  O  3  Y   -0.096152  -0.216542  -0.008180  -0.101800  -0.006565
   35  O  3  Z   -0.006354  -0.002196   0.073890  -0.010312  -0.019257
   36  O  3  S    0.922910   0.568427   0.089282  -0.248593   0.089684
   37  O  3  X   -0.306415  -0.362330  -0.018575   0.073945  -0.024044
   38  O  3  Y   -0.017967   0.335709  -0.012281  -0.013966   0.016860
   39  O  3  Z    0.010068  -0.003487  -0.210410   0.023610   0.073294
   40  O  3 XX    0.036118   0.079745  -0.016775  -0.252348   0.046584
   41  O  3 YY    0.205196  -0.559988   0.068460   0.422964  -0.058806
   42  O  3 ZZ   -0.241314   0.480243  -0.051685  -0.170616   0.012222
   43  O  3 XY   -0.223002   0.108150  -0.029921   0.170446  -0.047482
   44  O  3 XZ   -0.034749   0.017890   0.419603  -0.054795  -0.253562
   45  O  3 YZ    0.048487  -0.047178  -0.219431   0.031286   0.165078
   46  H  4  S    0.036761  -0.476863   0.040793   0.229795  -0.012439
   47  H  4  S   -0.048778  -0.257760   0.011928   0.226939  -0.037007
   48  H  5  S    0.462343  -0.272883   0.051294  -0.791808   0.129318
   49  H  5  S   -0.140227  -0.145402  -0.064457  -0.194880  -0.028817
   50  H  6  S   -0.222052  -0.389152  -0.458676  -0.430726  -0.480421
   51  H  6  S    0.139139  -0.172450  -0.058550  -0.326433   0.181454
   52  H  7  S   -0.439020  -0.270638   0.383381  -0.180777   0.527826
   53  H  7  S    0.134850  -0.105917   0.125737  -0.229981  -0.070218

                     46         47         48         49         50
                    2.3378     2.5101     2.5782     2.8786     2.9508
                     A          A          A          A          A   
    1  C  1  S    0.035298   0.063523  -0.002685   0.007593  -0.004952
    2  C  1  S    0.293992   0.175336  -0.010970  -0.254538   0.169068
    3  C  1  X   -0.089056  -0.278406   0.006398  -0.186790   0.126494
    4  C  1  Y    0.045471   0.090256  -0.004772   0.153403  -0.075484
    5  C  1  Z   -0.007078  -0.001926   0.027613   0.004572  -0.001762
    6  C  1  S   -1.477001  -1.898175   0.078471   0.471571  -0.234731
    7  C  1  X   -0.701893  -0.848771   0.021563  -0.244860   0.224349
    8  C  1  Y    0.353405   0.403147  -0.020988  -0.130208   0.165100
    9  C  1  Z   -0.016071   0.003335   0.030623  -0.026097   0.009476
   10  C  1 XX   -0.332385  -0.782824   0.021954  -0.134270   0.063670
   11  C  1 YY   -0.110917   0.470419  -0.004473  -0.087887   0.036679
   12  C  1 ZZ    0.443302   0.312405  -0.017481   0.222157  -0.100349
   13  C  1 XY    0.361953   0.105550   0.000269   0.592071  -0.335418
   14  C  1 XZ    0.070338   0.005823   0.139440   0.003909   0.000249
   15  C  1 YZ    0.023672   0.018798  -0.178407  -0.017602   0.011796
   16  C  2  S   -0.080621  -0.035479   0.001323  -0.041210  -0.025942
   17  C  2  S   -0.229880  -0.104951   0.004125  -0.455482  -1.303222
   18  C  2  X   -0.173027  -0.215847   0.000217  -0.569455  -1.020588
   19  C  2  Y    0.179593   0.061972  -0.007326  -0.256634  -0.592182
   20  C  2  Z   -0.001938   0.006273   0.243048  -0.008402  -0.019376
   21  C  2  S    1.552040   1.914734  -0.064760  -0.438186  -1.567018
   22  C  2  X   -0.455351  -0.860082   0.031880  -0.185650  -0.804338
   23  C  2  Y    0.658167   0.865051  -0.024541  -0.518562  -0.446679
   24  C  2  Z    0.010346   0.018072   0.236294  -0.007114  -0.015004
   25  C  2 XX    0.471030  -0.112245  -0.017439   0.699097  -0.813810
   26  C  2 YY    0.292252   0.452955  -0.020318  -0.711664   0.373564
   27  C  2 ZZ   -0.763281  -0.340709   0.037758   0.012567   0.440246
   28  C  2 XY    0.481186  -0.862720   0.001820  -0.650796  -0.286463
   29  C  2 XZ    0.033153   0.008966   0.917870  -0.005340  -0.018329
   30  C  2 YZ    0.003205   0.020491   0.388596  -0.017652  -0.005721
   31  O  3  S    0.029746  -0.019221   0.000219  -0.019577  -0.059026
   32  O  3  S   -0.381645   0.550619  -0.010045  -0.405510  -0.644145
   33  O  3  X    0.359507  -0.336864   0.005930  -0.046203  -0.247249
   34  O  3  Y    0.244181  -0.126767   0.001540   0.008334  -0.157815
   35  O  3  Z    0.006952  -0.004349  -0.010823  -0.000561  -0.004413
   36  O  3  S   -0.208834  -0.690654   0.014132   1.348112   2.969147
   37  O  3  X    0.054232   0.501900  -0.009092  -0.888633  -1.426214
   38  O  3  Y   -0.320180  -0.040758   0.008635  -0.015137  -0.944501
   39  O  3  Z   -0.004474  -0.010429  -0.453145  -0.007844  -0.027516
   40  O  3 XX   -0.283504  -0.141962  -0.009356   0.936649   0.662823
   41  O  3 YY    0.252181  -0.023268  -0.012588  -0.644909   0.013479
   42  O  3 ZZ    0.031323   0.165231   0.021944  -0.291739  -0.676302
   43  O  3 XY    0.382867   0.116974  -0.017820   0.024328   1.137712
   44  O  3 XZ   -0.005435   0.023547   0.856905   0.012260   0.030752
   45  O  3 YZ    0.017642   0.011084   0.515847  -0.006144   0.022022
   46  H  4  S   -0.159512  -0.273541   0.007391   0.288426  -0.085351
   47  H  4  S    0.159557   0.313974  -0.006147  -0.358545   0.061040
   48  H  5  S    0.081937   0.128910  -0.019622  -0.236514   0.164562
   49  H  5  S   -0.031610  -0.001502   0.011102  -0.092567  -0.062207
   50  H  6  S   -0.118653   0.071954   0.005693  -0.182740   0.083901
   51  H  6  S    0.103441   0.019670   0.021962  -0.074160   0.100959
   52  H  7  S   -0.055315   0.058129  -0.010154  -0.134732   0.055965
   53  H  7  S    0.090989   0.006376  -0.040320  -0.018895   0.101519
 ...... END OF RHF CALCULATION ......
 STEP CPU TIME =     5.73 TOTAL CPU TIME =          5.8 (      0.1 MIN)
 TOTAL WALL CLOCK TIME=          6.1 SECONDS, CPU UTILIZATION IS    96.53%

     ---------------------------------------------------------------------
     PROPERTIES FOR THE B3LYP    DFT FUNCTIONAL (RHF  TYPE) DENSITY MATRIX
     ---------------------------------------------------------------------

          -----------------
          ENERGY COMPONENTS
          -----------------

         WAVEFUNCTION NORMALIZATION =       1.0000000000

                ONE ELECTRON ENERGY =    -345.4749784890
                TWO ELECTRON ENERGY =     122.2626178708
           NUCLEAR REPULSION ENERGY =      69.6591683030
                                      ------------------
                       TOTAL ENERGY =    -153.5531923152

 ELECTRON-ELECTRON POTENTIAL ENERGY =     122.2626178708
  NUCLEUS-ELECTRON POTENTIAL ENERGY =    -498.4325923496
   NUCLEUS-NUCLEUS POTENTIAL ENERGY =      69.6591683030
                                      ------------------
             TOTAL POTENTIAL ENERGY =    -306.5108061757
               TOTAL KINETIC ENERGY =     152.9576138606
                 VIRIAL RATIO (V/T) =       2.0038937483

          ---------------------------------------
          MULLIKEN AND LOWDIN POPULATION ANALYSES
          ---------------------------------------

     ATOMIC MULLIKEN POPULATION IN EACH MOLECULAR ORBITAL

                      1          2          3          4          5

                  2.000000   2.000000   2.000000   2.000000   2.000000

    1            -0.000024   0.001381   1.995200   0.019766   1.021715
    2             0.002281   2.000492   0.001860   0.523598   0.157525
    3             1.997714  -0.002829   0.000011   1.456046   0.033233
    4             0.000030   0.000936  -0.000011  -0.001359   0.004840
    5             0.000000  -0.000020   0.000863   0.000873   0.416965
    6            -0.000001   0.000016   0.001160   0.000394   0.115711
    7            -0.000001   0.000025   0.000916   0.000683   0.250012

                      6          7          8          9         10

                  2.000000   2.000000   2.000000   2.000000   2.000000

    1             0.349343   0.438329   0.731680   0.109825   0.081816
    2             0.929277   0.784315   0.291009   0.390714   0.562915
    3             0.279526   0.287999   0.177837   1.417926   1.190452
    4             0.228652   0.297819   0.036804   0.046845   0.000017
    5             0.119352   0.062031   0.003398   0.009404   0.001394
    6             0.009160   0.049247   0.495552   0.025006   0.105324
    7             0.084690   0.080260   0.263720   0.000281   0.058083

                     11         12

                  2.000000   2.000000

    1             0.626874   1.096479
    2             0.043036   0.127430
    3             1.095762   0.390226
    4             0.065281   0.228654
    5             0.147298   0.055485
    6             0.000946   0.032413
    7             0.020803   0.069313

               ----- POPULATIONS IN EACH AO -----
                             MULLIKEN      LOWDIN
              1  C  1  S      1.99689     1.98082
              2  C  1  S      0.70737     0.39725
              3  C  1  X      0.63158     0.55678
              4  C  1  Y      0.80038     0.75943
              5  C  1  Z      0.64769     0.56727
              6  C  1  S      0.71617     0.38720
              7  C  1  X      0.19549     0.34266
              8  C  1  Y      0.53043     0.67647
              9  C  1  Z      0.19460     0.42333
             10  C  1 XX      0.00694     0.17554
             11  C  1 YY      0.00293     0.12802
             12  C  1 ZZ      0.01939     0.18489
             13  C  1 XY      0.01290     0.03233
             14  C  1 XZ      0.00963     0.02508
             15  C  1 YZ      0.00000     0.01283
             16  C  2  S      1.99653     1.97453
             17  C  2  S      0.70445     0.36450
             18  C  2  X      0.74381     0.64798
             19  C  2  Y      0.74682     0.64698
             20  C  2  Z      0.45981     0.41355
             21  C  2  S      0.45544     0.31473
             22  C  2  X      0.10771     0.28098
             23  C  2  Y      0.22567     0.38251
             24  C  2  Z      0.28792     0.33007
             25  C  2 XX      0.00487     0.22250
             26  C  2 YY      0.04028     0.19107
             27  C  2 ZZ      0.02582     0.10362
             28  C  2 XY      0.01246     0.05263
             29  C  2 XZ      0.00286     0.02300
             30  C  2 YZ      0.00000     0.00485
             31  O  3  S      1.99731     1.97776
             32  O  3  S      0.93172     0.72350
             33  O  3  X      0.98544     0.92066
             34  O  3  Y      1.10405     1.05576
             35  O  3  Z      0.76038     0.70878
             36  O  3  S      0.93362     0.46917
             37  O  3  X      0.48174     0.56193
             38  O  3  Y      0.59993     0.66282
             39  O  3  Z      0.50147     0.53979
             40  O  3 XX      0.00226     0.18505
             41  O  3 YY      0.00752     0.17291
             42  O  3 ZZ      0.00714     0.17378
             43  O  3 XY      0.00859     0.01578
             44  O  3 XZ      0.00274     0.01129
             45  O  3 YZ      0.00000     0.00356
             46  H  4  S      0.53607     0.50714
             47  H  4  S      0.37244     0.39762
             48  H  5  S      0.55103     0.48074
             49  H  5  S      0.26601     0.27693
             50  H  6  S      0.51283     0.45775
             51  H  6  S      0.32210     0.33543
             52  H  7  S      0.54228     0.46173
             53  H  7  S      0.28651     0.29674

          ----- MULLIKEN ATOMIC OVERLAP POPULATIONS -----
          (OFF-DIAGONAL ELEMENTS NEED TO BE MULTIPLIED BY 2)

             1           2           3           4           5

    1    5.7159926
    2    0.3523584   4.5736876
    3   -0.0539276   0.5735324   7.8745733
    4   -0.1614449   0.3550743  -0.0721650   0.7735304
    5   -0.0382529  -0.0179856   0.0077879  -0.0123744   1.0245542
    6    0.3513611  -0.0192896  -0.0016664   0.0120099  -0.0450011
    7    0.3062978  -0.0029261  -0.0042323   0.0138770  -0.1016866

             6           7

    6    0.6048792
    7   -0.0673643   0.6848187

          TOTAL MULLIKEN AND LOWDIN ATOMIC POPULATIONS
       ATOM         MULL.POP.    CHARGE          LOW.POP.     CHARGE
    1 C             6.472385   -0.472385         6.649893   -0.649893
    2 C             5.814451    0.185549         5.953506    0.046494
    3 O             8.323902   -0.323902         8.182519   -0.182519
    4 H             0.908507    0.091493         0.904761    0.095239
    5 H             0.817041    0.182959         0.757668    0.242332
    6 H             0.834929    0.165071         0.793182    0.206818
    7 H             0.828784    0.171216         0.758472    0.241528

          MULLIKEN SPHERICAL HARMONIC POPULATIONS
       ATOM           S       P       D      F      G      H      I    TOTAL
    1 C             3.42    3.00    0.05   0.00   0.00   0.00   0.00    6.47
    2 C             3.16    2.57    0.09   0.00   0.00   0.00   0.00    5.81
    3 O             3.86    4.43    0.03   0.00   0.00   0.00   0.00    8.32
    4 H             0.91    0.00    0.00   0.00   0.00   0.00   0.00    0.91
    5 H             0.82    0.00    0.00   0.00   0.00   0.00   0.00    0.82
    6 H             0.83    0.00    0.00   0.00   0.00   0.00   0.00    0.83
    7 H             0.83    0.00    0.00   0.00   0.00   0.00   0.00    0.83

          -------------------------------
          BOND ORDER AND VALENCE ANALYSIS     BOND ORDER THRESHOLD=0.050
          -------------------------------

                   BOND                       BOND                       BOND
  ATOM PAIR DIST  ORDER      ATOM PAIR DIST  ORDER      ATOM PAIR DIST  ORDER
    1   2  1.509  1.068        1   5  1.093  0.601        1   6  1.098  0.859
    1   7  1.098  0.757        2   3  1.211  2.035        2   4  1.115  0.882
    5   7  0.845  0.142

                       TOTAL       BONDED        FREE
      ATOM            VALENCE     VALENCE     VALENCE
    1 C                 3.290       3.290      -0.000
    2 C                 4.003       4.003       0.000
    3 O                 2.129       2.129       0.000
    4 H                 0.919       0.919       0.000
    5 H                 0.809       0.809      -0.000
    6 H                 0.938       0.938      -0.000
    7 H                 0.946       0.946      -0.000

          ---------------------
          ELECTROSTATIC MOMENTS
          ---------------------

 POINT   1           X           Y           Z (BOHR)    CHARGE
                -0.000000    0.000000    0.000000        0.00 (A.U.)
         DX          DY          DZ         /D/  (DEBYE)
    -3.127289   -2.858046    0.180967    4.240414
 ...... END OF PROPERTY EVALUATION ......
 STEP CPU TIME =     0.00 TOTAL CPU TIME =          5.8 (      0.1 MIN)
 TOTAL WALL CLOCK TIME=          6.1 SECONDS, CPU UTILIZATION IS    96.38%
                580000  WORDS OF DYNAMIC MEMORY USED
 EXECUTION OF GAMESS TERMINATED NORMALLY Thu Dec 12 13:20:34 2019
 DDI: 263640 bytes (0.3 MB / 0 MWords) used by master data server.

 ----------------------------------------
 CPU timing information for all processes
 ========================================
 0: 5.715 + 0.484 = 6.199
 ----------------------------------------
 ddikick.x: exited gracefully.
----- accounting info -----
Files used on the master node crcfe02.crc.nd.edu were:
-rw-r--r-- 1 cdrisko campus      490 Dec 12 13:20 /afs/crc.nd.edu/user/c/cdrisko/acetaldehyde.F05
-rw-r--r-- 1 cdrisko campus    45118 Dec 12 13:20 /afs/crc.nd.edu/user/c/cdrisko/acetaldehyde.F07
-rw-r--r-- 1 cdrisko campus 11881056 Dec 12 13:20 /afs/crc.nd.edu/user/c/cdrisko/acetaldehyde.F08
-rw-r--r-- 1 cdrisko campus  1799600 Dec 12 13:20 /afs/crc.nd.edu/user/c/cdrisko/acetaldehyde.F10
Thu Dec 12 13:20:42 EST 2019
0.414u 4.266s 0:14.69 31.7%	0+0k 0+16io 0pf+0w
