----- GAMESS execution script 'rungms' -----
This job is running on host crcfe02.crc.nd.edu
under operating system Linux at Thu Dec 12 13:22:37 EST 2019
Available scratch disk space (Kbyte units) at beginning of the job is
Filesystem      1K-blocks  Used  Available Use% Mounted on
AFS            2147483647     0 2147483647   0% /afs
GAMESS temporary binary files will be written to /afs/crc.nd.edu/user/c/cdrisko
GAMESS supplementary output files will be written to /afs/crc.nd.edu/user/c/cdrisko/scr
Copying input file acetaldehyde.inp to your run's scratch directory...

 Distributed Data Interface kickoff program.
 Initiating 1 compute processes on 1 nodes to run the following command:
 /afs/crc.nd.edu/x86_64_linux/g/gamess/nov-2017/gamess/gamess.00.x acetaldehyde 

          ******************************************************
          *         GAMESS VERSION = 11 NOV 2017 (R3)         *
          *             FROM IOWA STATE UNIVERSITY             *
          * M.W.SCHMIDT, K.K.BALDRIDGE, J.A.BOATZ, S.T.ELBERT, *
          *   M.S.GORDON, J.H.JENSEN, S.KOSEKI, N.MATSUNAGA,   *
          *          K.A.NGUYEN, S.J.SU, T.L.WINDUS,           *
          *       TOGETHER WITH M.DUPUIS, J.A.MONTGOMERY       *
          *         J.COMPUT.CHEM.  14, 1347-1363(1993)        *
          **************** 64 BIT INTEL VERSION ****************

  SINCE 1993, STUDENTS AND POSTDOCS WORKING AT IOWA STATE UNIVERSITY
  AND ALSO IN THEIR VARIOUS JOBS AFTER LEAVING ISU HAVE MADE IMPORTANT
  CONTRIBUTIONS TO THE CODE:
     IVANA ADAMOVIC, CHRISTINE AIKENS, YURI ALEXEEV, POOJA ARORA,
     ANDREY ASADCHEV, ROB BELL, PRADIPTA BANDYOPADHYAY, JONATHAN BENTZ,
     BRETT BODE, KURT BRORSEN, CALEB CARLIN, GALINA CHABAN, WEI CHEN,
     CHEOL HO CHOI, PAUL DAY, ALBERT DEFUSCO, NUWAN DESILVA, TIM DUDLEY,
     DMITRI FEDOROV, ALEX FINDLATER, GRAHAM FLETCHER, MARK FREITAG,
     KURT GLAESEMANN, ANASTASIA GUININA,
     DAN KEMP, GRANT MERRILL, NORIYUKI MINEZAWA, JONATHAN MULLIN,
     TAKESHI NAGATA, SEAN NEDD, HEATHER NETZLOFF, BOSILJKA NJEGIC, RYAN OLSON,
     MIKE PAK, BUU PHAM,
     SPENCER PRUITT, LUKE ROSKOP, JIM SHOEMAKER, LYUDMILA SLIPCHENKO,
     TONY SMITH, SAROM SOK LEANG, JIE SONG, TETSUYA TAKETSUGU, SIMON WEBB,
     PENG XU, SOOHAENG YOO, FEDERICO ZAHARIEV

  ADDITIONAL CODE HAS BEEN PROVIDED BY COLLABORATORS IN OTHER GROUPS:
     IOWA STATE UNIVERSITY:
          JOE IVANIC, AARON WEST, LAIMUTIS BYTAUTAS, KLAUS RUEDENBERG
     UNIVERSITY OF TOKYO: KIMIHIKO HIRAO, TAKAHITO NAKAJIMA,
          TAKAO TSUNEDA, MUNEAKI KAMIYA, SUSUMU YANAGISAWA,
          KIYOSHI YAGI, MAHITO CHIBA, SEIKEN TOKURA, NAOAKI KAWAKAMI
     UNIVERSITY OF AARHUS: FRANK JENSEN
     UNIVERSITY OF IOWA: VISVALDAS KAIRYS, HUI LI
     NATIONAL INST. OF STANDARDS AND TECHNOLOGY: WALT STEVENS, DAVID GARMER
     UNIVERSITY OF PISA: BENEDETTA MENNUCCI, JACOPO TOMASI
     UNIVERSITY OF MEMPHIS: HENRY KURTZ, PRAKASHAN KORAMBATH
     UNIVERSITY OF ALBERTA: TOBY ZENG, MARIUSZ KLOBUKOWSKI
     UNIVERSITY OF NEW ENGLAND: MARK SPACKMAN
     MIE UNIVERSITY: HIROAKI UMEDA
     NAT. INST. OF ADVANCED INDUSTRIAL SCIENCE AND TECHNOLOGY: KAZUO KITAURA
     MICHIGAN STATE UNIVERSITY:
          KAROL KOWALSKI, MARTA WLOCH, JEFFREY GOUR, JESSE LUTZ,
          WEI LI, PIOTR PIECUCH
     UNIVERSITY OF SILESIA: MONIKA MUSIAL, STANISLAW KUCHARSKI
     FACULTES UNIVERSITAIRES NOTRE-DAME DE LA PAIX:
          OLIVIER QUINET, BENOIT CHAMPAGNE
     UNIVERSITY OF CALIFORNIA - SANTA BARBARA: BERNARD KIRTMAN
     INSTITUTE FOR MOLECULAR SCIENCE:
          KAZUYA ISHIMURA, MICHIO KATOUDA, AND SHIGERU NAGASE
     UNIVERSITY OF NOTRE DAME: ANNA POMOGAEVA, DAN CHIPMAN
     KYUSHU UNIVERSITY:
          HARUYUKI NAKANO,
          FENG LONG GU, JACEK KORCHOWIEC, MARCIN MAKOWSKI, AND YURIKO AOKI,
          HIROTOSHI MORI AND EISAKU MIYOSHI
     PENNSYLVANIA STATE UNIVERSITY:
          TZVETELIN IORDANOV, CHET SWALINA, JONATHAN SKONE,
          SHARON HAMMES-SCHIFFER
     WASEDA UNIVERSITY:
          MASATO KOBAYASHI, TOMOKO AKAMA, TSUGUKI TOUMA,
          TAKESHI YOSHIKAWA, YASUHIRO IKABATA, JUNJI SEINO,
          YUYA NAKAJIMA, HIROMI NAKAI
     NANJING UNIVERSITY: SHUHUA LI
     UNIVERSITY OF NEBRASKA:
          PEIFENG SU, DEJUN SI, NANDUN THELLAMUREGE, YALI WANG, HUI LI
     UNIVERSITY OF ZURICH: ROBERTO PEVERATI, KIM BALDRIDGE
     N. COPERNICUS UNIVERSITY AND JACKSON STATE UNIVERSITY:
          MARIA BARYSZ
     UNIVERSITY OF COPENHAGEN: Jimmy Kromann, CASPER STEINMANN
     TOKYO INSTITUTE OF TECHNOLOGY: HIROYA NAKATA
     NAGOYA UNIVERSITY: YOSHIO NISHIMOTO, STEPHAN IRLE
     MOSCOW STATE UNIVERSITY: VLADIMIR MIRONOV

 EXECUTION OF GAMESS BEGUN Thu Dec 12 13:22:37 2019

            ECHO OF THE FIRST FEW INPUT CARDS -
 INPUT CARD> $CONTRL SCFTYP=RHF DFTTYP=B3LYP RUNTYP=ENERGY                                  
 INPUT CARD>       ISPHER=1 MULT=1 COORD=ZMT NZVAR=15 $END                                  
 INPUT CARD> $BASIS GBASIS=N31 NGAUSS=6 NDFUNC=1 $END                                       
 INPUT CARD> $STATPT IFREEZ(1)=9 $END                                                       
 INPUT CARD> $DATA                                                                          
 INPUT CARD>Title Single Point Energy Calculation of Acetaldehyde                           
 INPUT CARD>C1                                                                              
 INPUT CARD>C                                                                               
 INPUT CARD>C      1   1.5086892                                                            
 INPUT CARD>O      2   1.2107245  1  124.7161                                               
 INPUT CARD>H      2   1.1145804  1  114.7739  3  180.0000  0                               
 INPUT CARD>H      1   1.0926781  2  110.5176  3  300.      0                               
 INPUT CARD>H      1   1.0983769  2  109.8265  3  121.4889  0                               
 INPUT CARD>H      1   1.0983769  2  109.8265  3 -121.4889  0                               
 INPUT CARD> $END                                                                           
    1000000 WORDS OF MEMORY AVAILABLE

     BASIS OPTIONS
     -------------
     GBASIS=N31          IGAUSS=       6      POLAR=POPN31  
     NDFUNC=       1     NFFUNC=       0     DIFFSP=       F
     NPFUNC=       0      DIFFS=       F     BASNAM=        


     RUN TITLE
     ---------
 Title Single Point Energy Calculation of Acetaldehyde                           

 THE POINT GROUP OF THE MOLECULE IS C1      
 THE ORDER OF THE PRINCIPAL AXIS IS     0

 YOUR FULLY SUBSTITUTED Z-MATRIX IS
 C   
 C      1   1.5086892
 O      2   1.2107245  1  124.7161
 H      2   1.1145804  1  114.7739  3  180.0000  0
 H      1   1.0926781  2  110.5176  3  300.0000  0
 H      1   1.0983769  2  109.8265  3  121.4889  0
 H      1   1.0983769  2  109.8265  3 -121.4889  0

 THE MOMENTS OF INERTIA ARE (AMU-ANGSTROM**2)
 IXX=     8.648   IYY=    51.372   IZZ=    55.662

 ATOM      ATOMIC                      COORDINATES (BOHR)
           CHARGE         X                   Y                   Z
 C           6.0    -2.3747504429        0.3318862051       -0.1611806531
 C           6.0     0.2425690668       -0.7677404948        0.1009511810
 O           8.0     2.1827492457        0.4347749565       -0.0549837511
 H           1.0     0.2962807729       -2.8420347233        0.4624952124
 H           1.0    -2.7015351614        1.7740383526        1.2800219155
 H           1.0    -3.3798760917       -0.6059572060       -1.7163069373
 H           1.0    -3.4691559526       -0.0365961950        1.5635636452

          INTERNUCLEAR DISTANCES (ANGS.)
          ------------------------------

                1 C          2 C          3 O          4 H          5 H     

   1 C       0.0000000    1.5086892 *  2.4129941 *  2.2198436 *  1.0926781 *
   2 C       1.5086892 *  0.0000000    1.2107245 *  1.1145804 *  2.1507392 *
   3 O       2.4129941 *  1.2107245 *  0.0000000    2.0194911 *  2.7716009 *
   4 H       2.2198436 *  1.1145804 *  2.0194911 *  0.0000000    2.9445935 *
   5 H       1.0926781 *  2.1507392 *  2.7716009 *  2.9445935 *  0.0000000  
   6 H       1.0983769 *  2.1463151 *  3.1210656    2.5522231 *  2.0564860 *
   7 H       1.0983769 *  2.1463151 *  3.1210656    2.5522231 *  1.0514574 *

                6 H          7 H     

   1 C       1.0983769 *  1.0983769 *
   2 C       2.1463151 *  2.1463151 *
   3 O       3.1210656    3.1210656  
   4 H       2.5522231 *  2.5522231 *
   5 H       2.0564860 *  1.0514574 *
   6 H       0.0000000    1.7622233 *
   7 H       1.7622233 *  0.0000000  

  * ... LESS THAN  3.000


     ATOMIC BASIS SET
     ----------------
 THE CONTRACTED PRIMITIVE FUNCTIONS HAVE BEEN UNNORMALIZED
 THE CONTRACTED BASIS FUNCTIONS ARE NOW NORMALIZED TO UNITY

  SHELL TYPE  PRIMITIVE        EXPONENT          CONTRACTION COEFFICIENT(S)

 C         

      1   S       1          3047.5248800    0.001834737132
      1   S       2           457.3695180    0.014037322813
      1   S       3           103.9486850    0.068842622264
      1   S       4            29.2101553    0.232184443216
      1   S       5             9.2866630    0.467941348435
      1   S       6             3.1639270    0.362311985337

      2   L       7             7.8682723   -0.119332419775    0.068999066591
      2   L       8             1.8812885   -0.160854151696    0.316423960957
      2   L       9             0.5442493    1.143456437840    0.744308290898

      3   L      10             0.1687145    1.000000000000    1.000000000000

      4   D      11             0.8000000    1.000000000000

 C         

      5   S      12          3047.5248800    0.001834737132
      5   S      13           457.3695180    0.014037322813
      5   S      14           103.9486850    0.068842622264
      5   S      15            29.2101553    0.232184443216
      5   S      16             9.2866630    0.467941348435
      5   S      17             3.1639270    0.362311985337

      6   L      18             7.8682723   -0.119332419775    0.068999066591
      6   L      19             1.8812885   -0.160854151696    0.316423960957
      6   L      20             0.5442493    1.143456437840    0.744308290898

      7   L      21             0.1687145    1.000000000000    1.000000000000

      8   D      22             0.8000000    1.000000000000

 O         

      9   S      23          5484.6716600    0.001831074430
      9   S      24           825.2349460    0.013950172200
      9   S      25           188.0469580    0.068445078098
      9   S      26            52.9645000    0.232714335992
      9   S      27            16.8975704    0.470192897984
      9   S      28             5.7996353    0.358520852987

     10   L      29            15.5396162   -0.110777549525    0.070874268231
     10   L      30             3.5999336   -0.148026262701    0.339752839147
     10   L      31             1.0137618    1.130767015354    0.727158577316

     11   L      32             0.2700058    1.000000000000    1.000000000000

     12   D      33             0.8000000    1.000000000000

 H         

     13   S      34            18.7311370    0.033494604338
     13   S      35             2.8253944    0.234726953484
     13   S      36             0.6401217    0.813757326146

     14   S      37             0.1612778    1.000000000000

 H         

     15   S      38            18.7311370    0.033494604338
     15   S      39             2.8253944    0.234726953484
     15   S      40             0.6401217    0.813757326146

     16   S      41             0.1612778    1.000000000000

 H         

     17   S      42            18.7311370    0.033494604338
     17   S      43             2.8253944    0.234726953484
     17   S      44             0.6401217    0.813757326146

     18   S      45             0.1612778    1.000000000000

 H         

     19   S      46            18.7311370    0.033494604338
     19   S      47             2.8253944    0.234726953484
     19   S      48             0.6401217    0.813757326146

     20   S      49             0.1612778    1.000000000000

 TOTAL NUMBER OF BASIS SET SHELLS             =   20
 NUMBER OF CARTESIAN GAUSSIAN BASIS FUNCTIONS =   53
 NOTE: THIS RUN WILL RESTRICT THE MO VARIATION SPACE TO SPHERICAL HARMONICS.
 THE NUMBER OF ORBITALS KEPT IN THE VARIATIONAL SPACE WILL BE PRINTED LATER.
 NUMBER OF ELECTRONS                          =   24
 CHARGE OF MOLECULE                           =    0
 SPIN MULTIPLICITY                            =    1
 NUMBER OF OCCUPIED ORBITALS (ALPHA)          =   12
 NUMBER OF OCCUPIED ORBITALS (BETA )          =   12
 TOTAL NUMBER OF ATOMS                        =    7
 THE NUCLEAR REPULSION ENERGY IS       69.5260368838

     LEBEDEV GRID-BASED DFT OPTIONS
     ------------------------------
     DFTTYP=B3LYP   
     NRAD  =      96     NLEB  =     302
     NRAD0 =      24     NLEB0 =     110
     SWOFF =    5.00E-03 (PURE SCF -> DFT)
     SWITCH=    3.00E-04 (COARSE -> TIGHT GRID)
     THRESH=    0.00E+00 GTHRE=    1.00E+00

 GRIMME'S EMPIRICAL DISPERSION CORRECTION= F

     $CONTRL OPTIONS
     ---------------
 SCFTYP=RHF          RUNTYP=ENERGY       EXETYP=RUN     
 MPLEVL=       0     CITYP =NONE         CCTYP =NONE         VBTYP =NONE    
 DFTTYP=B3LYP        TDDFT =NONE    
 MULT  =       1     ICHARG=       0     NZVAR =      15     COORD =ZMT     
 PP    =NONE         RELWFN=NONE         LOCAL =NONE         NUMGRD=       F
 ISPHER=       1     NOSYM =       0     MAXIT =      30     UNITS =ANGS    
 PLTORB=       F     MOLPLT=       F     AIMPAC=       F     FRIEND=        
 NPRINT=       7     IREST =       0     GEOM  =INPUT   
 NORMF =       0     NORMP =       0     ITOL  =      20     ICUT  =       9
 INTTYP=BEST         GRDTYP=BEST         QMTTOL= 1.0E-06

     $SYSTEM OPTIONS
     ---------------
  REPLICATED MEMORY=     1000000 WORDS (ON EVERY NODE).
 DISTRIBUTED MEMDDI=           0 MILLION WORDS IN AGGREGATE,
 MEMDDI DISTRIBUTED OVER   1 PROCESSORS IS           0 WORDS/PROCESSOR.
 TOTAL MEMORY REQUESTED ON EACH PROCESSOR=     1000000 WORDS.
 TIMLIM=      525600.00 MINUTES, OR     365.0 DAYS.
 PARALL= F  BALTYP=  DLB     KDIAG=    0  COREFL= F
 MXSEQ2=     300 MXSEQ3=     150  mem10=         0

          ----------------
          PROPERTIES INPUT
          ----------------

     MOMENTS            FIELD           POTENTIAL          DENSITY
 IEMOM =       1   IEFLD =       0   IEPOT =       0   IEDEN =       0
 WHERE =COMASS     WHERE =NUCLEI     WHERE =NUCLEI     WHERE =NUCLEI  
 OUTPUT=BOTH       OUTPUT=BOTH       OUTPUT=BOTH       OUTPUT=BOTH    
 IEMINT=       0   IEFINT=       0                     IEDINT=       0
                                                       MORB  =       0
          EXTRAPOLATION IN EFFECT
          DIIS IN EFFECT
 ORBITAL PRINTING OPTION: NPREO=     1    53     2     1

     -------------------------------
     INTEGRAL TRANSFORMATION OPTIONS
     -------------------------------
     NWORD  =            0
     CUTOFF = 1.0E-09     MPTRAN =       0
     DIRTRF =       F     AOINTS =DUP     

          ----------------------
          INTEGRAL INPUT OPTIONS
          ----------------------
 NOPK  =       1 NORDER=       0 SCHWRZ=       T

   --- ENCODED Z MATRIX ---
 COORD  TYPE   I   J   K   L   M   N
    1      1    2   1
    2      1    3   2
    3      2    3   2   1
    4      1    4   2
    5      2    4   2   1
    6      3    4   2   1   3
    7      1    5   1
    8      2    5   1   2
    9      3    5   1   2   3
   10      1    6   1
   11      2    6   1   2
   12      3    6   1   2   3
   13      1    7   1
   14      2    7   1   2
   15      3    7   1   2   3

 THE DETERMINANT OF THE G MATRIX IS 10**(    -8)


                     --------------------
                     INTERNAL COORDINATES
                     --------------------

                 - - ATOMS - -         COORDINATE      COORDINATE
 NO.   TYPE    I  J  K  L  M  N        (BOHR,RAD)       (ANG,DEG)
 ----------------------------------------------------------------
   1 STRETCH   2  1                     2.8510092       1.5086892
   2 STRETCH   3  2                     2.2879376       1.2107245
   3 BEND      3  2  1                  2.1767066     124.7161000
   4 STRETCH   4  2                     2.1062515       1.1145804
   5 BEND      4  2  1                  2.0031825     114.7739000
   6 TORSION   4  2  1  3               3.1415927     180.0000000
   7 STRETCH   5  1                     2.0648622       1.0926781
   8 BEND      5  1  2                  1.9288960     110.5176000
   9 TORSION   5  1  2  3              -1.0471976     -60.0000000
  10 STRETCH   6  1                     2.0756314       1.0983769
  11 BEND      6  1  2                  1.9168340     109.8265000
  12 TORSION   6  1  2  3               2.1203813     121.4889000
  13 STRETCH   7  1                     2.0756314       1.0983769
  14 BEND      7  1  2                  1.9168340     109.8265000
  15 TORSION   7  1  2  3              -2.1203813    -121.4889000

     ------------------------------------------
     THE POINT GROUP IS C1 , NAXIS= 0, ORDER= 1
     ------------------------------------------

 -- VARIATIONAL SPACE WILL BE RESTRICTED TO PURE SPHERICAL HARMONICS ONLY --
 AFTER EXCLUDING CONTAMINANT COMBINATIONS FROM THE CARTESIAN GAUSSIAN BASIS
 SET, THE NUMBER OF SPHERICAL HARMONICS KEPT IN THE VARIATION SPACE IS   50

     DIMENSIONS OF THE SYMMETRY SUBSPACES ARE
 A   =   50

 ..... DONE SETTING UP THE RUN .....
 STEP CPU TIME =     0.01 TOTAL CPU TIME =          0.0 (      0.0 MIN)
 TOTAL WALL CLOCK TIME=          0.0 SECONDS, CPU UTILIZATION IS    50.00%

          ********************
          1 ELECTRON INTEGRALS
          ********************
 ...... END OF ONE-ELECTRON INTEGRALS ......
 STEP CPU TIME =     0.00 TOTAL CPU TIME =          0.0 (      0.0 MIN)
 TOTAL WALL CLOCK TIME=          0.0 SECONDS, CPU UTILIZATION IS    50.00%

          -------------
          GUESS OPTIONS
          -------------
          GUESS =HUCKEL            NORB  =       0          NORDER=       0
          MIX   =       F          PRTMO =       F          PUNMO =       F
          TOLZ  = 1.0E-08          TOLE  = 1.0E-05
          SYMDEN=       F          PURIFY=       F

 INITIAL GUESS ORBITALS GENERATED BY HUCKEL   ROUTINE.
 HUCKEL GUESS REQUIRES     27154 WORDS.

 STATISTICS FOR GENERATION OF SYMMETRY ORBITAL -Q- MATRIX
 NUMBER OF CARTESIAN ATOMIC ORBITALS=         53
 NUMBER OF SPHERICAL CONTAMINANTS DROPPED=     3
 NUMBER OF LINEARLY DEPENDENT MOS DROPPED=     0
 TOTAL NUMBER OF MOS IN VARIATION SPACE=      50

 SYMMETRIES FOR INITIAL GUESS ORBITALS FOLLOW.   BOTH SET(S).
    12 ORBITALS ARE OCCUPIED (    3 CORE ORBITALS).
     4=A        5=A        6=A        7=A        8=A        9=A       10=A   
    11=A       12=A       13=A       14=A       15=A       16=A       17=A   
    18=A       19=A       20=A       21=A       22=A   
 ...... END OF INITIAL ORBITAL SELECTION ......
 STEP CPU TIME =     0.01 TOTAL CPU TIME =          0.0 (      0.0 MIN)
 TOTAL WALL CLOCK TIME=          0.0 SECONDS, CPU UTILIZATION IS    66.67%

                    ----------------------
                    AO INTEGRAL TECHNOLOGY
                    ----------------------
     S,P,L SHELL ROTATED AXIS INTEGRALS, REPROGRAMMED BY
        KAZUYA ISHIMURA (IMS) AND JOSE SIERRA (SYNSTAR).
     S,P,D,L SHELL ROTATED AXIS INTEGRALS PROGRAMMED BY
        KAZUYA ISHIMURA (INSTITUTE FOR MOLECULAR SCIENCE).
     S,P,D,F,G SHELL TO TOTAL QUARTET ANGULAR MOMENTUM SUM 5,
        ERIC PROGRAM BY GRAHAM FLETCHER (ELORET AND NASA ADVANCED
        SUPERCOMPUTING DIVISION, AMES RESEARCH CENTER).
     S,P,D,F,G,L SHELL GENERAL RYS QUADRATURE PROGRAMMED BY
        MICHEL DUPUIS (PACIFIC NORTHWEST NATIONAL LABORATORY).

          --------------------
          2 ELECTRON INTEGRALS
          --------------------

 THE -PK- OPTION IS OFF, THE INTEGRALS ARE NOT IN SUPERMATRIX FORM.
 STORING   15000 INTEGRALS/RECORD ON DISK, USING 12 BYTES/INTEGRAL.
 TWO ELECTRON INTEGRAL EVALUATION REQUIRES   90606 WORDS OF MEMORY.
 SCHWARZ INEQUALITY OVERHEAD:      1430 INTEGRALS, T=        0.00
 II,JST,KST,LST =  1  1  1  1 NREC =         1 INTLOC =    1
 II,JST,KST,LST =  2  1  1  1 NREC =         1 INTLOC =    2
 II,JST,KST,LST =  3  1  1  1 NREC =         1 INTLOC =   34
 II,JST,KST,LST =  4  1  1  1 NREC =         1 INTLOC =  214
 II,JST,KST,LST =  5  1  1  1 NREC =         1 INTLOC = 1189
 II,JST,KST,LST =  6  1  1  1 NREC =         1 INTLOC = 3237
 II,JST,KST,LST =  7  1  1  1 NREC =         2 INTLOC =  986
 II,JST,KST,LST =  8  1  1  1 NREC =         3 INTLOC = 8245
 II,JST,KST,LST =  9  1  1  1 NREC =         7 INTLOC = 6182
 II,JST,KST,LST = 10  1  1  1 NREC =         8 INTLOC = 3684
 II,JST,KST,LST = 11  1  1  1 NREC =        13 INTLOC = 1360
 II,JST,KST,LST = 12  1  1  1 NREC =        20 INTLOC =  131
 II,JST,KST,LST = 13  1  1  1 NREC =        34 INTLOC =11297
 II,JST,KST,LST = 14  1  1  1 NREC =        37 INTLOC =14298
 II,JST,KST,LST = 15  1  1  1 NREC =        41 INTLOC = 5888
 II,JST,KST,LST = 16  1  1  1 NREC =        44 INTLOC =14505
 II,JST,KST,LST = 17  1  1  1 NREC =        48 INTLOC =12919
 II,JST,KST,LST = 18  1  1  1 NREC =        52 INTLOC =12194
 II,JST,KST,LST = 19  1  1  1 NREC =        57 INTLOC = 2981
 II,JST,KST,LST = 20  1  1  1 NREC =        61 INTLOC = 9590
 SCHWARZ INEQUALITY TEST SKIPPED         808 INTEGRAL BLOCKS.
 TOTAL NUMBER OF NONZERO TWO-ELECTRON INTEGRALS =              983352
         66 INTEGRAL RECORDS WERE STORED ON DISK FILE  8.
  ...... END OF TWO-ELECTRON INTEGRALS .....
 STEP CPU TIME =     0.10 TOTAL CPU TIME =          0.1 (      0.0 MIN)
 TOTAL WALL CLOCK TIME=          0.1 SECONDS, CPU UTILIZATION IS    85.71%

          --------------------------
             R-B3LYP SCF CALCULATION
          --------------------------

     NUCLEAR ENERGY =        69.5260368838
     MAXIT =   30     NPUNCH=    2
     EXTRAP=T  DAMP=F  SHIFT=F  RSTRCT=F  DIIS=T  DEM=F  SOSCF=F
         DENSITY MATRIX CONVERGENCE THRESHOLD=  1.00E-05
     COARSE -> FINE DFT GRID SWITCH THRESHOLD=  3.00E-04 (SWITCH IN $DFT)
                   HF -> DFT SWITCH THRESHOLD=  5.00E-03 (SWOFF IN $DFT)
     MEMORY REQUIRED FOR RHF ITERS=    307426 WORDS.

 DFT CODE IS SWITCHING FROM THE FINE GRID NRAD= 96,  NLEB=  302
                      TO THE COARSE GRID NRAD0= 24, NLEB0=  110

     EXCHANGE FUNCTIONAL   =B88&HFX   
     CORRELATION FUNCTIONAL=LYP88&VWN5
     DFT THRESHOLD         =.197E-07
     GRID CHANGE THRESHOLD =.300E-03
 FOR AN EULER-MACLAURIN QUADRATURE USING  96 RADIAL POINTS:
 SMALLEST GAUSSIAN PRIMITIVE EXPONENT=        0.1612777588 OF TYPE -S-
 ON ATOM NUMBER   4 HAS RADIAL NORMALIZATION=  1.000000
  LARGEST GAUSSIAN PRIMITIVE EXPONENT=     5484.6716600000 OF TYPE -S-
 ON ATOM NUMBER   3 HAS RADIAL NORMALIZATION=  1.000000
 DFT IS SWITCHED OFF, PERFORMING PURE SCF UNTIL SWOFF THRESHOLD IS REACHED.

 ITER EX DEM     TOTAL ENERGY        E CHANGE  DENSITY CHANGE    DIIS ERROR
   1  0  0     -152.3318612537  -152.3318612537   0.258766168   0.523584181
          * * *   INITIATING DIIS PROCEDURE   * * *
   2  1  0     -152.7515493010    -0.4196880473   0.138432994   0.095743127
   3  2  0     -152.7820466700    -0.0304973690   0.070620171   0.075378926
   4  3  0     -152.8048214137    -0.0227747437   0.017473050   0.007053393
   5  4  0     -152.8056314183    -0.0008100046   0.006059259   0.002937558
   6  5  0     -152.8057047845    -0.0000733662   0.002527907   0.000841131
 CONVERGED TO SWOFF, SO DFT CALCULATION IS NOW SWITCHED ON.
          * * *   INITIATING DIIS PROCEDURE   * * *
   7  6  0     -153.6278837424    -0.8221789579   0.076668115   0.050129001
   8  7  0     -153.6384437865    -0.0105600441   0.055702073   0.027201039
   9  8  0     -153.6360027459     0.0024410406   0.042302419   0.036998452
  10  9  0     -153.6417700715    -0.0057673256   0.007616715   0.009228781
  11 10  0     -153.6419664560    -0.0001963846   0.001503110   0.000796968
  12 11  0     -153.6419707163    -0.0000042602   0.000264056   0.000204075
 DFT CODE IS SWITCHING BACK TO THE FINE GRID
          * * *   INITIATING DIIS PROCEDURE   * * *
  13 12  0     -153.6413302149     0.0006405014   0.002132055   0.001828658
  14 13  0     -153.6413384833    -0.0000082683   0.000816854   0.000260575
  15 14  0     -153.6413379848     0.0000004985   0.000491340   0.000417302
  16 15  0     -153.6413388373    -0.0000008525   0.000069453   0.000054488
  17 16  0     -153.6413388462    -0.0000000089   0.000027592   0.000023439
  18 17  0     -153.6413388479    -0.0000000016   0.000008823   0.000005512
  19 18  0     -153.6413388480    -0.0000000001   0.000001283   0.000001306

          -----------------
          DENSITY CONVERGED
          -----------------
     TIME TO FORM FOCK OPERATORS=       4.9 SECONDS (       0.3 SEC/ITER)
     TIME TO SOLVE SCF EQUATIONS=       0.0 SECONDS (       0.0 SEC/ITER)

 FINAL R-B3LYP ENERGY IS     -153.6413388480 AFTER  19 ITERATIONS
 DFT EXCHANGE + CORRELATION ENERGY =       -16.8155557483
 TOTAL ELECTRON NUMBER             =        23.9999896204

          ------------
          EIGENVECTORS
          ------------

                      1          2          3          4          5
                  -19.1421   -10.2712   -10.1879    -1.0402    -0.7785
                     A          A          A          A          A   
    1  C  1  S   -0.000002   0.000963   0.995147  -0.018169  -0.177332
    2  C  1  S   -0.000439  -0.000996   0.036229   0.034952   0.344923
    3  C  1  X   -0.000254  -0.000945  -0.000214   0.024356  -0.011390
    4  C  1  Y    0.000091   0.000381  -0.000618  -0.004654  -0.019043
    5  C  1  Z    0.000014  -0.000002   0.001086   0.004688   0.096821
    6  C  1  S    0.000447   0.005522  -0.028441   0.016643   0.280569
    7  C  1  X   -0.001177   0.002732  -0.000792   0.004853  -0.009421
    8  C  1  Y   -0.001727  -0.002054   0.002632   0.006516  -0.009834
    9  C  1  Z   -0.000147   0.000180  -0.002663   0.002178   0.029418
   10  C  1 XX   -0.000370  -0.000996  -0.000004   0.004693  -0.003860
   11  C  1 YY    0.000354   0.000293  -0.000042  -0.003054  -0.009295
   12  C  1 ZZ    0.000016   0.000703   0.000046  -0.001639   0.013155
   13  C  1 XY   -0.000169   0.000681  -0.000014  -0.001964  -0.003652
   14  C  1 XZ    0.000042  -0.000181  -0.000029   0.000559  -0.006385
   15  C  1 YZ   -0.000105   0.000170   0.000270   0.000900   0.012770
   16  C  2  S    0.000230   0.995150  -0.000918  -0.117337  -0.062102
   17  C  2  S    0.000032   0.035747  -0.001165   0.223923   0.123419
   18  C  2  X   -0.000048   0.001702   0.000454   0.155092  -0.155422
   19  C  2  Y   -0.000233   0.001330  -0.000426   0.099771  -0.003089
   20  C  2  Z    0.000037  -0.000205   0.000098  -0.012676   0.005686
   21  C  2  S    0.008929  -0.016139   0.005933   0.085259   0.095007
   22  C  2  X    0.005216   0.005863  -0.004145  -0.013275  -0.029904
   23  C  2  Y    0.005194   0.002475   0.001120  -0.017551  -0.005954
   24  C  2  Z   -0.000651  -0.000233   0.000116   0.002731   0.001342
   25  C  2 XX   -0.000536   0.001324  -0.000884   0.016459   0.004091
   26  C  2 YY    0.000261  -0.000157   0.000438  -0.001411   0.000132
   27  C  2 ZZ    0.000275  -0.001167   0.000446  -0.015047  -0.004223
   28  C  2 XY   -0.000794   0.001277   0.000697   0.022535  -0.012415
   29  C  2 XZ    0.000097  -0.000149  -0.000228  -0.002812   0.001201
   30  C  2 YZ   -0.000007  -0.000170   0.000046  -0.002032  -0.000309
   31  O  3  S    0.995115  -0.000048  -0.000024  -0.194515   0.045371
   32  O  3  S    0.029444   0.000450  -0.000587   0.429513  -0.103695
   33  O  3  X   -0.001952   0.000962   0.000155  -0.139040  -0.007966
   34  O  3  Y   -0.001197   0.000534  -0.000028  -0.085589   0.016165
   35  O  3  Z    0.000173  -0.000059   0.000042   0.011592  -0.000326
   36  O  3  S   -0.019466  -0.005846   0.001529   0.375154  -0.104594
   37  O  3  X    0.005088   0.003655  -0.000380  -0.041076  -0.006965
   38  O  3  Y    0.002766   0.002724  -0.000567  -0.024129   0.002548
   39  O  3  Z   -0.000381  -0.000393  -0.000063   0.003699   0.000458
   40  O  3 XX   -0.000184  -0.001100   0.000006   0.005863   0.002378
   41  O  3 YY    0.000105  -0.000001   0.000217  -0.002966  -0.001304
   42  O  3 ZZ    0.000078   0.001101  -0.000223  -0.002896  -0.001075
   43  O  3 XY   -0.000117  -0.001506   0.000098   0.010066  -0.000329
   44  O  3 XZ    0.000016   0.000191   0.000002  -0.001606  -0.000102
   45  O  3 YZ   -0.000004   0.000181  -0.000074   0.000233  -0.000098
   46  H  4  S   -0.000229  -0.000975  -0.000460   0.027932   0.038557
   47  H  4  S    0.001220   0.004929   0.000681  -0.011784   0.003980
   48  H  5  S    0.000111  -0.000425  -0.000834   0.008238   0.161786
   49  H  5  S    0.000402   0.000844   0.003422  -0.000511   0.041148
   50  H  6  S   -0.000091  -0.000502  -0.000874   0.005529   0.095721
   51  H  6  S   -0.000730   0.000571   0.004879   0.001110   0.020650
   52  H  7  S   -0.000002  -0.000432  -0.000580   0.007256   0.169832
   53  H  7  S   -0.000593   0.000431   0.005246  -0.000464   0.041849

                      6          7          8          9         10
                   -0.5969    -0.5014    -0.4698    -0.4231    -0.3734
                     A          A          A          A          A   
    1  C  1  S    0.025483   0.060745   0.006718   0.005994  -0.006946
    2  C  1  S   -0.055760  -0.115945  -0.010286  -0.018904   0.011401
    3  C  1  X    0.171402  -0.019502   0.272352   0.187118  -0.057176
    4  C  1  Y   -0.132994   0.144756   0.083568  -0.050919  -0.092022
    5  C  1  Z   -0.130967   0.308824   0.087658   0.099327  -0.070691
    6  C  1  S   -0.048458  -0.168138  -0.019673   0.009268   0.025530
    7  C  1  X    0.051791   0.003869   0.118714   0.098893  -0.030409
    8  C  1  Y   -0.034984   0.056505   0.050134  -0.038360  -0.051115
    9  C  1  Z   -0.036827   0.113815   0.041432   0.048627  -0.025786
   10  C  1 XX    0.009625  -0.006738   0.008414  -0.000195   0.001537
   11  C  1 YY    0.004838  -0.000789  -0.002779   0.003260  -0.001716
   12  C  1 ZZ   -0.014463   0.007527  -0.005635  -0.003065   0.000179
   13  C  1 XY   -0.007027  -0.007782  -0.007390  -0.009244   0.007324
   14  C  1 XZ    0.012881  -0.014194   0.002846   0.002664   0.013075
   15  C  1 YZ   -0.008274  -0.005910  -0.002149  -0.008205  -0.003579
   16  C  2  S   -0.139665  -0.038951  -0.038102   0.012360   0.003183
   17  C  2  S    0.292406   0.084204   0.089455  -0.038788  -0.006426
   18  C  2  X   -0.103624   0.123410  -0.112254  -0.343153   0.028320
   19  C  2  Y   -0.161413  -0.157054   0.337987  -0.102005   0.088114
   20  C  2  Z   -0.004759   0.138144  -0.018056   0.080809   0.324794
   21  C  2  S    0.261498   0.084510   0.049803   0.010674  -0.017825
   22  C  2  X   -0.053595   0.026186  -0.058507  -0.060236   0.002041
   23  C  2  Y   -0.074668  -0.059835   0.088969  -0.006233   0.047746
   24  C  2  Z    0.002344   0.060360   0.006719   0.042001   0.196902
   25  C  2 XX   -0.007687  -0.005568  -0.001857  -0.009212   0.003107
   26  C  2 YY    0.011184   0.008833   0.000669   0.007389  -0.000008
   27  C  2 ZZ   -0.003497  -0.003265   0.001187   0.001823  -0.003098
   28  C  2 XY   -0.006507  -0.001367   0.000172  -0.011047   0.007833
   29  C  2 XZ    0.003963  -0.004746  -0.000855   0.002547   0.024047
   30  C  2 YZ   -0.004713   0.002481   0.002124   0.001538   0.013738
   31  O  3  S    0.071934   0.030594   0.042679  -0.069803   0.004852
   32  O  3  S   -0.170407  -0.069693  -0.098845   0.151451  -0.009369
   33  O  3  X   -0.070516  -0.021821  -0.278916   0.354859  -0.062384
   34  O  3  Y   -0.082743  -0.136030   0.106472   0.317553   0.048318
   35  O  3  Z   -0.001504   0.092949   0.007384   0.027978   0.488835
   36  O  3  S   -0.191351  -0.108005  -0.148463   0.299718  -0.026267
   37  O  3  X   -0.046340  -0.009476  -0.153117   0.182892  -0.034307
   38  O  3  Y   -0.044199  -0.069506   0.059892   0.171354   0.031469
   39  O  3  Z   -0.000435   0.047363   0.002718   0.016988   0.305417
   40  O  3 XX    0.002568  -0.004480   0.019906  -0.007755   0.002292
   41  O  3 YY    0.002636   0.006579  -0.014390  -0.003376  -0.005253
   42  O  3 ZZ   -0.005204  -0.002099  -0.005516   0.011131   0.002961
   43  O  3 XY    0.007875   0.007220  -0.001170  -0.017460  -0.002201
   44  O  3 XZ    0.000205  -0.006529  -0.001348  -0.001862  -0.026485
   45  O  3 YZ   -0.000750  -0.004575   0.000650  -0.000065  -0.016112
   46  H  4  S    0.180691   0.128843  -0.137591   0.050283  -0.025632
   47  H  4  S    0.076322   0.078860  -0.120991   0.054257  -0.021381
   48  H  5  S   -0.154216   0.143095   0.025814  -0.018972  -0.077072
   49  H  5  S   -0.077728   0.083716   0.024693  -0.007716  -0.058113
   50  H  6  S    0.010010  -0.218099  -0.147226  -0.106435   0.095786
   51  H  6  S    0.009565  -0.137593  -0.095362  -0.083783   0.085483
   52  H  7  S   -0.134397   0.111163  -0.064748  -0.019605  -0.017005
   53  H  7  S   -0.068091   0.088169  -0.056854  -0.015344  -0.016586

                     11         12         13         14         15
                   -0.2910    -0.2489    -0.0216     0.0729     0.1093
                     A          A          A          A          A   
    1  C  1  S   -0.037794   0.035025  -0.014995  -0.133852   0.024746
    2  C  1  S    0.083966  -0.068911   0.011790   0.172603   0.003178
    3  C  1  X    0.107746  -0.201329  -0.017846  -0.163957   0.134634
    4  C  1  Y    0.400157   0.112062   0.032434   0.111952   0.148838
    5  C  1  Z   -0.201777  -0.054543  -0.001641   0.037836  -0.290163
    6  C  1  S    0.122673  -0.263943   0.183010   1.956140  -0.716939
    7  C  1  X    0.037453  -0.155844  -0.010221  -0.460906   0.215528
    8  C  1  Y    0.231841   0.106736   0.102354   0.243306   0.289849
    9  C  1  Z   -0.138262  -0.061257   0.127154   0.213388  -0.912395
   10  C  1 XX   -0.004967  -0.002342  -0.001510   0.009986   0.013673
   11  C  1 YY    0.009765   0.003951  -0.002578  -0.009007  -0.010842
   12  C  1 ZZ   -0.004798  -0.001609   0.004088  -0.000979  -0.002830
   13  C  1 XY   -0.008438   0.005025   0.007148  -0.001135   0.005757
   14  C  1 XZ    0.013049  -0.002427   0.030914  -0.017795  -0.004534
   15  C  1 YZ    0.026119   0.004255  -0.006502  -0.008862  -0.024902
   16  C  2  S    0.003760   0.000600   0.002932   0.005738   0.014088
   17  C  2  S   -0.014542  -0.015128  -0.007626   0.031017  -0.053011
   18  C  2  X    0.016922   0.082189  -0.000320   0.014322  -0.002059
   19  C  2  Y   -0.077295  -0.126652   0.081119  -0.025554   0.131914
   20  C  2  Z    0.021801   0.019556   0.496905  -0.010819   0.035411
   21  C  2  S    0.056967   0.047640  -0.022670  -0.145591   0.001726
   22  C  2  X    0.053175  -0.066668   0.000671   0.053180   0.018895
   23  C  2  Y   -0.005949   0.033823   0.089486  -0.042485   0.388740
   24  C  2  Z    0.007715  -0.012411   0.534264  -0.058477   0.188063
   25  C  2 XX   -0.006693  -0.039745   0.000010   0.001196  -0.006036
   26  C  2 YY    0.007740   0.040694  -0.003647   0.006883   0.000569
   27  C  2 ZZ   -0.001047  -0.000949   0.003637  -0.008079   0.005467
   28  C  2 XY   -0.016737   0.017642  -0.004634  -0.005638  -0.011344
   29  C  2 XZ    0.012622  -0.002299  -0.024274   0.002474   0.006037
   30  C  2 YZ    0.000771  -0.007323  -0.016827  -0.007729  -0.014199
   31  O  3  S    0.003979   0.000732   0.000458  -0.004136   0.013678
   32  O  3  S   -0.009004  -0.004282  -0.000534   0.010397  -0.025634
   33  O  3  X    0.148103  -0.292426   0.011506  -0.022003   0.065603
   34  O  3  Y   -0.059819   0.484668  -0.068001   0.031579  -0.036901
   35  O  3  Z    0.113298  -0.070690  -0.425306   0.031814  -0.017024
   36  O  3  S   -0.046437   0.008810  -0.005915   0.039104  -0.199328
   37  O  3  X    0.106224  -0.208716   0.013086  -0.041606   0.134445
   38  O  3  Y   -0.030157   0.343148  -0.070444   0.021459  -0.046809
   39  O  3  Z    0.080717  -0.047502  -0.441743   0.028635  -0.070980
   40  O  3 XX   -0.007537   0.013400   0.000013   0.002903  -0.002506
   41  O  3 YY    0.006270  -0.013200   0.000241  -0.000104   0.000718
   42  O  3 ZZ    0.001267  -0.000200  -0.000254  -0.002800   0.001787
   43  O  3 XY   -0.001269  -0.007962  -0.000333   0.001194  -0.004499
   44  O  3 XZ   -0.003974   0.000856  -0.000214   0.000728   0.004764
   45  O  3 YZ   -0.003780   0.002205  -0.000406  -0.002683  -0.003267
   46  H  4  S    0.057183   0.184291   0.009356   0.049062   0.019959
   47  H  4  S    0.064327   0.296703   0.025500   0.059378   0.518767
   48  H  5  S    0.171034   0.039663  -0.035522  -0.130245  -0.163001
   49  H  5  S    0.287352   0.087707  -0.185015  -1.289259  -0.401118
   50  H  6  S    0.020919   0.041316   0.087941  -0.125826  -0.085363
   51  H  6  S    0.035624   0.075356   0.218534  -0.989138  -0.415579
   52  H  7  S   -0.216657   0.001274  -0.096305   0.048648   0.134052
   53  H  7  S   -0.340476   0.021722  -0.228080  -0.483271   1.840327

                     16         17         18         19         20
                    0.1341     0.1769     0.2576     0.2889     0.5273
                     A          A          A          A          A   
    1  C  1  S    0.030970   0.045334  -0.075011  -0.025309   0.010318
    2  C  1  S   -0.013143  -0.062259   0.045818   0.050789  -0.017354
    3  C  1  X   -0.150359   0.050061   0.126701   0.185709  -0.425652
    4  C  1  Y   -0.030138   0.293829  -0.073340   0.122730   0.540968
    5  C  1  Z   -0.176210   0.244485  -0.026842  -0.049102  -0.304515
    6  C  1  S   -0.546116  -0.656981   1.711271  -0.144668  -0.039015
    7  C  1  X   -0.518379   0.159895   1.668922   0.713717   0.473315
    8  C  1  Y    0.026973   1.165800  -0.570412   0.544300  -0.544022
    9  C  1  Z   -0.699997   0.973699   0.028835  -0.060930   0.323337
   10  C  1 XX    0.009165   0.005822  -0.032335  -0.037214  -0.001392
   11  C  1 YY    0.000681  -0.016110  -0.004800   0.026971  -0.000879
   12  C  1 ZZ   -0.009846   0.010288   0.037135   0.010243   0.002271
   13  C  1 XY   -0.013432  -0.003303   0.022462  -0.007921   0.004969
   14  C  1 XZ    0.000963  -0.008720   0.000379   0.001018   0.019374
   15  C  1 YZ   -0.005620  -0.007978   0.010588   0.000374   0.054188
   16  C  2  S   -0.112041  -0.061219   0.047182   0.063739  -0.039576
   17  C  2  S    0.159676   0.068666  -0.095957  -0.040477   0.035053
   18  C  2  X   -0.072097  -0.014922   0.383488   0.041386   0.020599
   19  C  2  Y   -0.262632  -0.070012  -0.292669  -0.270194  -0.004204
   20  C  2  Z    0.080751  -0.008792   0.053109   0.072827  -0.632154
   21  C  2  S    1.794081   1.058913  -0.844952  -1.777831  -0.145034
   22  C  2  X   -0.276127  -0.074451   1.814330  -1.455437  -0.134166
   23  C  2  Y   -0.543040  -0.308559  -0.739337  -1.445397   0.185316
   24  C  2  Z    0.268371  -0.235843   0.224494   0.215338   0.646789
   25  C  2 XX   -0.003234  -0.014911  -0.004642   0.000330  -0.069086
   26  C  2 YY   -0.003968   0.006571   0.002869   0.010215   0.007587
   27  C  2 ZZ    0.007202   0.008340   0.001773  -0.010545   0.061499
   28  C  2 XY    0.003610  -0.013082  -0.010221  -0.000587   0.024105
   29  C  2 XZ    0.001718  -0.004238   0.004236   0.003779  -0.009013
   30  C  2 YZ   -0.003733   0.005450  -0.003429  -0.009369   0.002757
   31  O  3  S    0.007926   0.018797   0.031620  -0.098782   0.008321
   32  O  3  S   -0.020304  -0.044979  -0.047718   0.139463  -0.040592
   33  O  3  X    0.032434   0.078750  -0.055980  -0.150984   0.079352
   34  O  3  Y    0.079386   0.059290   0.143142  -0.071256  -0.009705
   35  O  3  Z   -0.043018   0.041088  -0.026773   0.013680  -0.034233
   36  O  3  S   -0.055965  -0.178040  -0.638533   2.034170   0.039619
   37  O  3  X    0.027069   0.118155  -0.008950  -0.811432   0.061682
   38  O  3  Y    0.140338   0.109699   0.442427  -0.386933  -0.061502
   39  O  3  Z   -0.083483   0.068550  -0.088915   0.037607  -0.048458
   40  O  3 XX   -0.004734  -0.002040  -0.012236   0.022983   0.014752
   41  O  3 YY   -0.001253  -0.000945   0.009343   0.003666  -0.007854
   42  O  3 ZZ    0.005988   0.002985   0.002893  -0.026649  -0.006898
   43  O  3 XY    0.003434  -0.001912  -0.011864   0.039172   0.019615
   44  O  3 XZ    0.000842  -0.002392   0.003088  -0.004989   0.033768
   45  O  3 YZ    0.000585   0.000273  -0.001930  -0.007471   0.026009
   46  H  4  S   -0.076608  -0.033903   0.010252   0.072709  -0.077131
   47  H  4  S   -1.638952  -0.723786  -0.807555  -0.634374   0.028854
   48  H  5  S   -0.020195  -0.054908   0.028331   0.074325   0.184408
   49  H  5  S    0.502619  -1.643157  -0.070018  -0.488564  -0.235203
   50  H  6  S   -0.030762  -0.010697   0.098533  -0.015937   0.235319
   51  H  6  S   -0.764479   1.744269   0.007645   0.334487  -0.048047
   52  H  7  S    0.003035   0.064440   0.107854  -0.005817  -0.140033
   53  H  7  S    0.304097   0.483071   0.275481   0.643017   0.118900

                     21         22         23         24         25
                    0.5444     0.5774     0.6714     0.6806     0.7155
                     A          A          A          A          A   
    1  C  1  S   -0.022158  -0.014043  -0.002634  -0.052296  -0.016756
    2  C  1  S    0.152336   0.254487  -0.119416  -0.029135  -0.074377
    3  C  1  X    0.601181   0.554232  -0.188614   0.186518  -0.005654
    4  C  1  Y   -0.285503   0.344514   0.142354   0.203947   0.099547
    5  C  1  Z    0.101025  -0.440102   0.207141   0.134749  -0.334417
    6  C  1  S    0.100487   0.378152   0.856164  -0.472630  -0.128625
    7  C  1  X   -0.748731  -0.655654   0.688888  -1.161465  -0.566229
    8  C  1  Y    0.354701  -0.539511  -0.367852  -0.485396  -0.119425
    9  C  1  Z    0.013889   0.874827  -0.660179  -0.325893   1.118409
   10  C  1 XX    0.015746   0.029197  -0.020084  -0.074375   0.004440
   11  C  1 YY    0.007029   0.009008   0.048235   0.093561   0.019824
   12  C  1 ZZ   -0.022775  -0.038205  -0.028151  -0.019187  -0.024264
   13  C  1 XY   -0.000344  -0.023865  -0.098445   0.024134   0.050193
   14  C  1 XZ    0.014692   0.039266  -0.011858  -0.008287   0.034126
   15  C  1 YZ   -0.016382   0.064053  -0.018515  -0.037563  -0.023531
   16  C  2  S    0.036852   0.004905   0.035501  -0.019706   0.039455
   17  C  2  S    0.060529   0.256324  -0.522587  -0.551732  -0.322293
   18  C  2  X    0.000157  -0.125624  -0.727509   0.701770  -0.273901
   19  C  2  Y   -0.225235   0.168567  -0.030005  -0.200811  -0.801694
   20  C  2  Z   -0.714558   0.311989  -0.066946   0.062209   0.193162
   21  C  2  S    0.194694   0.018801  -0.012933   1.742074   0.157750
   22  C  2  X    0.228340   0.757787   1.234579  -0.907316   0.010201
   23  C  2  Y    0.198990  -0.132627  -0.893318   0.856667   1.870133
   24  C  2  Z    0.829808  -0.605729   0.467604  -0.112868  -0.721181
   25  C  2 XX    0.071586   0.028939   0.069492   0.036110   0.050178
   26  C  2 YY   -0.003170   0.010160  -0.078117  -0.096213   0.024314
   27  C  2 ZZ   -0.068416  -0.039099   0.008625   0.060103  -0.074491
   28  C  2 XY   -0.039666  -0.031368   0.126980   0.005787   0.073488
   29  C  2 XZ   -0.002905   0.012146  -0.007488  -0.004668  -0.034993
   30  C  2 YZ   -0.024413   0.007614   0.000549   0.032624   0.018279
   31  O  3  S   -0.008361   0.002517  -0.027254   0.033733  -0.016001
   32  O  3  S    0.066872   0.058206   0.106618  -0.132236   0.077082
   33  O  3  X   -0.101893  -0.120325  -0.362509  -0.005556  -0.125128
   34  O  3  Y    0.044955   0.176493   0.022606   0.050408  -0.335832
   35  O  3  Z   -0.054937  -0.004726  -0.029350  -0.015388   0.079335
   36  O  3  S   -0.175528  -0.411600  -0.161391  -0.344738  -0.480630
   37  O  3  X   -0.015357   0.090341  -0.210286   0.412112   0.014582
   38  O  3  Y    0.045635   0.109328   0.011239   0.106418  -0.108201
   39  O  3  Z   -0.086997   0.074463  -0.056174  -0.014590   0.087337
   40  O  3 XX   -0.021471  -0.005756  -0.060109  -0.048324  -0.094822
   41  O  3 YY    0.025959   0.003063  -0.005923   0.030163   0.035982
   42  O  3 ZZ   -0.004488   0.002693   0.066032   0.018161   0.058841
   43  O  3 XY   -0.000361   0.004232  -0.093158   0.045095  -0.083650
   44  O  3 XZ    0.044334  -0.027971   0.021630  -0.008970  -0.004336
   45  O  3 YZ    0.023097  -0.004420   0.002835  -0.003579   0.019557
   46  H  4  S    0.089573  -0.036173  -0.438633  -0.531463   0.140345
   47  H  4  S   -0.018171  -0.067859  -0.381924   0.555617   0.968859
   48  H  5  S   -0.154366   0.234351   0.101577  -0.129881  -0.261121
   49  H  5  S   -0.103287  -0.258696   0.121969   0.409612  -0.141148
   50  H  6  S   -0.016424   0.134319  -0.243841  -0.429703   0.023278
   51  H  6  S    0.108997  -0.135871  -0.054111  -0.402146   0.292811
   52  H  7  S   -0.137065  -0.277389  -0.109640  -0.357497  -0.099204
   53  H  7  S   -0.110653  -0.099223   0.405893  -0.300548  -0.507756

                     26         27         28         29         30
                    0.7940     0.8146     0.8549     0.8731     0.9100
                     A          A          A          A          A   
    1  C  1  S   -0.039843  -0.006607  -0.038737   0.033028   0.022612
    2  C  1  S   -0.115251   0.183040   0.470823  -0.447383  -1.009488
    3  C  1  X   -0.210784   0.188636  -0.112546   0.192504   0.407855
    4  C  1  Y   -0.360282   0.616178   0.264043  -0.223644   0.178458
    5  C  1  Z   -0.816978  -0.068516   0.324595  -0.388068   0.052780
    6  C  1  S    0.777585  -0.146140  -0.884000   0.239749   1.683225
    7  C  1  X    0.789200  -0.284204   0.033925  -0.716304  -0.946524
    8  C  1  Y    1.415193  -1.565959  -0.288216   0.401305  -0.240395
    9  C  1  Z    2.313390  -0.555295  -0.360750   0.352615  -0.063985
   10  C  1 XX    0.016819   0.057998   0.025533  -0.093437  -0.039292
   11  C  1 YY    0.015147  -0.069554   0.002517   0.023329  -0.034121
   12  C  1 ZZ   -0.031966   0.011556  -0.028049   0.070109   0.073413
   13  C  1 XY    0.000371  -0.002431   0.059726  -0.029779   0.091393
   14  C  1 XZ    0.008805  -0.153823   0.085276  -0.113200   0.010862
   15  C  1 YZ   -0.107031  -0.091915  -0.041804   0.071077   0.026859
   16  C  2  S   -0.001552   0.006807   0.044858   0.026633  -0.022236
   17  C  2  S   -0.349267   0.225814  -0.778396  -0.497479  -1.098827
   18  C  2  X    0.013670  -0.065518   0.058555   0.174983  -0.018286
   19  C  2  Y    0.317601  -0.015329   0.493643   0.202635   0.090809
   20  C  2  Z   -0.068398  -0.029288  -0.046029  -0.066045  -0.017069
   21  C  2  S   -0.001758  -0.487092   1.939916   2.219443   1.319387
   22  C  2  X    0.005945   0.368564   0.102372  -0.267084  -0.407197
   23  C  2  Y   -1.779873   0.426745  -0.786036   0.210428  -0.397311
   24  C  2  Z   -0.233791   0.217888   0.044613   0.062579   0.069141
   25  C  2 XX   -0.020210  -0.026848  -0.013789   0.040278  -0.117641
   26  C  2 YY   -0.005737   0.036010   0.112982  -0.001173   0.030994
   27  C  2 ZZ    0.025947  -0.009162  -0.099193  -0.039105   0.086647
   28  C  2 XY   -0.030732  -0.007524   0.025770   0.149290  -0.054632
   29  C  2 XZ   -0.029781   0.058729  -0.060908   0.051983  -0.008979
   30  C  2 YZ    0.056168  -0.050849   0.002320  -0.060878   0.017265
   31  O  3  S   -0.013633  -0.003159   0.008364   0.039148  -0.033965
   32  O  3  S    0.001381   0.046463  -0.007538  -0.164090   0.131062
   33  O  3  X    0.082662  -0.034027  -0.166398  -0.369991   0.309874
   34  O  3  Y    0.129364   0.001337  -0.155021  -0.333843   0.183140
   35  O  3  Z   -0.011366  -0.249526   0.094999  -0.045039   0.032711
   36  O  3  S    0.571492  -0.186003  -0.319209  -0.547864   0.191018
   37  O  3  X   -0.366113   0.037159   0.322610   0.869975  -0.672326
   38  O  3  Y    0.010500  -0.022125   0.301328   0.503276  -0.402930
   39  O  3  Z    0.099161   0.167800  -0.077660  -0.014210  -0.008097
   40  O  3 XX    0.035793   0.001812   0.014499  -0.020271   0.000167
   41  O  3 YY    0.001826  -0.006560  -0.038904  -0.032124  -0.025906
   42  O  3 ZZ   -0.037619   0.004748   0.024405   0.052394   0.025739
   43  O  3 XY    0.000368   0.011476  -0.048454  -0.051032  -0.013775
   44  O  3 XZ   -0.019605  -0.007014   0.007424   0.007535   0.002969
   45  O  3 YZ    0.030629  -0.012156   0.023688  -0.000633   0.011302
   46  H  4  S   -0.162336   0.147871   0.675049   0.283150   0.064600
   47  H  4  S   -0.920498   0.107656  -1.590794  -0.581178  -0.675897
   48  H  5  S   -0.422783  -0.391023  -0.468947   0.609572  -0.012842
   49  H  5  S   -0.824855   1.916536   0.776134  -0.952544  -0.046413
   50  H  6  S   -0.350487  -0.406119   0.051899  -0.166285   0.436783
   51  H  6  S    1.807084  -0.062438  -0.165851   0.084354  -1.217395
   52  H  7  S    0.078268   0.751774  -0.393618   0.324120   0.290660
   53  H  7  S   -0.688719  -1.479103   0.416320  -0.497747  -0.957263

                     31         32         33         34         35
                    0.9543     1.0085     1.0686     1.0891     1.5123
                     A          A          A          A          A   
    1  C  1  S    0.011946   0.005416  -0.071740  -0.013214   0.002090
    2  C  1  S   -0.555847  -0.115298  -1.732665  -0.370408   0.043202
    3  C  1  X    0.136050   0.012055  -0.077679   0.085278   0.024679
    4  C  1  Y    0.210537  -0.043174   0.092199   0.148552   0.015902
    5  C  1  Z    0.065697   0.079979   0.019091   0.018940  -0.063035
    6  C  1  S    1.235634   0.211730   5.025673   2.107365  -0.070399
    7  C  1  X    0.136920   0.087039   0.984534   0.685493  -0.097396
    8  C  1  Y    0.108586   0.566694  -1.138769  -0.498945  -0.312396
    9  C  1  Z    0.270350   0.350574   0.284369  -0.020263  -0.137243
   10  C  1 XX   -0.032677  -0.020549   0.045488   0.044404  -0.059163
   11  C  1 YY   -0.037140   0.002655   0.162611   0.044549  -0.098188
   12  C  1 ZZ    0.069817   0.017894  -0.208099  -0.088952   0.157351
   13  C  1 XY    0.009061   0.014463   0.075594  -0.035149  -0.048469
   14  C  1 XZ    0.115802   0.107370   0.024429  -0.001811   0.069773
   15  C  1 YZ   -0.088572   0.016392  -0.094599  -0.028840  -0.179160
   16  C  2  S    0.008012  -0.001443   0.029748   0.011494   0.000921
   17  C  2  S    0.473347  -0.021201   0.794921   0.251064   0.054985
   18  C  2  X    0.035438   0.010170  -0.065032  -0.160196  -0.013526
   19  C  2  Y    0.021184   0.049531   0.000210   0.277160   0.027228
   20  C  2  Z   -0.021036   0.111214   0.004483  -0.058290   0.171480
   21  C  2  S   -0.536777   0.169776  -3.375119  -1.033815  -0.117478
   22  C  2  X    0.076867  -0.143071   1.583236   1.465445   0.104554
   23  C  2  Y   -0.451618  -0.515741  -0.363463  -1.729855   0.211736
   24  C  2  Z    0.038238  -0.681091   0.034628   0.390838  -0.105427
   25  C  2 XX    0.059059   0.028177  -0.082381   0.115397   0.017229
   26  C  2 YY   -0.027979  -0.016150   0.170652  -0.095044  -0.170412
   27  C  2 ZZ   -0.031080  -0.012027  -0.088271  -0.020353   0.153183
   28  C  2 XY    0.083025   0.000644   0.008042  -0.059450  -0.052633
   29  C  2 XZ   -0.093622  -0.121274  -0.028038   0.023733  -0.441656
   30  C  2 YZ    0.070407   0.065386  -0.043806   0.006567  -0.451765
   31  O  3  S    0.023446   0.002408   0.013672   0.001756   0.002544
   32  O  3  S   -0.154733  -0.032336  -0.197284  -0.020513  -0.020934
   33  O  3  X   -0.412444  -0.051574  -0.025167   0.430621   0.029228
   34  O  3  Y   -0.047317  -0.199348   0.112519  -0.674754   0.023271
   35  O  3  Z    0.319995  -0.823263  -0.082334   0.154598   0.126662
   36  O  3  S    0.178876   0.154360   0.306799   0.071484  -0.065835
   37  O  3  X    0.594038   0.037087  -0.105553  -0.847288  -0.025188
   38  O  3  Y    0.258510   0.333849  -0.099378   1.311385   0.007297
   39  O  3  Z   -0.370372   1.197416   0.119800  -0.297092   0.101529
   40  O  3 XX    0.006256  -0.004056   0.094711  -0.065354  -0.040842
   41  O  3 YY    0.022377   0.023222   0.003646   0.096144   0.020185
   42  O  3 ZZ   -0.028633  -0.019166  -0.098357  -0.030789   0.020658
   43  O  3 XY    0.006069   0.005281  -0.026747   0.051655   0.090245
   44  O  3 XZ   -0.008364   0.028959   0.017743  -0.011234   0.462640
   45  O  3 YZ    0.016488   0.045955  -0.012985  -0.029841   0.167724
   46  H  4  S   -0.394810  -0.175220   0.305939  -0.133616   0.083361
   47  H  4  S    0.212800  -0.079055  -0.059422  -0.801735   0.101203
   48  H  5  S   -0.515285  -0.169522  -0.053755  -0.037619   0.171322
   49  H  5  S    0.300641  -0.413570  -0.170439   0.150949   0.216884
   50  H  6  S    0.580235   0.379408  -0.391673  -0.053487  -0.121140
   51  H  6  S   -0.499626  -0.191647  -0.540208  -0.175356  -0.034768
   52  H  7  S    0.320037  -0.072175  -0.444653  -0.035561   0.013771
   53  H  7  S   -0.620814   0.290197  -0.433086  -0.155064  -0.141163

                     36         37         38         39         40
                    1.6015     1.6161     1.6984     1.7817     1.8194
                     A          A          A          A          A   
    1  C  1  S    0.000163   0.019680   0.007986  -0.020181   0.008943
    2  C  1  S   -0.062795   0.241829  -0.352093  -0.554676  -0.229240
    3  C  1  X   -0.069298  -0.031627  -0.206008  -0.150063  -0.158317
    4  C  1  Y   -0.044908  -0.010827   0.076269   0.059902   0.001217
    5  C  1  Z   -0.008289  -0.004191  -0.012527  -0.067433   0.022628
    6  C  1  S   -0.030410  -1.006193   0.079805   1.203220   0.074080
    7  C  1  X    0.067055   0.095063  -0.241615   0.214518   0.298703
    8  C  1  Y    0.632506   0.765986  -0.315291  -0.153094   0.207108
    9  C  1  Z    0.809422   0.231104  -0.309514   0.610188  -0.085429
   10  C  1 XX    0.256742   0.078259   0.317563  -0.042507   0.346517
   11  C  1 YY    0.091770   0.049596  -0.523528  -0.179576   0.022106
   12  C  1 ZZ   -0.348512  -0.127855   0.205965   0.222082  -0.368623
   13  C  1 XY    0.233863  -0.066025  -0.136548  -0.357323   0.189335
   14  C  1 XZ   -0.205118  -0.052057   0.033671   0.209190  -0.201118
   15  C  1 YZ    0.178517   0.055813   0.106598  -0.099680   0.186059
   16  C  2  S   -0.001014  -0.020436   0.000105   0.022737   0.015591
   17  C  2  S   -0.196349  -0.239849  -0.379398   0.071873  -0.049761
   18  C  2  X    0.056348  -0.067708   0.131874   0.062841  -0.064288
   19  C  2  Y    0.001021  -0.005133  -0.039144   0.053306   0.077213
   20  C  2  Z    0.068831   0.019054   0.009067  -0.052199   0.034547
   21  C  2  S    1.190484  -1.290596   1.049421  -0.716188  -0.510831
   22  C  2  X    0.121037  -1.804315  -0.206607   0.250987  -0.502894
   23  C  2  Y   -0.202000  -1.212366   0.450172   0.537831  -0.139013
   24  C  2  Z   -0.277615   0.041863   0.045990  -0.330674   0.093440
   25  C  2 XX    0.008318  -0.027583   0.205933   0.239422   0.108005
   26  C  2 YY   -0.042645   0.063588   0.109371  -0.353372  -0.245647
   27  C  2 ZZ    0.034327  -0.036005  -0.315304   0.113950   0.137643
   28  C  2 XY    0.068394  -0.270238  -0.292843  -0.018884  -0.195446
   29  C  2 XZ    0.291947   0.162625  -0.057946   0.197980  -0.025414
   30  C  2 YZ   -0.473428  -0.196227   0.017799   0.037063   0.024346
   31  O  3  S   -0.019546   0.028961  -0.012552   0.002297  -0.007640
   32  O  3  S    0.603310  -1.527795   0.377198   0.059623  -0.113472
   33  O  3  X   -0.127688   0.036775  -0.147485  -0.043713  -0.187372
   34  O  3  Y   -0.050074   0.077196   0.035250   0.142610   0.088541
   35  O  3  Z   -0.021459  -0.023106   0.010923  -0.087714   0.013729
   36  O  3  S   -1.108743   3.758349  -0.751614  -0.273126   0.679431
   37  O  3  X    0.436015  -1.019561   0.367259   0.149991   0.001733
   38  O  3  Y    0.271016  -0.677589   0.010592  -0.166545  -0.275376
   39  O  3  Z    0.066728   0.125539  -0.032880   0.136582  -0.001808
   40  O  3 XX    0.079875  -0.108049  -0.010951  -0.299023  -0.421825
   41  O  3 YY    0.001523   0.141167   0.485156  -0.077224   0.150213
   42  O  3 ZZ   -0.081398  -0.033118  -0.474206   0.376247   0.271611
   43  O  3 XY    0.046263  -0.195190  -0.117820   0.284600   0.331829
   44  O  3 XZ    0.222562   0.105594  -0.024976   0.075036  -0.196142
   45  O  3 YZ   -0.322733  -0.157610  -0.028102  -0.449140   0.475707
   46  H  4  S   -0.259843  -0.118037  -0.053825   0.506886   0.242685
   47  H  4  S   -0.193692  -0.295655  -0.008169   0.201883  -0.068079
   48  H  5  S   -0.272118  -0.121328   0.160819  -0.137694  -0.001354
   49  H  5  S   -0.388728  -0.136991   0.084712  -0.232532  -0.135286
   50  H  6  S    0.296872   0.243551  -0.170178  -0.000088   0.082428
   51  H  6  S    0.338879   0.299461  -0.312347   0.045451   0.008207
   52  H  7  S   -0.085787   0.090072  -0.058196  -0.146317   0.059737
   53  H  7  S   -0.060014   0.136393  -0.116290  -0.246941   0.129451

                     41         42         43         44         45
                    1.8853     2.0412     2.0683     2.1814     2.2931
                     A          A          A          A          A   
    1  C  1  S   -0.004546  -0.056907  -0.007777  -0.080591   0.017891
    2  C  1  S    0.063340  -0.447621   0.091106  -0.451186   0.148260
    3  C  1  X    0.017676   0.022767   0.032448   0.064392  -0.029588
    4  C  1  Y   -0.110250  -0.061464  -0.031174  -0.001770   0.034974
    5  C  1  Z   -0.027171   0.031830   0.017446   0.010587  -0.062521
    6  C  1  S    0.132479   2.076366  -0.073135   2.448236  -0.684744
    7  C  1  X    0.142682   0.578578  -0.269348   0.573790  -0.255226
    8  C  1  Y   -0.046875   0.176391   0.154234  -0.171399  -0.211110
    9  C  1  Z   -0.444153   1.012860   0.381322   0.376054  -0.547121
   10  C  1 XX    0.316576   0.112815  -0.309123  -0.129163  -0.105651
   11  C  1 YY   -0.489626  -0.522557  -0.022722  -0.152968   0.127172
   12  C  1 ZZ    0.173049   0.409742   0.331845   0.282131  -0.021521
   13  C  1 XY    0.612532  -0.210588   0.346077  -0.126176   0.238669
   14  C  1 XZ    0.162778  -0.128974  -0.105140  -0.059377   0.947679
   15  C  1 YZ   -0.121214  -0.117832  -0.210482   0.914609   0.308231
   16  C  2  S    0.008255   0.022269   0.009639   0.041201  -0.020709
   17  C  2  S    0.110218   0.179253   0.284346   0.462891  -0.077014
   18  C  2  X   -0.198101   0.042092  -0.274032  -0.111887  -0.023412
   19  C  2  Y   -0.032730  -0.091259   0.137574   0.020295   0.021276
   20  C  2  Z   -0.059344   0.013121  -0.050103   0.083857  -0.081050
   21  C  2  S   -0.701916  -1.365227  -0.433221  -2.114889   0.558077
   22  C  2  X   -0.290636   0.586273  -0.172412   0.734947  -0.129149
   23  C  2  Y   -0.945032  -1.017270   0.209306  -0.830338   0.297776
   24  C  2  Z    0.269642  -0.225571  -0.250735   0.196145   0.002738
   25  C  2 XX   -0.316444  -0.185455  -0.189115  -0.298919   0.117718
   26  C  2 YY    0.250987   0.096525  -0.424079  -0.016229  -0.035706
   27  C  2 ZZ    0.065457   0.088929   0.613193   0.315148  -0.082012
   28  C  2 XY   -0.216149   0.035477   0.059393   0.001284   0.122602
   29  C  2 XZ   -0.078965   0.341029   0.152038  -0.001737   0.184177
   30  C  2 YZ    0.158106  -0.476295  -0.056289   0.222174  -0.392778
   31  O  3  S   -0.015351  -0.003813  -0.007997  -0.009231   0.007247
   32  O  3  S   -0.163428  -0.096291  -0.001513  -0.076560  -0.049599
   33  O  3  X   -0.157202   0.023438  -0.130778  -0.057970   0.077797
   34  O  3  Y   -0.176344  -0.123033  -0.016296  -0.105564   0.059817
   35  O  3  Z    0.016534  -0.040260  -0.037679   0.053496  -0.013299
   36  O  3  S    1.110193   0.513489   0.290137   0.657084  -0.187364
   37  O  3  X   -0.312484  -0.323491   0.023055  -0.326885   0.059973
   38  O  3  Y    0.035547   0.226014  -0.159757   0.089025  -0.051527
   39  O  3  Z   -0.021444   0.126386   0.132401  -0.146172   0.039533
   40  O  3 XX   -0.115090   0.132251  -0.167340   0.025515  -0.047403
   41  O  3 YY   -0.185912  -0.306327   0.564361  -0.023107   0.094270
   42  O  3 ZZ    0.301002   0.174075  -0.397022  -0.002408  -0.046867
   43  O  3 XY    0.107353  -0.034444  -0.122499  -0.015799   0.020392
   44  O  3 XZ    0.085291  -0.323622  -0.183082   0.292345  -0.234571
   45  O  3 YZ   -0.262570   0.369112  -0.071905   0.047129   0.124751
   46  H  4  S   -0.304496  -0.256124   0.384555   0.072870  -0.034545
   47  H  4  S   -0.262672  -0.221069   0.102209  -0.156992   0.074418
   48  H  5  S    0.366705  -0.266857  -0.034457  -0.776832   0.060109
   49  H  5  S    0.093642  -0.421914  -0.132889   0.077046   0.339180
   50  H  6  S   -0.352384   0.104201   0.017816  -0.483079  -0.567986
   51  H  6  S   -0.062811   0.188982   0.117798   0.090884  -0.000274
   52  H  7  S   -0.087203  -0.583358  -0.325862  -0.161806   0.604291
   53  H  7  S    0.117484  -0.133192  -0.004583  -0.297172  -0.149944

                     46         47         48         49         50
                    2.3462     2.5211     2.5943     2.8597     2.9497
                     A          A          A          A          A   
    1  C  1  S    0.014605   0.044827   0.008980   0.028068  -0.009974
    2  C  1  S    0.158339   0.058263   0.055658  -0.116176   0.088347
    3  C  1  X   -0.096283  -0.269880   0.011717  -0.230323   0.098230
    4  C  1  Y    0.019653   0.060085  -0.003319   0.156533  -0.052536
    5  C  1  Z   -0.000727  -0.010710   0.025494  -0.034697   0.015377
    6  C  1  S   -0.841134  -1.337353  -0.231121  -0.185098   0.028676
    7  C  1  X   -0.596091  -0.827335  -0.022808  -0.185555   0.167713
    8  C  1  Y    0.358588   0.198251  -0.031434   0.192398   0.030589
    9  C  1  Z    0.227112   0.020777  -0.119005   0.041986  -0.061600
   10  C  1 XX   -0.364723  -0.789470   0.070960  -0.247454   0.083952
   11  C  1 YY   -0.074479   0.482233  -0.063364  -0.041255   0.007502
   12  C  1 ZZ    0.439202   0.307237  -0.007596   0.288709  -0.091454
   13  C  1 XY    0.318135   0.065337   0.048758   0.496446  -0.185047
   14  C  1 XZ   -0.309941  -0.062418   0.171599  -0.129678   0.053183
   15  C  1 YZ    0.136898  -0.009231  -0.249209   0.107463  -0.035373
   16  C  2  S   -0.071843  -0.027340  -0.001420  -0.043742  -0.029333
   17  C  2  S   -0.144464  -0.021600  -0.043874  -0.323727  -1.334726
   18  C  2  X   -0.214015  -0.241412   0.025375  -0.385633  -1.065664
   19  C  2  Y    0.173060   0.053871   0.030967  -0.169747  -0.677519
   20  C  2  Z   -0.001354   0.005194   0.232033   0.018811   0.088183
   21  C  2  S    1.120562   1.554024   0.145158   0.095547  -1.694760
   22  C  2  X   -0.315139  -0.694045  -0.052385  -0.324086  -0.693192
   23  C  2  Y    0.452740   0.769815   0.099173  -0.559479  -0.521988
   24  C  2  Z   -0.139377  -0.161296   0.263766   0.062851   0.089596
   25  C  2 XX    0.355527  -0.117172  -0.001669   0.905858  -0.676231
   26  C  2 YY    0.324986   0.376597   0.089678  -0.793394   0.226282
   27  C  2 ZZ   -0.680513  -0.259425  -0.088008  -0.112463   0.449949
   28  C  2 XY    0.485311  -0.851709   0.167503  -0.515280  -0.431596
   29  C  2 XZ   -0.042235   0.215681   0.862585   0.110966   0.041795
   30  C  2 YZ   -0.115641  -0.131474   0.435890   0.117065   0.038261
   31  O  3  S    0.027115  -0.020706   0.001535  -0.010383  -0.061393
   32  O  3  S   -0.375780   0.573121  -0.014743  -0.338240  -0.678238
   33  O  3  X    0.324654  -0.341288   0.016142  -0.010886  -0.246275
   34  O  3  Y    0.238189  -0.161405   0.010451   0.043648  -0.171088
   35  O  3  Z   -0.032327   0.018590  -0.012748  -0.008266   0.024204
   36  O  3  S   -0.111136  -0.702552  -0.032538   1.024183   3.075192
   37  O  3  X    0.021766   0.487200   0.019760  -0.670806  -1.485259
   38  O  3  Y   -0.299331  -0.003780  -0.073906   0.058670  -0.992209
   39  O  3  Z    0.037680  -0.012939  -0.449403  -0.017411   0.124343
   40  O  3 XX   -0.326183  -0.180667  -0.012970   0.841037   0.691387
   41  O  3 YY    0.285714   0.034376   0.150456  -0.659000   0.013876
   42  O  3 ZZ    0.040470   0.146291  -0.137486  -0.182037  -0.705263
   43  O  3 XY    0.368791   0.133040   0.099994  -0.064621   1.167659
   44  O  3 XZ    0.011307   0.026138   0.808285   0.034369  -0.154445
   45  O  3 YZ   -0.043333   0.063217   0.528894   0.086569  -0.110706
   46  H  4  S   -0.141341  -0.254442   0.018130   0.254963  -0.024708
   47  H  4  S    0.124981   0.330118  -0.003224  -0.426381   0.013472
   48  H  5  S   -0.177512  -0.118597   0.184878  -0.070537   0.026970
   49  H  5  S   -0.111225   0.057285  -0.019014  -0.014477   0.040385
   50  H  6  S   -0.004981   0.031758   0.031797  -0.097950   0.026791
   51  H  6  S    0.127759  -0.021657  -0.014647   0.054418   0.007241
   52  H  7  S   -0.267228   0.009773   0.031645  -0.124884   0.049449
   53  H  7  S    0.042965  -0.095003   0.038813   0.011218   0.027977
 ...... END OF RHF CALCULATION ......
 STEP CPU TIME =     5.04 TOTAL CPU TIME =          5.2 (      0.1 MIN)
 TOTAL WALL CLOCK TIME=          5.3 SECONDS, CPU UTILIZATION IS    97.36%

     ---------------------------------------------------------------------
     PROPERTIES FOR THE B3LYP    DFT FUNCTIONAL (RHF  TYPE) DENSITY MATRIX
     ---------------------------------------------------------------------

          -----------------
          ENERGY COMPONENTS
          -----------------

         WAVEFUNCTION NORMALIZATION =       1.0000000000

                ONE ELECTRON ENERGY =    -345.6217312530
                TWO ELECTRON ENERGY =     122.4543555212
           NUCLEAR REPULSION ENERGY =      69.5260368838
                                      ------------------
                       TOTAL ENERGY =    -153.6413388480

 ELECTRON-ELECTRON POTENTIAL ENERGY =     122.4543555212
  NUCLEUS-ELECTRON POTENTIAL ENERGY =    -498.4586334359
   NUCLEUS-NUCLEUS POTENTIAL ENERGY =      69.5260368838
                                      ------------------
             TOTAL POTENTIAL ENERGY =    -306.4782410308
               TOTAL KINETIC ENERGY =     152.8369021828
                 VIRIAL RATIO (V/T) =       2.0052633667

          ---------------------------------------
          MULLIKEN AND LOWDIN POPULATION ANALYSES
          ---------------------------------------

     ATOMIC MULLIKEN POPULATION IN EACH MOLECULAR ORBITAL

                      1          2          3          4          5

                  2.000000   2.000000   2.000000   2.000000   2.000000

    1            -0.000034   0.001256   1.995913   0.020485   1.099786
    2             0.002268   2.000566   0.001539   0.527104   0.300516
    3             1.997735  -0.002768   0.000009   1.452104   0.060001
    4             0.000031   0.000890   0.000017  -0.000866   0.011699
    5             0.000001   0.000025   0.000621   0.000452   0.212949
    6            -0.000001   0.000017   0.000903   0.000397   0.080505
    7            -0.000001   0.000013   0.000997   0.000324   0.234545

                      6          7          8          9         10

                  2.000000   2.000000   2.000000   2.000000   2.000000

    1             0.382171   0.744041   0.502430   0.263500   0.080719
    2             0.812151   0.357337   0.591867   0.420204   0.629610
    3             0.238452   0.179326   0.527038   1.201191   1.189230
    4             0.266225   0.128112   0.169961   0.025521   0.004634
    5             0.171542   0.128963   0.006212   0.001785   0.031656
    6             0.001448   0.376228   0.166983   0.085319   0.063537
    7             0.128011   0.085994   0.035509   0.002480   0.000614

                     11         12

                  2.000000   2.000000

    1             1.163399   0.245106
    2             0.042809   0.095746
    3             0.150580   1.345379
    4             0.021263   0.273187
    5             0.257575   0.020155
    6             0.006003   0.019097
    7             0.358372   0.001330

               ----- POPULATIONS IN EACH AO -----
                             MULLIKEN      LOWDIN
              1  C  1  S      1.99632     1.97976
              2  C  1  S      0.66912     0.36090
              3  C  1  X      0.69680     0.62605
              4  C  1  Y      0.77665     0.71609
              5  C  1  Z      0.69084     0.61407
              6  C  1  S      0.59340     0.33226
              7  C  1  X      0.29346     0.40737
              8  C  1  Y      0.42296     0.57235
              9  C  1  Z      0.32336     0.46690
             10  C  1 XX      0.00569     0.14640
             11  C  1 YY      0.00359     0.13327
             12  C  1 ZZ      0.00587     0.16630
             13  C  1 XY      0.01004     0.01057
             14  C  1 XZ      0.01066     0.01859
             15  C  1 YZ      0.00000     0.01626
             16  C  2  S      1.99655     1.97462
             17  C  2  S      0.70744     0.36577
             18  C  2  X      0.74100     0.64695
             19  C  2  Y      0.74247     0.64604
             20  C  2  Z      0.46268     0.41535
             21  C  2  S      0.45995     0.31073
             22  C  2  X      0.10448     0.28363
             23  C  2  Y      0.19710     0.37494
             24  C  2  Z      0.28378     0.33312
             25  C  2 XX      0.00481     0.21692
             26  C  2 YY      0.04056     0.19342
             27  C  2 ZZ      0.02416     0.10635
             28  C  2 XY      0.01250     0.04935
             29  C  2 XZ      0.00424     0.02393
             30  C  2 YZ      0.00000     0.00756
             31  O  3  S      1.99730     1.97773
             32  O  3  S      0.92924     0.72140
             33  O  3  X      1.00026     0.93811
             34  O  3  Y      1.08481     1.03663
             35  O  3  Z      0.77019     0.71904
             36  O  3  S      0.93104     0.47003
             37  O  3  X      0.49601     0.57280
             38  O  3  Y      0.59279     0.65577
             39  O  3  Z      0.50877     0.54797
             40  O  3 XX      0.00235     0.18374
             41  O  3 YY      0.00722     0.17450
             42  O  3 ZZ      0.00722     0.17382
             43  O  3 XY      0.00801     0.01577
             44  O  3 XZ      0.00306     0.01065
             45  O  3 YZ      0.00000     0.00413
             46  H  4  S      0.53463     0.50327
             47  H  4  S      0.36604     0.39031
             48  H  5  S      0.51646     0.45517
             49  H  5  S      0.31547     0.32458
             50  H  6  S      0.50427     0.45366
             51  H  6  S      0.29617     0.34473
             52  H  7  S      0.52950     0.48361
             53  H  7  S      0.31869     0.32678

          ----- MULLIKEN ATOMIC OVERLAP POPULATIONS -----
          (OFF-DIAGONAL ELEMENTS NEED TO BE MULTIPLIED BY 2)

             1           2           3           4           5

    1    5.4019259
    2    0.3269111   4.5496410
    3   -0.0763398   0.6076212   7.8691985
    4   -0.1330254   0.3499064  -0.0636550   0.7353248
    5    0.3393790  -0.0166511  -0.0038080   0.0082367   0.6677686
    6    0.3635902  -0.0204928   0.0007987   0.0069928  -0.0064133
    7    0.2763313  -0.0152192   0.0044610  -0.0031066  -0.1565764

             6           7

    6    0.4787094
    7   -0.0227492   0.7650483

          TOTAL MULLIKEN AND LOWDIN ATOMIC POPULATIONS
       ATOM         MULL.POP.    CHARGE          LOW.POP.     CHARGE
    1 C             6.498772   -0.498772         6.567137   -0.567137
    2 C             5.781717    0.218283         5.948665    0.051335
    3 O             8.338277   -0.338277         8.202098   -0.202098
    4 H             0.900674    0.099326         0.893580    0.106420
    5 H             0.831936    0.168064         0.779745    0.220255
    6 H             0.800436    0.199564         0.798385    0.201615
    7 H             0.848189    0.151811         0.810390    0.189610

          MULLIKEN SPHERICAL HARMONIC POPULATIONS
       ATOM           S       P       D      F      G      H      I    TOTAL
    1 C             3.26    3.20    0.04   0.00   0.00   0.00   0.00    6.50
    2 C             3.16    2.53    0.09   0.00   0.00   0.00   0.00    5.78
    3 O             3.86    4.45    0.03   0.00   0.00   0.00   0.00    8.34
    4 H             0.90    0.00    0.00   0.00   0.00   0.00   0.00    0.90
    5 H             0.83    0.00    0.00   0.00   0.00   0.00   0.00    0.83
    6 H             0.80    0.00    0.00   0.00   0.00   0.00   0.00    0.80
    7 H             0.85    0.00    0.00   0.00   0.00   0.00   0.00    0.85

          -------------------------------
          BOND ORDER AND VALENCE ANALYSIS     BOND ORDER THRESHOLD=0.050
          -------------------------------

                   BOND                       BOND                       BOND
  ATOM PAIR DIST  ORDER      ATOM PAIR DIST  ORDER      ATOM PAIR DIST  ORDER
    1   2  1.509  0.993        1   5  1.093  0.916        1   6  1.098  0.928
    1   7  1.098  0.878        2   3  1.211  2.029        2   4  1.115  0.887

                       TOTAL       BONDED        FREE
      ATOM            VALENCE     VALENCE     VALENCE
    1 C                 3.716       3.716      -0.000
    2 C                 3.914       3.914      -0.000
    3 O                 2.108       2.108       0.000
    4 H                 0.924       0.924       0.000
    5 H                 0.924       0.924      -0.000
    6 H                 0.938       0.938      -0.000
    7 H                 0.884       0.884      -0.000

          ---------------------
          ELECTROSTATIC MOMENTS
          ---------------------

 POINT   1           X           Y           Z (BOHR)    CHARGE
                -0.000000   -0.000000   -0.000000        0.00 (A.U.)
         DX          DY          DZ         /D/  (DEBYE)
    -2.748401   -1.141905    0.790862    3.079467
 ...... END OF PROPERTY EVALUATION ......
 STEP CPU TIME =     0.00 TOTAL CPU TIME =          5.2 (      0.1 MIN)
 TOTAL WALL CLOCK TIME=          5.3 SECONDS, CPU UTILIZATION IS    97.18%
                580000  WORDS OF DYNAMIC MEMORY USED
 EXECUTION OF GAMESS TERMINATED NORMALLY Thu Dec 12 13:22:43 2019
 DDI: 263640 bytes (0.3 MB / 0 MWords) used by master data server.

 ----------------------------------------
 CPU timing information for all processes
 ========================================
 0: 4.986 + 0.185 = 5.171
 ----------------------------------------
 ddikick.x: exited gracefully.
----- accounting info -----
Files used on the master node crcfe02.crc.nd.edu were:
-rw-r--r-- 1 cdrisko campus      490 Dec 12 13:22 /afs/crc.nd.edu/user/c/cdrisko/acetaldehyde.F05
-rw-r--r-- 1 cdrisko campus    45118 Dec 12 13:22 /afs/crc.nd.edu/user/c/cdrisko/acetaldehyde.F07
-rw-r--r-- 1 cdrisko campus 11881056 Dec 12 13:22 /afs/crc.nd.edu/user/c/cdrisko/acetaldehyde.F08
-rw-r--r-- 1 cdrisko campus  1799600 Dec 12 13:22 /afs/crc.nd.edu/user/c/cdrisko/acetaldehyde.F10
Thu Dec 12 13:22:46 EST 2019
0.370u 0.459s 0:09.52 8.6%	0+0k 0+96io 0pf+0w
