  13  13   0   0
  0.5679843E+02  0.5864744E-09  0.5864744E-09  0.2478854E-08  0.5000000E-15
  1.000000000000000E-004
  CAR 
 unknown system                          
      8.67275575    -19.71439017  301     -1.18352847      1.00000000
    -19.714  0.0000E+00  0.0000E+00
    -19.620  0.0000E+00  0.0000E+00
    -19.525  0.0000E+00  0.0000E+00
    -19.431  0.0000E+00  0.0000E+00
    -19.336  0.0000E+00  0.0000E+00
    -19.241 -0.9377E-29 -0.8872E-30
    -19.147 -0.1949E-22 -0.1844E-23
    -19.052 -0.6663E-17 -0.6304E-18
    -18.957 -0.3601E-12 -0.3407E-13
    -18.863 -0.3213E-08 -0.3041E-09
    -18.768 -0.4511E-05 -0.4272E-06
    -18.674 -0.9388E-03 -0.8926E-04
    -18.579 -0.2282E-01 -0.2249E-02
    -18.484  0.7953E-01  0.5277E-02
    -18.390  0.7122E+00  0.7267E-01
    -18.295  0.3262E+00  0.1035E+00
    -18.200 -0.3269E-01  0.1004E+00
    -18.106 -0.4622E-02  0.1000E+00
    -18.011 -0.5051E-04  0.1000E+00
    -17.917 -0.7749E-07  0.1000E+00
    -17.822 -0.1837E-10  0.1000E+00
    -17.727 -0.7214E-15  0.1000E+00
    -17.633  0.0000E+00  0.1000E+00
    -17.538  0.0000E+00  0.1000E+00
    -17.443  0.0000E+00  0.1000E+00
    -17.349  0.0000E+00  0.1000E+00
    -17.254  0.0000E+00  0.1000E+00
    -17.160  0.0000E+00  0.1000E+00
    -17.065  0.0000E+00  0.1000E+00
    -16.970  0.0000E+00  0.1000E+00
    -16.876  0.0000E+00  0.1000E+00
    -16.781  0.0000E+00  0.1000E+00
    -16.686  0.0000E+00  0.1000E+00
    -16.592  0.0000E+00  0.1000E+00
    -16.497  0.0000E+00  0.1000E+00
    -16.403  0.0000E+00  0.1000E+00
    -16.308  0.0000E+00  0.1000E+00
    -16.213  0.0000E+00  0.1000E+00
    -16.119  0.0000E+00  0.1000E+00
    -16.024  0.0000E+00  0.1000E+00
    -15.929  0.0000E+00  0.1000E+00
    -15.835  0.0000E+00  0.1000E+00
    -15.740  0.0000E+00  0.1000E+00
    -15.646  0.0000E+00  0.1000E+00
    -15.551  0.0000E+00  0.1000E+00
    -15.456  0.0000E+00  0.1000E+00
    -15.362  0.0000E+00  0.1000E+00
    -15.267  0.0000E+00  0.1000E+00
    -15.172  0.0000E+00  0.1000E+00
    -15.078  0.0000E+00  0.1000E+00
    -14.983  0.0000E+00  0.1000E+00
    -14.889  0.0000E+00  0.1000E+00
    -14.794  0.0000E+00  0.1000E+00
    -14.699  0.0000E+00  0.1000E+00
    -14.605  0.0000E+00  0.1000E+00
    -14.510  0.0000E+00  0.1000E+00
    -14.415  0.0000E+00  0.1000E+00
    -14.321  0.0000E+00  0.1000E+00
    -14.226  0.0000E+00  0.1000E+00
    -14.132  0.0000E+00  0.1000E+00
    -14.037  0.0000E+00  0.1000E+00
    -13.942  0.0000E+00  0.1000E+00
    -13.848  0.0000E+00  0.1000E+00
    -13.753  0.0000E+00  0.1000E+00
    -13.658  0.0000E+00  0.1000E+00
    -13.564  0.0000E+00  0.1000E+00
    -13.469  0.0000E+00  0.1000E+00
    -13.375  0.0000E+00  0.1000E+00
    -13.280  0.0000E+00  0.1000E+00
    -13.185  0.0000E+00  0.1000E+00
    -13.091  0.0000E+00  0.1000E+00
    -12.996  0.0000E+00  0.1000E+00
    -12.901  0.0000E+00  0.1000E+00
    -12.807  0.0000E+00  0.1000E+00
    -12.712  0.0000E+00  0.1000E+00
    -12.618  0.0000E+00  0.1000E+00
    -12.523  0.0000E+00  0.1000E+00
    -12.428  0.0000E+00  0.1000E+00
    -12.334  0.0000E+00  0.1000E+00
    -12.239  0.0000E+00  0.1000E+00
    -12.144  0.0000E+00  0.1000E+00
    -12.050  0.0000E+00  0.1000E+00
    -11.955  0.0000E+00  0.1000E+00
    -11.861  0.0000E+00  0.1000E+00
    -11.766  0.0000E+00  0.1000E+00
    -11.671  0.0000E+00  0.1000E+00
    -11.577  0.0000E+00  0.1000E+00
    -11.482  0.0000E+00  0.1000E+00
    -11.387  0.0000E+00  0.1000E+00
    -11.293  0.0000E+00  0.1000E+00
    -11.198  0.0000E+00  0.1000E+00
    -11.104  0.0000E+00  0.1000E+00
    -11.009  0.0000E+00  0.1000E+00
    -10.914  0.0000E+00  0.1000E+00
    -10.820  0.0000E+00  0.1000E+00
    -10.725  0.0000E+00  0.1000E+00
    -10.631  0.0000E+00  0.1000E+00
    -10.536  0.0000E+00  0.1000E+00
    -10.441  0.0000E+00  0.1000E+00
    -10.347  0.0000E+00  0.1000E+00
    -10.252  0.0000E+00  0.1000E+00
    -10.157  0.0000E+00  0.1000E+00
    -10.063  0.0000E+00  0.1000E+00
     -9.968  0.0000E+00  0.1000E+00
     -9.874  0.0000E+00  0.1000E+00
     -9.779  0.0000E+00  0.1000E+00
     -9.684  0.0000E+00  0.1000E+00
     -9.590  0.0000E+00  0.1000E+00
     -9.495  0.0000E+00  0.1000E+00
     -9.400  0.0000E+00  0.1000E+00
     -9.306  0.0000E+00  0.1000E+00
     -9.211  0.0000E+00  0.1000E+00
     -9.117  0.0000E+00  0.1000E+00
     -9.022  0.0000E+00  0.1000E+00
     -8.927 -0.3710E-32  0.1000E+00
     -8.833 -0.1159E-25  0.1000E+00
     -8.738 -0.5946E-20  0.1000E+00
     -8.643 -0.4825E-15  0.1000E+00
     -8.549 -0.6476E-11  0.1000E+00
     -8.454 -0.1382E-07  0.1000E+00
     -8.360 -0.4607E-05  0.1000E+00
     -8.265 -0.2355E-03  0.9998E-01
     -8.170 -0.1470E-02  0.9984E-01
     -8.076  0.1189E-01  0.1010E+00
     -7.981  0.5464E-01  0.1061E+00
     -7.886  0.4659E-01  0.1105E+00
     -7.792  0.8614E-01  0.1187E+00
     -7.697  0.4688E-01  0.1231E+00
     -7.603  0.5084E-01  0.1279E+00
     -7.508  0.1167E+00  0.1390E+00
     -7.413  0.5631E-01  0.1443E+00
     -7.319  0.4040E-01  0.1481E+00
     -7.224  0.2107E+00  0.1681E+00
     -7.129  0.4879E+00  0.2142E+00
     -7.035  0.1003E+01  0.3091E+00
     -6.940  0.1353E+01  0.4371E+00
     -6.846  0.1573E+01  0.5860E+00
     -6.751  0.1932E+01  0.7687E+00
     -6.656  0.2197E+01  0.9766E+00
     -6.562  0.2052E+01  0.1171E+01
     -6.467  0.1560E+01  0.1318E+01
     -6.372  0.1301E+01  0.1442E+01
     -6.278  0.1402E+01  0.1574E+01
     -6.183  0.1371E+01  0.1704E+01
     -6.089  0.1456E+01  0.1842E+01
     -5.994  0.1773E+01  0.2009E+01
     -5.899  0.2269E+01  0.2224E+01
     -5.805  0.2515E+01  0.2462E+01
     -5.710  0.2176E+01  0.2668E+01
     -5.615  0.1807E+01  0.2839E+01
     -5.521  0.2521E+01  0.3078E+01
     -5.426  0.2177E+01  0.3284E+01
     -5.332  0.1841E+01  0.3458E+01
     -5.237  0.1609E+01  0.3610E+01
     -5.142  0.1575E+01  0.3759E+01
     -5.048  0.1967E+01  0.3945E+01
     -4.953  0.2127E+01  0.4147E+01
     -4.858  0.2637E+01  0.4396E+01
     -4.764  0.2694E+01  0.4651E+01
     -4.669  0.2244E+01  0.4863E+01
     -4.575  0.1940E+01  0.5047E+01
     -4.480  0.1998E+01  0.5236E+01
     -4.385  0.2111E+01  0.5436E+01
     -4.291  0.2352E+01  0.5658E+01
     -4.196  0.3005E+01  0.5943E+01
     -4.101  0.2083E+01  0.6140E+01
     -4.007  0.1175E+01  0.6251E+01
     -3.912  0.4338E+00  0.6292E+01
     -3.818  0.1314E+00  0.6305E+01
     -3.723  0.1869E+00  0.6322E+01
     -3.628  0.1898E+00  0.6340E+01
     -3.534  0.1387E+00  0.6353E+01
     -3.439  0.2041E+00  0.6373E+01
     -3.344  0.3047E+00  0.6402E+01
     -3.250  0.1626E+00  0.6417E+01
     -3.155  0.1877E+00  0.6435E+01
     -3.061  0.2451E+00  0.6458E+01
     -2.966  0.7797E-01  0.6465E+01
     -2.871  0.1377E+00  0.6478E+01
     -2.777  0.3988E+00  0.6516E+01
     -2.682  0.5005E+00  0.6563E+01
     -2.587  0.3198E+00  0.6594E+01
     -2.493  0.4953E+00  0.6640E+01
     -2.398  0.5069E+00  0.6688E+01
     -2.304  0.1885E+00  0.6706E+01
     -2.209  0.4638E-01  0.6711E+01
     -2.114  0.1894E+00  0.6729E+01
     -2.020  0.2671E+00  0.6754E+01
     -1.925  0.1114E+00  0.6764E+01
     -1.830  0.7540E-01  0.6772E+01
     -1.736  0.1399E+00  0.6785E+01
     -1.641  0.3430E+00  0.6817E+01
     -1.547  0.2593E+00  0.6842E+01
     -1.452  0.1980E+00  0.6861E+01
     -1.357  0.7423E-01  0.6868E+01
     -1.263  0.9861E-01  0.6877E+01
     -1.168  0.3031E+00  0.6906E+01
     -1.073  0.3723E+00  0.6941E+01
     -0.979  0.1677E+00  0.6957E+01
     -0.884  0.2285E+00  0.6978E+01
     -0.790  0.1690E+00  0.6994E+01
     -0.695  0.1397E+00  0.7007E+01
     -0.600  0.1752E+00  0.7024E+01
     -0.506  0.5411E-01  0.7029E+01
     -0.411  0.1099E+00  0.7040E+01
     -0.317  0.3335E+00  0.7071E+01
     -0.222  0.2929E+00  0.7099E+01
     -0.127  0.1697E+00  0.7115E+01
     -0.033  0.2968E+00  0.7143E+01
      0.062  0.1731E+00  0.7159E+01
      0.157  0.1048E+00  0.7169E+01
      0.251  0.4014E+00  0.7207E+01
      0.346  0.2553E+00  0.7231E+01
      0.440  0.1228E+00  0.7243E+01
      0.535  0.1577E+00  0.7258E+01
      0.630  0.1280E+00  0.7270E+01
      0.724  0.2528E+00  0.7294E+01
      0.819  0.1346E+00  0.7307E+01
      0.914  0.2036E+00  0.7326E+01
      1.008  0.2284E+00  0.7348E+01
      1.103  0.1654E+00  0.7363E+01
      1.197  0.1402E+00  0.7377E+01
      1.292  0.5004E+00  0.7424E+01
      1.387  0.2978E+00  0.7452E+01
      1.481  0.5101E-01  0.7457E+01
      1.576  0.1164E+00  0.7468E+01
      1.671  0.1444E+00  0.7482E+01
      1.765  0.3100E+00  0.7511E+01
      1.860  0.2476E+00  0.7534E+01
      1.954  0.3944E-01  0.7538E+01
      2.049  0.1984E+00  0.7557E+01
      2.144  0.1149E+00  0.7568E+01
      2.238  0.1139E+00  0.7578E+01
      2.333  0.1846E+00  0.7596E+01
      2.428  0.1929E+00  0.7614E+01
      2.522  0.1771E+00  0.7631E+01
      2.617  0.2581E+00  0.7655E+01
      2.711  0.2912E+00  0.7683E+01
      2.806  0.1953E+00  0.7701E+01
      2.901  0.4667E-01  0.7706E+01
      2.995  0.1026E+00  0.7716E+01
      3.090  0.9929E-01  0.7725E+01
      3.185  0.1062E+00  0.7735E+01
      3.279  0.4175E+00  0.7775E+01
      3.374  0.3532E+00  0.7808E+01
      3.468  0.3049E+00  0.7837E+01
      3.563  0.2423E+00  0.7860E+01
      3.658  0.2407E+00  0.7882E+01
      3.752  0.3564E+00  0.7916E+01
      3.847  0.2136E+00  0.7936E+01
      3.942  0.4109E+00  0.7975E+01
      4.036  0.5449E+00  0.8027E+01
      4.131  0.3521E+00  0.8060E+01
      4.225  0.3576E+00  0.8094E+01
      4.320  0.2781E+00  0.8120E+01
      4.415  0.4034E+00  0.8158E+01
      4.509  0.5918E+00  0.8214E+01
      4.604  0.5731E+00  0.8269E+01
      4.699  0.1779E+00  0.8286E+01
      4.793  0.2859E+00  0.8313E+01
      4.888  0.5632E+00  0.8366E+01
      4.982  0.4292E+00  0.8407E+01
      5.077  0.4539E+00  0.8449E+01
      5.172  0.3543E+00  0.8483E+01
      5.266  0.4128E+00  0.8522E+01
      5.361  0.4855E+00  0.8568E+01
      5.456  0.4727E+00  0.8613E+01
      5.550  0.6019E+00  0.8670E+01
      5.645  0.6420E+00  0.8730E+01
      5.739  0.6274E+00  0.8790E+01
      5.834  0.5224E+00  0.8839E+01
      5.929  0.5314E+00  0.8889E+01
      6.023  0.6477E+00  0.8951E+01
      6.118  0.7248E+00  0.9019E+01
      6.213  0.4917E+00  0.9066E+01
      6.307  0.2991E+00  0.9094E+01
      6.402  0.2050E+00  0.9114E+01
      6.496  0.3879E+00  0.9150E+01
      6.591  0.7145E+00  0.9218E+01
      6.686  0.6749E+00  0.9282E+01
      6.780  0.5648E+00  0.9335E+01
      6.875  0.7670E+00  0.9408E+01
      6.970  0.6105E+00  0.9466E+01
      7.064  0.3983E+00  0.9503E+01
      7.159  0.2431E+00  0.9526E+01
      7.253  0.2713E+00  0.9552E+01
      7.348  0.3496E+00  0.9585E+01
      7.443  0.1611E+00  0.9600E+01
      7.537  0.2051E-02  0.9600E+01
      7.632 -0.4255E-02  0.9600E+01
      7.727 -0.1565E-03  0.9600E+01
      7.821 -0.7649E-06  0.9600E+01
      7.916 -0.5698E-09  0.9600E+01
      8.010 -0.6743E-13  0.9600E+01
      8.105  0.0000E+00  0.9600E+01
      8.200  0.0000E+00  0.9600E+01
      8.294  0.0000E+00  0.9600E+01
      8.389  0.0000E+00  0.9600E+01
      8.484  0.0000E+00  0.9600E+01
      8.578  0.0000E+00  0.9600E+01
      8.673  0.0000E+00  0.9600E+01
