       N       E                     dE             d eps       ncg     rms          rms(c)
DAV:   1     0.740609418783E+03    0.74061E+03   -0.52747E+04  2304   0.973E+02
DAV:   2    -0.770528050675E+01   -0.74831E+03   -0.70715E+03  2688   0.233E+02
DAV:   3    -0.401028357805E+02   -0.32398E+02   -0.31787E+02  2832   0.483E+01
DAV:   4    -0.405591580614E+02   -0.45632E+00   -0.45625E+00  2592   0.617E+00
DAV:   5    -0.405668237146E+02   -0.76657E-02   -0.76656E-02  3096   0.781E-01    0.194E+01
DAV:   6    -0.375800516858E+02    0.29868E+01   -0.27765E+01  3360   0.247E+01    0.179E+01
DAV:   7    -0.362177196554E+02    0.13623E+01   -0.44622E+01  3096   0.215E+01    0.116E+01
DAV:   8    -0.351450834675E+02    0.10726E+01   -0.53007E+00  2664   0.127E+01    0.490E+00
DAV:   9    -0.352117549084E+02   -0.66671E-01   -0.21534E+00  2616   0.752E+00    0.326E+00
DAV:  10    -0.351046237661E+02    0.10713E+00   -0.37439E-01  2688   0.344E+00    0.145E+00
DAV:  11    -0.350887042744E+02    0.15919E-01   -0.12326E-01  2664   0.100E+00    0.367E-01
DAV:  12    -0.350895306169E+02   -0.82634E-03   -0.19524E-02  2544   0.571E-01    0.212E-01
DAV:  13    -0.350903578840E+02   -0.82727E-03   -0.13165E-03  2592   0.147E-01    0.137E-01
DAV:  14    -0.350905682812E+02   -0.21040E-03   -0.96579E-04  2400   0.147E-01    0.437E-02
DAV:  15    -0.350908613612E+02   -0.29308E-03   -0.23217E-04  2136   0.837E-02    0.181E-02
DAV:  16    -0.350910091799E+02   -0.14782E-03   -0.82773E-05  1944   0.345E-02    0.178E-02
DAV:  17    -0.350911426841E+02   -0.13350E-03   -0.32560E-05  1800   0.200E-02    0.467E-03
DAV:  18    -0.350912486512E+02   -0.10597E-03   -0.12351E-05  1704   0.739E-03    0.403E-03
DAV:  19    -0.350913103435E+02   -0.61692E-04   -0.50129E-06  1704   0.581E-03
   1 F= -.35091310E+02 E0= -.35089713E+02  d E =-.350913E+02
       N       E                     dE             d eps       ncg     rms          rms(c)
DAV:   1    -0.351342055890E+02   -0.42957E-01   -0.78483E+01  2304   0.249E+01    0.152E+00
DAV:   2    -0.352099629212E+02   -0.75757E-01   -0.85312E-01  2592   0.361E+00    0.141E+00
DAV:   3    -0.352089407404E+02    0.10222E-02   -0.83198E-02  2544   0.152E+00    0.687E-01
DAV:   4    -0.352116812472E+02   -0.27405E-02   -0.11265E-01  2736   0.120E+00    0.851E-01
DAV:   5    -0.352042311663E+02    0.74501E-02   -0.49330E-02  2520   0.740E-01    0.130E-01
DAV:   6    -0.352046581095E+02   -0.42694E-03   -0.41991E-03  2664   0.261E-01    0.111E-01
DAV:   7    -0.352046047980E+02    0.53311E-04   -0.46376E-04  2544   0.757E-02
   2 F= -.35204605E+02 E0= -.35202709E+02  d E =-.113294E+00
       N       E                     dE             d eps       ncg     rms          rms(c)
DAV:   1    -0.352046593561E+02   -0.12466E-05   -0.34998E-02  2616   0.527E-01    0.291E-02
DAV:   2    -0.352047246711E+02   -0.65315E-04   -0.34772E-04  2568   0.864E-02
   3 F= -.35204725E+02 E0= -.35202869E+02  d E =-.113414E+00
       N       E                     dE             d eps       ncg     rms          rms(c)
DAV:   1    -0.352116279701E+02   -0.69686E-02   -0.38828E+00  2304   0.570E+00    0.225E-01
DAV:   2    -0.352155018343E+02   -0.38739E-02   -0.40395E-02  2568   0.721E-01    0.115E-01
DAV:   3    -0.352155393021E+02   -0.37468E-04   -0.32375E-03  2616   0.224E-01    0.141E-01
DAV:   4    -0.352153869730E+02    0.15233E-03   -0.92779E-04  2352   0.137E-01    0.553E-02
DAV:   5    -0.352154107898E+02   -0.23817E-04   -0.24323E-04  2184   0.501E-02
   4 F= -.35215411E+02 E0= -.35213628E+02  d E =-.106861E-01
       N       E                     dE             d eps       ncg     rms          rms(c)
DAV:   1    -0.351992580442E+02    0.16129E-01   -0.35035E+01  2304   0.171E+01    0.687E-01
DAV:   2    -0.352340682123E+02   -0.34810E-01   -0.36850E-01  2736   0.217E+00    0.318E-01
DAV:   3    -0.352339685068E+02    0.99706E-04   -0.21924E-02  2664   0.632E-01    0.361E-01
DAV:   4    -0.352329548200E+02    0.10137E-02   -0.68959E-03  2496   0.387E-01    0.148E-01
DAV:   5    -0.352328044343E+02    0.15039E-03   -0.18154E-03  2424   0.137E-01    0.364E-02
DAV:   6    -0.352328173740E+02   -0.12940E-04   -0.15541E-04  2328   0.538E-02
   5 F= -.35232817E+02 E0= -.35231305E+02  d E =-.280927E-01
       N       E                     dE             d eps       ncg     rms          rms(c)
DAV:   1    -0.352335690059E+02   -0.76457E-03   -0.17689E+00  2304   0.374E+00    0.159E-01
DAV:   2    -0.352350425582E+02   -0.14736E-02   -0.15555E-02  2808   0.494E-01    0.122E-01
DAV:   3    -0.352350490908E+02   -0.65326E-05   -0.99889E-04  2568   0.156E-01
   6 F= -.35235049E+02 E0= -.35233699E+02  d E =-.223172E-02
       N       E                     dE             d eps       ncg     rms          rms(c)
DAV:   1    -0.352350892390E+02   -0.46681E-04   -0.33439E-02  2520   0.528E-01    0.884E-02
DAV:   2    -0.352352394458E+02   -0.15021E-03   -0.24707E-03  2496   0.222E-01    0.925E-02
DAV:   3    -0.352350918273E+02    0.14762E-03   -0.16051E-03  2232   0.177E-01    0.466E-02
DAV:   4    -0.352350871961E+02    0.46312E-05   -0.11117E-04  1632   0.328E-02
   7 F= -.35235087E+02 E0= -.35233663E+02  d E =-.226982E-02
       N       E                     dE             d eps       ncg     rms          rms(c)
DAV:   1    -0.352360187471E+02   -0.92692E-03   -0.16761E+00  2304   0.344E+00    0.673E-02
DAV:   2    -0.352370265692E+02   -0.10078E-02   -0.10477E-02  2712   0.435E-01    0.777E-02
DAV:   3    -0.352370133741E+02    0.13195E-04   -0.29655E-04  2136   0.789E-02
   8 F= -.35237013E+02 E0= -.35235659E+02  d E =-.192618E-02
       N       E                     dE             d eps       ncg     rms          rms(c)
DAV:   1    -0.352372803965E+02   -0.25383E-03   -0.77788E-01  2304   0.235E+00    0.759E-02
DAV:   2    -0.352377406763E+02   -0.46028E-03   -0.48811E-03  2664   0.300E-01    0.573E-02
DAV:   3    -0.352377226253E+02    0.18051E-04   -0.46684E-04  1656   0.105E-01
   9 F= -.35237723E+02 E0= -.35236472E+02  d E =-.263543E-02
