 vasp.5.4.1 05Feb16 (build Feb 08 2018 09:21:51) complex                        
  
 executed on             LinuxIFC date 2019.11.21  23:36:34
 running on   24 total cores
 distrk:  each k-point on   24 cores,    1 groups
 distr:  one band on NCORES_PER_BAND=   1 cores,   24 groups


--------------------------------------------------------------------------------------------------------


 INCAR:
 POTCAR:    PAW_PBE Ag 02Apr2005                  
 POTCAR:    PAW_PBE O 08Apr2002                   

 ----------------------------------------------------------------------------- 
|                                                                             |
|           W    W    AA    RRRRR   N    N  II  N    N   GGGG   !!!           |
|           W    W   A  A   R    R  NN   N  II  NN   N  G    G  !!!           |
|           W    W  A    A  R    R  N N  N  II  N N  N  G       !!!           |
|           W WW W  AAAAAA  RRRRR   N  N N  II  N  N N  G  GGG   !            |
|           WW  WW  A    A  R   R   N   NN  II  N   NN  G    G                |
|           W    W  A    A  R    R  N    N  II  N    N   GGGG   !!!           |
|                                                                             |
|      For optimal performance we recommend to set                            |
|        NCORE= 4 - approx SQRT( number of cores)                             |
|      NCORE specifies how many cores store one orbital (NPAR=cpu/NCORE).     |
|      This setting can  greatly improve the performance of VASP for DFT.     |
|      The default, NPAR=number of cores might be grossly inefficient         |
|      on modern multi-core architectures or massively parallel machines.     |
|      Do your own testing !!!!                                               |
|      Unfortunately you need to use the default for GW and RPA calculations. |
|      (for HF NCORE is supported but not extensively tested yet)             |
|                                                                             |
 ----------------------------------------------------------------------------- 

 POTCAR:    PAW_PBE Ag 02Apr2005                  
   VRHFIN =Ag : s1 d10                                                          
   LEXCH  = PE                                                                  
   EATOM  =  1037.2675 eV,   76.2370 Ry                                         
                                                                                
   TITEL  = PAW_PBE Ag 02Apr2005                                                
   LULTRA =        F    use ultrasoft PP ?                                      
   IUNSCR =        1    unscreen: 0-lin 1-nonlin 2-no                           
   RPACOR =    2.000    partial core radius                                     
   POMASS =  107.868; ZVAL   =   11.000    mass and valenz                      
   RCORE  =    2.500    outmost cutoff radius                                   
   RWIGS  =    2.840; RWIGS  =    1.503    wigner-seitz radius (au A)           
   ENMAX  =  249.844; ENMIN  =  187.383 eV                                      
   ICORE  =        3    local potential                                         
   LCOR   =        T    correct aug charges                                     
   LPAW   =        T    paw PP                                                  
   EAUG   =  412.496                                                            
   DEXC   =    0.000                                                            
   RMAX   =    2.560    core radius for proj-oper                               
   RAUG   =    1.300    factor for augmentation sphere                          
   RDEP   =    2.576    radius for radial grids                                 
   RDEPT  =    2.072    core radius for aug-charge                              
                                                                                
   Atomic configuration                                                         
   12 entries                                                                   
     n  l   j            E        occ.                                          
     1  0  0.50    -25324.9161   2.0000                                         
     2  0  0.50     -3728.5341   2.0000                                         
     2  1  1.50     -3344.0404   6.0000                                         
     3  0  0.50      -683.5581   2.0000                                         
     3  1  1.50      -557.3225   6.0000                                         
     3  2  2.50      -358.3853  10.0000                                         
     4  0  0.50       -95.0341   2.0000                                         
     4  1  1.50       -58.5511   6.0000                                         
     4  2  2.50        -7.4440  10.0000                                         
     5  0  0.50        -4.4045   1.0000                                         
     5  1  0.50        -1.3606   0.0000                                         
     4  3  2.50        -1.3606   0.0000                                         
   Description                                                                  
     l       E           TYP  RCUT    TYP  RCUT                                 
     2     -7.4439781     23  2.400                                             
     2     -8.8045607     23  2.400                                             
     0     -4.4044681     23  2.400                                             
     0      1.9520038     23  2.400                                             
     1     -1.3605826     23  2.500                                             
     1     27.2116520     23  2.500                                             
     3     -4.0817478     23  2.400                                             
  local pseudopotential read in
  partial core-charges read in
  partial kinetic energy density read in
  atomic valenz-charges read in
  non local Contribution for L=           2  read in
    real space projection operators read in
  non local Contribution for L=           2  read in
    real space projection operators read in
  non local Contribution for L=           0  read in
    real space projection operators read in
  non local Contribution for L=           0  read in
    real space projection operators read in
  non local Contribution for L=           1  read in
    real space projection operators read in
  non local Contribution for L=           1  read in
    real space projection operators read in
    PAW grid and wavefunctions read in
 
   number of l-projection  operators is LMAX  =           6
   number of lm-projection operators is LMMAX =          18
 
 POTCAR:    PAW_PBE O 08Apr2002                   
   VRHFIN =O: s2p4                                                              
   LEXCH  = PE                                                                  
   EATOM  =   432.3788 eV,   31.7789 Ry                                         
                                                                                
   TITEL  = PAW_PBE O 08Apr2002                                                 
   LULTRA =        F    use ultrasoft PP ?                                      
   IUNSCR =        1    unscreen: 0-lin 1-nonlin 2-no                           
   RPACOR =    1.200    partial core radius                                     
   POMASS =   16.000; ZVAL   =    6.000    mass and valenz                      
   RCORE  =    1.520    outmost cutoff radius                                   
   RWIGS  =    1.550; RWIGS  =    0.820    wigner-seitz radius (au A)           
   ENMAX  =  400.000; ENMIN  =  300.000 eV                                      
   ICORE  =        2    local potential                                         
   LCOR   =        T    correct aug charges                                     
   LPAW   =        T    paw PP                                                  
   EAUG   =  605.392                                                            
   DEXC   =    0.000                                                            
   RMAX   =    1.553    core radius for proj-oper                               
   RAUG   =    1.300    factor for augmentation sphere                          
   RDEP   =    1.550    radius for radial grids                                 
   RDEPT  =    1.329    core radius for aug-charge                              
                                                                                
   Atomic configuration                                                         
    4 entries                                                                   
     n  l   j            E        occ.                                          
     1  0  0.50      -514.6923   2.0000                                         
     2  0  0.50       -23.9615   2.0000                                         
     2  1  0.50        -9.0305   4.0000                                         
     3  2  1.50        -9.5241   0.0000                                         
   Description                                                                  
     l       E           TYP  RCUT    TYP  RCUT                                 
     0    -23.9615318     23  1.200                                             
     0     -9.5240782     23  1.200                                             
     1     -9.0304911     23  1.520                                             
     1      8.1634956     23  1.520                                             
     2     -9.5240782      7  1.500                                             
  local pseudopotential read in
  partial core-charges read in
  partial kinetic energy density read in
  kinetic energy density of atom read in
  atomic valenz-charges read in
  non local Contribution for L=           0  read in
    real space projection operators read in
  non local Contribution for L=           0  read in
    real space projection operators read in
  non local Contribution for L=           1  read in
    real space projection operators read in
  non local Contribution for L=           1  read in
    real space projection operators read in
    PAW grid and wavefunctions read in
 
   number of l-projection  operators is LMAX  =           4
   number of lm-projection operators is LMMAX =           8
 
  PAW_PBE Ag 02Apr2005                  :
 energy of atom  1       EATOM=-1037.2675
 kinetic energy error for atom=    0.0091 (will be added to EATOM!!)
  PAW_PBE O 08Apr2002                   :
 energy of atom  2       EATOM= -432.3788
 kinetic energy error for atom=    0.1156 (will be added to EATOM!!)
 
 
 POSCAR: Ag  O                                   
  positions in cartesian coordinates
  No initial velocities read in
 exchange correlation table for  LEXCH =        8
   RHO(1)=    0.500       N(1)  =     2000
   RHO(2)=  100.500       N(2)  =     4000
 


--------------------------------------------------------------------------------------------------------


 ion  position               nearest neighbor table
   1  0.167  0.167  0.403-   8 2.93   5 2.93   3 2.93   3 2.93   4 2.93   4 2.93   2 2.93   2 2.93
                             6 2.93
   2  0.667  0.167  0.403-   7 2.93   6 2.93   4 2.93   3 2.93   4 2.93   3 2.93   1 2.93   1 2.93
                             5 2.93
   3  0.167  0.667  0.403-   6 2.93   7 2.93   1 2.93   1 2.93   2 2.93   2 2.93   4 2.93   4 2.93
                             8 2.93
   4  0.667  0.667  0.403-   5 2.93   8 2.93   2 2.93   1 2.93   2 2.93   1 2.93   3 2.93   3 2.93
                             7 2.93
   5  0.833  0.333  0.500-   4 2.93   1 2.93  11 2.93   7 2.93   7 2.93   8 2.93   8 2.93   6 2.93
                             6 2.93   9 2.93  12 2.93   2 2.93
   6  0.333  0.333  0.500-   3 2.93   2 2.93  12 2.93   8 2.93   7 2.93   8 2.93   7 2.93   5 2.93
                             5 2.93  11 2.93  10 2.93   1 2.93
   7  0.833  0.833  0.500-   2 2.93   3 2.93   9 2.93   5 2.93   5 2.93   6 2.93   6 2.93   8 2.93
                             8 2.93  10 2.93  11 2.93   4 2.93
   8  0.333  0.833  0.500-   1 2.93   4 2.93  10 2.93   6 2.93   5 2.93   6 2.93   5 2.93   7 2.93
                             7 2.93   9 2.93  12 2.93   3 2.93
   9  0.000  0.000  0.597-  13 2.08   7 2.93  11 2.93  11 2.93  12 2.93  12 2.93  10 2.93  10 2.93
                             8 2.93   5 2.93
  10  0.500  0.000  0.597-  13 2.08   8 2.93  12 2.93  11 2.93  12 2.93  11 2.93   9 2.93   9 2.93
                             6 2.93   7 2.93
  11  0.000  0.500  0.597-  13 2.08   5 2.93   9 2.93   9 2.93  10 2.93  10 2.93  12 2.93  12 2.93
                             7 2.93   6 2.93
  12  0.500  0.500  0.597-   6 2.93  10 2.93   9 2.93  10 2.93   9 2.93  11 2.93  11 2.93   5 2.93
                             8 2.93
  13  0.167  0.167  0.645-   9 2.08  10 2.08  11 2.08
 
  LATTYP: Found a hexagonal cell.
 ALAT       =     5.8647436432
 C/A-ratio  =     4.2267053159
  
  Lattice vectors:
  
 A1 = (   2.9323718216,  -5.0790169817,   0.0000000000)
 A2 = (  -5.8647436432,   0.0000000000,   0.0000000000)
 A3 = (   0.0000000000,   0.0000000000, -24.7885431327)


Analysis of symmetry for initial positions (statically):
=====================================================================
 Subroutine PRICEL returns:
 Original cell was already a primitive cell.
 

 Routine SETGRP: Setting up the symmetry group for a 
 hexagonal supercell.


 Subroutine GETGRP returns: Found  6 space group operations
 (whereof  2 operations were pure point group operations)
 out of a pool of 24 trial point group operations.


The static configuration has the point symmetry C_1h.
 The point group associated with its full space group is C_3v.


Analysis of symmetry for dynamics (positions and initial velocities):
=====================================================================
 Subroutine PRICEL returns:
 Original cell was already a primitive cell.
 

 Routine SETGRP: Setting up the symmetry group for a 
 hexagonal supercell.


 Subroutine GETGRP returns: Found  6 space group operations
 (whereof  2 operations were pure point group operations)
 out of a pool of 24 trial point group operations.


The dynamic configuration has the point symmetry C_1h.
 The point group associated with its full space group is C_3v.


 Subroutine INISYM returns: Found  6 space group operations
 (whereof  2 operations are pure point group operations),
 and found     1 'primitive' translations

 
 
 KPOINTS: KPOINTS created by Atomic Simulation Env

Automatic generation of k-mesh.
Space group operators:
 irot       det(A)        alpha          n_x          n_y          n_z        tau_x        tau_y        tau_z
    1     1.000000     0.000001     1.000000     0.000000     0.000000     0.000000     0.000000     0.000000
    2    -1.000000   180.000000     0.500000    -0.866025     0.000000     0.000000     0.000000     0.000000
    3     1.000000   120.000000     0.000000     0.000000     1.000000     0.000000    -0.500000     0.000000
    4     1.000000   120.000000     0.000000     0.000000    -1.000000    -0.500000    -0.000000     0.000000
    5    -1.000000   179.999999     1.000000     0.000000     0.000000    -0.500000     0.000000     0.000000
    6    -1.000000   180.000000    -0.500000    -0.866025     0.000000     0.000000    -0.500000     0.000000
 
 Subroutine IBZKPT returns following result:
 ===========================================
 
 Found     12 irreducible k-points:
 
 Following reciprocal coordinates:
            Coordinates               Weight
  0.000000  0.000000  0.000000      1.000000
  0.111111  0.000000  0.000000      6.000000
  0.222222  0.000000  0.000000      6.000000
  0.333333  0.000000  0.000000      6.000000
  0.444444  0.000000  0.000000      6.000000
  0.222222  0.111111  0.000000      6.000000
  0.333333  0.111111  0.000000     12.000000
  0.444444  0.111111  0.000000     12.000000
 -0.444444  0.111111  0.000000      6.000000
  0.444444  0.222222  0.000000      6.000000
 -0.444444  0.222222  0.000000     12.000000
 -0.333333  0.333333  0.000000      2.000000
 
 Following cartesian coordinates:
            Coordinates               Weight
  0.000000  0.000000  0.000000      1.000000
  0.018946 -0.010938  0.000000      6.000000
  0.037891 -0.021876  0.000000      6.000000
  0.056837 -0.032815  0.000000      6.000000
  0.075782 -0.043753  0.000000      6.000000
  0.037891 -0.000000  0.000000      6.000000
  0.056837 -0.010938  0.000000     12.000000
  0.075782 -0.021876  0.000000     12.000000
 -0.075782  0.065629  0.000000      6.000000
  0.075782  0.000000  0.000000      6.000000
 -0.075782  0.087506  0.000000     12.000000
 -0.056837  0.098444  0.000000      2.000000
 


--------------------------------------------------------------------------------------------------------




 Dimension of arrays:
   k-points           NKPTS =     12   k-points in BZ     NKDIM =     12   number of bands    NBANDS=     96
   number of dos      NEDOS =    301   number of ions     NIONS =     13
   non local maximal  LDIM  =      6   non local SUM 2l+1 LMDIM =     18
   total plane-waves  NPLWV = 113400
   max r-space proj   IRMAX =      1   max aug-charges    IRDMAX=   7750
   dimension x,y,z NGX =    30 NGY =   30 NGZ =  126
   dimension x,y,z NGXF=    60 NGYF=   60 NGZF=  252
   support grid    NGXF=    60 NGYF=   60 NGZF=  252
   ions per type =              12   1
 NGX,Y,Z   is equivalent  to a cutoff of   8.50,  8.50,  8.45 a.u.
 NGXF,Y,Z  is equivalent  to a cutoff of  17.01, 17.01, 16.90 a.u.


 I would recommend the setting:
   dimension x,y,z NGX =    29 NGY =   29 NGZ =  121
 SYSTEM =  unknown system                          
 POSCAR =  Ag  O                                   

 Startparameter for this run:
   NWRITE =      2    write-flag & timer
   PREC   = normal    normal or accurate (medium, high low for compatibility)
   ISTART =      0    job   : 0-new  1-cont  2-samecut
   ICHARG =      2    charge: 1-file 2-atom 10-const
   ISPIN  =      1    spin polarized calculation?
   LNONCOLLINEAR =      F non collinear calculations
   LSORBIT =      F    spin-orbit coupling
   INIWAV =      1    electr: 0-lowe 1-rand  2-diag
   LASPH  =      F    aspherical Exc in radial PAW
   METAGGA=      F    non-selfconsistent MetaGGA calc.

 Electronic Relaxation 1
   ENCUT  =  400.0 eV  29.40 Ry    5.42 a.u.   9.56  9.56 40.42*2*pi/ulx,y,z
   ENINI  =  400.0     initial cutoff
   ENAUG  =  605.4 eV  augmentation charge cutoff
   NELM   =     60;   NELMIN=  2; NELMDL= -5     # of ELM steps 
   EDIFF  = 0.1E-03   stopping-criterion for ELM
   LREAL  =      F    real-space projection
   NLSPLINE    = F    spline interpolate recip. space projectors
   LCOMPAT=      F    compatible to vasp.4.4
   GGA_COMPAT  = T    GGA compatible to vasp.4.4-vasp.4.6
   LMAXPAW     = -100 max onsite density
   LMAXMIX     =    2 max onsite mixed and CHGCAR
   VOSKOWN=      0    Vosko Wilk Nusair interpolation
   ROPT   =    0.00000   0.00000
 Ionic relaxation
   EDIFFG = 0.1E-02   stopping-criterion for IOM
   NSW    =     20    number of steps for IOM
   NBLOCK =      1;   KBLOCK =     20    inner block; outer block 
   IBRION =      2    ionic relax: 0-MD 1-quasi-New 2-CG
   NFREE  =      1    steps in history (QN), initial steepest desc. (CG)
   ISIF   =      2    stress and relaxation
   IWAVPR =     11    prediction:  0-non 1-charg 2-wave 3-comb
   ISYM   =      2    0-nonsym 1-usesym 2-fastsym
   LCORR  =      T    Harris-Foulkes like correction to forces

   POTIM  = 0.5000    time-step for ionic-motion
   TEIN   =    0.0    initial temperature
   TEBEG  =    0.0;   TEEND  =   0.0 temperature during run
   SMASS  =  -3.00    Nose mass-parameter (am)
   estimated Nose-frequenzy (Omega)   =  0.10E-29 period in steps =****** mass=  -0.786E-27a.u.
   SCALEE = 1.0000    scale energy and forces
   NPACO  =    256;   APACO  = 16.0  distance and # of slots for P.C.
   PSTRESS=    0.0 pullay stress

  Mass of Ions in am
   POMASS = 107.87 16.00
  Ionic Valenz
   ZVAL   =  11.00  6.00
  Atomic Wigner-Seitz radii
   RWIGS  =  -1.00 -1.00
  virtual crystal weights 
   VCA    =   1.00  1.00
   NELECT =     138.0000    total number of electrons
   NUPDOWN=      -1.0000    fix difference up-down

 DOS related values:
   EMIN   =  10.00;   EMAX   =-10.00  energy-range for DOS
   EFERMI =   0.00
   ISMEAR =     1;   SIGMA  =   0.10  broadening in eV -4-tet -1-fermi 0-gaus

 Electronic relaxation 2 (details)
   IALGO  =     38    algorithm
   LDIAG  =      T    sub-space diagonalisation (order eigenvalues)
   LSUBROT=      F    optimize rotation matrix (better conditioning)
   TURBO    =      0    0=normal 1=particle mesh
   IRESTART =      0    0=no restart 2=restart with 2 vectors
   NREBOOT  =      0    no. of reboots
   NMIN     =      0    reboot dimension
   EREF     =   0.00    reference energy to select bands
   IMIX   =      4    mixing-type and parameters
     AMIX     =   0.40;   BMIX     =  1.00
     AMIX_MAG =   1.60;   BMIX_MAG =  1.00
     AMIN     =   0.10
     WC   =   100.;   INIMIX=   1;  MIXPRE=   1;  MAXMIX= -45

 Intra band minimization:
   WEIMIN = 0.0010     energy-eigenvalue tresh-hold
   EBREAK =  0.26E-06  absolut break condition
   DEPER  =   0.30     relativ break condition  

   TIME   =   0.40     timestep for ELM

  volume/ion in A,a.u.               =      56.80       383.29
  Fermi-wavevector in a.u.,A,eV,Ry     =   0.935997  1.768779 11.919943  0.876091
  Thomas-Fermi vector in A             =   2.062962
 
 Write flags
   LWAVE  =      F    write WAVECAR
   LCHARG =      F    write CHGCAR
   LVTOT  =      F    write LOCPOT, total local potential
   LVHAR  =      F    write LOCPOT, Hartree potential only
   LELF   =      F    write electronic localiz. function (ELF)
   LORBIT =      0    0 simple, 1 ext, 2 COOP (PROOUT)


 Dipole corrections
   LMONO  =      F    monopole corrections only (constant potential shift)
   LDIPOL =      F    correct potential (dipole corrections)
   IDIPOL =      0    1-x, 2-y, 3-z, 4-all directions 
   EPSILON=  1.0000000 bulk dielectric constant

 Exchange correlation treatment:
   GGA     =    --    GGA type
   LEXCH   =     8    internal setting for exchange type
   VOSKOWN=      0    Vosko Wilk Nusair interpolation
   LHFCALC =     F    Hartree Fock is set to
   LHFONE  =     F    Hartree Fock one center treatment
   AEXX    =    0.0000 exact exchange contribution

 Linear response parameters
   LEPSILON=     F    determine dielectric tensor
   LRPA    =     F    only Hartree local field effects (RPA)
   LNABLA  =     F    use nabla operator in PAW spheres
   LVEL    =     F    velocity operator in full k-point grid
   LINTERFAST=   F  fast interpolation
   KINTER  =     0    interpolate to denser k-point grid
   CSHIFT  =0.1000    complex shift for real part using Kramers Kronig
   OMEGAMAX=  -1.0    maximum frequency
   DEG_THRESHOLD= 0.2000000E-02 threshold for treating states as degnerate
   RTIME   =    0.100 relaxation time in fs

 Orbital magnetization related:
   ORBITALMAG=     F  switch on orbital magnetization
   LCHIMAG   =     F  perturbation theory with respect to B field
   DQ        =  0.001000  dq finite difference perturbation B field



--------------------------------------------------------------------------------------------------------


 conjugate gradient relaxation of ions
 charge density and potential will be updated during run
 non-spin polarized calculation
 Variant of blocked Davidson
 Davidson routine will perform the subspace rotation
 perform sub-space diagonalisation
    after iterative eigenvector-optimisation
 modified Broyden-mixing scheme, WC =      100.0
 initial mixing is a Kerker type mixing with AMIX =  0.4000 and BMIX =      1.0000
 Hartree-type preconditioning will be used
 using additional bands           27
 reciprocal scheme for non local part
 use partial core corrections
 calculate Harris-corrections to forces 
   (improved forces if not selfconsistent)
 use gradient corrections 
 use of overlap-Matrix (Vanderbilt PP)
 Methfessel and Paxton  Order N= 1 SIGMA  =   0.10


--------------------------------------------------------------------------------------------------------


  energy-cutoff  :      400.00
  volume of cell :      738.38
      direct lattice vectors                 reciprocal lattice vectors
     5.864743643  0.000000000  0.000000000     0.170510437 -0.098444247  0.000000000
     2.932371822  5.079016982  0.000000000     0.000000000  0.196888493  0.000000000
     0.000000000  0.000000000 24.788543133     0.000000000  0.000000000  0.040341217

  length of vectors
     5.864743643  5.864743643 24.788543133     0.196888493  0.196888493  0.040341217


 
 k-points in units of 2pi/SCALE and weight: KPOINTS created by Atomic Simulation Env
   0.00000000  0.00000000  0.00000000       0.012
   0.01894560 -0.01093825  0.00000000       0.074
   0.03789121 -0.02187650  0.00000000       0.074
   0.05683681 -0.03281475  0.00000000       0.074
   0.07578242 -0.04375300  0.00000000       0.074
   0.03789121 -0.00000000  0.00000000       0.074
   0.05683681 -0.01093825  0.00000000       0.148
   0.07578242 -0.02187650  0.00000000       0.148
  -0.07578242  0.06562950  0.00000000       0.074
   0.07578242  0.00000000  0.00000000       0.074
  -0.07578242  0.08750600  0.00000000       0.148
  -0.05683681  0.09844425  0.00000000       0.025
 
 k-points in reciprocal lattice and weights: KPOINTS created by Atomic Simulation Env
   0.00000000  0.00000000  0.00000000       0.012
   0.11111111  0.00000000  0.00000000       0.074
   0.22222222  0.00000000  0.00000000       0.074
   0.33333333  0.00000000  0.00000000       0.074
   0.44444444  0.00000000  0.00000000       0.074
   0.22222222  0.11111111  0.00000000       0.074
   0.33333333  0.11111111  0.00000000       0.148
   0.44444444  0.11111111  0.00000000       0.148
  -0.44444444  0.11111111  0.00000000       0.074
   0.44444444  0.22222222  0.00000000       0.074
  -0.44444444  0.22222222  0.00000000       0.148
  -0.33333333  0.33333333  0.00000000       0.025
 
 position of ions in fractional coordinates (direct lattice) 
   0.16666667  0.16666667  0.40341217
   0.66666667  0.16666667  0.40341217
   0.16666667  0.66666667  0.40341217
   0.66666667  0.66666667  0.40341217
   0.83333333  0.33333333  0.50000000
   0.33333333  0.33333333  0.50000000
   0.83333333  0.83333333  0.50000000
   0.33333333  0.83333333  0.50000000
   0.00000000  0.00000000  0.59658783
   0.50000000  0.00000000  0.59658783
   0.00000000  0.50000000  0.59658783
   0.50000000  0.50000000  0.59658783
   0.16666667  0.16666667  0.64499729
 
 position of ions in cartesian coordinates  (Angst):
   1.46618591  0.84650283 10.00000000
   4.39855773  0.84650283 10.00000000
   2.93237182  3.38601132 10.00000000
   5.86474364  3.38601132 10.00000000
   5.86474364  1.69300566 12.39427157
   2.93237182  1.69300566 12.39427157
   7.33092955  4.23251415 12.39427157
   4.39855773  4.23251415 12.39427157
   0.00000000  0.00000000 14.78854313
   2.93237182  0.00000000 14.78854313
   1.46618591  2.53950849 14.78854313
   4.39855773  2.53950849 14.78854313
   1.46618591  0.84650283 15.98854313
 


--------------------------------------------------------------------------------------------------------


 k-point  1 :   0.0000 0.0000 0.0000  plane waves:   13497
 k-point  2 :   0.1111 0.0000 0.0000  plane waves:   13483
 k-point  3 :   0.2222 0.0000 0.0000  plane waves:   13439
 k-point  4 :   0.3333 0.0000 0.0000  plane waves:   13402
 k-point  5 :   0.4444 0.0000 0.0000  plane waves:   13372
 k-point  6 :   0.2222 0.1111 0.0000  plane waves:   13449
 k-point  7 :   0.3333 0.1111 0.0000  plane waves:   13414
 k-point  8 :   0.4444 0.1111 0.0000  plane waves:   13388
 k-point  9 :  -0.4444 0.1111 0.0000  plane waves:   13372
 k-point 10 :   0.4444 0.2222 0.0000  plane waves:   13410
 k-point 11 :  -0.4444 0.2222 0.0000  plane waves:   13394
 k-point 12 :  -0.3333 0.3333 0.0000  plane waves:   13428

 maximum and minimum number of plane-waves per node :     13497    13372

 maximum number of plane-waves:     13497
 maximum index in each direction: 
   IXMAX=   10   IYMAX=    9   IZMAX=   40
   IXMIN=  -10   IYMIN=   -9   IZMIN=  -40

 WARNING: aliasing errors must be expected set NGX to  42 to avoid them
 WARNING: aliasing errors must be expected set NGY to  38 to avoid them
 WARNING: aliasing errors must be expected set NGZ to 162 to avoid them
 aliasing errors are usually negligible using standard VASP settings
 and one can safely disregard these warnings

 serial   3D FFT for wavefunctions
 parallel 3D FFT for charge:
    minimum data exchange during FFTs selected (reduces bandwidth)


 total amount of memory used by VASP on root node    99324. kBytes
========================================================================

   base      :      30000. kBytes
   nonl-proj :      49507. kBytes
   fftplans  :       1950. kBytes
   grid      :       7104. kBytes
   one-center:        202. kBytes
   wavefun   :      10561. kBytes
 
     INWAV:  cpu time    0.0001: real time    0.0001
 Broyden mixing: mesh for mixing (old mesh)
   NGX = 19   NGY = 19   NGZ = 81
  (NGX  = 60   NGY  = 60   NGZ  =252)
  gives a total of  29241 points

 initial charge density was supplied:
 charge density of overlapping atoms calculated
 number of electron     138.0000000 magnetization 
 keeping initial charge density in first step


--------------------------------------------------------------------------------------------------------


 Maximum index for augmentation-charges          582 (set IRDMAX)


--------------------------------------------------------------------------------------------------------


 First call to EWALD:  gamma=   0.196
 Maximum number of real-space cells 5x 5x 1
 Maximum number of reciprocal cells 2x 2x 7

 FEWALD executed in parallel
    FEWALD:  cpu time    0.0017: real time    0.0017


----------------------------------------- Iteration    1(   1)  ---------------------------------------


    POTLOK:  cpu time    0.0418: real time    0.0421
    SETDIJ:  cpu time    0.0048: real time    0.0055
     EDDAV:  cpu time    4.1392: real time    4.1450
       DOS:  cpu time    0.0009: real time    0.0011
    --------------------------------------------
      LOOP:  cpu time    4.1893: real time    4.1980

 eigenvalue-minimisations  :  2304
 total energy-change (2. order) : 0.7406094E+03  (-0.5274715E+04)
 number of electron     138.0000000 magnetization 
 augmentation part      138.0000000 magnetization 

 Free energy of the ion-electron system (eV)
  ---------------------------------------------------
  alpha Z        PSCENC =       177.74950842
  Ewald energy   TEWEN  =     49020.42526340
  -Hartree energ DENC   =    -61896.86886119
  -exchange      EXHF   =         0.00000000
  -V(xc)+E(xc)   XCENC  =      -101.65700180
  PAW double counting   =     12388.09526881   -11836.53943832
  entropy T*S    EENTRO =        -0.00093903
  eigenvalues    EBANDS =       110.04128195
  atomic energy  EATOM  =     12879.36433655
  Solvation  Ediel_sol  =         0.00000000
  ---------------------------------------------------
  free energy    TOTEN  =       740.60941878 eV

  energy without entropy =      740.61035781  energy(sigma->0) =      740.60973179


--------------------------------------------------------------------------------------------------------




----------------------------------------- Iteration    1(   2)  ---------------------------------------


     EDDAV:  cpu time    4.4232: real time    4.4257
       DOS:  cpu time    0.0007: real time    0.0007
    --------------------------------------------
      LOOP:  cpu time    4.4253: real time    4.4384

 eigenvalue-minimisations  :  2688
 total energy-change (2. order) :-0.7483147E+03  (-0.7071492E+03)
 number of electron     138.0000000 magnetization 
 augmentation part      138.0000000 magnetization 

 Free energy of the ion-electron system (eV)
  ---------------------------------------------------
  alpha Z        PSCENC =       177.74950842
  Ewald energy   TEWEN  =     49020.42526340
  -Hartree energ DENC   =    -61896.86886119
  -exchange      EXHF   =         0.00000000
  -V(xc)+E(xc)   XCENC  =      -101.65700180
  PAW double counting   =     12388.09526881   -11836.53943832
  entropy T*S    EENTRO =        -0.01041019
  eigenvalues    EBANDS =      -638.26394618
  atomic energy  EATOM  =     12879.36433655
  Solvation  Ediel_sol  =         0.00000000
  ---------------------------------------------------
  free energy    TOTEN  =        -7.70528051 eV

  energy without entropy =       -7.69487032  energy(sigma->0) =       -7.70181044


--------------------------------------------------------------------------------------------------------




----------------------------------------- Iteration    1(   3)  ---------------------------------------


     EDDAV:  cpu time    4.4841: real time    4.4972
       DOS:  cpu time    0.0006: real time    0.0006
    --------------------------------------------
      LOOP:  cpu time    4.4858: real time    4.5066

 eigenvalue-minimisations  :  2832
 total energy-change (2. order) :-0.3239756E+02  (-0.3178740E+02)
 number of electron     138.0000000 magnetization 
 augmentation part      138.0000000 magnetization 

 Free energy of the ion-electron system (eV)
  ---------------------------------------------------
  alpha Z        PSCENC =       177.74950842
  Ewald energy   TEWEN  =     49020.42526340
  -Hartree energ DENC   =    -61896.86886119
  -exchange      EXHF   =         0.00000000
  -V(xc)+E(xc)   XCENC  =      -101.65700180
  PAW double counting   =     12388.09526881   -11836.53943832
  entropy T*S    EENTRO =        -0.00178839
  eigenvalues    EBANDS =      -670.67012325
  atomic energy  EATOM  =     12879.36433655
  Solvation  Ediel_sol  =         0.00000000
  ---------------------------------------------------
  free energy    TOTEN  =       -40.10283578 eV

  energy without entropy =      -40.10104739  energy(sigma->0) =      -40.10223965


--------------------------------------------------------------------------------------------------------




----------------------------------------- Iteration    1(   4)  ---------------------------------------


     EDDAV:  cpu time    4.1205: real time    4.1230
       DOS:  cpu time    0.0012: real time    0.0012
    --------------------------------------------
      LOOP:  cpu time    4.1226: real time    4.1265

 eigenvalue-minimisations  :  2592
 total energy-change (2. order) :-0.4563223E+00  (-0.4562461E+00)
 number of electron     138.0000000 magnetization 
 augmentation part      138.0000000 magnetization 

 Free energy of the ion-electron system (eV)
  ---------------------------------------------------
  alpha Z        PSCENC =       177.74950842
  Ewald energy   TEWEN  =     49020.42526340
  -Hartree energ DENC   =    -61896.86886119
  -exchange      EXHF   =         0.00000000
  -V(xc)+E(xc)   XCENC  =      -101.65700180
  PAW double counting   =     12388.09526881   -11836.53943832
  entropy T*S    EENTRO =        -0.00163434
  eigenvalues    EBANDS =      -671.12659959
  atomic energy  EATOM  =     12879.36433655
  Solvation  Ediel_sol  =         0.00000000
  ---------------------------------------------------
  free energy    TOTEN  =       -40.55915806 eV

  energy without entropy =      -40.55752372  energy(sigma->0) =      -40.55861328


--------------------------------------------------------------------------------------------------------




----------------------------------------- Iteration    1(   5)  ---------------------------------------


     EDDAV:  cpu time    5.2782: real time    5.3955
       DOS:  cpu time    0.0007: real time    0.0007
    CHARGE:  cpu time    0.1387: real time    0.1390
    MIXING:  cpu time    0.0022: real time    0.0023
    --------------------------------------------
      LOOP:  cpu time    5.4211: real time    5.5510

 eigenvalue-minimisations  :  3096
 total energy-change (2. order) :-0.7665653E-02  (-0.7665558E-02)
 number of electron     138.0000281 magnetization 
 augmentation part       62.1279694 magnetization 

 Broyden mixing:
  rms(total) = 0.19414E+01    rms(broyden)= 0.19412E+01
  rms(prec ) = 0.20295E+01
  weight for this iteration     100.00

 Free energy of the ion-electron system (eV)
  ---------------------------------------------------
  alpha Z        PSCENC =       177.74950842
  Ewald energy   TEWEN  =     49020.42526340
  -Hartree energ DENC   =    -61896.86886119
  -exchange      EXHF   =         0.00000000
  -V(xc)+E(xc)   XCENC  =      -101.65700180
  PAW double counting   =     12388.09526881   -11836.53943832
  entropy T*S    EENTRO =        -0.00163474
  eigenvalues    EBANDS =      -671.13426484
  atomic energy  EATOM  =     12879.36433655
  Solvation  Ediel_sol  =         0.00000000
  ---------------------------------------------------
  free energy    TOTEN  =       -40.56682371 eV

  energy without entropy =      -40.56518897  energy(sigma->0) =      -40.56627880


--------------------------------------------------------------------------------------------------------




----------------------------------------- Iteration    1(   6)  ---------------------------------------


    POTLOK:  cpu time    0.0317: real time    0.0317
    SETDIJ:  cpu time    0.0036: real time    0.0036
     EDDAV:  cpu time    5.6534: real time    5.6625
       DOS:  cpu time    0.0007: real time    0.0007
    CHARGE:  cpu time    0.1409: real time    0.1411
    MIXING:  cpu time    0.0021: real time    0.0022
    --------------------------------------------
      LOOP:  cpu time    5.8337: real time    5.8445

 eigenvalue-minimisations  :  3360
 total energy-change (2. order) : 0.2986772E+01  (-0.2776534E+01)
 number of electron     138.0000342 magnetization 
 augmentation part       63.2035372 magnetization 

 Broyden mixing:
  rms(total) = 0.17911E+01    rms(broyden)= 0.17902E+01
  rms(prec ) = 0.19766E+01
  weight for this iteration     100.00

 eigenvalues of (default mixing * dielectric matrix)
  average eigenvalue GAMMA=   0.5478
  0.5478

 Free energy of the ion-electron system (eV)
  ---------------------------------------------------
  alpha Z        PSCENC =       177.74950842
  Ewald energy   TEWEN  =     49020.42526340
  -Hartree energ DENC   =    -61800.59290207
  -exchange      EXHF   =         0.00000000
  -V(xc)+E(xc)   XCENC  =      -103.83333240
  PAW double counting   =     12855.89600489   -12313.68737825
  entropy T*S    EENTRO =        -0.00812793
  eigenvalues    EBANDS =      -752.89342429
  atomic energy  EATOM  =     12879.36433655
  Solvation  Ediel_sol  =         0.00000000
  ---------------------------------------------------
  free energy    TOTEN  =       -37.58005169 eV

  energy without entropy =      -37.57192376  energy(sigma->0) =      -37.57734238


--------------------------------------------------------------------------------------------------------




----------------------------------------- Iteration    1(   7)  ---------------------------------------


    POTLOK:  cpu time    0.0299: real time    0.0299
    SETDIJ:  cpu time    0.0040: real time    0.0040
     EDDAV:  cpu time    5.4522: real time    5.4623
       DOS:  cpu time    0.0007: real time    0.0007
    CHARGE:  cpu time    0.1377: real time    0.1379
    MIXING:  cpu time    0.0015: real time    0.0015
    --------------------------------------------
      LOOP:  cpu time    5.6272: real time    5.6499

 eigenvalue-minimisations  :  3096
 total energy-change (2. order) : 0.1362332E+01  (-0.4462153E+01)
 number of electron     138.0000302 magnetization 
 augmentation part       63.9077936 magnetization 

 Broyden mixing:
  rms(total) = 0.11564E+01    rms(broyden)= 0.11557E+01
  rms(prec ) = 0.12285E+01
  weight for this iteration     100.00

 eigenvalues of (default mixing * dielectric matrix)
  average eigenvalue GAMMA=   0.9245
  1.4750  0.3740

 Free energy of the ion-electron system (eV)
  ---------------------------------------------------
  alpha Z        PSCENC =       177.74950842
  Ewald energy   TEWEN  =     49020.42526340
  -Hartree energ DENC   =    -61793.77909826
  -exchange      EXHF   =         0.00000000
  -V(xc)+E(xc)   XCENC  =      -105.29118466
  PAW double counting   =     13011.09848547   -12473.26960208
  entropy T*S    EENTRO =        -0.00106143
  eigenvalues    EBANDS =      -752.51436707
  atomic energy  EATOM  =     12879.36433655
  Solvation  Ediel_sol  =         0.00000000
  ---------------------------------------------------
  free energy    TOTEN  =       -36.21771966 eV

  energy without entropy =      -36.21665823  energy(sigma->0) =      -36.21736585


--------------------------------------------------------------------------------------------------------




----------------------------------------- Iteration    1(   8)  ---------------------------------------


    POTLOK:  cpu time    0.0297: real time    0.0297
    SETDIJ:  cpu time    0.0037: real time    0.0037
     EDDAV:  cpu time    4.6657: real time    4.6752
       DOS:  cpu time    0.0007: real time    0.0007
    CHARGE:  cpu time    0.1386: real time    0.1388
    MIXING:  cpu time    0.0013: real time    0.0013
    --------------------------------------------
      LOOP:  cpu time    4.8410: real time    4.8529

 eigenvalue-minimisations  :  2664
 total energy-change (2. order) : 0.1072636E+01  (-0.5300717E+00)
 number of electron     138.0000310 magnetization 
 augmentation part       63.8524575 magnetization 

 Broyden mixing:
  rms(total) = 0.49049E+00    rms(broyden)= 0.49047E+00
  rms(prec ) = 0.49963E+00
  weight for this iteration     100.00

 eigenvalues of (default mixing * dielectric matrix)
  average eigenvalue GAMMA=   1.2281
  2.3830  0.9269  0.3746

 Free energy of the ion-electron system (eV)
  ---------------------------------------------------
  alpha Z        PSCENC =       177.74950842
  Ewald energy   TEWEN  =     49020.42526340
  -Hartree energ DENC   =    -61788.48873830
  -exchange      EXHF   =         0.00000000
  -V(xc)+E(xc)   XCENC  =      -105.43485713
  PAW double counting   =     13346.38093270   -12815.03233627
  entropy T*S    EENTRO =        -0.00442599
  eigenvalues    EBANDS =      -750.10476684
  atomic energy  EATOM  =     12879.36433655
  Solvation  Ediel_sol  =         0.00000000
  ---------------------------------------------------
  free energy    TOTEN  =       -35.14508347 eV

  energy without entropy =      -35.14065748  energy(sigma->0) =      -35.14360814


--------------------------------------------------------------------------------------------------------




----------------------------------------- Iteration    1(   9)  ---------------------------------------


    POTLOK:  cpu time    0.0293: real time    0.0293
    SETDIJ:  cpu time    0.0033: real time    0.0033
     EDDAV:  cpu time    4.6090: real time    4.6184
       DOS:  cpu time    0.0006: real time    0.0006
    CHARGE:  cpu time    0.1391: real time    0.1394
    MIXING:  cpu time    0.0014: real time    0.0014
    --------------------------------------------
      LOOP:  cpu time    4.7842: real time    4.7957

 eigenvalue-minimisations  :  2616
 total energy-change (2. order) :-0.6667144E-01  (-0.2153392E+00)
 number of electron     138.0000321 magnetization 
 augmentation part       63.7692082 magnetization 

 Broyden mixing:
  rms(total) = 0.32557E+00    rms(broyden)= 0.32527E+00
  rms(prec ) = 0.34843E+00
  weight for this iteration     100.00

 eigenvalues of (default mixing * dielectric matrix)
  average eigenvalue GAMMA=   1.1424
  2.5914  1.0764  0.3902  0.5116

 Free energy of the ion-electron system (eV)
  ---------------------------------------------------
  alpha Z        PSCENC =       177.74950842
  Ewald energy   TEWEN  =     49020.42526340
  -Hartree energ DENC   =    -61783.20045264
  -exchange      EXHF   =         0.00000000
  -V(xc)+E(xc)   XCENC  =      -105.42672943
  PAW double counting   =     13627.82110509   -13102.16433351
  entropy T*S    EENTRO =        -0.00096756
  eigenvalues    EBANDS =      -749.77948522
  atomic energy  EATOM  =     12879.36433655
  Solvation  Ediel_sol  =         0.00000000
  ---------------------------------------------------
  free energy    TOTEN  =       -35.21175491 eV

  energy without entropy =      -35.21078735  energy(sigma->0) =      -35.21143239


--------------------------------------------------------------------------------------------------------




----------------------------------------- Iteration    1(  10)  ---------------------------------------


    POTLOK:  cpu time    0.0310: real time    0.0310
    SETDIJ:  cpu time    0.0034: real time    0.0034
     EDDAV:  cpu time    4.2080: real time    4.2176
       DOS:  cpu time    0.0007: real time    0.0007
    CHARGE:  cpu time    0.1445: real time    0.1447
    MIXING:  cpu time    0.0016: real time    0.0016
    --------------------------------------------
      LOOP:  cpu time    4.3903: real time    4.4023

 eigenvalue-minimisations  :  2688
 total energy-change (2. order) : 0.1071311E+00  (-0.3743869E-01)
 number of electron     138.0000318 magnetization 
 augmentation part       63.7596898 magnetization 

 Broyden mixing:
  rms(total) = 0.14478E+00    rms(broyden)= 0.14477E+00
  rms(prec ) = 0.15568E+00
  weight for this iteration     100.00

 eigenvalues of (default mixing * dielectric matrix)
  average eigenvalue GAMMA=   1.1064
  2.5488  0.3810  1.0661  0.7680  0.7680

 Free energy of the ion-electron system (eV)
  ---------------------------------------------------
  alpha Z        PSCENC =       177.74950842
  Ewald energy   TEWEN  =     49020.42526340
  -Hartree energ DENC   =    -61785.39501189
  -exchange      EXHF   =         0.00000000
  -V(xc)+E(xc)   XCENC  =      -105.54817499
  PAW double counting   =     13662.36498114   -13137.58076601
  entropy T*S    EENTRO =        -0.00256202
  eigenvalues    EBANDS =      -746.48219836
  atomic energy  EATOM  =     12879.36433655
  Solvation  Ediel_sol  =         0.00000000
  ---------------------------------------------------
  free energy    TOTEN  =       -35.10462377 eV

  energy without entropy =      -35.10206175  energy(sigma->0) =      -35.10376976


--------------------------------------------------------------------------------------------------------




----------------------------------------- Iteration    1(  11)  ---------------------------------------


    POTLOK:  cpu time    0.0296: real time    0.0297
    SETDIJ:  cpu time    0.0040: real time    0.0040
     EDDAV:  cpu time    4.1790: real time    4.2226
       DOS:  cpu time    0.0006: real time    0.0006
    CHARGE:  cpu time    0.1427: real time    0.1428
    MIXING:  cpu time    0.0015: real time    0.0015
    --------------------------------------------
      LOOP:  cpu time    4.3588: real time    4.4051

 eigenvalue-minimisations  :  2664
 total energy-change (2. order) : 0.1591949E-01  (-0.1232568E-01)
 number of electron     138.0000316 magnetization 
 augmentation part       63.7844185 magnetization 

 Broyden mixing:
  rms(total) = 0.36682E-01    rms(broyden)= 0.36541E-01
  rms(prec ) = 0.39658E-01
  weight for this iteration     100.00

 eigenvalues of (default mixing * dielectric matrix)
  average eigenvalue GAMMA=   1.1397
  2.5606  1.2949  1.1881  0.3817  0.7065  0.7065

 Free energy of the ion-electron system (eV)
  ---------------------------------------------------
  alpha Z        PSCENC =       177.74950842
  Ewald energy   TEWEN  =     49020.42526340
  -Hartree energ DENC   =    -61784.10205426
  -exchange      EXHF   =         0.00000000
  -V(xc)+E(xc)   XCENC  =      -105.61258566
  PAW double counting   =     13643.56274597   -13118.57457917
  entropy T*S    EENTRO =        -0.00384435
  eigenvalues    EBANDS =      -747.89749517
  atomic energy  EATOM  =     12879.36433655
  Solvation  Ediel_sol  =         0.00000000
  ---------------------------------------------------
  free energy    TOTEN  =       -35.08870427 eV

  energy without entropy =      -35.08485993  energy(sigma->0) =      -35.08742283


--------------------------------------------------------------------------------------------------------




----------------------------------------- Iteration    1(  12)  ---------------------------------------


    POTLOK:  cpu time    0.0285: real time    0.0285
    SETDIJ:  cpu time    0.0031: real time    0.0031
     EDDAV:  cpu time    4.0310: real time    4.0404
       DOS:  cpu time    0.0006: real time    0.0006
    CHARGE:  cpu time    0.1432: real time    0.1435
    MIXING:  cpu time    0.0016: real time    0.0016
    --------------------------------------------
      LOOP:  cpu time    4.2091: real time    4.2208

 eigenvalue-minimisations  :  2544
 total energy-change (2. order) :-0.8263425E-03  (-0.1952386E-02)
 number of electron     138.0000315 magnetization 
 augmentation part       63.8018978 magnetization 

 Broyden mixing:
  rms(total) = 0.21214E-01    rms(broyden)= 0.21145E-01
  rms(prec ) = 0.22290E-01
  weight for this iteration     100.00

 eigenvalues of (default mixing * dielectric matrix)
  average eigenvalue GAMMA=   1.1842
  2.6051  1.8929  0.3818  1.0628  0.7490  0.7989  0.7989

 Free energy of the ion-electron system (eV)
  ---------------------------------------------------
  alpha Z        PSCENC =       177.74950842
  Ewald energy   TEWEN  =     49020.42526340
  -Hartree energ DENC   =    -61783.84035220
  -exchange      EXHF   =         0.00000000
  -V(xc)+E(xc)   XCENC  =      -105.63944350
  PAW double counting   =     13627.95654144   -13102.89564146
  entropy T*S    EENTRO =        -0.00505085
  eigenvalues    EBANDS =      -748.20469241
  atomic energy  EATOM  =     12879.36433655
  Solvation  Ediel_sol  =         0.00000000
  ---------------------------------------------------
  free energy    TOTEN  =       -35.08953062 eV

  energy without entropy =      -35.08447977  energy(sigma->0) =      -35.08784700


--------------------------------------------------------------------------------------------------------




----------------------------------------- Iteration    1(  13)  ---------------------------------------


    POTLOK:  cpu time    0.0286: real time    0.0286
    SETDIJ:  cpu time    0.0033: real time    0.0033
     EDDAV:  cpu time    4.0911: real time    4.0997
       DOS:  cpu time    0.0006: real time    0.0006
    CHARGE:  cpu time    0.1436: real time    0.1438
    MIXING:  cpu time    0.0016: real time    0.0016
    --------------------------------------------
      LOOP:  cpu time    4.2703: real time    4.2813

 eigenvalue-minimisations  :  2592
 total energy-change (2. order) :-0.8272671E-03  (-0.1316508E-03)
 number of electron     138.0000315 magnetization 
 augmentation part       63.8006751 magnetization 

 Broyden mixing:
  rms(total) = 0.13674E-01    rms(broyden)= 0.13668E-01
  rms(prec ) = 0.15175E-01
  weight for this iteration     100.00

 eigenvalues of (default mixing * dielectric matrix)
  average eigenvalue GAMMA=   1.2074
  2.5790  2.0526  1.0903  1.0903  1.1104  0.3818  0.6775  0.6775

 Free energy of the ion-electron system (eV)
  ---------------------------------------------------
  alpha Z        PSCENC =       177.74950842
  Ewald energy   TEWEN  =     49020.42526340
  -Hartree energ DENC   =    -61784.32444241
  -exchange      EXHF   =         0.00000000
  -V(xc)+E(xc)   XCENC  =      -105.63553057
  PAW double counting   =     13621.59962161   -13096.51361178
  entropy T*S    EENTRO =        -0.00496806
  eigenvalues    EBANDS =      -747.75053504
  atomic energy  EATOM  =     12879.36433655
  Solvation  Ediel_sol  =         0.00000000
  ---------------------------------------------------
  free energy    TOTEN  =       -35.09035788 eV

  energy without entropy =      -35.08538983  energy(sigma->0) =      -35.08870186


--------------------------------------------------------------------------------------------------------




----------------------------------------- Iteration    1(  14)  ---------------------------------------


    POTLOK:  cpu time    0.0288: real time    0.0288
    SETDIJ:  cpu time    0.0034: real time    0.0034
     EDDAV:  cpu time    3.8565: real time    3.8975
       DOS:  cpu time    0.0006: real time    0.0006
    CHARGE:  cpu time    0.1426: real time    0.1428
    MIXING:  cpu time    0.0016: real time    0.0016
    --------------------------------------------
      LOOP:  cpu time    4.0348: real time    4.0779

 eigenvalue-minimisations  :  2400
 total energy-change (2. order) :-0.2103972E-03  (-0.9657917E-04)
 number of electron     138.0000315 magnetization 
 augmentation part       63.7966843 magnetization 

 Broyden mixing:
  rms(total) = 0.43729E-02    rms(broyden)= 0.43695E-02
  rms(prec ) = 0.48842E-02
  weight for this iteration     100.00

 eigenvalues of (default mixing * dielectric matrix)
  average eigenvalue GAMMA=   1.2391
  2.4820  2.4820  1.4227  1.1197  1.1197  0.3818  0.7335  0.7335  0.6766

 Free energy of the ion-electron system (eV)
  ---------------------------------------------------
  alpha Z        PSCENC =       177.74950842
  Ewald energy   TEWEN  =     49020.42526340
  -Hartree energ DENC   =    -61785.04996025
  -exchange      EXHF   =         0.00000000
  -V(xc)+E(xc)   XCENC  =      -105.62699123
  PAW double counting   =     13618.94535524   -13093.83146114
  entropy T*S    EENTRO =        -0.00470236
  eigenvalues    EBANDS =      -747.06191692
  atomic energy  EATOM  =     12879.36433655
  Solvation  Ediel_sol  =         0.00000000
  ---------------------------------------------------
  free energy    TOTEN  =       -35.09056828 eV

  energy without entropy =      -35.08586593  energy(sigma->0) =      -35.08900083


--------------------------------------------------------------------------------------------------------




----------------------------------------- Iteration    1(  15)  ---------------------------------------


    POTLOK:  cpu time    0.0282: real time    0.0285
    SETDIJ:  cpu time    0.0033: real time    0.0033
     EDDAV:  cpu time    3.5446: real time    3.5529
       DOS:  cpu time    0.0006: real time    0.0006
    CHARGE:  cpu time    0.1440: real time    0.1442
    MIXING:  cpu time    0.0019: real time    0.0019
    --------------------------------------------
      LOOP:  cpu time    3.7239: real time    3.7347

 eigenvalue-minimisations  :  2136
 total energy-change (2. order) :-0.2930800E-03  (-0.2321702E-04)
 number of electron     138.0000315 magnetization 
 augmentation part       63.7967585 magnetization 

 Broyden mixing:
  rms(total) = 0.18140E-02    rms(broyden)= 0.18113E-02
  rms(prec ) = 0.23675E-02
  weight for this iteration     100.00

 eigenvalues of (default mixing * dielectric matrix)
  average eigenvalue GAMMA=   1.2775
  2.6397  2.6397  0.3818  1.4007  1.1892  1.1892  1.1164  0.7551  0.7551  0.7080

 Free energy of the ion-electron system (eV)
  ---------------------------------------------------
  alpha Z        PSCENC =       177.74950842
  Ewald energy   TEWEN  =     49020.42526340
  -Hartree energ DENC   =    -61785.57261868
  -exchange      EXHF   =         0.00000000
  -V(xc)+E(xc)   XCENC  =      -105.62455045
  PAW double counting   =     13617.01361908   -13091.88726576
  entropy T*S    EENTRO =        -0.00482809
  eigenvalues    EBANDS =      -746.55432581
  atomic energy  EATOM  =     12879.36433655
  Solvation  Ediel_sol  =         0.00000000
  ---------------------------------------------------
  free energy    TOTEN  =       -35.09086136 eV

  energy without entropy =      -35.08603327  energy(sigma->0) =      -35.08925200


--------------------------------------------------------------------------------------------------------




----------------------------------------- Iteration    1(  16)  ---------------------------------------


    POTLOK:  cpu time    0.0288: real time    0.0288
    SETDIJ:  cpu time    0.0033: real time    0.0033
     EDDAV:  cpu time    3.3471: real time    3.3529
       DOS:  cpu time    0.0007: real time    0.0007
    CHARGE:  cpu time    0.1430: real time    0.1431
    MIXING:  cpu time    0.0023: real time    0.0023
    --------------------------------------------
      LOOP:  cpu time    3.5265: real time    3.5341

 eigenvalue-minimisations  :  1944
 total energy-change (2. order) :-0.1478187E-03  (-0.8277271E-05)
 number of electron     138.0000315 magnetization 
 augmentation part       63.7959009 magnetization 

 Broyden mixing:
  rms(total) = 0.17797E-02    rms(broyden)= 0.17763E-02
  rms(prec ) = 0.20986E-02
  weight for this iteration     100.00

 eigenvalues of (default mixing * dielectric matrix)
  average eigenvalue GAMMA=   1.3053
  2.8218  2.6234  1.6514  1.6514  0.3818  1.0323  1.0323  0.9465  0.7196  0.7488
  0.7488

 Free energy of the ion-electron system (eV)
  ---------------------------------------------------
  alpha Z        PSCENC =       177.74950842
  Ewald energy   TEWEN  =     49020.42526340
  -Hartree energ DENC   =    -61785.76356679
  -exchange      EXHF   =         0.00000000
  -V(xc)+E(xc)   XCENC  =      -105.62247705
  PAW double counting   =     13616.24297025   -13091.11274662
  entropy T*S    EENTRO =        -0.00470787
  eigenvalues    EBANDS =      -746.36958948
  atomic energy  EATOM  =     12879.36433655
  Solvation  Ediel_sol  =         0.00000000
  ---------------------------------------------------
  free energy    TOTEN  =       -35.09100918 eV

  energy without entropy =      -35.08630131  energy(sigma->0) =      -35.08943989


--------------------------------------------------------------------------------------------------------




----------------------------------------- Iteration    1(  17)  ---------------------------------------


    POTLOK:  cpu time    0.0286: real time    0.0286
    SETDIJ:  cpu time    0.0032: real time    0.0032
     EDDAV:  cpu time    3.1425: real time    3.2099
       DOS:  cpu time    0.0006: real time    0.0006
    CHARGE:  cpu time    0.1439: real time    0.1441
    MIXING:  cpu time    0.0019: real time    0.0019
    --------------------------------------------
      LOOP:  cpu time    3.3219: real time    3.3918

 eigenvalue-minimisations  :  1800
 total energy-change (2. order) :-0.1335042E-03  (-0.3256007E-05)
 number of electron     138.0000315 magnetization 
 augmentation part       63.7962257 magnetization 

 Broyden mixing:
  rms(total) = 0.46749E-03    rms(broyden)= 0.46399E-03
  rms(prec ) = 0.76477E-03
  weight for this iteration     100.00

 eigenvalues of (default mixing * dielectric matrix)
  average eigenvalue GAMMA=   1.3669
  3.2886  2.6118  2.2063  1.3729  1.3729  0.3818  1.0228  0.9754  0.9754  0.7142
  0.7402  0.7402

 Free energy of the ion-electron system (eV)
  ---------------------------------------------------
  alpha Z        PSCENC =       177.74950842
  Ewald energy   TEWEN  =     49020.42526340
  -Hartree energ DENC   =    -61785.96685573
  -exchange      EXHF   =         0.00000000
  -V(xc)+E(xc)   XCENC  =      -105.62302012
  PAW double counting   =     13615.97710290   -13090.84685130
  entropy T*S    EENTRO =        -0.00476662
  eigenvalues    EBANDS =      -746.16586018
  atomic energy  EATOM  =     12879.36433655
  Solvation  Ediel_sol  =         0.00000000
  ---------------------------------------------------
  free energy    TOTEN  =       -35.09114268 eV

  energy without entropy =      -35.08637606  energy(sigma->0) =      -35.08955381


--------------------------------------------------------------------------------------------------------




----------------------------------------- Iteration    1(  18)  ---------------------------------------


    POTLOK:  cpu time    0.0286: real time    0.0287
    SETDIJ:  cpu time    0.0033: real time    0.0033
     EDDAV:  cpu time    3.0367: real time    3.0436
       DOS:  cpu time    0.0007: real time    0.0007
    CHARGE:  cpu time    0.1419: real time    0.1421
    MIXING:  cpu time    0.0021: real time    0.0021
    --------------------------------------------
      LOOP:  cpu time    3.2146: real time    3.2236

 eigenvalue-minimisations  :  1704
 total energy-change (2. order) :-0.1059671E-03  (-0.1235102E-05)
 number of electron     138.0000315 magnetization 
 augmentation part       63.7961948 magnetization 

 Broyden mixing:
  rms(total) = 0.40333E-03    rms(broyden)= 0.39941E-03
  rms(prec ) = 0.54802E-03
  weight for this iteration     100.00

 eigenvalues of (default mixing * dielectric matrix)
  average eigenvalue GAMMA=   1.4610
  4.2370  2.6083  2.4106  1.5770  1.5770  0.3818  1.0773  0.9546  0.9546  0.9859
  0.7224  0.7533  0.7533

 Free energy of the ion-electron system (eV)
  ---------------------------------------------------
  alpha Z        PSCENC =       177.74950842
  Ewald energy   TEWEN  =     49020.42526340
  -Hartree energ DENC   =    -61786.18103975
  -exchange      EXHF   =         0.00000000
  -V(xc)+E(xc)   XCENC  =      -105.62270414
  PAW double counting   =     13616.01450631   -13090.88552398
  entropy T*S    EENTRO =        -0.00477554
  eigenvalues    EBANDS =      -745.95081990
  atomic energy  EATOM  =     12879.36433655
  Solvation  Ediel_sol  =         0.00000000
  ---------------------------------------------------
  free energy    TOTEN  =       -35.09124865 eV

  energy without entropy =      -35.08647311  energy(sigma->0) =      -35.08965680


--------------------------------------------------------------------------------------------------------




----------------------------------------- Iteration    1(  19)  ---------------------------------------


    POTLOK:  cpu time    0.0327: real time    0.0327
    SETDIJ:  cpu time    0.0031: real time    0.0031
     EDDAV:  cpu time    3.0608: real time    3.0692
       DOS:  cpu time    0.0006: real time    0.0006
    --------------------------------------------
      LOOP:  cpu time    3.0983: real time    3.1086

 eigenvalue-minimisations  :  1704
 total energy-change (2. order) :-0.6169229E-04  (-0.5012881E-06)
 number of electron     138.0000315 magnetization 
 augmentation part       63.7961948 magnetization 

 Free energy of the ion-electron system (eV)
  ---------------------------------------------------
  alpha Z        PSCENC =       177.74950842
  Ewald energy   TEWEN  =     49020.42526340
  -Hartree energ DENC   =    -61786.29674339
  -exchange      EXHF   =         0.00000000
  -V(xc)+E(xc)   XCENC  =      -105.62277576
  PAW double counting   =     13616.07730078   -13090.94934052
  entropy T*S    EENTRO =        -0.00479095
  eigenvalues    EBANDS =      -745.83406886
  atomic energy  EATOM  =     12879.36433655
  Solvation  Ediel_sol  =         0.00000000
  ---------------------------------------------------
  free energy    TOTEN  =       -35.09131034 eV

  energy without entropy =      -35.08651939  energy(sigma->0) =      -35.08971336


--------------------------------------------------------------------------------------------------------




 average (electrostatic) potential at core
  the test charge radii are     1.1249  0.7215
  (the norm of the test charge is              1.0000)
       1 -80.1295       2 -80.0483       3 -80.0483       4 -80.0483       5 -80.2805
       6 -80.2805       7 -80.3268       8 -80.2805       9 -80.1054      10 -80.1054
      11 -80.1054      12 -80.1268      13 -76.3879
 
 
 
 E-fermi :  -1.1510     XC(G=0):  -4.2422     alpha+bet : -3.8318


 k-point     1 :       0.0000    0.0000    0.0000
  band No.  band energies     occupation 
      1     -18.7876      2.00000
      2      -8.0207      2.00000
      3      -7.2224      2.00000
      4      -7.1744      2.00000
      5      -7.1744      2.00000
      6      -7.1317      2.00000
      7      -7.0653      2.00000
      8      -7.0653      2.00000
      9      -7.0280      2.00000
     10      -6.9922      2.00000
     11      -6.8697      2.00000
     12      -6.8697      2.00000
     13      -6.8580      2.00000
     14      -6.7589      2.00000
     15      -6.7589      2.00000
     16      -6.7314      2.00000
     17      -6.3777      2.00000
     18      -6.3777      2.00000
     19      -5.9640      2.00000
     20      -5.9295      2.00000
     21      -5.9295      2.00000
     22      -5.8593      2.00000
     23      -5.8484      2.00000
     24      -5.8484      2.00000
     25      -5.7972      2.00000
     26      -5.7719      2.00000
     27      -5.7719      2.00000
     28      -5.5831      2.00000
     29      -5.5831      2.00000
     30      -5.5368      2.00000
     31      -5.5072      2.00000
     32      -5.5072      2.00000
     33      -5.1838      2.00000
     34      -5.1837      2.00000
     35      -5.0785      2.00000
     36      -4.9317      2.00000
     37      -4.9281      2.00000
     38      -4.9281      2.00000
     39      -4.8404      2.00000
     40      -4.8404      2.00000
     41      -4.8032      2.00000
     42      -4.6697      2.00000
     43      -4.6697      2.00000
     44      -4.6078      2.00000
     45      -4.5661      2.00000
     46      -4.5661      2.00000
     47      -4.3853      2.00000
     48      -4.3853      2.00000
     49      -4.2788      2.00000
     50      -4.2598      2.00000
     51      -4.2598      2.00000
     52      -4.2113      2.00000
     53      -4.1926      2.00000
     54      -4.1926      2.00000
     55      -4.1248      2.00000
     56      -4.1248      2.00000
     57      -4.1105      2.00000
     58      -4.0045      2.00000
     59      -4.0045      2.00000
     60      -3.9383      2.00000
     61      -3.9163      2.00000
     62      -3.9163      2.00000
     63      -3.8853      2.00000
     64      -2.7295      2.00000
     65      -2.4506      2.00000
     66      -2.4504      2.00000
     67      -2.1063      2.00000
     68      -0.7169     -0.00000
     69      -0.7169     -0.00000
     70      -0.6109     -0.00000
     71      -0.2743     -0.00000
     72       0.1588     -0.00000
     73       0.1588     -0.00000
     74       0.2982     -0.00000
     75       0.6374     -0.00000
     76       0.6374     -0.00000
     77       1.6794      0.00000
     78       2.8601      0.00000
     79       2.8601      0.00000
     80       3.1163      0.00000
     81       3.1263      0.00000
     82       3.9035      0.00000
     83       3.9035      0.00000
     84       3.9385      0.00000
     85       3.9702      0.00000
     86       4.4032      0.00000
     87       4.8629      0.00000
     88       5.3349      0.00000
     89       5.4335      0.00000
     90       5.4335      0.00000
     91       5.4575      0.00000
     92       6.8844      0.00000
     93       7.0300      0.00000
     94       7.1774      0.00000
     95       7.1774      0.00000
     96       7.2965      0.00000

 k-point     2 :       0.1111    0.0000    0.0000
  band No.  band energies     occupation 
      1     -18.7868      2.00000
      2      -7.9431      2.00000
      3      -7.1867      2.00000
      4      -7.1429      2.00000
      5      -7.1295      2.00000
      6      -7.0843      2.00000
      7      -7.0379      2.00000
      8      -7.0215      2.00000
      9      -6.9749      2.00000
     10      -6.9403      2.00000
     11      -6.8535      2.00000
     12      -6.8408      2.00000
     13      -6.8299      2.00000
     14      -6.7266      2.00000
     15      -6.7124      2.00000
     16      -6.6853      2.00000
     17      -6.3703      2.00000
     18      -6.3548      2.00000
     19      -5.9575      2.00000
     20      -5.9391      2.00000
     21      -5.9326      2.00000
     22      -5.8473      2.00000
     23      -5.8425      2.00000
     24      -5.8214      2.00000
     25      -5.8047      2.00000
     26      -5.7636      2.00000
     27      -5.7332      2.00000
     28      -5.6161      2.00000
     29      -5.5746      2.00000
     30      -5.5418      2.00000
     31      -5.5267      2.00000
     32      -5.4745      2.00000
     33      -5.2466      2.00000
     34      -5.1808      2.00000
     35      -5.1301      2.00000
     36      -5.0087      2.00000
     37      -4.9638      2.00000
     38      -4.9447      2.00000
     39      -4.8562      2.00000
     40      -4.8228      2.00000
     41      -4.8011      2.00000
     42      -4.7033      2.00000
     43      -4.6880      2.00000
     44      -4.6211      2.00000
     45      -4.5889      2.00000
     46      -4.5742      2.00000
     47      -4.4206      2.00000
     48      -4.3967      2.00000
     49      -4.3058      2.00000
     50      -4.2773      2.00000
     51      -4.2657      2.00000
     52      -4.2300      2.00000
     53      -4.2167      2.00000
     54      -4.2153      2.00000
     55      -4.1895      2.00000
     56      -4.1850      2.00000
     57      -4.1592      2.00000
     58      -4.0886      2.00000
     59      -4.0483      2.00000
     60      -4.0077      2.00000
     61      -3.9868      2.00000
     62      -3.9712      2.00000
     63      -3.9503      2.00000
     64      -2.7251      2.00000
     65      -2.6081      2.00000
     66      -2.4626      2.00000
     67      -1.9785      2.00000
     68      -1.4641      2.00009
     69      -0.8832     -0.00101
     70      -0.8085     -0.00001
     71      -0.2096     -0.00000
     72      -0.0780     -0.00000
     73       0.2183     -0.00000
     74       0.5406     -0.00000
     75       0.9842     -0.00000
     76       1.1197     -0.00000
     77       1.8788      0.00000
     78       2.9663      0.00000
     79       3.0038      0.00000
     80       3.1930      0.00000
     81       3.2841      0.00000
     82       3.9368      0.00000
     83       3.9725      0.00000
     84       4.0008      0.00000
     85       4.0374      0.00000
     86       4.5812      0.00000
     87       4.9561      0.00000
     88       5.3083      0.00000
     89       5.4486      0.00000
     90       5.6312      0.00000
     91       5.8378      0.00000
     92       6.7102      0.00000
     93       6.8933      0.00000
     94       6.9005      0.00000
     95       7.1858      0.00000
     96       7.3579      0.00000

 k-point     3 :       0.2222    0.0000    0.0000
  band No.  band energies     occupation 
      1     -18.7846      2.00000
      2      -7.7223      2.00000
      3      -7.1187      2.00000
      4      -7.0372      2.00000
      5      -7.0072      2.00000
      6      -6.9813      2.00000
      7      -6.9281      2.00000
      8      -6.8924      2.00000
      9      -6.8589      2.00000
     10      -6.8006      2.00000
     11      -6.7681      2.00000
     12      -6.7565      2.00000
     13      -6.7463      2.00000
     14      -6.6342      2.00000
     15      -6.5913      2.00000
     16      -6.5589      2.00000
     17      -6.3357      2.00000
     18      -6.2822      2.00000
     19      -5.9820      2.00000
     20      -5.9629      2.00000
     21      -5.9209      2.00000
     22      -5.8746      2.00000
     23      -5.8278      2.00000
     24      -5.8010      2.00000
     25      -5.7465      2.00000
     26      -5.7459      2.00000
     27      -5.6922      2.00000
     28      -5.6212      2.00000
     29      -5.5838      2.00000
     30      -5.5554      2.00000
     31      -5.5055      2.00000
     32      -5.3839      2.00000
     33      -5.3830      2.00000
     34      -5.2356      2.00000
     35      -5.1843      2.00000
     36      -5.1446      2.00000
     37      -5.0833      2.00000
     38      -4.9973      2.00000
     39      -4.8955      2.00000
     40      -4.8647      2.00000
     41      -4.8629      2.00000
     42      -4.7861      2.00000
     43      -4.7480      2.00000
     44      -4.6972      2.00000
     45      -4.6649      2.00000
     46      -4.5933      2.00000
     47      -4.5329      2.00000
     48      -4.4602      2.00000
     49      -4.4539      2.00000
     50      -4.4192      2.00000
     51      -4.4008      2.00000
     52      -4.3977      2.00000
     53      -4.3293      2.00000
     54      -4.3263      2.00000
     55      -4.2649      2.00000
     56      -4.2476      2.00000
     57      -4.2149      2.00000
     58      -4.1739      2.00000
     59      -4.1535      2.00000
     60      -4.1169      2.00000
     61      -4.0902      2.00000
     62      -4.0604      2.00000
     63      -4.0361      2.00000
     64      -3.1882      2.00000
     65      -2.7208      2.00000
     66      -2.4873      2.00000
     67      -2.3106      2.00000
     68      -1.6548      2.00000
     69      -1.1074      0.33440
     70      -1.0917      0.16640
     71      -0.7367     -0.00000
     72       0.2172     -0.00000
     73       0.3006     -0.00000
     74       0.6890     -0.00000
     75       1.3282     -0.00000
     76       1.7317      0.00000
     77       2.2922      0.00000
     78       3.1860      0.00000
     79       3.3830      0.00000
     80       3.4056      0.00000
     81       3.7587      0.00000
     82       4.1989      0.00000
     83       4.2063      0.00000
     84       4.2375      0.00000
     85       4.4504      0.00000
     86       4.8558      0.00000
     87       5.2723      0.00000
     88       5.4202      0.00000
     89       5.6373      0.00000
     90       6.0066      0.00000
     91       6.0204      0.00000
     92       6.5733      0.00000
     93       6.7683      0.00000
     94       6.9655      0.00000
     95       7.2212      0.00000
     96       7.3372      0.00000

 k-point     4 :       0.3333    0.0000    0.0000
  band No.  band energies     occupation 
      1     -18.7822      2.00000
      2      -7.4107      2.00000
      3      -7.0525      2.00000
      4      -6.9333      2.00000
      5      -6.8463      2.00000
      6      -6.8251      2.00000
      7      -6.7725      2.00000
      8      -6.6973      2.00000
      9      -6.6885      2.00000
     10      -6.6845      2.00000
     11      -6.6354      2.00000
     12      -6.6273      2.00000
     13      -6.5533      2.00000
     14      -6.4889      2.00000
     15      -6.4675      2.00000
     16      -6.4106      2.00000
     17      -6.2146      2.00000
     18      -6.1450      2.00000
     19      -6.0446      2.00000
     20      -6.0231      2.00000
     21      -5.9801      2.00000
     22      -5.9281      2.00000
     23      -5.8541      2.00000
     24      -5.7711      2.00000
     25      -5.7300      2.00000
     26      -5.6785      2.00000
     27      -5.6729      2.00000
     28      -5.5801      2.00000
     29      -5.5620      2.00000
     30      -5.4650      2.00000
     31      -5.4642      2.00000
     32      -5.4231      2.00000
     33      -5.4025      2.00000
     34      -5.3526      2.00000
     35      -5.3319      2.00000
     36      -5.2808      2.00000
     37      -5.0890      2.00000
     38      -5.0595      2.00000
     39      -4.9877      2.00000
     40      -4.9473      2.00000
     41      -4.9333      2.00000
     42      -4.8828      2.00000
     43      -4.8668      2.00000
     44      -4.8410      2.00000
     45      -4.8004      2.00000
     46      -4.7947      2.00000
     47      -4.7568      2.00000
     48      -4.6522      2.00000
     49      -4.6486      2.00000
     50      -4.6230      2.00000
     51      -4.5929      2.00000
     52      -4.5551      2.00000
     53      -4.4918      2.00000
     54      -4.4541      2.00000
     55      -4.4129      2.00000
     56      -4.3613      2.00000
     57      -4.2703      2.00000
     58      -4.2442      2.00000
     59      -4.2076      2.00000
     60      -4.1827      2.00000
     61      -4.1501      2.00000
     62      -4.0475      2.00000
     63      -4.0133      2.00000
     64      -3.8735      2.00000
     65      -3.0603      2.00000
     66      -2.5078      2.00000
     67      -2.4827      2.00000
     68      -1.6265      2.00000
     69      -1.2370      2.00748
     70      -1.1956      1.67781
     71      -0.8600     -0.00031
     72       0.2243     -0.00000
     73       0.3612     -0.00000
     74       0.8719     -0.00000
     75       1.2750     -0.00000
     76       2.4456      0.00000
     77       2.6012      0.00000
     78       3.5465      0.00000
     79       3.5494      0.00000
     80       3.7291      0.00000
     81       3.9488      0.00000
     82       4.5480      0.00000
     83       4.6203      0.00000
     84       4.8051      0.00000
     85       5.1592      0.00000
     86       5.4356      0.00000
     87       5.5771      0.00000
     88       5.7204      0.00000
     89       5.9375      0.00000
     90       5.9908      0.00000
     91       6.0759      0.00000
     92       6.3834      0.00000
     93       6.5856      0.00000
     94       6.9858      0.00000
     95       7.0627      0.00000
     96       7.2241      0.00000

 k-point     5 :       0.4444    0.0000    0.0000
  band No.  band energies     occupation 
      1     -18.7805      2.00000
      2      -7.1705      2.00000
      3      -6.9806      2.00000
      4      -6.8582      2.00000
      5      -6.7011      2.00000
      6      -6.7010      2.00000
      7      -6.6925      2.00000
      8      -6.5964      2.00000
      9      -6.5466      2.00000
     10      -6.5164      2.00000
     11      -6.5119      2.00000
     12      -6.4723      2.00000
     13      -6.4016      2.00000
     14      -6.3788      2.00000
     15      -6.3581      2.00000
     16      -6.2837      2.00000
     17      -6.2036      2.00000
     18      -6.1104      2.00000
     19      -6.0755      2.00000
     20      -6.0001      2.00000
     21      -5.9438      2.00000
     22      -5.9212      2.00000
     23      -5.8392      2.00000
     24      -5.8213      2.00000
     25      -5.7973      2.00000
     26      -5.7693      2.00000
     27      -5.7020      2.00000
     28      -5.5401      2.00000
     29      -5.4993      2.00000
     30      -5.4635      2.00000
     31      -5.4381      2.00000
     32      -5.4018      2.00000
     33      -5.3911      2.00000
     34      -5.3210      2.00000
     35      -5.2818      2.00000
     36      -5.2470      2.00000
     37      -5.1896      2.00000
     38      -5.1557      2.00000
     39      -5.1537      2.00000
     40      -5.0829      2.00000
     41      -5.0608      2.00000
     42      -5.0322      2.00000
     43      -4.9707      2.00000
     44      -4.9685      2.00000
     45      -4.9175      2.00000
     46      -4.8630      2.00000
     47      -4.8605      2.00000
     48      -4.8119      2.00000
     49      -4.7841      2.00000
     50      -4.7751      2.00000
     51      -4.7327      2.00000
     52      -4.7273      2.00000
     53      -4.6310      2.00000
     54      -4.5917      2.00000
     55      -4.5270      2.00000
     56      -4.5001      2.00000
     57      -4.4733      2.00000
     58      -4.2959      2.00000
     59      -4.2577      2.00000
     60      -4.2157      2.00000
     61      -4.1928      2.00000
     62      -4.1631      2.00000
     63      -4.0458      2.00000
     64      -3.7124      2.00000
     65      -3.3281      2.00000
     66      -2.5684      2.00000
     67      -2.5175      2.00000
     68      -1.7855      2.00000
     69      -1.2301      1.97556
     70      -1.1677      1.27794
     71      -0.5883     -0.00000
     72      -0.1247     -0.00000
     73       0.3910     -0.00000
     74       0.8451     -0.00000
     75       1.7507      0.00000
     76       2.3905      0.00000
     77       2.7220      0.00000
     78       3.3123      0.00000
     79       4.2060      0.00000
[...]
     58      -4.3137      2.00000
     59      -4.2654      2.00000
     60      -4.2326      2.00000
     61      -4.2109      2.00000
     62      -4.1798      2.00000
     63      -3.7809      2.00000
     64      -3.4732      2.00000
     65      -3.4268      2.00000
     66      -2.8236      2.00000
     67      -2.7188      2.00000
     68      -2.3340      2.00000
     69      -1.5224      2.00002
     70      -1.0762     -0.06234
     71      -0.6299     -0.00000
     72       0.6654     -0.00000
     73       0.8994     -0.00000
     74       1.2159     -0.00000
     75       1.3447     -0.00000
     76       1.7599      0.00000
     77       2.5980      0.00000
     78       3.5448      0.00000
     79       3.6547      0.00000
     80       3.9660      0.00000
     81       4.1455      0.00000
     82       4.7582      0.00000
     83       4.8498      0.00000
     84       5.0732      0.00000
     85       5.3990      0.00000
     86       5.5841      0.00000
     87       5.6786      0.00000
     88       5.7225      0.00000
     89       5.9393      0.00000
     90       6.0465      0.00000
     91       6.0912      0.00000
     92       6.2020      0.00000
     93       6.5892      0.00000
     94       6.7473      0.00000
     95       6.7564      0.00000
     96       6.7949      0.00000

 k-point    11 :      -0.4444    0.2222    0.0000
  band No.  band energies     occupation 
      1     -18.4150      2.00000
      2      -7.0835      2.00000
      3      -6.8671      2.00000
      4      -6.7302      2.00000
      5      -6.6650      2.00000
      6      -6.6325      2.00000
      7      -6.6033      2.00000
      8      -6.5779      2.00000
      9      -6.5657      2.00000
     10      -6.5116      2.00000
     11      -6.4990      2.00000
     12      -6.3863      2.00000
     13      -6.3566      2.00000
     14      -6.3389      2.00000
     15      -6.3078      2.00000
     16      -6.2651      2.00000
     17      -6.2353      2.00000
     18      -6.1509      2.00000
     19      -6.1023      2.00000
     20      -6.0571      2.00000
     21      -5.9981      2.00000
     22      -5.9444      2.00000
     23      -5.9077      2.00000
     24      -5.8650      2.00000
     25      -5.8290      2.00000
     26      -5.7602      2.00000
     27      -5.7400      2.00000
     28      -5.6784      2.00000
     29      -5.6414      2.00000
     30      -5.5918      2.00000
     31      -5.5714      2.00000
     32      -5.5325      2.00000
     33      -5.4960      2.00000
     34      -5.4846      2.00000
     35      -5.4208      2.00000
     36      -5.3811      2.00000
     37      -5.3576      2.00000
     38      -5.2957      2.00000
     39      -5.2449      2.00000
     40      -5.1944      2.00000
     41      -5.1753      2.00000
     42      -5.1263      2.00000
     43      -5.0769      2.00000
     44      -4.9683      2.00000
     45      -4.9255      2.00000
     46      -4.8785      2.00000
     47      -4.8431      2.00000
     48      -4.8129      2.00000
     49      -4.7837      2.00000
     50      -4.7275      2.00000
     51      -4.6618      2.00000
     52      -4.6197      2.00000
     53      -4.5305      2.00000
     54      -4.5013      2.00000
     55      -4.4605      2.00000
     56      -4.4127      2.00000
     57      -4.3807      2.00000
     58      -4.3455      2.00000
     59      -4.3032      2.00000
     60      -4.2588      2.00000
     61      -4.2466      2.00000
     62      -4.2121      2.00000
     63      -4.0730      2.00000
     64      -3.5945      2.00000
     65      -3.3839      2.00000
     66      -3.1125      2.00000
     67      -2.7647      2.00000
     68      -2.4189      2.00000
     69      -1.6921      2.00000
     70      -1.1012      0.00841
     71      -0.2997     -0.00000
     72       0.2192     -0.00000
     73       1.0472     -0.00000
     74       1.2560     -0.00000
     75       1.9950      0.00000
     76       2.5221      0.00000
     77       2.6456      0.00000
     78       3.2515      0.00000
     79       3.6890      0.00000
     80       3.9250      0.00000
     81       4.4280      0.00000
     82       4.5313      0.00000
     83       5.0336      0.00000
     84       5.2321      0.00000
     85       5.2880      0.00000
     86       5.3902      0.00000
     87       5.6606      0.00000
     88       5.8308      0.00000
     89       5.9178      0.00000
     90       6.0263      0.00000
     91       6.4329      0.00000
     92       6.5256      0.00000
     93       6.5778      0.00000
     94       6.6535      0.00000
     95       6.7866      0.00000
     96       6.8483      0.00000

 k-point    12 :      -0.3333    0.3333    0.0000
  band No.  band energies     occupation 
      1     -18.4147      2.00000
      2      -7.0353      2.00000
      3      -6.7092      2.00000
      4      -6.6988      2.00000
      5      -6.5294      2.00000
      6      -6.5255      2.00000
      7      -6.5154      2.00000
      8      -6.4981      2.00000
      9      -6.4864      2.00000
     10      -6.4540      2.00000
     11      -6.4325      2.00000
     12      -6.4092      2.00000
     13      -6.4040      2.00000
     14      -6.4002      2.00000
     15      -6.3786      2.00000
     16      -6.3387      2.00000
     17      -6.2164      2.00000
     18      -6.1504      2.00000
     19      -6.1125      2.00000
     20      -6.0728      2.00000
     21      -5.9941      2.00000
     22      -5.9024      2.00000
     23      -5.8996      2.00000
     24      -5.8228      2.00000
     25      -5.8181      2.00000
     26      -5.7352      2.00000
     27      -5.7294      2.00000
     28      -5.7078      2.00000
     29      -5.7073      2.00000
     30      -5.6602      2.00000
     31      -5.6591      2.00000
     32      -5.5714      2.00000
     33      -5.5416      2.00000
     34      -5.5255      2.00000
     35      -5.4243      2.00000
     36      -5.4201      2.00000
     37      -5.4003      2.00000
     38      -5.3838      2.00000
     39      -5.3767      2.00000
     40      -5.3184      2.00000
     41      -5.2549      2.00000
     42      -5.1440      2.00000
     43      -4.9772      2.00000
     44      -4.9413      2.00000
     45      -4.9190      2.00000
     46      -4.8904      2.00000
     47      -4.8837      2.00000
     48      -4.7863      2.00000
     49      -4.7758      2.00000
     50      -4.6871      2.00000
     51      -4.6731      2.00000
     52      -4.5290      2.00000
     53      -4.5101      2.00000
     54      -4.4473      2.00000
     55      -4.4316      2.00000
     56      -4.4173      2.00000
     57      -4.3815      2.00000
     58      -4.3416      2.00000
     59      -4.3111      2.00000
     60      -4.2856      2.00000
     61      -4.2713      2.00000
     62      -4.0761      2.00000
     63      -4.0473      2.00000
     64      -4.0293      2.00000
     65      -3.3362      2.00000
     66      -3.1419      2.00000
     67      -2.9708      2.00000
     68      -2.4511      2.00000
     69      -1.7623      2.00000
     70      -1.2216      1.59603
     71       0.0364     -0.00000
     72       0.0810     -0.00000
     73       0.7897     -0.00000
     74       2.3705      0.00000
     75       2.4282      0.00000
     76       2.4341      0.00000
     77       2.6084      0.00000
     78       2.7772      0.00000
     79       3.2826      0.00000
     80       3.8694      0.00000
     81       4.5024      0.00000
     82       4.6993      0.00000
     83       4.9483      0.00000
     84       4.9671      0.00000
     85       5.1455      0.00000
     86       5.7453      0.00000
     87       5.7596      0.00000
     88       5.8249      0.00000
     89       5.9080      0.00000
     90       5.9134      0.00000
     91       5.9923      0.00000
     92       6.2836      0.00000
     93       6.5849      0.00000
     94       6.9174      0.00000
     95       7.0012      0.00000
     96       7.0283      0.00000


--------------------------------------------------------------------------------------------------------


 soft charge-density along one line, spin component           1
         0         1         2         3         4         5         6         7         8         9
 total charge-density along one line
 
 pseudopotential strength for first ion, spin component:           1
 -9.226  -0.000   0.000  -0.003   0.000  -9.245  -0.000   0.000
 -0.000  -9.219   0.000   0.000  -0.003  -0.000  -9.238   0.000
  0.000   0.000  -9.221   0.000   0.000   0.000   0.000  -9.240
 -0.003   0.000   0.000  -9.219  -0.000  -0.003   0.000   0.000
  0.000  -0.003   0.000  -0.000  -9.226   0.000  -0.003   0.000
 -9.245  -0.000   0.000  -0.003   0.000  -9.238  -0.000   0.000
 -0.000  -9.238   0.000   0.000  -0.003  -0.000  -9.231   0.000
  0.000   0.000  -9.240   0.000   0.000   0.000   0.000  -9.234
 -0.003   0.000   0.000  -9.238  -0.000  -0.003   0.000   0.000
  0.000  -0.003   0.000  -0.000  -9.245   0.000  -0.003   0.000
  0.000   0.000  -0.004   0.000   0.000   0.000   0.000  -0.004
  0.000   0.000  -0.006   0.000   0.000   0.000   0.000  -0.006
  0.000  -0.015  -0.000   0.000   0.000   0.000  -0.014  -0.000
  0.000  -0.000  -0.017  -0.000   0.000   0.000  -0.000  -0.016
  0.000   0.000  -0.000  -0.015   0.000   0.000   0.000  -0.000
  0.000  -0.018  -0.000   0.000   0.000   0.000  -0.017  -0.000
  0.000  -0.000  -0.021  -0.000   0.000   0.000  -0.000  -0.020
  0.000   0.000  -0.000  -0.018   0.000   0.000   0.000  -0.000
 total augmentation occupancy for first ion, spin component:           1
  3.125   0.000  -0.000  -0.023  -0.000  -1.131   0.000   0.000  -0.016   0.000  -0.000   0.000   0.000   0.000  -0.017  -0.000
  0.000   2.900   0.000   0.000  -0.023   0.000  -0.814   0.000  -0.000  -0.016   0.000   0.000  -0.112  -0.000  -0.000  -0.000
 -0.000   0.000   3.197  -0.000  -0.000   0.000   0.000  -1.130   0.000   0.000   0.339  -0.042   0.000  -0.158   0.000  -0.000
 -0.023   0.000   0.000   2.900   0.000  -0.016  -0.000   0.000  -0.814  -0.000   0.000   0.000  -0.000   0.000  -0.112   0.000
 -0.000  -0.023  -0.000   0.000   3.125   0.000  -0.016   0.000  -0.000  -1.131  -0.000   0.000  -0.017   0.000  -0.000   0.001
 -1.131   0.000   0.000  -0.016   0.000   1.086  -0.000  -0.000   0.048  -0.000   0.000  -0.000  -0.000  -0.000   0.020   0.000
  0.000  -0.814   0.000  -0.000  -0.016   0.000   0.696  -0.000   0.000   0.048   0.000   0.000   0.117  -0.000   0.000  -0.008
  0.000   0.000  -1.130   0.000   0.000  -0.000  -0.000   1.026  -0.000  -0.000  -0.326   0.052  -0.000   0.182  -0.000   0.000
 -0.016  -0.000   0.000  -0.814  -0.000   0.048   0.000  -0.000   0.696   0.000   0.000   0.000   0.000  -0.000   0.117  -0.000
  0.000  -0.016   0.000  -0.000  -1.131  -0.000   0.048  -0.000   0.000   1.086   0.000  -0.000   0.020  -0.000   0.000  -0.001
 -0.000   0.000   0.339   0.000  -0.000   0.000   0.000  -0.326  -0.000   0.000   1.916  -0.318   0.000   0.142   0.000   0.000
  0.000   0.000  -0.042   0.000   0.000   0.000   0.000   0.052  -0.000  -0.000  -0.318   0.067   0.000  -0.036   0.000  -0.000
  0.000  -0.112   0.000   0.000  -0.017  -0.000   0.117  -0.000   0.000   0.020  -0.000   0.000   0.143  -0.000  -0.000  -0.008
  0.000  -0.000  -0.158   0.000   0.000  -0.000  -0.000   0.182   0.000  -0.000   0.142  -0.036   0.000   0.088   0.000  -0.000
 -0.017  -0.000   0.000  -0.112  -0.000   0.020   0.000   0.000   0.117   0.000   0.000   0.000   0.000  -0.000   0.143   0.000
 -0.000  -0.000  -0.000   0.000   0.001   0.000  -0.008   0.000  -0.000  -0.001  -0.000   0.000  -0.008  -0.000  -0.000   0.001
  0.000   0.000  -0.002   0.000   0.000   0.000   0.000  -0.009   0.000   0.000  -0.014   0.003   0.000  -0.005   0.000   0.000
  0.001   0.000   0.000  -0.000   0.000  -0.001  -0.000   0.000  -0.008  -0.000  -0.000   0.000  -0.000   0.000  -0.008   0.000


------------------------ aborting loop because EDIFF is reached ----------------------------------------


    CHARGE:  cpu time    0.1250: real time    0.1252
    FORLOC:  cpu time    0.0037: real time    0.0037
    FORNL :  cpu time    2.9051: real time    2.9054
    STRESS:  cpu time    4.5366: real time    4.5370
    FORCOR:  cpu time    0.0331: real time    0.0331
    FORHAR:  cpu time    0.0104: real time    0.0104
    MIXING:  cpu time    0.0016: real time    0.0016
    OFIELD:  cpu time    0.0000: real time    0.0000

  FORCE on cell =-STRESS in cart. coord.  units (eV):
  Direction    XX          YY          ZZ          XY          YZ          ZX
  --------------------------------------------------------------------------------------
  Alpha Z   177.74951   177.74951   177.74951
  Ewald   57127.85473 57127.85473-64976.24099     0.00000     0.00000    -0.00000
  Hartree 60315.03444 60315.03444-58586.96474     0.00000    -0.00000    -0.00000
  E(xc)    -725.17816  -725.17814  -727.52619    -0.00002     0.00001     0.00001
  Local  ************************121355.47526     0.00107    -0.00009    -0.00015
  n-local  -123.63749  -140.41364  -134.94687    -7.57181     0.09817    -0.45426
  augment  1109.40715  1109.40772  1114.44888    -0.00050     0.00001     0.00002
  Kinetic  1759.97352  1764.77525  1776.56179     2.17826    -1.29061     1.17047
  Fock        0.00000     0.00000     0.00000     0.00000     0.00000     0.00000
  -------------------------------------------------------------------------------------
  Total      -2.37201    -2.37201    -1.44334     0.00000     0.00000     0.00000
  in kB      -5.14692    -5.14692    -3.13185     0.00000     0.00000     0.00000
  external pressure =       -4.48 kB  Pullay stress =        0.00 kB


 VOLUME and BASIS-vectors are now :
 -----------------------------------------------------------------------------
  energy-cutoff  :      400.00
  volume of cell :      738.38
      direct lattice vectors                 reciprocal lattice vectors
     5.864743643  0.000000000  0.000000000     0.170510437 -0.098444247  0.000000000
     2.932371822  5.079016982  0.000000000     0.000000000  0.196888493  0.000000000
     0.000000000  0.000000000 24.788543133     0.000000000  0.000000000  0.040341217

  length of vectors
     5.864743643  5.864743643 24.788543133     0.196888493  0.196888493  0.040341217


 FORCES acting on ions
    electron-ion (+dipol)            ewald-force                    non-local-force                 convergence-correction
 -----------------------------------------------------------------------------------------------
   -.639E-05 -.369E-05 0.217E+04   0.168E-10 0.989E-11 -.217E+04   -.347E-17 0.347E-17 -.228E+01   0.439E-07 0.254E-07 0.116E+00
   0.294E-05 0.214E+01 0.219E+04   -.747E-11 -.200E+01 -.219E+04   -.304E-17 -.108E+00 -.156E+01   -.463E-06 -.158E-01 0.775E-01
   0.185E+01 -.107E+01 0.219E+04   -.173E+01 0.100E+01 -.219E+04   -.934E-01 0.539E-01 -.156E+01   -.136E-01 0.788E-02 0.775E-01
   -.185E+01 -.107E+01 0.219E+04   0.173E+01 0.100E+01 -.219E+04   0.934E-01 0.539E-01 -.156E+01   0.136E-01 0.788E-02 0.775E-01
   -.240E+01 0.138E+01 0.146E+03   0.228E+01 -.132E+01 -.147E+03   0.620E-01 -.358E-01 0.263E+00   0.453E-01 -.261E-01 0.193E+00
   0.240E+01 0.138E+01 0.146E+03   -.228E+01 -.132E+01 -.147E+03   -.620E-01 -.358E-01 0.263E+00   -.453E-01 -.261E-01 0.193E+00
   0.497E-06 0.287E-06 0.133E+03   -.144E-10 0.168E-10 -.131E+03   0.867E-17 0.694E-17 -.152E+01   -.419E-07 -.242E-07 0.210E+00
   0.138E-05 -.277E+01 0.146E+03   0.142E-10 0.264E+01 -.147E+03   -.954E-17 0.716E-01 0.263E+00   0.120E-05 0.523E-01 0.193E+00
   0.582E+02 0.336E+02 -.193E+04   -.582E+02 -.336E+02 0.193E+04   -.632E-02 -.365E-02 -.293E+00   0.418E-02 0.241E-02 0.164E+00
   -.582E+02 0.336E+02 -.193E+04   0.582E+02 -.336E+02 0.193E+04   0.632E-02 -.365E-02 -.293E+00   -.418E-02 0.241E-02 0.164E+00
   0.474E-05 -.672E+02 -.193E+04   -.742E-11 0.672E+02 0.193E+04   -.111E-16 0.730E-02 -.293E+00   0.249E-06 -.483E-02 0.164E+00
   -.617E-06 -.356E-06 -.194E+04   0.127E-10 0.762E-11 0.193E+04   -.434E-17 0.000E+00 0.387E+01   -.653E-07 -.377E-07 -.545E-01
   0.325E-04 0.188E-04 -.156E+04   0.111E-10 0.632E-11 0.158E+04   -.130E-16 0.260E-17 -.212E+02   -.750E-07 -.433E-07 0.118E-01
 -----------------------------------------------------------------------------------------------
   0.341E-04 0.197E-04 0.243E+02   0.163E-13 -.250E-14 -.114E-11   -.103E-15 -.243E-16 -.259E+02   0.643E-07 0.371E-07 0.159E+01
 
 
 POSITION                                       TOTAL-FORCE (eV/Angst)
 -----------------------------------------------------------------------------------
      1.46619      0.84650     10.04627        -0.000000     -0.000000     -0.002340
      4.39856      0.84458     10.00664        -0.000000      0.012442      0.008786
      2.93071      3.38697     10.00664         0.010775     -0.006221      0.008786
      5.86641      3.38697     10.00664        -0.010775     -0.006221      0.008786
      5.86623      1.69215     12.38417        -0.008980      0.005185     -0.016710
      2.93089      1.69215     12.38417         0.008980      0.005185     -0.016710
      7.33093      4.23251     12.43020        -0.000000     -0.000000      0.003731
      4.39856      4.23423     12.38417        -0.000000     -0.010369     -0.016710
     -0.06634     -0.03830     14.79961         0.019975      0.011533      0.020772
      2.99872     -0.03830     14.79961        -0.019975      0.011533      0.020772
      1.46619      2.61612     14.79961         0.000000     -0.023066      0.020772
      4.39856      2.53951     14.69343        -0.000000     -0.000000     -0.027823
      1.46619      0.84650     15.97860        -0.000000     -0.000000     -0.012114
 -----------------------------------------------------------------------------------
    total drift:                                0.000034      0.000020      0.019520


--------------------------------------------------------------------------------------------------------



  FREE ENERGIE OF THE ION-ELECTRON SYSTEM (eV)
  ---------------------------------------------------
  free  energy   TOTEN  =       -35.23772263 eV

  energy  without entropy=      -35.23397208  energy(sigma->0) =      -35.23647244
 
 d Force = 0.3546605E-03[ 0.544E-04, 0.655E-03]  d Energy = 0.7092511E-03-0.355E-03
 d Force =-0.2743199E+02[-0.274E+02,-0.274E+02]  d Ewald  =-0.2743200E+02 0.971E-05


--------------------------------------------------------------------------------------------------------


    POTLOK:  cpu time    0.0355: real time    0.0356


--------------------------------------------------------------------------------------------------------




--------------------------------------------------------------------------------------------------------


  
 reached required accuracy - stopping structural energy minimisation
     LOOP+:  cpu time   20.5224: real time   20.6027
    4ORBIT:  cpu time    0.0000: real time    0.0000

 total amount of memory used by VASP on root node    99324. kBytes
========================================================================

   base      :      30000. kBytes
   nonl-proj :      49507. kBytes
   fftplans  :       1950. kBytes
   grid      :       7104. kBytes
   one-center:        202. kBytes
   wavefun   :      10561. kBytes
 
  
  
 General timing and accounting informations for this job:
 ========================================================
  
                  Total CPU time used (sec):      303.555
                            User time (sec):      299.585
                          System time (sec):        3.969
                         Elapsed time (sec):      304.913
  
                   Maximum memory used (kb):      112760.
                   Average memory used (kb):           0.
  
                          Minor page faults:       216385
                          Major page faults:          112
                 Voluntary context switches:         3210
