<?xml version="1.0" encoding="ISO-8859-1"?>
<modeling>
 <generator>
  <i name="program" type="string">vasp </i>
  <i name="version" type="string">5.4.1  </i>
  <i name="subversion" type="string">05Feb16 (build Feb 08 2018 09:21:51) complex                          parallel </i>
  <i name="platform" type="string">LinuxIFC </i>
  <i name="date" type="string">2019 11 21 </i>
  <i name="time" type="string">23:36:34 </i>
 </generator>
 <incar>
  <i type="string" name="PREC">normal</i>
  <i type="int" name="IBRION">     2</i>
  <i type="int" name="NSW">    20</i>
  <i name="ENCUT">    400.00000000</i>
  <i type="int" name="ISMEAR">     1</i>
  <i name="SIGMA">      0.10000000</i>
  <i type="logical" name="LWAVE"> F  </i>
  <i type="logical" name="LCHARG"> F  </i>
  <v type="int" name="KPOINT_BSE">    -1     0     0     0</v>
 </incar>
 <kpoints>
  <generation param="Monkhorst-Pack">
   <v type="int" name="divisions">       9        9        1 </v>
   <v name="usershift">      0.00000000       0.00000000       0.00000000 </v>
   <v name="genvec1">      0.11111111       0.00000000       0.00000000 </v>
   <v name="genvec2">      0.00000000       0.11111111       0.00000000 </v>
   <v name="genvec3">      0.00000000       0.00000000       1.00000000 </v>
   <v name="shift">      0.00000000       0.00000000       0.00000000 </v>
  </generation>
  <varray name="kpointlist" >
   <v>       0.00000000       0.00000000       0.00000000 </v>
   <v>       0.11111111       0.00000000       0.00000000 </v>
   <v>       0.22222222       0.00000000       0.00000000 </v>
   <v>       0.33333333       0.00000000       0.00000000 </v>
   <v>       0.44444444       0.00000000       0.00000000 </v>
   <v>       0.22222222       0.11111111       0.00000000 </v>
   <v>       0.33333333       0.11111111       0.00000000 </v>
   <v>       0.44444444       0.11111111       0.00000000 </v>
   <v>      -0.44444444       0.11111111       0.00000000 </v>
   <v>       0.44444444       0.22222222       0.00000000 </v>
   <v>      -0.44444444       0.22222222       0.00000000 </v>
   <v>      -0.33333333       0.33333333       0.00000000 </v>
  </varray>
  <varray name="weights" >
   <v>       0.01234568 </v>
   <v>       0.07407407 </v>
   <v>       0.07407407 </v>
   <v>       0.07407407 </v>
   <v>       0.07407407 </v>
   <v>       0.07407407 </v>
   <v>       0.14814815 </v>
   <v>       0.14814815 </v>
   <v>       0.07407407 </v>
   <v>       0.07407407 </v>
   <v>       0.14814815 </v>
   <v>       0.02469136 </v>
  </varray>
 </kpoints>
 <parameters>
  <separator name="general" >
   <i type="string" name="SYSTEM">unknown system</i>
   <i type="logical" name="LCOMPAT"> F  </i>
  </separator>
  <separator name="electronic" >
   <i type="string" name="PREC">normal</i>
   <i name="ENMAX">    400.00000000</i>
   <i name="ENAUG">    605.39200000</i>
   <i name="EDIFF">      0.00010000</i>
   <i type="int" name="IALGO">    38</i>
   <i type="int" name="IWAVPR">    11</i>
   <i type="int" name="NBANDS">    96</i>
   <i name="NELECT">    138.00000000</i>
   <i type="int" name="TURBO">     0</i>
   <i type="int" name="IRESTART">     0</i>
   <i type="int" name="NREBOOT">     0</i>
   <i type="int" name="NMIN">     0</i>
   <i name="EREF">      0.00000000</i>
   <separator name="electronic smearing" >
    <i type="int" name="ISMEAR">     1</i>
    <i name="SIGMA">      0.10000000</i>
    <i name="KSPACING">      0.50000000</i>
    <i type="logical" name="KGAMMA"> T  </i>
   </separator>
   <separator name="electronic projectors" >
    <i type="logical" name="LREAL"> F  </i>
    <v name="ROPT">      0.00000000      0.00000000</v>
    <i type="int" name="LMAXPAW">  -100</i>
    <i type="int" name="LMAXMIX">     2</i>
    <i type="logical" name="NLSPLINE"> F  </i>
   </separator>
   <separator name="electronic startup" >
    <i type="int" name="ISTART">     0</i>
    <i type="int" name="ICHARG">     2</i>
    <i type="int" name="INIWAV">     1</i>
   </separator>
   <separator name="electronic spin" >
    <i type="int" name="ISPIN">     1</i>
    <i type="logical" name="LNONCOLLINEAR"> F  </i>
    <v name="MAGMOM">      1.00000000      1.00000000      1.00000000      1.00000000      1.00000000      1.00000000      1.00000000      1.00000000      1.00000000      1.00000000      1.00000000      1.00000000      1.00000000</v>
    <i name="NUPDOWN">     -1.00000000</i>
    <i type="logical" name="LSORBIT"> F  </i>
    <v name="SAXIS">      0.00000000      0.00000000      1.00000000</v>
    <i type="logical" name="LSPIRAL"> F  </i>
    <v name="QSPIRAL">      0.00000000      0.00000000      0.00000000</v>
    <i type="logical" name="LZEROZ"> F  </i>
   </separator>
   <separator name="electronic exchange-correlation" >
    <i type="logical" name="LASPH"> F  </i>
    <i type="logical" name="LMETAGGA"> F  </i>
   </separator>
   <separator name="electronic convergence" >
    <i type="int" name="NELM">    60</i>
    <i type="int" name="NELMDL">    -5</i>
    <i type="int" name="NELMIN">     2</i>
    <i name="ENINI">    400.00000000</i>
    <separator name="electronic convergence detail" >
     <i type="logical" name="LDIAG"> T  </i>
     <i type="logical" name="LSUBROT"> F  </i>
     <i name="WEIMIN">      0.00100000</i>
     <i name="EBREAK">      0.00000026</i>
     <i name="DEPER">      0.30000000</i>
     <i type="int" name="NRMM">     4</i>
     <i name="TIME">      0.40000000</i>
    </separator>
   </separator>
   <separator name="electronic mixer" >
    <i name="AMIX">      0.40000000</i>
    <i name="BMIX">      1.00000000</i>
    <i name="AMIN">      0.10000000</i>
    <i name="AMIX_MAG">      1.60000000</i>
    <i name="BMIX_MAG">      1.00000000</i>
    <separator name="electronic mixer details" >
     <i type="int" name="IMIX">     4</i>
     <i type="logical" name="MIXFIRST"> F  </i>
     <i type="int" name="MAXMIX">   -45</i>
     <i name="WC">    100.00000000</i>
     <i type="int" name="INIMIX">     1</i>
     <i type="int" name="MIXPRE">     1</i>
     <i type="int" name="MREMOVE">     5</i>
    </separator>
   </separator>
   <separator name="electronic dipolcorrection" >
    <i type="logical" name="LDIPOL"> F  </i>
    <i type="logical" name="LMONO"> F  </i>
    <i type="int" name="IDIPOL">     0</i>
    <i name="EPSILON">      1.00000000</i>
    <v name="DIPOL">   -100.00000000   -100.00000000   -100.00000000</v>
    <i name="EFIELD">      0.00000000</i>
   </separator>
  </separator>
  <separator name="grids" >
   <i type="int" name="NGX">    30</i>
   <i type="int" name="NGY">    30</i>
   <i type="int" name="NGZ">   126</i>
   <i type="int" name="NGXF">    60</i>
   <i type="int" name="NGYF">    60</i>
   <i type="int" name="NGZF">   252</i>
   <i type="logical" name="ADDGRID"> F  </i>
  </separator>
  <separator name="ionic" >
   <i type="int" name="NSW">    20</i>
   <i type="int" name="IBRION">     2</i>
   <i type="int" name="ISIF">     2</i>
   <i name="PSTRESS">      0.00000000</i>
   <i name="EDIFFG">      0.00100000</i>
   <i type="int" name="NFREE">     1</i>
   <i name="POTIM">      0.50000000</i>
   <i name="SMASS">     -3.00000000</i>
   <i name="SCALEE">      1.00000000</i>
  </separator>
  <separator name="ionic md" >
   <i name="TEBEG">      0.00010000</i>
   <i name="TEEND">      0.00010000</i>
   <i type="int" name="NBLOCK">     1</i>
   <i type="int" name="KBLOCK">    20</i>
   <i type="int" name="NPACO">   256</i>
   <i name="APACO">     16.00000000</i>
  </separator>
  <separator name="symmetry" >
   <i type="int" name="ISYM">     2</i>
   <i name="SYMPREC">      0.00001000</i>
  </separator>
  <separator name="dos" >
   <i type="logical" name="LORBIT"> F  </i>
   <v name="RWIGS">     -1.00000000     -1.00000000</v>
   <i type="int" name="NEDOS">   301</i>
   <i name="EMIN">     10.00000000</i>
   <i name="EMAX">    -10.00000000</i>
   <i name="EFERMI">      0.00000000</i>
  </separator>
  <separator name="writing" >
   <i type="int" name="NWRITE">     2</i>
   <i type="logical" name="LWAVE"> F  </i>
   <i type="logical" name="LCHARG"> F  </i>
   <i type="logical" name="LPARD"> F  </i>
   <i type="logical" name="LVTOT"> F  </i>
   <i type="logical" name="LVHAR"> F  </i>
   <i type="logical" name="LELF"> F  </i>
   <i type="logical" name="LOPTICS"> F  </i>
   <v name="STM">      0.00000000      0.00000000      0.00000000      0.00000000      0.00000000      0.00000000      0.00000000</v>
  </separator>
  <separator name="performance" >
   <i type="int" name="NPAR">    24</i>
   <i type="int" name="NSIM">     4</i>
   <i type="int" name="NBLK">    -1</i>
   <i type="logical" name="LPLANE"> T  </i>
   <i type="logical" name="LSCALAPACK"> F  </i>
   <i type="logical" name="LSCAAWARE"> F  </i>
   <i type="logical" name="LSCALU"> F  </i>
   <i type="logical" name="LASYNC"> F  </i>
   <i type="logical" name="LORBITALREAL"> F  </i>
  </separator>
  <separator name="miscellaneous" >
   <i type="int" name="IDIOT">     3</i>
   <i type="logical" name="LMUSIC"> F  </i>
   <v name="POMASS">    107.86800000     16.00000000</v>
   <v name="DARWINR">      0.00000000      0.00000000</v>
   <v name="DARWINV">      1.00000000      1.00000000</v>
   <i type="logical" name="LCORR"> T  </i>
  </separator>
  <i type="logical" name="GGA_COMPAT"> T  </i>
  <i type="logical" name="LBERRY"> F  </i>
  <i type="int" name="ICORELEVEL">     0</i>
  <i type="logical" name="LDAU"> F  </i>
  <i type="int" name="I_CONSTRAINED_M">     0</i>
  <separator name="electronic exchange-correlation" >
   <i type="string" name="GGA">--</i>
   <i type="int" name="VOSKOWN">     0</i>
   <i type="logical" name="LHFCALC"> F  </i>
   <i type="string" name="PRECFOCK"></i>
   <i type="logical" name="LSYMGRAD"> F  </i>
   <i type="logical" name="LHFONE"> F  </i>
   <i type="logical" name="LRHFCALC"> F  </i>
   <i type="logical" name="LTHOMAS"> F  </i>
   <i type="logical" name="LMODELHF"> F  </i>
   <i name="ENCUT4O">     -1.00000000</i>
   <i type="int" name="EXXOEP">     0</i>
   <i type="int" name="FOURORBIT">     0</i>
   <i name="AEXX">      0.00000000</i>
   <i name="HFALPHA">      0.00000000</i>
   <i name="MCALPHA">      0.00000000</i>
   <i name="ALDAX">      1.00000000</i>
   <i name="AGGAX">      1.00000000</i>
   <i name="ALDAC">      1.00000000</i>
   <i name="AGGAC">      1.00000000</i>
   <i type="int" name="NKREDX">     1</i>
   <i type="int" name="NKREDY">     1</i>
   <i type="int" name="NKREDZ">     1</i>
   <i type="logical" name="SHIFTRED"> F  </i>
   <i type="logical" name="ODDONLY"> F  </i>
   <i type="logical" name="EVENONLY"> F  </i>
   <i type="int" name="LMAXFOCK">     0</i>
   <i type="int" name="NMAXFOCKAE">     0</i>
   <i type="logical" name="LFOCKAEDFT"> F  </i>
   <i name="HFSCREEN">      0.00000000</i>
   <i name="HFSCREENC">      0.00000000</i>
   <i type="int" name="NBANDSGWLOW">     0</i>
  </separator>
  <separator name="vdW DFT" >
   <i type="logical" name="LUSE_VDW"> F  </i>
   <i name="Zab_VDW">     -0.84910000</i>
   <i name="PARAM1">      0.12340000</i>
   <i name="PARAM2">      1.00000000</i>
   <i name="PARAM3">      0.00000000</i>
  </separator>
  <separator name="model GW" >
   <i type="int" name="MODEL_GW">     0</i>
   <i name="MODEL_EPS0">     34.07905939</i>
   <i name="MODEL_ALPHA">      1.00000000</i>
  </separator>
  <separator name="linear response parameters" >
   <i type="logical" name="LEPSILON"> F  </i>
   <i type="logical" name="LRPA"> F  </i>
   <i type="logical" name="LNABLA"> F  </i>
   <i type="logical" name="LVEL"> F  </i>
   <i type="int" name="KINTER">     0</i>
   <i name="CSHIFT">      0.10000000</i>
   <i name="OMEGAMAX">     -1.00000000</i>
   <i name="DEG_THRESHOLD">      0.00200000</i>
  </separator>
  <separator name="orbital magnetization" >
   <i type="logical" name="NUCIND"> F  </i>
   <v name="MAGPOS">      0.00000000      0.00000000      0.00000000</v>
   <i type="logical" name="LNICSALL"> T  </i>
   <i type="logical" name="ORBITALMAG"> F  </i>
   <i type="logical" name="LMAGBLOCH"> F  </i>
   <i type="logical" name="LCHIMAG"> F  </i>
   <i type="logical" name="LGAUGE"> T  </i>
   <i type="int" name="MAGATOM">     0</i>
   <v name="MAGDIPOL">      0.00000000      0.00000000      0.00000000</v>
   <v name="AVECCONST">      0.00000000      0.00000000      0.00000000</v>
  </separator>
  <separator name="response functions" >
   <i type="logical" name="LADDER"> F  </i>
   <i type="logical" name="LFXC"> F  </i>
   <i type="logical" name="LHARTREE"> T  </i>
   <i type="int" name="IBSE">     0</i>
   <v type="int" name="KPOINT">    -1     0     0     0</v>
   <i type="logical" name="LTCTE"> F  </i>
   <i type="logical" name="LTETE"> F  </i>
   <i type="logical" name="LTRIPLET"> F  </i>
   <i type="logical" name="LFXCEPS"> F  </i>
   <i type="logical" name="LFXHEG"> F  </i>
   <i type="int" name="NATURALO">     0</i>
   <i type="logical" name="L2ORDER"> F  </i>
   <i type="logical" name="LUSEW"> F  </i>
   <i name="ENCUTGW">     -2.00000000</i>
   <i name="ENCUTGWSOFT">     -2.00000000</i>
   <i name="ENCUTLF">     -1.00000000</i>
   <i type="int" name="LMAXMP2">    -1</i>
   <i name="SCISSOR">      0.00000000</i>
   <i type="int" name="NOMEGA">     0</i>
   <i type="int" name="NOMEGAR">     0</i>
   <i type="int" name="NBANDSGW">    -1</i>
   <i type="int" name="NBANDSO">    -1</i>
   <i type="int" name="NBANDSV">    -1</i>
   <i type="int" name="NELM">     1</i>
   <i type="int" name="NELMHF">     1</i>
   <i type="int" name="DIM">     3</i>
   <i type="int" name="ANTIRES">     0</i>
   <i name="OMEGAMAX">    -30.00000000</i>
   <i name="OMEGAMIN">    -30.00000000</i>
   <i name="OMEGATL">   -200.00000000</i>
   <i type="int" name="OMEGAGRID">     0</i>
   <i name="CSHIFT">     -0.10000000</i>
   <i type="logical" name="SELFENERGY"> F  </i>
   <i type="logical" name="LSPECTRAL"> F  </i>
   <i type="logical" name="LSPECTRALGW"> F  </i>
   <i type="logical" name="LSINGLES"> F  </i>
   <i type="logical" name="LFERMIGW"> F  </i>
   <i type="logical" name="ODDONLYGW"> F  </i>
   <i type="logical" name="EVENONLYGW"> F  </i>
   <i type="int" name="NKREDLFX">     1</i>
   <i type="int" name="NKREDLFY">     1</i>
   <i type="int" name="NKREDLFZ">     1</i>
   <i type="int" name="MAXMEM">  1800</i>
   <i type="int" name="TELESCOPE">     0</i>
   <i type="int" name="TAUPAR">     1</i>
   <i type="int" name="OMEGAPAR">    -1</i>
   <i name="LAMBDA">      1.00000000</i>
  </separator>
  <separator name="External order field" >
   <i name="OFIELD_KAPPA">      0.00000000</i>
   <v name="OFIELD_K">      0.00000000      0.00000000      0.00000000</v>
   <i name="OFIELD_Q6_NEAR">      0.00000000</i>
   <i name="OFIELD_Q6_FAR">      0.00000000</i>
   <i name="OFIELD_A">      0.00000000</i>
  </separator>
 </parameters>
 <atominfo>
  <atoms>      13 </atoms>
  <types>       2 </types>
  <array name="atoms" >
   <dimension dim="1">ion</dimension>
   <field type="string">element</field>
   <field type="int">atomtype</field>
   <set>
    <rc><c>Ag</c><c>   1</c></rc>
    <rc><c>Ag</c><c>   1</c></rc>
    <rc><c>Ag</c><c>   1</c></rc>
    <rc><c>Ag</c><c>   1</c></rc>
    <rc><c>Ag</c><c>   1</c></rc>
    <rc><c>Ag</c><c>   1</c></rc>
    <rc><c>Ag</c><c>   1</c></rc>
    <rc><c>Ag</c><c>   1</c></rc>
    <rc><c>Ag</c><c>   1</c></rc>
    <rc><c>Ag</c><c>   1</c></rc>
    <rc><c>Ag</c><c>   1</c></rc>
    <rc><c>Ag</c><c>   1</c></rc>
    <rc><c>O </c><c>   2</c></rc>
   </set>
  </array>
  <array name="atomtypes" >
   <dimension dim="1">type</dimension>
   <field type="int">atomspertype</field>
   <field type="string">element</field>
   <field>mass</field>
   <field>valence</field>
   <field type="string">pseudopotential</field>
   <set>
    <rc><c>  12</c><c>Ag</c><c>    107.86800000</c><c>     11.00000000</c><c>  PAW_PBE Ag 02Apr2005                  </c></rc>
    <rc><c>   1</c><c>O </c><c>     16.00000000</c><c>      6.00000000</c><c>  PAW_PBE O 08Apr2002                   </c></rc>
   </set>
  </array>
 </atominfo>
 <structure name="initialpos" >
  <crystal>
   <varray name="basis" >
    <v>       5.86474364       0.00000000       0.00000000 </v>
    <v>       2.93237182       5.07901698       0.00000000 </v>
    <v>       0.00000000       0.00000000      24.78854313 </v>
   </varray>
   <i name="volume">    738.37962018 </i>
   <varray name="rec_basis" >
    <v>       0.17051044      -0.09844425       0.00000000 </v>
    <v>       0.00000000       0.19688849       0.00000000 </v>
    <v>       0.00000000       0.00000000       0.04034122 </v>
   </varray>
  </crystal>
  <varray name="positions" >
   <v>       0.16666667       0.16666667       0.40341217 </v>
   <v>       0.66666667       0.16666667       0.40341217 </v>
   <v>       0.16666667       0.66666667       0.40341217 </v>
   <v>       0.66666667       0.66666667       0.40341217 </v>
   <v>       0.83333333       0.33333333       0.50000000 </v>
   <v>       0.33333333       0.33333333       0.50000000 </v>
   <v>       0.83333333       0.83333333       0.50000000 </v>
   <v>       0.33333333       0.83333333       0.50000000 </v>
   <v>       0.00000000       0.00000000       0.59658783 </v>
   <v>       0.50000000       0.00000000       0.59658783 </v>
   <v>       0.00000000       0.50000000       0.59658783 </v>
   <v>       0.50000000       0.50000000       0.59658783 </v>
   <v>       0.16666667       0.16666667       0.64499729 </v>
  </varray>
 </structure>
 <calculation>
  <scstep>
   <time name="dav">    4.14    4.15</time>
   <time name="total">    4.19    4.20</time>
   <energy>
    <i name="alphaZ">    177.74950842 </i>
    <i name="ewald">  49020.42526340 </i>
    <i name="hartreedc"> -61896.86886119 </i>
    <i name="XCdc">   -101.65700180 </i>
    <i name="pawpsdc">  12388.09526881 </i>
    <i name="pawaedc"> -11836.53943832 </i>
    <i name="eentropy">     -0.00093903 </i>
    <i name="bandstr">    110.04128195 </i>
    <i name="atom">  12879.36433655 </i>
    <i name="e_fr_energy">    740.60941878 </i>
    <i name="e_wo_entrp">    740.61035781 </i>
    <i name="e_0_energy">    740.60973179 </i>
   </energy>
  </scstep>
  <scstep>
   <time name="dav">    4.42    4.43</time>
   <time name="total">    4.43    4.44</time>
   <energy>
    <i name="e_fr_energy">     -7.70528051 </i>
    <i name="e_wo_entrp">     -7.69487032 </i>
    <i name="e_0_energy">     -7.70181044 </i>
   </energy>
  </scstep>
  <scstep>
   <time name="dav">    4.48    4.50</time>
   <time name="total">    4.49    4.51</time>
   <energy>
    <i name="e_fr_energy">    -40.10283578 </i>
    <i name="e_wo_entrp">    -40.10104739 </i>
    <i name="e_0_energy">    -40.10223965 </i>
   </energy>
  </scstep>
  <scstep>
   <time name="dav">    4.12    4.12</time>
   <time name="total">    4.12    4.13</time>
   <energy>
    <i name="e_fr_energy">    -40.55915806 </i>
    <i name="e_wo_entrp">    -40.55752372 </i>
    <i name="e_0_energy">    -40.55861328 </i>
   </energy>
  </scstep>
  <scstep>
   <time name="dav">    5.28    5.40</time>
   <time name="total">    5.42    5.55</time>
   <energy>
    <i name="e_fr_energy">    -40.56682371 </i>
    <i name="e_wo_entrp">    -40.56518897 </i>
    <i name="e_0_energy">    -40.56627880 </i>
   </energy>
  </scstep>
  <scstep>
   <time name="dav">    5.65    5.66</time>
   <time name="total">    5.83    5.84</time>
   <energy>
    <i name="e_fr_energy">    -37.58005169 </i>
    <i name="e_wo_entrp">    -37.57192376 </i>
    <i name="e_0_energy">    -37.57734238 </i>
   </energy>
  </scstep>
  <scstep>
   <time name="dav">    5.45    5.46</time>
   <time name="total">    5.63    5.65</time>
   <energy>
    <i name="e_fr_energy">    -36.21771966 </i>
    <i name="e_wo_entrp">    -36.21665823 </i>
    <i name="e_0_energy">    -36.21736585 </i>
   </energy>
  </scstep>
  <scstep>
   <time name="dav">    4.67    4.68</time>
   <time name="total">    4.84    4.85</time>
   <energy>
    <i name="e_fr_energy">    -35.14508347 </i>
    <i name="e_wo_entrp">    -35.14065748 </i>
    <i name="e_0_energy">    -35.14360814 </i>
   </energy>
  </scstep>
  <scstep>
   <time name="dav">    4.61    4.62</time>
   <time name="total">    4.78    4.80</time>
   <energy>
    <i name="e_fr_energy">    -35.21175491 </i>
    <i name="e_wo_entrp">    -35.21078735 </i>
    <i name="e_0_energy">    -35.21143239 </i>
   </energy>
  </scstep>
  <scstep>
   <time name="dav">    4.21    4.22</time>
   <time name="total">    4.39    4.40</time>
   <energy>
    <i name="e_fr_energy">    -35.10462377 </i>
    <i name="e_wo_entrp">    -35.10206175 </i>
    <i name="e_0_energy">    -35.10376976 </i>
   </energy>
  </scstep>
  <scstep>
   <time name="dav">    4.18    4.22</time>
   <time name="total">    4.36    4.41</time>
   <energy>
    <i name="e_fr_energy">    -35.08870427 </i>
    <i name="e_wo_entrp">    -35.08485993 </i>
    <i name="e_0_energy">    -35.08742283 </i>
   </energy>
  </scstep>
  <scstep>
   <time name="dav">    4.03    4.04</time>
   <time name="total">    4.21    4.22</time>
   <energy>
    <i name="e_fr_energy">    -35.08953062 </i>
    <i name="e_wo_entrp">    -35.08447977 </i>
    <i name="e_0_energy">    -35.08784700 </i>
   </energy>
  </scstep>
  <scstep>
   <time name="dav">    4.09    4.10</time>
   <time name="total">    4.27    4.28</time>
   <energy>
    <i name="e_fr_energy">    -35.09035788 </i>
    <i name="e_wo_entrp">    -35.08538983 </i>
    <i name="e_0_energy">    -35.08870186 </i>
   </energy>
  </scstep>
  <scstep>
   <time name="dav">    3.86    3.90</time>
   <time name="total">    4.03    4.08</time>
   <energy>
    <i name="e_fr_energy">    -35.09056828 </i>
    <i name="e_wo_entrp">    -35.08586593 </i>
    <i name="e_0_energy">    -35.08900083 </i>
   </energy>
  </scstep>
  <scstep>
   <time name="dav">    3.54    3.55</time>
   <time name="total">    3.72    3.73</time>
   <energy>
    <i name="e_fr_energy">    -35.09086136 </i>
    <i name="e_wo_entrp">    -35.08603327 </i>
    <i name="e_0_energy">    -35.08925200 </i>
   </energy>
  </scstep>
  <scstep>
   <time name="dav">    3.35    3.35</time>
   <time name="total">    3.53    3.53</time>
   <energy>
    <i name="e_fr_energy">    -35.09100918 </i>
    <i name="e_wo_entrp">    -35.08630131 </i>
    <i name="e_0_energy">    -35.08943989 </i>
   </energy>
  </scstep>
  <scstep>
   <time name="dav">    3.14    3.21</time>
   <time name="total">    3.32    3.39</time>
   <energy>
    <i name="e_fr_energy">    -35.09114268 </i>
    <i name="e_wo_entrp">    -35.08637606 </i>
    <i name="e_0_energy">    -35.08955381 </i>
   </energy>
  </scstep>
  <scstep>
   <time name="dav">    3.04    3.04</time>
   <time name="total">    3.21    3.22</time>
   <energy>
    <i name="e_fr_energy">    -35.09124865 </i>
    <i name="e_wo_entrp">    -35.08647311 </i>
    <i name="e_0_energy">    -35.08965680 </i>
   </energy>
  </scstep>
  <scstep>
   <time name="dav">    3.06    3.07</time>
   <time name="total">    3.10    3.11</time>
   <energy>
    <i name="alphaZ">    177.74950842 </i>
    <i name="ewald">  49020.42526340 </i>
    <i name="hartreedc"> -61786.29674339 </i>
    <i name="XCdc">   -105.62277576 </i>
    <i name="pawpsdc">  13616.07730078 </i>
    <i name="pawaedc"> -13090.94934052 </i>
    <i name="eentropy">     -0.00479095 </i>
    <i name="bandstr">   -745.83406886 </i>
    <i name="atom">  12879.36433655 </i>
    <i name="e_fr_energy">    -35.09131034 </i>
    <i name="e_wo_entrp">    -35.08651939 </i>
    <i name="e_0_energy">    -35.08971336 </i>
   </energy>
  </scstep>
  <structure>
   <crystal>
    <varray name="basis" >
     <v>       5.86474364       0.00000000       0.00000000 </v>
     <v>       2.93237182       5.07901698       0.00000000 </v>
     <v>       0.00000000       0.00000000      24.78854313 </v>
    </varray>
    <i name="volume">    738.37962018 </i>
    <varray name="rec_basis" >
     <v>       0.17051044      -0.09844425       0.00000000 </v>
     <v>       0.00000000       0.19688849       0.00000000 </v>
     <v>       0.00000000       0.00000000       0.04034122 </v>
    </varray>
   </crystal>
   <varray name="positions" >
    <v>       0.16666667       0.16666667       0.40341217 </v>
    <v>       0.66666667       0.16666667       0.40341217 </v>
    <v>       0.16666667       0.66666667       0.40341217 </v>
    <v>       0.66666667       0.66666667       0.40341217 </v>
    <v>       0.83333333       0.33333333       0.50000000 </v>
    <v>       0.33333333       0.33333333       0.50000000 </v>
    <v>       0.83333333       0.83333333       0.50000000 </v>
    <v>       0.33333333       0.83333333       0.50000000 </v>
    <v>       0.00000000       0.00000000       0.59658783 </v>
    <v>       0.50000000       0.00000000       0.59658783 </v>
    <v>       0.00000000       0.50000000       0.59658783 </v>
    <v>       0.50000000       0.50000000       0.59658783 </v>
    <v>       0.16666667       0.16666667       0.64499729 </v>
   </varray>
  </structure>
  <varray name="forces" >
   <v>      -0.00000000       0.00000000       0.15455573 </v>
   <v>      -0.00000000       0.02143399       0.01389025 </v>
   <v>       0.01856238      -0.01071700       0.01389025 </v>
   <v>      -0.01856238      -0.01071700       0.01389025 </v>
   <v>      -0.04422199       0.02553158      -0.07364623 </v>
   <v>       0.04422199       0.02553158      -0.07364623 </v>
   <v>      -0.00000000       0.00000000       0.31346338 </v>
   <v>      -0.00000000      -0.05106315      -0.07364623 </v>
   <v>      -0.95463552      -0.55115908      -0.30027341 </v>
   <v>       0.95463552      -0.55115908      -0.30027341 </v>
   <v>      -0.00000000       1.10231815      -0.30027341 </v>
   <v>      -0.00000000       0.00000000      -0.29154075 </v>
   <v>      -0.00000000       0.00000000       0.90360984 </v>
  </varray>
  <varray name="stress" >
   <v>      -4.59044977       0.00000000      -0.00000000 </v>
   <v>       0.00000000      -4.59044977       0.00000000 </v>
   <v>       0.00000000       0.00000000      -2.86768731 </v>
  </varray>
  <energy>
   <i name="e_fr_energy">    -35.09131034 </i>
   <i name="e_wo_entrp">    -35.08971336 </i>
   <i name="e_0_energy">     -0.00479095 </i>
  </energy>
  <time name="totalsc">   89.47   89.99</time>
 </calculation>
 <calculation>
  <scstep>
   <time name="dav">    3.73    3.74</time>
   <time name="total">    3.91    3.91</time>
   <energy>
    <i name="alphaZ">    177.74950842 </i>
    <i name="ewald">  49065.14819314 </i>
    <i name="hartreedc"> -61833.04446722 </i>
    <i name="XCdc">   -105.74183181 </i>
    <i name="pawpsdc">  13616.09139193 </i>
    <i name="pawaedc"> -13090.96361026 </i>
    <i name="eentropy">     -0.00756726 </i>
    <i name="bandstr">   -743.73015908 </i>
    <i name="atom">  12879.36433655 </i>
    <i name="e_fr_energy">    -35.13420559 </i>
    <i name="e_wo_entrp">    -35.12663833 </i>
    <i name="e_0_energy">    -35.13168317 </i>
   </energy>
  </scstep>
  <scstep>
   <time name="dav">    4.08    4.09</time>
   <time name="total">    4.26    4.27</time>
   <energy>
    <i name="e_fr_energy">    -35.20996292 </i>
    <i name="e_wo_entrp">    -35.20621302 </i>
    <i name="e_0_energy">    -35.20871296 </i>
   </energy>
  </scstep>
  <scstep>
   <time name="dav">    4.03    4.05</time>
   <time name="total">    4.21    4.23</time>
   <energy>
    <i name="e_fr_energy">    -35.20894074 </i>
    <i name="e_wo_entrp">    -35.20131529 </i>
    <i name="e_0_energy">    -35.20639892 </i>
   </energy>
  </scstep>
  <scstep>
   <time name="dav">    4.28    4.28</time>
   <time name="total">    4.46    4.46</time>
   <energy>
    <i name="e_fr_energy">    -35.21168125 </i>
    <i name="e_wo_entrp">    -35.20901219 </i>
    <i name="e_0_energy">    -35.21079156 </i>
   </energy>
  </scstep>
  <scstep>
   <time name="dav">    4.00    4.00</time>
   <time name="total">    4.18    4.18</time>
   <energy>
    <i name="e_fr_energy">    -35.20423117 </i>
    <i name="e_wo_entrp">    -35.19858294 </i>
    <i name="e_0_energy">    -35.20234842 </i>
   </energy>
  </scstep>
  <scstep>
   <time name="dav">    4.28    4.28</time>
   <time name="total">    4.46    4.47</time>
   <energy>
    <i name="e_fr_energy">    -35.20465811 </i>
    <i name="e_wo_entrp">    -35.19891015 </i>
    <i name="e_0_energy">    -35.20274212 </i>
   </energy>
  </scstep>
  <scstep>
   <time name="dav">    4.05    4.05</time>
   <time name="total">    4.08    4.08</time>
   <energy>
    <i name="alphaZ">    177.74950842 </i>
    <i name="ewald">  49065.14819314 </i>
    <i name="hartreedc"> -61827.79148530 </i>
    <i name="XCdc">   -105.80310616 </i>
    <i name="pawpsdc">  13578.03464384 </i>
    <i name="pawaedc"> -13052.53192291 </i>
    <i name="eentropy">     -0.00568835 </i>
    <i name="bandstr">   -749.36908404 </i>
    <i name="atom">  12879.36433655 </i>
    <i name="e_fr_energy">    -35.20460480 </i>
    <i name="e_wo_entrp">    -35.19891645 </i>
    <i name="e_0_energy">    -35.20270868 </i>
   </energy>
  </scstep>
  <structure>
   <crystal>
    <varray name="basis" >
     <v>       5.86474364       0.00000000       0.00000000 </v>
     <v>       2.93237182       5.07901698       0.00000000 </v>
     <v>       0.00000000       0.00000000      24.78854313 </v>
    </varray>
    <i name="volume">    738.37962018 </i>
    <varray name="rec_basis" >
     <v>       0.17051044      -0.09844425       0.00000000 </v>
     <v>       0.00000000       0.19688849       0.00000000 </v>
     <v>       0.00000000       0.00000000       0.04034122 </v>
    </varray>
   </crystal>
   <varray name="positions" >
    <v>       0.16666667       0.16666667       0.40371296 </v>
    <v>       0.66656487       0.16687026       0.40343920 </v>
    <v>       0.16687026       0.66656487       0.40343920 </v>
    <v>       0.66656487       0.66656487       0.40343920 </v>
    <v>       0.83284831       0.33357584       0.49985667 </v>
    <v>       0.33357584       0.33357584       0.49985667 </v>
    <v>       0.83333333       0.83333333       0.50061005 </v>
    <v>       0.33357584       0.83284831       0.49985667 </v>
    <v>      -0.00523514      -0.00523514       0.59600345 </v>
    <v>       0.51047028      -0.00523514       0.59600345 </v>
    <v>      -0.00523514       0.51047028       0.59600345 </v>
    <v>       0.50000000       0.50000000       0.59602044 </v>
    <v>       0.16666667       0.16666667       0.64675587 </v>
   </varray>
  </structure>
  <varray name="forces" >
   <v>       0.00000000      -0.00000000       0.13289409 </v>
   <v>       0.00000000       0.00148749       0.01510593 </v>
   <v>       0.00128821      -0.00074375       0.01510593 </v>
   <v>      -0.00128821      -0.00074375       0.01510593 </v>
   <v>      -0.01235111       0.00713091      -0.04459096 </v>
   <v>       0.01235111       0.00713091      -0.04459096 </v>
   <v>       0.00000000      -0.00000000       0.07975908 </v>
   <v>      -0.00000000      -0.01426183      -0.04459096 </v>
   <v>      -0.04934113      -0.02848712       0.13996482 </v>
   <v>       0.04934113      -0.02848712       0.13996482 </v>
   <v>      -0.00000000       0.05697423       0.13996482 </v>
   <v>       0.00000000      -0.00000000      -0.23024899 </v>
   <v>       0.00000000       0.00000000      -0.31384354 </v>
  </varray>
  <varray name="stress" >
   <v>      -6.80693679       0.00000000       0.00000000 </v>
   <v>       0.00000000      -6.80693679      -0.00000000 </v>
   <v>       0.00000000      -0.00000000      -5.01992388 </v>
  </varray>
  <energy>
   <i name="e_fr_energy">    -35.20460480 </i>
   <i name="e_wo_entrp">    -35.20270868 </i>
   <i name="e_0_energy">     -0.00568835 </i>
  </energy>
  <time name="totalsc">   37.71   37.79</time>
 </calculation>
 <calculation>
  <scstep>
   <time name="dav">    4.75    4.77</time>
   <time name="total">    4.93    4.95</time>
   <energy>
    <i name="alphaZ">    177.74950842 </i>
    <i name="ewald">  49064.09657258 </i>
    <i name="hartreedc"> -61826.59111600 </i>
    <i name="XCdc">   -105.80037674 </i>
    <i name="pawpsdc">  13577.69813570 </i>
    <i name="pawaedc"> -13052.19899383 </i>
    <i name="eentropy">     -0.00550457 </i>
    <i name="bandstr">   -749.51722146 </i>
    <i name="atom">  12879.36433655 </i>
    <i name="e_fr_energy">    -35.20465936 </i>
    <i name="e_wo_entrp">    -35.19915478 </i>
    <i name="e_0_energy">    -35.20282450 </i>
   </energy>
  </scstep>
  <scstep>
   <time name="dav">    4.59    4.60</time>
   <time name="total">    4.63    4.64</time>
   <energy>
    <i name="alphaZ">    177.74950842 </i>
    <i name="ewald">  49064.09657258 </i>
    <i name="hartreedc"> -61826.50843290 </i>
    <i name="XCdc">   -105.79989703 </i>
    <i name="pawpsdc">  13577.71854714 </i>
    <i name="pawaedc"> -13052.22215907 </i>
    <i name="eentropy">     -0.00556587 </i>
    <i name="bandstr">   -749.59763448 </i>
    <i name="atom">  12879.36433655 </i>
    <i name="e_fr_energy">    -35.20472467 </i>
    <i name="e_wo_entrp">    -35.19915880 </i>
    <i name="e_0_energy">    -35.20286938 </i>
   </energy>
  </scstep>
  <structure>
   <crystal>
    <varray name="basis" >
     <v>       5.86474364       0.00000000       0.00000000 </v>
     <v>       2.93237182       5.07901698       0.00000000 </v>
     <v>       0.00000000       0.00000000      24.78854313 </v>
    </varray>
    <i name="volume">    738.37962018 </i>
    <varray name="rec_basis" >
     <v>       0.17051044      -0.09844425       0.00000000 </v>
     <v>       0.00000000       0.19688849       0.00000000 </v>
     <v>       0.00000000       0.00000000       0.04034122 </v>
    </varray>
   </crystal>
   <varray name="positions" >
    <v>       0.16666667       0.16666667       0.40370663 </v>
    <v>       0.66656701       0.16686597       0.40343863 </v>
    <v>       0.16686597       0.66656701       0.40343863 </v>
    <v>       0.66656701       0.66656701       0.40343863 </v>
    <v>       0.83285852       0.33357074       0.49985969 </v>
    <v>       0.33357074       0.33357074       0.49985969 </v>
    <v>       0.83333333       0.83333333       0.50059721 </v>
    <v>       0.33357074       0.83285852       0.49985969 </v>
    <v>      -0.00512497      -0.00512497       0.59601574 </v>
    <v>       0.51024994      -0.00512497       0.59601574 </v>
    <v>      -0.00512497       0.51024994       0.59601574 </v>
    <v>       0.50000000       0.50000000       0.59603238 </v>
    <v>       0.16666667       0.16666667       0.64671886 </v>
   </varray>
  </structure>
  <varray name="forces" >
   <v>       0.00000000      -0.00000000       0.13668661 </v>
   <v>       0.00000000       0.00247157       0.01585651 </v>
   <v>       0.00214044      -0.00123578       0.01585651 </v>
   <v>      -0.00214044      -0.00123578       0.01585651 </v>
   <v>      -0.01355986       0.00782879      -0.04537354 </v>
   <v>       0.01355986       0.00782879      -0.04537354 </v>
   <v>       0.00000000       0.00000000       0.08918811 </v>
   <v>       0.00000000      -0.01565757      -0.04537354 </v>
   <v>      -0.07583911      -0.04378573       0.12887062 </v>
   <v>       0.07583911      -0.04378573       0.12887062 </v>
   <v>       0.00000000       0.08757146       0.12887062 </v>
   <v>       0.00000000       0.00000000      -0.23441554 </v>
   <v>       0.00000000      -0.00000000      -0.28951995 </v>
  </varray>
  <varray name="stress" >
   <v>      -6.91371632       0.00000000       0.00000000 </v>
   <v>       0.00000000      -6.91371632       0.00000000 </v>
   <v>       0.00000000       0.00000000      -5.03715180 </v>
  </varray>
  <energy>
   <i name="e_fr_energy">    -35.20472467 </i>
   <i name="e_wo_entrp">    -35.20286938 </i>
   <i name="e_0_energy">     -0.00556587 </i>
  </energy>
  <time name="totalsc">   17.72   17.77</time>
 </calculation>
 <calculation>
  <scstep>
   <time name="dav">    4.21    4.23</time>
   <time name="total">    4.39    4.41</time>
   <energy>
    <i name="alphaZ">    177.74950842 </i>
    <i name="ewald">  49092.89740891 </i>
    <i name="hartreedc"> -61854.99048155 </i>
    <i name="XCdc">   -105.77222021 </i>
    <i name="pawpsdc">  13577.70753423 </i>
    <i name="pawaedc"> -13052.21273939 </i>
    <i name="eentropy">     -0.00540757 </i>
    <i name="bandstr">   -749.94956735 </i>
    <i name="atom">  12879.36433655 </i>
    <i name="e_fr_energy">    -35.21162797 </i>
    <i name="e_wo_entrp">    -35.20622040 </i>
    <i name="e_0_energy">    -35.20982545 </i>
   </energy>
  </scstep>
  <scstep>
   <time name="dav">    4.64    4.66</time>
   <time name="total">    4.82    4.84</time>
   <energy>
    <i name="e_fr_energy">    -35.21550183 </i>
    <i name="e_wo_entrp">    -35.21048291 </i>
    <i name="e_0_energy">    -35.21382886 </i>
   </energy>
  </scstep>
  <scstep>
   <time name="dav">    4.66    4.66</time>
   <time name="total">    4.85    4.85</time>
   <energy>
    <i name="e_fr_energy">    -35.21553930 </i>
    <i name="e_wo_entrp">    -35.20973929 </i>
    <i name="e_0_energy">    -35.21360596 </i>
   </energy>
  </scstep>
  <scstep>
   <time name="dav">    4.33    4.33</time>
   <time name="total">    4.52    4.52</time>
   <energy>
    <i name="e_fr_energy">    -35.21538697 </i>
    <i name="e_wo_entrp">    -35.21003581 </i>
    <i name="e_0_energy">    -35.21360325 </i>
   </energy>
  </scstep>
  <scstep>
   <time name="dav">    4.08    4.08</time>
   <time name="total">    4.11    4.12</time>
   <energy>
    <i name="alphaZ">    177.74950842 </i>
    <i name="ewald">  49092.89740891 </i>
    <i name="hartreedc"> -61855.32949349 </i>
    <i name="XCdc">   -105.76896709 </i>
    <i name="pawpsdc">  13583.45979457 </i>
    <i name="pawaedc"> -13058.05262715 </i>
    <i name="eentropy">     -0.00534728 </i>
    <i name="bandstr">   -749.53002423 </i>
    <i name="atom">  12879.36433655 </i>
    <i name="e_fr_energy">    -35.21541079 </i>
    <i name="e_wo_entrp">    -35.21006351 </i>
    <i name="e_0_energy">    -35.21362836 </i>
   </energy>
  </scstep>
  <structure>
   <crystal>
    <varray name="basis" >
     <v>       5.86474364       0.00000000       0.00000000 </v>
     <v>       2.93237182       5.07901698       0.00000000 </v>
     <v>       0.00000000       0.00000000      24.78854313 </v>
    </varray>
    <i name="volume">    738.37962018 </i>
    <varray name="rec_basis" >
     <v>       0.17051044      -0.09844425       0.00000000 </v>
     <v>       0.00000000       0.19688849       0.00000000 </v>
     <v>       0.00000000       0.00000000       0.04034122 </v>
    </varray>
   </crystal>
   <varray name="positions" >
    <v>       0.16666667       0.16666667       0.40398379 </v>
    <v>       0.66655117       0.16689765       0.40347047 </v>
    <v>       0.16689765       0.66655117       0.40347047 </v>
    <v>       0.66655117       0.66655117       0.40347047 </v>
    <v>       0.83269064       0.33365468       0.49976591 </v>
    <v>       0.33365468       0.33365468       0.49976591 </v>
    <v>       0.83333333       0.83333333       0.50079494 </v>
    <v>       0.33365468       0.83269064       0.49976591 </v>
    <v>      -0.00575262      -0.00575262       0.59624166 </v>
    <v>       0.51150524      -0.00575262       0.59624166 </v>
    <v>      -0.00575262       0.51150524       0.59624166 </v>
    <v>       0.50000000       0.50000000       0.59555495 </v>
    <v>       0.16666667       0.16666667       0.64622949 </v>
   </varray>
  </structure>
  <varray name="forces" >
   <v>      -0.00000000      -0.00000000       0.11568175 </v>
   <v>      -0.00000000      -0.00377501       0.01336884 </v>
   <v>      -0.00326926       0.00188751       0.01336884 </v>
   <v>       0.00326926       0.00188751       0.01336884 </v>
   <v>      -0.00116948       0.00067520      -0.02919873 </v>
   <v>       0.00116948       0.00067520      -0.02919873 </v>
   <v>      -0.00000000      -0.00000000       0.06179610 </v>
   <v>      -0.00000000      -0.00135040      -0.02919873 </v>
   <v>      -0.04270233      -0.02465420       0.10361951 </v>
   <v>       0.04270233      -0.02465420       0.10361951 </v>
   <v>      -0.00000000       0.04930841       0.10361951 </v>
   <v>      -0.00000000      -0.00000000      -0.21333003 </v>
   <v>      -0.00000000       0.00000000      -0.22751669 </v>
  </varray>
  <varray name="stress" >
   <v>      -6.64902511       0.00000000       0.00000000 </v>
   <v>       0.00000000      -6.64902511      -0.00000000 </v>
   <v>       0.00000000       0.00000000      -4.83076715 </v>
  </varray>
  <energy>
   <i name="e_fr_energy">    -35.21541079 </i>
   <i name="e_wo_entrp">    -35.21362836 </i>
   <i name="e_0_energy">     -0.00534728 </i>
  </energy>
  <time name="totalsc">   30.84   30.93</time>
 </calculation>
 <calculation>
  <scstep>
   <time name="dav">    4.22    4.23</time>
   <time name="total">    4.39    4.40</time>
   <energy>
    <i name="alphaZ">    177.74950842 </i>
    <i name="ewald">  49178.54782234 </i>
    <i name="hartreedc"> -61940.08161423 </i>
    <i name="XCdc">   -105.68201548 </i>
    <i name="pawpsdc">  13583.46655549 </i>
    <i name="pawaedc"> -13058.06249524 </i>
    <i name="eentropy">     -0.00485685 </i>
    <i name="bandstr">   -750.49649905 </i>
    <i name="atom">  12879.36433655 </i>
    <i name="e_fr_energy">    -35.19925804 </i>
    <i name="e_wo_entrp">    -35.19440119 </i>
    <i name="e_0_energy">    -35.19763909 </i>
   </energy>
  </scstep>
  <scstep>
   <time name="dav">    4.82    4.84</time>
   <time name="total">    5.00    5.03</time>
   <energy>
    <i name="e_fr_energy">    -35.23406821 </i>
    <i name="e_wo_entrp">    -35.23020607 </i>
    <i name="e_0_energy">    -35.23278083 </i>
   </energy>
  </scstep>
  <scstep>
   <time name="dav">    4.74    4.75</time>
   <time name="total">    4.92    4.93</time>
   <energy>
    <i name="e_fr_energy">    -35.23396851 </i>
    <i name="e_wo_entrp">    -35.22827435 </i>
    <i name="e_0_energy">    -35.23207046 </i>
   </energy>
  </scstep>
  <scstep>
   <time name="dav">    4.55    4.56</time>
   <time name="total">    4.73    4.74</time>
   <energy>
    <i name="e_fr_energy">    -35.23295482 </i>
    <i name="e_wo_entrp">    -35.22843211 </i>
    <i name="e_0_energy">    -35.23144725 </i>
   </energy>
  </scstep>
  <scstep>
   <time name="dav">    4.36    4.37</time>
   <time name="total">    4.54    4.55</time>
   <energy>
    <i name="e_fr_energy">    -35.23280443 </i>
    <i name="e_wo_entrp">    -35.22817794 </i>
    <i name="e_0_energy">    -35.23126227 </i>
   </energy>
  </scstep>
  <scstep>
   <time name="dav">    4.28    4.29</time>
   <time name="total">    4.32    4.33</time>
   <energy>
    <i name="alphaZ">    177.74950842 </i>
    <i name="ewald">  49178.54782234 </i>
    <i name="hartreedc"> -61941.90880431 </i>
    <i name="XCdc">   -105.67064999 </i>
    <i name="pawpsdc">  13602.42581209 </i>
    <i name="pawaedc"> -13077.29779118 </i>
    <i name="eentropy">     -0.00453734 </i>
    <i name="bandstr">   -748.43851395 </i>
    <i name="atom">  12879.36433655 </i>
    <i name="e_fr_energy">    -35.23281737 </i>
    <i name="e_wo_entrp">    -35.22828004 </i>
    <i name="e_0_energy">    -35.23130493 </i>
   </energy>
  </scstep>
  <structure>
   <crystal>
    <varray name="basis" >
     <v>       5.86474364       0.00000000       0.00000000 </v>
     <v>       2.93237182       5.07901698       0.00000000 </v>
     <v>       0.00000000       0.00000000      24.78854313 </v>
    </varray>
    <i name="volume">    738.37962018 </i>
    <varray name="rec_basis" >
     <v>       0.17051044      -0.09844425       0.00000000 </v>
     <v>       0.00000000       0.19688849       0.00000000 </v>
     <v>       0.00000000       0.00000000       0.04034122 </v>
    </varray>
   </crystal>
   <varray name="positions" >
    <v>       0.16666667       0.16666667       0.40481528 </v>
    <v>       0.66650365       0.16699269       0.40356596 </v>
    <v>       0.16699269       0.66650365       0.40356596 </v>
    <v>       0.66650365       0.66650365       0.40356596 </v>
    <v>       0.83218701       0.33390649       0.49948458 </v>
    <v>       0.33390649       0.33390649       0.49948458 </v>
    <v>       0.83333333       0.83333333       0.50138811 </v>
    <v>       0.33390649       0.83218701       0.49948458 </v>
    <v>      -0.00763556      -0.00763556       0.59691941 </v>
    <v>       0.51527113      -0.00763556       0.59691941 </v>
    <v>      -0.00763556       0.51527113       0.59691941 </v>
    <v>       0.50000000       0.50000000       0.59412266 </v>
    <v>       0.16666667       0.16666667       0.64476140 </v>
   </varray>
  </structure>
  <varray name="forces" >
   <v>      -0.00000000      -0.00000000       0.05334140 </v>
   <v>      -0.00000000      -0.02067624       0.00948004 </v>
   <v>      -0.01790615       0.01033812       0.00948004 </v>
   <v>       0.01790615       0.01033812       0.00948004 </v>
   <v>       0.03270968      -0.01888494       0.01487652 </v>
   <v>      -0.03270968      -0.01888494       0.01487652 </v>
   <v>      -0.00000000      -0.00000000      -0.00586195 </v>
   <v>      -0.00000000       0.03776988       0.01487652 </v>
   <v>       0.04532131       0.02616627       0.03259924 </v>
   <v>      -0.04532131       0.02616627       0.03259924 </v>
   <v>      -0.00000000      -0.05233254       0.03259924 </v>
   <v>      -0.00000000      -0.00000000      -0.14613423 </v>
   <v>      -0.00000000      -0.00000000      -0.07221263 </v>
  </varray>
  <varray name="stress" >
   <v>      -5.49556891       0.00000000       0.00000000 </v>
   <v>       0.00000000      -5.49556891       0.00000000 </v>
   <v>       0.00000000      -0.00000000      -3.89925963 </v>
  </varray>
  <energy>
   <i name="e_fr_energy">    -35.23281737 </i>
   <i name="e_wo_entrp">    -35.23130493 </i>
   <i name="e_0_energy">     -0.00453734 </i>
  </energy>
  <time name="totalsc">   36.01   36.13</time>
 </calculation>
 <calculation>
  <scstep>
   <time name="dav">    4.20    4.21</time>
   <time name="total">    4.38    4.39</time>
   <energy>
    <i name="alphaZ">    177.74950842 </i>
    <i name="ewald">  49207.72810585 </i>
    <i name="hartreedc"> -61970.97659687 </i>
    <i name="XCdc">   -105.64124951 </i>
    <i name="pawpsdc">  13602.05698495 </i>
    <i name="pawaedc"> -13076.93068881 </i>
    <i name="eentropy">     -0.00410635 </i>
    <i name="bandstr">   -748.57986323 </i>
    <i name="atom">  12879.36433655 </i>
    <i name="e_fr_energy">    -35.23356901 </i>
    <i name="e_wo_entrp">    -35.22946266 </i>
    <i name="e_0_energy">    -35.23220022 </i>
   </energy>
  </scstep>
  <scstep>
   <time name="dav">    4.93    4.94</time>
   <time name="total">    5.10    5.13</time>
   <energy>
    <i name="e_fr_energy">    -35.23504256 </i>
    <i name="e_wo_entrp">    -35.23059795 </i>
    <i name="e_0_energy">    -35.23356102 </i>
   </energy>
  </scstep>
  <scstep>
   <time name="dav">    4.57    4.58</time>
   <time name="total">    4.60    4.61</time>
   <energy>
    <i name="alphaZ">    177.74950842 </i>
    <i name="ewald">  49207.72810585 </i>
    <i name="hartreedc"> -61971.25196471 </i>
    <i name="XCdc">   -105.63839984 </i>
    <i name="pawpsdc">  13605.17503976 </i>
    <i name="pawaedc"> -13080.08619283 </i>
    <i name="eentropy">     -0.00405015 </i>
    <i name="bandstr">   -748.27143214 </i>
    <i name="atom">  12879.36433655 </i>
    <i name="e_fr_energy">    -35.23504909 </i>
    <i name="e_wo_entrp">    -35.23099894 </i>
    <i name="e_0_energy">    -35.23369904 </i>
   </energy>
  </scstep>
  <structure>
   <crystal>
    <varray name="basis" >
     <v>       5.86474364       0.00000000       0.00000000 </v>
     <v>       2.93237182       5.07901698       0.00000000 </v>
     <v>       0.00000000       0.00000000      24.78854313 </v>
    </varray>
    <i name="volume">    738.37962018 </i>
    <varray name="rec_basis" >
     <v>       0.17051044      -0.09844425       0.00000000 </v>
     <v>       0.00000000       0.19688849       0.00000000 </v>
     <v>       0.00000000       0.00000000       0.04034122 </v>
    </varray>
   </crystal>
   <varray name="positions" >
    <v>       0.16666667       0.16666667       0.40496277 </v>
    <v>       0.66666113       0.16667774       0.40359330 </v>
    <v>       0.16667774       0.66666113       0.40359330 </v>
    <v>       0.66666113       0.66666113       0.40359330 </v>
    <v>       0.83276946       0.33361527       0.49953677 </v>
    <v>       0.33361527       0.33361527       0.49953677 </v>
    <v>       0.83333333       0.83333333       0.50135715 </v>
    <v>       0.33361527       0.83276946       0.49953677 </v>
    <v>      -0.00719901      -0.00719901       0.59700589 </v>
    <v>       0.51439801      -0.00719901       0.59700589 </v>
    <v>      -0.00719901       0.51439801       0.59700589 </v>
    <v>       0.50000000       0.50000000       0.59370039 </v>
    <v>       0.16666667       0.16666667       0.64456912 </v>
   </varray>
  </structure>
  <varray name="forces" >
   <v>       0.00000000      -0.00000000       0.02992186 </v>
   <v>       0.00000000      -0.00065658       0.01050108 </v>
   <v>      -0.00056861       0.00032829       0.01050108 </v>
   <v>       0.00056861       0.00032829       0.01050108 </v>
   <v>       0.01004896      -0.00580177       0.00119576 </v>
   <v>      -0.01004896      -0.00580177       0.00119576 </v>
   <v>       0.00000000      -0.00000000       0.02544531 </v>
   <v>       0.00000000       0.01160354       0.00119576 </v>
   <v>      -0.04618796      -0.02666663      -0.00555886 </v>
   <v>       0.04618796      -0.02666663      -0.00555886 </v>
   <v>       0.00000000       0.05333326      -0.00555886 </v>
   <v>       0.00000000      -0.00000000      -0.10204752 </v>
   <v>       0.00000000      -0.00000000       0.02826641 </v>
  </varray>
  <varray name="stress" >
   <v>      -5.33471807       0.00000000       0.00000000 </v>
   <v>       0.00000000      -5.33471807       0.00000000 </v>
   <v>       0.00000000       0.00000000      -3.35124347 </v>
  </varray>
  <energy>
   <i name="e_fr_energy">    -35.23504909 </i>
   <i name="e_wo_entrp">    -35.23369904 </i>
   <i name="e_0_energy">     -0.00405015 </i>
  </energy>
  <time name="totalsc">   22.19   22.27</time>
 </calculation>
 <calculation>
  <scstep>
   <time name="dav">    4.59    4.60</time>
   <time name="total">    4.77    4.78</time>
   <energy>
    <i name="alphaZ">    177.74950842 </i>
    <i name="ewald">  49211.61622029 </i>
    <i name="hartreedc"> -61975.25075697 </i>
    <i name="XCdc">   -105.63891405 </i>
    <i name="pawpsdc">  13605.90364359 </i>
    <i name="pawaedc"> -13080.83475731 </i>
    <i name="eentropy">     -0.00446423 </i>
    <i name="bandstr">   -748.13990551 </i>
    <i name="atom">  12879.36433655 </i>
    <i name="e_fr_energy">    -35.23508924 </i>
    <i name="e_wo_entrp">    -35.23062501 </i>
    <i name="e_0_energy">    -35.23360116 </i>
   </energy>
  </scstep>
  <scstep>
   <time name="dav">    4.51    4.52</time>
   <time name="total">    4.69    4.71</time>
   <energy>
    <i name="e_fr_energy">    -35.23523945 </i>
    <i name="e_wo_entrp">    -35.23141179 </i>
    <i name="e_0_energy">    -35.23396356 </i>
   </energy>
  </scstep>
  <scstep>
   <time name="dav">    4.16    4.17</time>
   <time name="total">    4.34    4.35</time>
   <energy>
    <i name="e_fr_energy">    -35.23509183 </i>
    <i name="e_wo_entrp">    -35.23071852 </i>
    <i name="e_0_energy">    -35.23363406 </i>
   </energy>
  </scstep>
  <scstep>
   <time name="dav">    3.38    3.39</time>
   <time name="total">    3.42    3.44</time>
   <energy>
    <i name="alphaZ">    177.74950842 </i>
    <i name="ewald">  49211.61622029 </i>
    <i name="hartreedc"> -61975.47413939 </i>
    <i name="XCdc">   -105.63531544 </i>
    <i name="pawpsdc">  13607.20371017 </i>
    <i name="pawaedc"> -13082.15074647 </i>
    <i name="eentropy">     -0.00427370 </i>
    <i name="bandstr">   -747.90438761 </i>
    <i name="atom">  12879.36433655 </i>
    <i name="e_fr_energy">    -35.23508720 </i>
    <i name="e_wo_entrp">    -35.23081349 </i>
    <i name="e_0_energy">    -35.23366263 </i>
   </energy>
  </scstep>
  <structure>
   <crystal>
    <varray name="basis" >
     <v>       5.86474364       0.00000000       0.00000000 </v>
     <v>       2.93237182       5.07901698       0.00000000 </v>
     <v>       0.00000000       0.00000000      24.78854313 </v>
    </varray>
    <i name="volume">    738.37962018 </i>
    <varray name="rec_basis" >
     <v>       0.17051044      -0.09844425       0.00000000 </v>
     <v>       0.00000000       0.19688849       0.00000000 </v>
     <v>       0.00000000       0.00000000       0.04034122 </v>
    </varray>
   </crystal>
   <varray name="positions" >
    <v>       0.16666667       0.16666667       0.40498240 </v>
    <v>       0.66668210       0.16663581       0.40359694 </v>
    <v>       0.16663581       0.66668210       0.40359694 </v>
    <v>       0.66668210       0.66668210       0.40359694 </v>
    <v>       0.83284700       0.33357650       0.49954371 </v>
    <v>       0.33357650       0.33357650       0.49954371 </v>
    <v>       0.83333333       0.83333333       0.50135303 </v>
    <v>       0.33357650       0.83284700       0.49954371 </v>
    <v>      -0.00714088      -0.00714088       0.59701740 </v>
    <v>       0.51428177      -0.00714088       0.59701740 </v>
    <v>      -0.00714088       0.51428177       0.59701740 </v>
    <v>       0.50000000       0.50000000       0.59364417 </v>
    <v>       0.16666667       0.16666667       0.64454352 </v>
   </varray>
  </structure>
  <varray name="forces" >
   <v>      -0.00000000      -0.00000000       0.03665065 </v>
   <v>      -0.00000000      -0.00365205       0.01279089 </v>
   <v>      -0.00316277       0.00182602       0.01279089 </v>
   <v>       0.00316277       0.00182602       0.01279089 </v>
   <v>       0.01261783      -0.00728491       0.00109184 </v>
   <v>      -0.01261783      -0.00728491       0.00109184 </v>
   <v>      -0.00000000       0.00000000       0.02590439 </v>
   <v>      -0.00000000       0.01456981       0.00109184 </v>
   <v>      -0.05757159      -0.03323898      -0.01171752 </v>
   <v>       0.05757159      -0.03323898      -0.01171752 </v>
   <v>       0.00000000       0.06647795      -0.01171752 </v>
   <v>      -0.00000000       0.00000000      -0.11431337 </v>
   <v>      -0.00000000      -0.00000000       0.04526269 </v>
  </varray>
  <varray name="stress" >
   <v>      -5.10545172       0.00000000       0.00000000 </v>
   <v>       0.00000000      -5.10545172      -0.00000000 </v>
   <v>       0.00000000       0.00000000      -3.35143361 </v>
  </varray>
  <energy>
   <i name="e_fr_energy">    -35.23508720 </i>
   <i name="e_wo_entrp">    -35.23366263 </i>
   <i name="e_0_energy">     -0.00427370 </i>
  </energy>
  <time name="totalsc">   25.26   25.34</time>
 </calculation>
 <calculation>
  <scstep>
   <time name="dav">    4.22    4.22</time>
   <time name="total">    4.41    4.41</time>
   <energy>
    <i name="alphaZ">    177.74950842 </i>
    <i name="ewald">  49252.04946354 </i>
    <i name="hartreedc"> -62015.95085840 </i>
    <i name="XCdc">   -105.61150546 </i>
    <i name="pawpsdc">  13607.51897527 </i>
    <i name="pawaedc"> -13082.47030982 </i>
    <i name="eentropy">     -0.00406574 </i>
    <i name="bandstr">   -747.88156310 </i>
    <i name="atom">  12879.36433655 </i>
    <i name="e_fr_energy">    -35.23601875 </i>
    <i name="e_wo_entrp">    -35.23195301 </i>
    <i name="e_0_energy">    -35.23466350 </i>
   </energy>
  </scstep>
  <scstep>
   <time name="dav">    4.86    4.86</time>
   <time name="total">    5.05    5.05</time>
   <energy>
    <i name="e_fr_energy">    -35.23702657 </i>
    <i name="e_wo_entrp">    -35.23308933 </i>
    <i name="e_0_energy">    -35.23571416 </i>
   </energy>
  </scstep>
  <scstep>
   <time name="dav">    4.04    4.04</time>
   <time name="total">    4.07    4.09</time>
   <energy>
    <i name="alphaZ">    177.74950842 </i>
    <i name="ewald">  49252.04946354 </i>
    <i name="hartreedc"> -62015.82221473 </i>
    <i name="XCdc">   -105.61646044 </i>
    <i name="pawpsdc">  13608.87697813 </i>
    <i name="pawaedc"> -13083.85169353 </i>
    <i name="eentropy">     -0.00406334 </i>
    <i name="bandstr">   -747.98286797 </i>
    <i name="atom">  12879.36433655 </i>
    <i name="e_fr_energy">    -35.23701337 </i>
    <i name="e_wo_entrp">    -35.23295004 </i>
    <i name="e_0_energy">    -35.23565893 </i>
   </energy>
  </scstep>
  <structure>
   <crystal>
    <varray name="basis" >
     <v>       5.86474364       0.00000000       0.00000000 </v>
     <v>       2.93237182       5.07901698       0.00000000 </v>
     <v>       0.00000000       0.00000000      24.78854313 </v>
    </varray>
    <i name="volume">    738.37962018 </i>
    <varray name="rec_basis" >
     <v>       0.17051044      -0.09844425       0.00000000 </v>
     <v>       0.00000000       0.19688849       0.00000000 </v>
     <v>       0.00000000       0.00000000       0.04034122 </v>
    </varray>
   </crystal>
   <varray name="positions" >
    <v>       0.16666667       0.16666667       0.40515896 </v>
    <v>       0.66678564       0.16642871       0.40364653 </v>
    <v>       0.16642871       0.66678564       0.40364653 </v>
    <v>       0.66678564       0.66678564       0.40364653 </v>
    <v>       0.83333725       0.33333138       0.49957280 </v>
    <v>       0.33333138       0.33333138       0.49957280 </v>
    <v>       0.83333333       0.83333333       0.50141044 </v>
    <v>       0.33333138       0.83333725       0.49957280 </v>
    <v>      -0.00737944      -0.00737944       0.59702756 </v>
    <v>       0.51475888      -0.00737944       0.59702756 </v>
    <v>      -0.00737944       0.51475888       0.59702756 </v>
    <v>       0.50000000       0.50000000       0.59311228 </v>
    <v>       0.16666667       0.16666667       0.64457495 </v>
   </varray>
  </structure>
  <varray name="forces" >
   <v>      -0.00000000       0.00000000       0.01278093 </v>
   <v>      -0.00000000       0.00659597       0.01067746 </v>
   <v>       0.00571228      -0.00329799       0.01067746 </v>
   <v>      -0.00571228      -0.00329799       0.01067746 </v>
   <v>      -0.00181481       0.00104778      -0.00983874 </v>
   <v>       0.00181481       0.00104778      -0.00983874 </v>
   <v>      -0.00000000       0.00000000       0.01153206 </v>
   <v>      -0.00000000      -0.00209557      -0.00983874 </v>
   <v>      -0.01010061      -0.00583159       0.00740923 </v>
   <v>       0.01010061      -0.00583159       0.00740923 </v>
   <v>       0.00000000       0.01166318       0.00740923 </v>
   <v>      -0.00000000       0.00000000      -0.06145608 </v>
   <v>      -0.00000000       0.00000000       0.01239924 </v>
  </varray>
  <varray name="stress" >
   <v>      -5.10544361       0.00000000       0.00000000 </v>
   <v>       0.00000000      -5.10544361       0.00000000 </v>
   <v>      -0.00000000      -0.00000000      -3.28315126 </v>
  </varray>
  <energy>
   <i name="e_fr_energy">    -35.23701337 </i>
   <i name="e_wo_entrp">    -35.23565893 </i>
   <i name="e_0_energy">     -0.00406334 </i>
  </energy>
  <time name="totalsc">   21.61   21.67</time>
 </calculation>
 <calculation>
  <scstep>
   <time name="dav">    4.27    4.28</time>
   <time name="total">    4.46    4.47</time>
   <energy>
    <i name="alphaZ">    177.74950842 </i>
    <i name="ewald">  49279.48146557 </i>
    <i name="hartreedc"> -62043.14068376 </i>
    <i name="XCdc">   -105.59988110 </i>
    <i name="pawpsdc">  13609.26937300 </i>
    <i name="pawaedc"> -13084.25029229 </i>
    <i name="eentropy">     -0.00376905 </i>
    <i name="bandstr">   -748.10733772 </i>
    <i name="atom">  12879.36433655 </i>
    <i name="e_fr_energy">    -35.23728040 </i>
    <i name="e_wo_entrp">    -35.23351135 </i>
    <i name="e_0_energy">    -35.23602405 </i>
   </energy>
  </scstep>
  <scstep>
   <time name="dav">    4.77    4.78</time>
   <time name="total">    4.96    4.97</time>
   <energy>
    <i name="e_fr_energy">    -35.23774068 </i>
    <i name="e_wo_entrp">    -35.23370575 </i>
    <i name="e_0_energy">    -35.23639570 </i>
   </energy>
  </scstep>
  <scstep>
   <time name="dav">    3.40    3.40</time>
   <time name="total">    3.44    3.45</time>
   <energy>
    <i name="alphaZ">    177.74950842 </i>
    <i name="ewald">  49279.48146557 </i>
    <i name="hartreedc"> -62042.99420209 </i>
    <i name="XCdc">   -105.60379634 </i>
    <i name="pawpsdc">  13610.61792134 </i>
    <i name="pawaedc"> -13085.62504391 </i>
    <i name="eentropy">     -0.00375054 </i>
    <i name="bandstr">   -748.22416162 </i>
    <i name="atom">  12879.36433655 </i>
    <i name="e_fr_energy">    -35.23772263 </i>
    <i name="e_wo_entrp">    -35.23397208 </i>
    <i name="e_0_energy">    -35.23647244 </i>
   </energy>
  </scstep>
  <structure>
   <crystal>
    <varray name="basis" >
     <v>       5.86474364       0.00000000       0.00000000 </v>
     <v>       2.93237182       5.07901698       0.00000000 </v>
     <v>       0.00000000       0.00000000      24.78854313 </v>
    </varray>
    <i name="volume">    738.37962018 </i>
    <varray name="rec_basis" >
     <v>       0.17051044      -0.09844425       0.00000000 </v>
     <v>       0.00000000       0.19688849       0.00000000 </v>
     <v>       0.00000000       0.00000000       0.04034122 </v>
    </varray>
   </crystal>
   <varray name="positions" >
    <v>       0.16666667       0.16666667       0.40527889 </v>
    <v>       0.66685597       0.16628805       0.40368021 </v>
    <v>       0.16628805       0.66685597       0.40368021 </v>
    <v>       0.66685597       0.66685597       0.40368021 </v>
    <v>       0.83367022       0.33316489       0.49959255 </v>
    <v>       0.33316489       0.33316489       0.49959255 </v>
    <v>       0.83333333       0.83333333       0.50144943 </v>
    <v>       0.33316489       0.83367022       0.49959255 </v>
    <v>      -0.00754147      -0.00754147       0.59703445 </v>
    <v>       0.51508295      -0.00754147       0.59703445 </v>
    <v>      -0.00754147       0.51508295       0.59703445 </v>
    <v>       0.50000000       0.50000000       0.59275101 </v>
    <v>       0.16666667       0.16666667       0.64459630 </v>
   </varray>
  </structure>
  <varray name="forces" >
   <v>      -0.00000000      -0.00000000      -0.00233973 </v>
   <v>      -0.00000000       0.01244186       0.00878617 </v>
   <v>       0.01077497      -0.00622093       0.00878617 </v>
   <v>      -0.01077497      -0.00622093       0.00878617 </v>
   <v>      -0.00897988       0.00518453      -0.01670966 </v>
   <v>       0.00897988       0.00518453      -0.01670966 </v>
   <v>      -0.00000000      -0.00000000       0.00373086 </v>
   <v>      -0.00000000      -0.01036907      -0.01670966 </v>
   <v>       0.01997535       0.01153277       0.02077221 </v>
   <v>      -0.01997535       0.01153277       0.02077221 </v>
   <v>       0.00000000      -0.02306555       0.02077221 </v>
   <v>      -0.00000000      -0.00000000      -0.02782292 </v>
   <v>      -0.00000000      -0.00000000      -0.01211435 </v>
  </varray>
  <varray name="stress" >
   <v>      -5.14691715       0.00000000       0.00000000 </v>
   <v>       0.00000000      -5.14691715       0.00000000 </v>
   <v>       0.00000000       0.00000000      -3.13184659 </v>
  </varray>
  <energy>
   <i name="e_fr_energy">    -35.23772263 </i>
   <i name="e_wo_entrp">    -35.23647244 </i>
   <i name="e_0_energy">     -0.00375054 </i>
  </energy>
  <time name="totalsc">   20.52   20.60</time>
  <eigenvalues>
   <array>
    <dimension dim="1">band</dimension>
    <dimension dim="2">kpoint</dimension>
    <dimension dim="3">spin</dimension>
    <field>eigene</field>
    <field>occ</field>
    <set>
     <set comment="spin 1">
      <set comment="kpoint 1">
       <r>  -18.4241    1.0000 </r>
       <r>   -8.0835    1.0000 </r>
       <r>   -7.2135    1.0000 </r>
       <r>   -7.2090    1.0000 </r>
       <r>   -7.2090    1.0000 </r>
       <r>   -7.1944    1.0000 </r>
       <r>   -7.0703    1.0000 </r>
       <r>   -7.0703    1.0000 </r>
       <r>   -7.0644    1.0000 </r>
       <r>   -7.0224    1.0000 </r>
       <r>   -6.9213    1.0000 </r>
       <r>   -6.9213    1.0000 </r>
       <r>   -6.8659    1.0000 </r>
       <r>   -6.7710    1.0000 </r>
       <r>   -6.7710    1.0000 </r>
       <r>   -6.7465    1.0000 </r>
       <r>   -6.2817    1.0000 </r>
       <r>   -6.2816    1.0000 </r>
       <r>   -5.9762    1.0000 </r>
       <r>   -5.9762    1.0000 </r>
       <r>   -5.9573    1.0000 </r>
       <r>   -5.9293    1.0000 </r>
       <r>   -5.8549    1.0000 </r>
       <r>   -5.8549    1.0000 </r>
       <r>   -5.8474    1.0000 </r>
       <r>   -5.8158    1.0000 </r>
       <r>   -5.8158    1.0000 </r>
       <r>   -5.6511    1.0000 </r>
       <r>   -5.6511    1.0000 </r>
       <r>   -5.5594    1.0000 </r>
       <r>   -5.5450    1.0000 </r>
       <r>   -5.5450    1.0000 </r>
       <r>   -5.1493    1.0000 </r>
       <r>   -5.1345    1.0000 </r>
       <r>   -5.1345    1.0000 </r>
       <r>   -4.9919    1.0000 </r>
       <r>   -4.9480    1.0000 </r>
       <r>   -4.9480    1.0000 </r>
       <r>   -4.8756    1.0000 </r>
       <r>   -4.8756    1.0000 </r>
       <r>   -4.7938    1.0000 </r>
       <r>   -4.7129    1.0000 </r>
       <r>   -4.7129    1.0000 </r>
       <r>   -4.6016    1.0000 </r>
       <r>   -4.5901    1.0000 </r>
       <r>   -4.5901    1.0000 </r>
       <r>   -4.4154    1.0000 </r>
       <r>   -4.4154    1.0000 </r>
       <r>   -4.3080    1.0000 </r>
       <r>   -4.2926    1.0000 </r>
       <r>   -4.2926    1.0000 </r>
       <r>   -4.2467    1.0000 </r>
       <r>   -4.1904    1.0000 </r>
       <r>   -4.1904    1.0000 </r>
       <r>   -4.1717    1.0000 </r>
       <r>   -4.1717    1.0000 </r>
       <r>   -4.1555    1.0000 </r>
       <r>   -4.0045    1.0000 </r>
       <r>   -4.0045    1.0000 </r>
       <r>   -3.9665    1.0000 </r>
       <r>   -3.9665    1.0000 </r>
       <r>   -3.9287    1.0000 </r>
       <r>   -3.8628    1.0000 </r>
       <r>   -2.7457    1.0000 </r>
       <r>   -2.4346    1.0000 </r>
       <r>   -2.4344    1.0000 </r>
       <r>   -2.1557    1.0000 </r>
       <r>   -0.7853   -0.0000 </r>
       <r>   -0.7853   -0.0000 </r>
       <r>   -0.6520   -0.0000 </r>
       <r>   -0.3007   -0.0000 </r>
       <r>    0.1033   -0.0000 </r>
       <r>    0.1033   -0.0000 </r>
       <r>    0.2503   -0.0000 </r>
       <r>    0.6710   -0.0000 </r>
       <r>    0.6710   -0.0000 </r>
       <r>    1.5637    0.0000 </r>
       <r>    2.8488    0.0000 </r>
       <r>    2.8488    0.0000 </r>
       <r>    3.1129    0.0000 </r>
       <r>    3.1841    0.0000 </r>
       <r>    3.8905    0.0000 </r>
       <r>    3.8905    0.0000 </r>
       <r>    3.8918    0.0000 </r>
       <r>    4.0549    0.0000 </r>
       <r>    4.3740    0.0000 </r>
       <r>    4.9137    0.0000 </r>
       <r>    5.3740    0.0000 </r>
       <r>    5.4795    0.0000 </r>
       <r>    5.4858    0.0000 </r>
       <r>    5.4859    0.0000 </r>
       <r>    6.8647    0.0000 </r>
       <r>    7.1219    0.0000 </r>
       <r>    7.2148    0.0000 </r>
       <r>    7.2148    0.0000 </r>
       <r>    7.3030    0.0000 </r>
      </set>
      <set comment="kpoint 2">
       <r>  -18.4230    1.0000 </r>
       <r>   -8.0055    1.0000 </r>
       <r>   -7.1861    1.0000 </r>
       <r>   -7.1639    1.0000 </r>
       <r>   -7.1619    1.0000 </r>
       <r>   -7.1470    1.0000 </r>
       <r>   -7.0480    1.0000 </r>
       <r>   -7.0296    1.0000 </r>
       <r>   -7.0163    1.0000 </r>
       <r>   -6.9644    1.0000 </r>
       <r>   -6.9006    1.0000 </r>
       <r>   -6.8908    1.0000 </r>
       <r>   -6.8557    1.0000 </r>
       <r>   -6.7344    1.0000 </r>
       <r>   -6.7214    1.0000 </r>
       <r>   -6.6963    1.0000 </r>
       <r>   -6.2748    1.0000 </r>
       <r>   -6.2589    1.0000 </r>
       <r>   -5.9857    1.0000 </r>
       <r>   -5.9852    1.0000 </r>
       <r>   -5.9358    1.0000 </r>
       <r>   -5.9258    1.0000 </r>
       <r>   -5.8645    1.0000 </r>
       <r>   -5.8408    1.0000 </r>
       <r>   -5.8264    1.0000 </r>
       <r>   -5.8056    1.0000 </r>
       <r>   -5.7854    1.0000 </r>
       <r>   -5.6857    1.0000 </r>
       <r>   -5.6326    1.0000 </r>
       <r>   -5.5661    1.0000 </r>
       <r>   -5.5658    1.0000 </r>
       <r>   -5.5107    1.0000 </r>
       <r>   -5.2459    1.0000 </r>
       <r>   -5.1633    1.0000 </r>
       <r>   -5.1414    1.0000 </r>
       <r>   -5.0422    1.0000 </r>
       <r>   -4.9862    1.0000 </r>
       <r>   -4.9842    1.0000 </r>
       <r>   -4.8958    1.0000 </r>
       <r>   -4.8297    1.0000 </r>
       <r>   -4.8184    1.0000 </r>
       <r>   -4.7332    1.0000 </r>
       <r>   -4.7275    1.0000 </r>
       <r>   -4.6381    1.0000 </r>
       <r>   -4.6063    1.0000 </r>
       <r>   -4.5966    1.0000 </r>
       <r>   -4.4483    1.0000 </r>
       <r>   -4.4280    1.0000 </r>
       <r>   -4.3366    1.0000 </r>
       <r>   -4.3140    1.0000 </r>
       <r>   -4.2999    1.0000 </r>
       <r>   -4.2434    1.0000 </r>
       <r>   -4.2365    1.0000 </r>
       <r>   -4.2306    1.0000 </r>
       <r>   -4.2272    1.0000 </r>
       <r>   -4.2091    1.0000 </r>
       <r>   -4.2020    1.0000 </r>
       <r>   -4.0982    1.0000 </r>
       <r>   -4.0560    1.0000 </r>
       <r>   -4.0261    1.0000 </r>
       <r>   -4.0217    1.0000 </r>
       <r>   -3.9913    1.0000 </r>
       <r>   -3.9239    1.0000 </r>
       <r>   -2.7366    1.0000 </r>
       <r>   -2.5982    1.0000 </r>
       <r>   -2.4521    1.0000 </r>
       <r>   -2.0238    1.0000 </r>
       <r>   -1.5242    1.0000 </r>
       <r>   -0.9363   -0.0013 </r>
       <r>   -0.8708   -0.0000 </r>
       <r>   -0.2535   -0.0000 </r>
       <r>   -0.0666   -0.0000 </r>
       <r>    0.1728   -0.0000 </r>
       <r>    0.4992   -0.0000 </r>
       <r>    1.0016   -0.0000 </r>
       <r>    1.1158   -0.0000 </r>
       <r>    1.7829    0.0000 </r>
       <r>    2.9544    0.0000 </r>
       <r>    2.9875    0.0000 </r>
       <r>    3.2478    0.0000 </r>
       <r>    3.2540    0.0000 </r>
       <r>    3.9318    0.0000 </r>
       <r>    3.9461    0.0000 </r>
       <r>    3.9844    0.0000 </r>
       <r>    4.1175    0.0000 </r>
       <r>    4.5998    0.0000 </r>
       <r>    4.9819    0.0000 </r>
       <r>    5.3583    0.0000 </r>
       <r>    5.4437    0.0000 </r>
       <r>    5.6686    0.0000 </r>
       <r>    5.8552    0.0000 </r>
       <r>    6.7588    0.0000 </r>
       <r>    6.9181    0.0000 </r>
       <r>    6.9330    0.0000 </r>
       <r>    7.2568    0.0000 </r>
       <r>    7.3721    0.0000 </r>
      </set>
      <set comment="kpoint 3">
       <r>  -18.4205    1.0000 </r>
       <r>   -7.7833    1.0000 </r>
       <r>   -7.1190    1.0000 </r>
       <r>   -7.0570    1.0000 </r>
       <r>   -7.0310    1.0000 </r>
       <r>   -7.0073    1.0000 </r>
       <r>   -6.9672    1.0000 </r>
       <r>   -6.9138    1.0000 </r>
       <r>   -6.9116    1.0000 </r>
       <r>   -6.8444    1.0000 </r>
       <r>   -6.8139    1.0000 </r>
       <r>   -6.8014    1.0000 </r>
       <r>   -6.7729    1.0000 </r>
       <r>   -6.6462    1.0000 </r>
       <r>   -6.5820    1.0000 </r>
       <r>   -6.5471    1.0000 </r>
       <r>   -6.2449    1.0000 </r>
       <r>   -6.1933    1.0000 </r>
       <r>   -6.0303    1.0000 </r>
       <r>   -5.9981    1.0000 </r>
       <r>   -5.9438    1.0000 </r>
       <r>   -5.9055    1.0000 </r>
       <r>   -5.8774    1.0000 </r>
       <r>   -5.8398    1.0000 </r>
       <r>   -5.7920    1.0000 </r>
       <r>   -5.7571    1.0000 </r>
       <r>   -5.7487    1.0000 </r>
       <r>   -5.6871    1.0000 </r>
       <r>   -5.6021    1.0000 </r>
       <r>   -5.5969    1.0000 </r>
       <r>   -5.5498    1.0000 </r>
       <r>   -5.4195    1.0000 </r>
       <r>   -5.4057    1.0000 </r>
       <r>   -5.2672    1.0000 </r>
       <r>   -5.1759    1.0000 </r>
       <r>   -5.1576    1.0000 </r>
       <r>   -5.1095    1.0000 </r>
       <r>   -5.0399    1.0000 </r>
       <r>   -4.9368    1.0000 </r>
       <r>   -4.8853    1.0000 </r>
       <r>   -4.8796    1.0000 </r>
       <r>   -4.8104    1.0000 </r>
       <r>   -4.7741    1.0000 </r>
       <r>   -4.7230    1.0000 </r>
       <r>   -4.6913    1.0000 </r>
       <r>   -4.6166    1.0000 </r>
       <r>   -4.5548    1.0000 </r>
       <r>   -4.4935    1.0000 </r>
       <r>   -4.4808    1.0000 </r>
       <r>   -4.4501    1.0000 </r>
       <r>   -4.4176    1.0000 </r>
       <r>   -4.4132    1.0000 </r>
       <r>   -4.3769    1.0000 </r>
       <r>   -4.3600    1.0000 </r>
       <r>   -4.2945    1.0000 </r>
       <r>   -4.2581    1.0000 </r>
       <r>   -4.2304    1.0000 </r>
       <r>   -4.1609    1.0000 </r>
       <r>   -4.1506    1.0000 </r>
       <r>   -4.1491    1.0000 </r>
       <r>   -4.1155    1.0000 </r>
       <r>   -4.0625    1.0000 </r>
       <r>   -4.0336    1.0000 </r>
       <r>   -3.2115    1.0000 </r>
       <r>   -2.7160    1.0000 </r>
       <r>   -2.4838    1.0000 </r>
       <r>   -2.3420    1.0000 </r>
       <r>   -1.7149    1.0000 </r>
       <r>   -1.1697    0.3839 </r>
       <r>   -1.1280    0.1009 </r>
       <r>   -0.7643   -0.0000 </r>
       <r>    0.2211   -0.0000 </r>
       <r>    0.2709   -0.0000 </r>
       <r>    0.6648   -0.0000 </r>
       <r>    1.3153   -0.0000 </r>
       <r>    1.7377    0.0000 </r>
       <r>    2.2314    0.0000 </r>
       <r>    3.1775    0.0000 </r>
       <r>    3.3702    0.0000 </r>
       <r>    3.4538    0.0000 </r>
       <r>    3.7168    0.0000 </r>
       <r>    4.1697    0.0000 </r>
       <r>    4.1985    0.0000 </r>
       <r>    4.3143    0.0000 </r>
       <r>    4.4303    0.0000 </r>
       <r>    4.8815    0.0000 </r>
       <r>    5.2912    0.0000 </r>
       <r>    5.4708    0.0000 </r>
       <r>    5.6322    0.0000 </r>
       <r>    6.0297    0.0000 </r>
       <r>    6.0359    0.0000 </r>
       <r>    6.6073    0.0000 </r>
       <r>    6.8201    0.0000 </r>
       <r>    6.9855    0.0000 </r>
       <r>    7.3018    0.0000 </r>
       <r>    7.3824    0.0000 </r>
      </set>
      <set comment="kpoint 4">
       <r>  -18.4176    1.0000 </r>
       <r>   -7.4651    1.0000 </r>
       <r>   -7.0450    1.0000 </r>
       <r>   -6.9766    1.0000 </r>
       <r>   -6.8622    1.0000 </r>
       <r>   -6.8402    1.0000 </r>
       <r>   -6.8007    1.0000 </r>
       <r>   -6.7834    1.0000 </r>
       <r>   -6.7307    1.0000 </r>
       <r>   -6.7166    1.0000 </r>
       <r>   -6.6829    1.0000 </r>
       <r>   -6.6722    1.0000 </r>
       <r>   -6.5615    1.0000 </r>
       <r>   -6.5219    1.0000 </r>
       <r>   -6.3964    1.0000 </r>
       <r>   -6.3408    1.0000 </r>
       <r>   -6.1681    1.0000 </r>
       <r>   -6.1155    1.0000 </r>
       <r>   -6.0780    1.0000 </r>
       <r>   -6.0755    1.0000 </r>
       <r>   -6.0208    1.0000 </r>
       <r>   -5.9471    1.0000 </r>
       <r>   -5.8738    1.0000 </r>
       <r>   -5.8088    1.0000 </r>
       <r>   -5.7920    1.0000 </r>
       <r>   -5.7307    1.0000 </r>
       <r>   -5.7044    1.0000 </r>
       <r>   -5.6129    1.0000 </r>
       <r>   -5.5961    1.0000 </r>
       <r>   -5.5351    1.0000 </r>
       <r>   -5.4877    1.0000 </r>
       <r>   -5.4632    1.0000 </r>
       <r>   -5.4335    1.0000 </r>
       <r>   -5.3715    1.0000 </r>
       <r>   -5.3523    1.0000 </r>
       <r>   -5.3062    1.0000 </r>
       <r>   -5.1306    1.0000 </r>
       <r>   -5.1044    1.0000 </r>
       <r>   -5.0009    1.0000 </r>
       <r>   -4.9738    1.0000 </r>
       <r>   -4.9709    1.0000 </r>
       <r>   -4.9336    1.0000 </r>
       <r>   -4.8831    1.0000 </r>
       <r>   -4.8610    1.0000 </r>
       <r>   -4.8268    1.0000 </r>
       <r>   -4.8187    1.0000 </r>
       <r>   -4.7926    1.0000 </r>
       <r>   -4.6665    1.0000 </r>
       <r>   -4.6522    1.0000 </r>
       <r>   -4.6429    1.0000 </r>
       <r>   -4.6378    1.0000 </r>
       <r>   -4.5742    1.0000 </r>
       <r>   -4.4935    1.0000 </r>
       <r>   -4.4682    1.0000 </r>
       <r>   -4.4102    1.0000 </r>
       <r>   -4.3899    1.0000 </r>
       <r>   -4.2797    1.0000 </r>
       <r>   -4.2591    1.0000 </r>
       <r>   -4.2037    1.0000 </r>
       <r>   -4.1905    1.0000 </r>
       <r>   -4.1778    1.0000 </r>
       <r>   -4.0627    1.0000 </r>
       <r>   -4.0375    1.0000 </r>
       <r>   -3.8762    1.0000 </r>
       <r>   -3.0644    1.0000 </r>
       <r>   -2.5048    1.0000 </r>
       <r>   -2.5004    1.0000 </r>
       <r>   -1.6966    1.0000 </r>
       <r>   -1.2675    0.9995 </r>
       <r>   -1.2225    0.8037 </r>
       <r>   -0.9001   -0.0002 </r>
       <r>    0.2146   -0.0000 </r>
       <r>    0.3414   -0.0000 </r>
       <r>    0.8699   -0.0000 </r>
       <r>    1.2587   -0.0000 </r>
       <r>    2.4616    0.0000 </r>
       <r>    2.5739    0.0000 </r>
       <r>    3.5159    0.0000 </r>
       <r>    3.5347    0.0000 </r>
       <r>    3.7750    0.0000 </r>
       <r>    3.9375    0.0000 </r>
       <r>    4.5667    0.0000 </r>
       <r>    4.6507    0.0000 </r>
       <r>    4.7968    0.0000 </r>
       <r>    5.1564    0.0000 </r>
       <r>    5.4586    0.0000 </r>
       <r>    5.5800    0.0000 </r>
       <r>    5.7660    0.0000 </r>
       <r>    5.9334    0.0000 </r>
       <r>    6.0286    0.0000 </r>
       <r>    6.1024    0.0000 </r>
       <r>    6.4608    0.0000 </r>
       <r>    6.5636    0.0000 </r>
       <r>    6.9561    0.0000 </r>
       <r>    7.0622    0.0000 </r>
       <r>    7.2078    0.0000 </r>
      </set>
      <set comment="kpoint 5">
       <r>  -18.4157    1.0000 </r>
       <r>   -7.1885    1.0000 </r>
       <r>   -7.0233    1.0000 </r>
       <r>   -6.8973    1.0000 </r>
       <r>   -6.7643    1.0000 </r>
       <r>   -6.7272    1.0000 </r>
       <r>   -6.6935    1.0000 </r>
       <r>   -6.6298    1.0000 </r>
       <r>   -6.5909    1.0000 </r>
       <r>   -6.5545    1.0000 </r>
       <r>   -6.5208    1.0000 </r>
       <r>   -6.5012    1.0000 </r>
       <r>   -6.4251    1.0000 </r>
       <r>   -6.3857    1.0000 </r>
       <r>   -6.2795    1.0000 </r>
       <r>   -6.2685    1.0000 </r>
       <r>   -6.2155    1.0000 </r>
       <r>   -6.1379    1.0000 </r>
       <r>   -6.1022    1.0000 </r>
       <r>   -5.9986    1.0000 </r>
       <r>   -5.9590    1.0000 </r>
       <r>   -5.9355    1.0000 </r>
       <r>   -5.8802    1.0000 </r>
       <r>   -5.8451    1.0000 </r>
       <r>   -5.8411    1.0000 </r>
       <r>   -5.7965    1.0000 </r>
       <r>   -5.7317    1.0000 </r>
       <r>   -5.5954    1.0000 </r>
       <r>   -5.5555    1.0000 </r>
       <r>   -5.5253    1.0000 </r>
       <r>   -5.4862    1.0000 </r>
       <r>   -5.4418    1.0000 </r>
       <r>   -5.3993    1.0000 </r>
       <r>   -5.3546    1.0000 </r>
       <r>   -5.2953    1.0000 </r>
       <r>   -5.2933    1.0000 </r>
       <r>   -5.2552    1.0000 </r>
       <r>   -5.1995    1.0000 </r>
       <r>   -5.1723    1.0000 </r>
       <r>   -5.1061    1.0000 </r>
       <r>   -5.0929    1.0000 </r>
       <r>   -5.0719    1.0000 </r>
       <r>   -5.0063    1.0000 </r>
       <r>   -4.9753    1.0000 </r>
       <r>   -4.9263    1.0000 </r>
       <r>   -4.8996    1.0000 </r>
       <r>   -4.8822    1.0000 </r>
       <r>   -4.8392    1.0000 </r>
[...]
       <r>   -6.4981    1.0000 </r>
       <r>   -6.4864    1.0000 </r>
       <r>   -6.4540    1.0000 </r>
       <r>   -6.4325    1.0000 </r>
       <r>   -6.4092    1.0000 </r>
       <r>   -6.4040    1.0000 </r>
       <r>   -6.4002    1.0000 </r>
       <r>   -6.3786    1.0000 </r>
       <r>   -6.3387    1.0000 </r>
       <r>   -6.2164    1.0000 </r>
       <r>   -6.1504    1.0000 </r>
       <r>   -6.1125    1.0000 </r>
       <r>   -6.0728    1.0000 </r>
       <r>   -5.9941    1.0000 </r>
       <r>   -5.9024    1.0000 </r>
       <r>   -5.8996    1.0000 </r>
       <r>   -5.8228    1.0000 </r>
       <r>   -5.8181    1.0000 </r>
       <r>   -5.7352    1.0000 </r>
       <r>   -5.7294    1.0000 </r>
       <r>   -5.7078    1.0000 </r>
       <r>   -5.7073    1.0000 </r>
       <r>   -5.6602    1.0000 </r>
       <r>   -5.6591    1.0000 </r>
       <r>   -5.5714    1.0000 </r>
       <r>   -5.5416    1.0000 </r>
       <r>   -5.5255    1.0000 </r>
       <r>   -5.4243    1.0000 </r>
       <r>   -5.4201    1.0000 </r>
       <r>   -5.4003    1.0000 </r>
       <r>   -5.3838    1.0000 </r>
       <r>   -5.3767    1.0000 </r>
       <r>   -5.3184    1.0000 </r>
       <r>   -5.2549    1.0000 </r>
       <r>   -5.1440    1.0000 </r>
       <r>   -4.9772    1.0000 </r>
       <r>   -4.9413    1.0000 </r>
       <r>   -4.9190    1.0000 </r>
       <r>   -4.8904    1.0000 </r>
       <r>   -4.8837    1.0000 </r>
       <r>   -4.7863    1.0000 </r>
       <r>   -4.7758    1.0000 </r>
       <r>   -4.6871    1.0000 </r>
       <r>   -4.6731    1.0000 </r>
       <r>   -4.5290    1.0000 </r>
       <r>   -4.5101    1.0000 </r>
       <r>   -4.4473    1.0000 </r>
       <r>   -4.4316    1.0000 </r>
       <r>   -4.4173    1.0000 </r>
       <r>   -4.3815    1.0000 </r>
       <r>   -4.3416    1.0000 </r>
       <r>   -4.3111    1.0000 </r>
       <r>   -4.2856    1.0000 </r>
       <r>   -4.2713    1.0000 </r>
       <r>   -4.0761    1.0000 </r>
       <r>   -4.0473    1.0000 </r>
       <r>   -4.0293    1.0000 </r>
       <r>   -3.3362    1.0000 </r>
       <r>   -3.1419    1.0000 </r>
       <r>   -2.9708    1.0000 </r>
       <r>   -2.4511    1.0000 </r>
       <r>   -1.7623    1.0000 </r>
       <r>   -1.2216    0.7980 </r>
       <r>    0.0364   -0.0000 </r>
       <r>    0.0810   -0.0000 </r>
       <r>    0.7897   -0.0000 </r>
       <r>    2.3705    0.0000 </r>
       <r>    2.4282    0.0000 </r>
       <r>    2.4341    0.0000 </r>
       <r>    2.6084    0.0000 </r>
       <r>    2.7772    0.0000 </r>
       <r>    3.2826    0.0000 </r>
       <r>    3.8694    0.0000 </r>
       <r>    4.5024    0.0000 </r>
       <r>    4.6993    0.0000 </r>
       <r>    4.9483    0.0000 </r>
       <r>    4.9671    0.0000 </r>
       <r>    5.1455    0.0000 </r>
       <r>    5.7453    0.0000 </r>
       <r>    5.7596    0.0000 </r>
       <r>    5.8249    0.0000 </r>
       <r>    5.9080    0.0000 </r>
       <r>    5.9134    0.0000 </r>
       <r>    5.9923    0.0000 </r>
       <r>    6.2836    0.0000 </r>
       <r>    6.5849    0.0000 </r>
       <r>    6.9174    0.0000 </r>
       <r>    7.0012    0.0000 </r>
       <r>    7.0283    0.0000 </r>
      </set>
     </set>
    </set>
   </array>
  </eigenvalues>
  <separator name="orbital magnetization" >
   <v name="MAGDIPOLOUT">      0.00000000      0.00000000      0.00000000</v>
  </separator>
  <dos>
   <i name="efermi">     -1.18352847 </i>
   <total>
    <array>
     <dimension dim="1">gridpoints</dimension>
     <dimension dim="2">spin</dimension>
     <field>energy</field>
     <field>total</field>
     <field>integrated</field>
     <set>
      <set comment="spin 1">
       <r>   -19.7144     0.0000     0.0000 </r>
       <r>   -19.6198     0.0000     0.0000 </r>
       <r>   -19.5251     0.0000     0.0000 </r>
       <r>   -19.4305     0.0000     0.0000 </r>
       <r>   -19.3359     0.0000     0.0000 </r>
       <r>   -19.2413    -0.0000    -0.0000 </r>
       <r>   -19.1466    -0.0000    -0.0000 </r>
       <r>   -19.0520    -0.0000    -0.0000 </r>
       <r>   -18.9574    -0.0000    -0.0000 </r>
       <r>   -18.8628    -0.0000    -0.0000 </r>
       <r>   -18.7682    -0.0001    -0.0000 </r>
       <r>   -18.6735    -0.0188    -0.0018 </r>
       <r>   -18.5789    -0.4565    -0.0450 </r>
       <r>   -18.4843     1.5907     0.1055 </r>
       <r>   -18.3897    14.2437     1.4533 </r>
       <r>   -18.2950     6.5247     2.0707 </r>
       <r>   -18.2004    -0.6539     2.0088 </r>
       <r>   -18.1058    -0.0924     2.0001 </r>
       <r>   -18.0112    -0.0010     2.0000 </r>
       <r>   -17.9165    -0.0000     2.0000 </r>
       <r>   -17.8219    -0.0000     2.0000 </r>
       <r>   -17.7273    -0.0000     2.0000 </r>
       <r>   -17.6327     0.0000     2.0000 </r>
       <r>   -17.5380     0.0000     2.0000 </r>
       <r>   -17.4434     0.0000     2.0000 </r>
       <r>   -17.3488     0.0000     2.0000 </r>
       <r>   -17.2542     0.0000     2.0000 </r>
       <r>   -17.1595     0.0000     2.0000 </r>
       <r>   -17.0649     0.0000     2.0000 </r>
       <r>   -16.9703     0.0000     2.0000 </r>
       <r>   -16.8757     0.0000     2.0000 </r>
       <r>   -16.7811     0.0000     2.0000 </r>
       <r>   -16.6864     0.0000     2.0000 </r>
       <r>   -16.5918     0.0000     2.0000 </r>
       <r>   -16.4972     0.0000     2.0000 </r>
       <r>   -16.4026     0.0000     2.0000 </r>
       <r>   -16.3079     0.0000     2.0000 </r>
       <r>   -16.2133     0.0000     2.0000 </r>
       <r>   -16.1187     0.0000     2.0000 </r>
       <r>   -16.0241     0.0000     2.0000 </r>
       <r>   -15.9294     0.0000     2.0000 </r>
       <r>   -15.8348     0.0000     2.0000 </r>
       <r>   -15.7402     0.0000     2.0000 </r>
       <r>   -15.6456     0.0000     2.0000 </r>
       <r>   -15.5509     0.0000     2.0000 </r>
       <r>   -15.4563     0.0000     2.0000 </r>
       <r>   -15.3617     0.0000     2.0000 </r>
       <r>   -15.2671     0.0000     2.0000 </r>
       <r>   -15.1724     0.0000     2.0000 </r>
       <r>   -15.0778     0.0000     2.0000 </r>
       <r>   -14.9832     0.0000     2.0000 </r>
       <r>   -14.8886     0.0000     2.0000 </r>
       <r>   -14.7940     0.0000     2.0000 </r>
       <r>   -14.6993     0.0000     2.0000 </r>
       <r>   -14.6047     0.0000     2.0000 </r>
       <r>   -14.5101     0.0000     2.0000 </r>
       <r>   -14.4155     0.0000     2.0000 </r>
       <r>   -14.3208     0.0000     2.0000 </r>
       <r>   -14.2262     0.0000     2.0000 </r>
       <r>   -14.1316     0.0000     2.0000 </r>
       <r>   -14.0370     0.0000     2.0000 </r>
       <r>   -13.9423     0.0000     2.0000 </r>
       <r>   -13.8477     0.0000     2.0000 </r>
       <r>   -13.7531     0.0000     2.0000 </r>
       <r>   -13.6585     0.0000     2.0000 </r>
       <r>   -13.5638     0.0000     2.0000 </r>
       <r>   -13.4692     0.0000     2.0000 </r>
       <r>   -13.3746     0.0000     2.0000 </r>
       <r>   -13.2800     0.0000     2.0000 </r>
       <r>   -13.1853     0.0000     2.0000 </r>
       <r>   -13.0907     0.0000     2.0000 </r>
       <r>   -12.9961     0.0000     2.0000 </r>
       <r>   -12.9015     0.0000     2.0000 </r>
       <r>   -12.8069     0.0000     2.0000 </r>
       <r>   -12.7122     0.0000     2.0000 </r>
       <r>   -12.6176     0.0000     2.0000 </r>
       <r>   -12.5230     0.0000     2.0000 </r>
       <r>   -12.4284     0.0000     2.0000 </r>
       <r>   -12.3337     0.0000     2.0000 </r>
       <r>   -12.2391     0.0000     2.0000 </r>
       <r>   -12.1445     0.0000     2.0000 </r>
       <r>   -12.0499     0.0000     2.0000 </r>
       <r>   -11.9552     0.0000     2.0000 </r>
       <r>   -11.8606     0.0000     2.0000 </r>
       <r>   -11.7660     0.0000     2.0000 </r>
       <r>   -11.6714     0.0000     2.0000 </r>
       <r>   -11.5767     0.0000     2.0000 </r>
       <r>   -11.4821     0.0000     2.0000 </r>
       <r>   -11.3875     0.0000     2.0000 </r>
       <r>   -11.2929     0.0000     2.0000 </r>
       <r>   -11.1982     0.0000     2.0000 </r>
       <r>   -11.1036     0.0000     2.0000 </r>
       <r>   -11.0090     0.0000     2.0000 </r>
       <r>   -10.9144     0.0000     2.0000 </r>
       <r>   -10.8198     0.0000     2.0000 </r>
       <r>   -10.7251     0.0000     2.0000 </r>
       <r>   -10.6305     0.0000     2.0000 </r>
       <r>   -10.5359     0.0000     2.0000 </r>
       <r>   -10.4413     0.0000     2.0000 </r>
       <r>   -10.3466     0.0000     2.0000 </r>
       <r>   -10.2520     0.0000     2.0000 </r>
       <r>   -10.1574     0.0000     2.0000 </r>
       <r>   -10.0628     0.0000     2.0000 </r>
       <r>    -9.9681     0.0000     2.0000 </r>
       <r>    -9.8735     0.0000     2.0000 </r>
       <r>    -9.7789     0.0000     2.0000 </r>
       <r>    -9.6843     0.0000     2.0000 </r>
       <r>    -9.5896     0.0000     2.0000 </r>
       <r>    -9.4950     0.0000     2.0000 </r>
       <r>    -9.4004     0.0000     2.0000 </r>
       <r>    -9.3058     0.0000     2.0000 </r>
       <r>    -9.2111     0.0000     2.0000 </r>
       <r>    -9.1165     0.0000     2.0000 </r>
       <r>    -9.0219     0.0000     2.0000 </r>
       <r>    -8.9273    -0.0000     2.0000 </r>
       <r>    -8.8327    -0.0000     2.0000 </r>
       <r>    -8.7380    -0.0000     2.0000 </r>
       <r>    -8.6434    -0.0000     2.0000 </r>
       <r>    -8.5488    -0.0000     2.0000 </r>
       <r>    -8.4542    -0.0000     2.0000 </r>
       <r>    -8.3595    -0.0001     2.0000 </r>
       <r>    -8.2649    -0.0047     1.9995 </r>
       <r>    -8.1703    -0.0294     1.9968 </r>
       <r>    -8.0757     0.2377     2.0193 </r>
       <r>    -7.9810     1.0928     2.1227 </r>
       <r>    -7.8864     0.9318     2.2108 </r>
       <r>    -7.7918     1.7229     2.3739 </r>
       <r>    -7.6972     0.9376     2.4626 </r>
       <r>    -7.6025     1.0169     2.5588 </r>
       <r>    -7.5079     2.3330     2.7796 </r>
       <r>    -7.4133     1.1262     2.8861 </r>
       <r>    -7.3187     0.8081     2.9626 </r>
       <r>    -7.2240     4.2144     3.3614 </r>
       <r>    -7.1294     9.7587     4.2848 </r>
       <r>    -7.0348    20.0531     6.1823 </r>
       <r>    -6.9402    27.0528     8.7421 </r>
       <r>    -6.8456    31.4628    11.7192 </r>
       <r>    -6.7509    38.6322    15.3748 </r>
       <r>    -6.6563    43.9313    19.5317 </r>
       <r>    -6.5617    41.0450    23.4156 </r>
       <r>    -6.4671    31.2051    26.3683 </r>
       <r>    -6.3724    26.0288    28.8312 </r>
       <r>    -6.2778    28.0362    31.4841 </r>
       <r>    -6.1832    27.4149    34.0782 </r>
       <r>    -6.0886    29.1270    36.8343 </r>
       <r>    -5.9939    35.4620    40.1899 </r>
       <r>    -5.8993    45.3844    44.4843 </r>
       <r>    -5.8047    50.3090    49.2448 </r>
       <r>    -5.7101    43.5129    53.3621 </r>
       <r>    -5.6154    36.1474    56.7825 </r>
       <r>    -5.5208    50.4223    61.5537 </r>
       <r>    -5.4262    43.5392    65.6735 </r>
       <r>    -5.3316    36.8255    69.1581 </r>
       <r>    -5.2369    32.1896    72.2040 </r>
       <r>    -5.1423    31.5096    75.1855 </r>
       <r>    -5.0477    39.3437    78.9084 </r>
       <r>    -4.9531    42.5497    82.9346 </r>
       <r>    -4.8585    52.7378    87.9249 </r>
       <r>    -4.7638    53.8743    93.0227 </r>
       <r>    -4.6692    44.8832    97.2697 </r>
       <r>    -4.5746    38.8023   100.9413 </r>
       <r>    -4.4800    39.9543   104.7219 </r>
       <r>    -4.3853    42.2198   108.7169 </r>
       <r>    -4.2907    47.0466   113.1687 </r>
       <r>    -4.1961    60.1033   118.8559 </r>
       <r>    -4.1015    41.6643   122.7983 </r>
       <r>    -4.0068    23.5049   125.0224 </r>
       <r>    -3.9122     8.6756   125.8433 </r>
       <r>    -3.8176     2.6278   126.0920 </r>
       <r>    -3.7230     3.7382   126.4457 </r>
       <r>    -3.6283     3.7964   126.8050 </r>
       <r>    -3.5337     2.7735   127.0674 </r>
       <r>    -3.4391     4.0812   127.4536 </r>
       <r>    -3.3445     6.0937   128.0302 </r>
       <r>    -3.2498     3.2521   128.3379 </r>
       <r>    -3.1552     3.7544   128.6932 </r>
       <r>    -3.0606     4.9022   129.1570 </r>
       <r>    -2.9660     1.5593   129.3046 </r>
       <r>    -2.8714     2.7539   129.5652 </r>
       <r>    -2.7767     7.9766   130.3199 </r>
       <r>    -2.6821    10.0098   131.2671 </r>
       <r>    -2.5875     6.3964   131.8723 </r>
       <r>    -2.4929     9.9062   132.8097 </r>
       <r>    -2.3982    10.1380   133.7690 </r>
       <r>    -2.3036     3.7704   134.1258 </r>
       <r>    -2.2090     0.9276   134.2136 </r>
       <r>    -2.1144     3.7875   134.5719 </r>
       <r>    -2.0197     5.3410   135.0773 </r>
       <r>    -1.9251     2.2283   135.2882 </r>
       <r>    -1.8305     1.5079   135.4309 </r>
       <r>    -1.7359     2.7982   135.6956 </r>
       <r>    -1.6412     6.8594   136.3447 </r>
       <r>    -1.5466     5.1863   136.8355 </r>
       <r>    -1.4520     3.9601   137.2102 </r>
       <r>    -1.3574     1.4846   137.3507 </r>
       <r>    -1.2627     1.9722   137.5373 </r>
       <r>    -1.1681     6.0626   138.1109 </r>
       <r>    -1.0735     7.4465   138.8156 </r>
       <r>    -0.9789     3.3544   139.1330 </r>
       <r>    -0.8843     4.5701   139.5654 </r>
       <r>    -0.7896     3.3800   139.8852 </r>
       <r>    -0.6950     2.7946   140.1497 </r>
       <r>    -0.6004     3.5049   140.4813 </r>
       <r>    -0.5058     1.0823   140.5837 </r>
       <r>    -0.4111     2.1989   140.7918 </r>
       <r>    -0.3165     6.6708   141.4230 </r>
       <r>    -0.2219     5.8579   141.9773 </r>
       <r>    -0.1273     3.3941   142.2985 </r>
       <r>    -0.0326     5.9368   142.8602 </r>
       <r>     0.0620     3.4617   143.1878 </r>
       <r>     0.1566     2.0952   143.3860 </r>
       <r>     0.2512     8.0277   144.1457 </r>
       <r>     0.3459     5.1053   144.6287 </r>
       <r>     0.4405     2.4566   144.8612 </r>
       <r>     0.5351     3.1549   145.1597 </r>
       <r>     0.6297     2.5601   145.4020 </r>
       <r>     0.7244     5.0560   145.8804 </r>
       <r>     0.8190     2.6917   146.1351 </r>
       <r>     0.9136     4.0715   146.5203 </r>
       <r>     1.0082     4.5676   146.9525 </r>
       <r>     1.1029     3.3075   147.2655 </r>
       <r>     1.1975     2.8030   147.5307 </r>
       <r>     1.2921    10.0075   148.4777 </r>
       <r>     1.3867     5.9557   149.0412 </r>
       <r>     1.4813     1.0201   149.1378 </r>
       <r>     1.5760     2.3289   149.3582 </r>
       <r>     1.6706     2.8881   149.6314 </r>
       <r>     1.7652     6.1996   150.2181 </r>
       <r>     1.8598     4.9519   150.6866 </r>
       <r>     1.9545     0.7887   150.7613 </r>
       <r>     2.0491     3.9688   151.1368 </r>
       <r>     2.1437     2.2982   151.3543 </r>
       <r>     2.2383     2.2771   151.5697 </r>
       <r>     2.3330     3.6916   151.9190 </r>
       <r>     2.4276     3.8572   152.2840 </r>
       <r>     2.5222     3.5430   152.6193 </r>
       <r>     2.6168     5.1629   153.1078 </r>
       <r>     2.7115     5.8241   153.6589 </r>
       <r>     2.8061     3.9058   154.0285 </r>
       <r>     2.9007     0.9333   154.1168 </r>
       <r>     2.9953     2.0523   154.3110 </r>
       <r>     3.0900     1.9859   154.4989 </r>
       <r>     3.1846     2.1240   154.6999 </r>
       <r>     3.2792     8.3500   155.4900 </r>
       <r>     3.3738     7.0641   156.1584 </r>
       <r>     3.4684     6.0983   156.7355 </r>
       <r>     3.5631     4.8468   157.1941 </r>
       <r>     3.6577     4.8130   157.6495 </r>
       <r>     3.7523     7.1270   158.3239 </r>
       <r>     3.8469     4.2728   158.7282 </r>
       <r>     3.9416     8.2173   159.5058 </r>
       <r>     4.0362    10.8972   160.5369 </r>
       <r>     4.1308     7.0414   161.2032 </r>
       <r>     4.2254     7.1526   161.8800 </r>
       <r>     4.3201     5.5623   162.4063 </r>
       <r>     4.4147     8.0686   163.1698 </r>
       <r>     4.5093    11.8355   164.2897 </r>
       <r>     4.6039    11.4611   165.3742 </r>
       <r>     4.6986     3.5584   165.7109 </r>
       <r>     4.7932     5.7187   166.2521 </r>
       <r>     4.8878    11.2632   167.3178 </r>
       <r>     4.9824     8.5833   168.1300 </r>
       <r>     5.0771     9.0783   168.9890 </r>
       <r>     5.1717     7.0856   169.6595 </r>
       <r>     5.2663     8.2568   170.4408 </r>
       <r>     5.3609     9.7103   171.3596 </r>
       <r>     5.4555     9.4538   172.2542 </r>
       <r>     5.5502    12.0371   173.3932 </r>
       <r>     5.6448    12.8408   174.6082 </r>
       <r>     5.7394    12.5472   175.7955 </r>
       <r>     5.8340    10.4483   176.7842 </r>
       <r>     5.9287    10.6279   177.7898 </r>
       <r>     6.0233    12.9533   179.0155 </r>
       <r>     6.1179    14.4950   180.3871 </r>
       <r>     6.2125     9.8331   181.3175 </r>
       <r>     6.3072     5.9824   181.8836 </r>
       <r>     6.4018     4.1008   182.2716 </r>
       <r>     6.4964     7.7580   183.0057 </r>
       <r>     6.5910    14.2897   184.3579 </r>
       <r>     6.6857    13.4971   185.6350 </r>
       <r>     6.7803    11.2965   186.7039 </r>
       <r>     6.8749    15.3404   188.1555 </r>
       <r>     6.9695    12.2103   189.3109 </r>
       <r>     7.0642     7.9651   190.0646 </r>
       <r>     7.1588     4.8617   190.5246 </r>
       <r>     7.2534     5.4256   191.0380 </r>
       <r>     7.3480     6.9924   191.6996 </r>
       <r>     7.4426     3.2214   192.0045 </r>
       <r>     7.5373     0.0410   192.0084 </r>
       <r>     7.6319    -0.0851   192.0003 </r>
       <r>     7.7265    -0.0031   192.0000 </r>
       <r>     7.8211    -0.0000   192.0000 </r>
       <r>     7.9158    -0.0000   192.0000 </r>
       <r>     8.0104    -0.0000   192.0000 </r>
       <r>     8.1050     0.0000   192.0000 </r>
       <r>     8.1996     0.0000   192.0000 </r>
       <r>     8.2943     0.0000   192.0000 </r>
       <r>     8.3889     0.0000   192.0000 </r>
       <r>     8.4835     0.0000   192.0000 </r>
       <r>     8.5781     0.0000   192.0000 </r>
       <r>     8.6728     0.0000   192.0000 </r>
      </set>
     </set>
    </array>
   </total>
  </dos>
 </calculation>
 <structure name="finalpos" >
  <crystal>
   <varray name="basis" >
    <v>       5.86474364       0.00000000       0.00000000 </v>
    <v>       2.93237182       5.07901698       0.00000000 </v>
    <v>       0.00000000       0.00000000      24.78854313 </v>
   </varray>
   <i name="volume">    738.37962018 </i>
   <varray name="rec_basis" >
    <v>       0.17051044      -0.09844425       0.00000000 </v>
    <v>       0.00000000       0.19688849       0.00000000 </v>
    <v>       0.00000000       0.00000000       0.04034122 </v>
   </varray>
  </crystal>
  <varray name="positions" >
   <v>       0.16666667       0.16666667       0.40527889 </v>
   <v>       0.66685597       0.16628805       0.40368021 </v>
   <v>       0.16628805       0.66685597       0.40368021 </v>
   <v>       0.66685597       0.66685597       0.40368021 </v>
   <v>       0.83367022       0.33316489       0.49959255 </v>
   <v>       0.33316489       0.33316489       0.49959255 </v>
   <v>       0.83333333       0.83333333       0.50144943 </v>
   <v>       0.33316489       0.83367022       0.49959255 </v>
   <v>      -0.00754147      -0.00754147       0.59703445 </v>
   <v>       0.51508295      -0.00754147       0.59703445 </v>
   <v>      -0.00754147       0.51508295       0.59703445 </v>
   <v>       0.50000000       0.50000000       0.59275101 </v>
   <v>       0.16666667       0.16666667       0.64459630 </v>
  </varray>
 </structure>
</modeling>
