unknown system                          
           1
     5.864744    0.000000    0.000000
     2.932372    5.079017    0.000000
     0.000000    0.000000   24.788543
   Ag   O 
  12   1
Direct configuration=     1
   0.16666667  0.16666667  0.40341217
   0.66666667  0.16666667  0.40341217
   0.16666667  0.66666667  0.40341217
   0.66666667  0.66666667  0.40341217
   0.83333333  0.33333333  0.50000000
   0.33333333  0.33333333  0.50000000
   0.83333333  0.83333333  0.50000000
   0.33333333  0.83333333  0.50000000
   0.00000000  0.00000000  0.59658783
   0.50000000  0.00000000  0.59658783
   0.00000000  0.50000000  0.59658783
   0.50000000  0.50000000  0.59658783
   0.16666667  0.16666667  0.64499729
Direct configuration=     2
   0.16666667  0.16666667  0.40371296
   0.66656487  0.16687026  0.40343920
   0.16687026  0.66656487  0.40343920
   0.66656487  0.66656487  0.40343920
   0.83284831  0.33357584  0.49985667
   0.33357584  0.33357584  0.49985667
   0.83333333  0.83333333  0.50061005
   0.33357584  0.83284831  0.49985667
  -0.00523514 -0.00523514  0.59600345
   0.51047028 -0.00523514  0.59600345
  -0.00523514  0.51047028  0.59600345
   0.50000000  0.50000000  0.59602044
   0.16666667  0.16666667  0.64675587
Direct configuration=     3
   0.16666667  0.16666667  0.40370663
   0.66656701  0.16686597  0.40343863
   0.16686597  0.66656701  0.40343863
   0.66656701  0.66656701  0.40343863
   0.83285852  0.33357074  0.49985969
   0.33357074  0.33357074  0.49985969
   0.83333333  0.83333333  0.50059721
   0.33357074  0.83285852  0.49985969
  -0.00512497 -0.00512497  0.59601574
   0.51024994 -0.00512497  0.59601574
  -0.00512497  0.51024994  0.59601574
   0.50000000  0.50000000  0.59603238
   0.16666667  0.16666667  0.64671886
Direct configuration=     4
   0.16666667  0.16666667  0.40398379
   0.66655117  0.16689765  0.40347047
   0.16689765  0.66655117  0.40347047
   0.66655117  0.66655117  0.40347047
   0.83269064  0.33365468  0.49976591
   0.33365468  0.33365468  0.49976591
   0.83333333  0.83333333  0.50079494
   0.33365468  0.83269064  0.49976591
  -0.00575262 -0.00575262  0.59624166
   0.51150524 -0.00575262  0.59624166
  -0.00575262  0.51150524  0.59624166
   0.50000000  0.50000000  0.59555495
   0.16666667  0.16666667  0.64622949
Direct configuration=     5
   0.16666667  0.16666667  0.40481528
   0.66650365  0.16699269  0.40356596
   0.16699269  0.66650365  0.40356596
   0.66650365  0.66650365  0.40356596
   0.83218701  0.33390649  0.49948458
   0.33390649  0.33390649  0.49948458
   0.83333333  0.83333333  0.50138811
   0.33390649  0.83218701  0.49948458
  -0.00763556 -0.00763556  0.59691941
   0.51527113 -0.00763556  0.59691941
  -0.00763556  0.51527113  0.59691941
   0.50000000  0.50000000  0.59412266
   0.16666667  0.16666667  0.64476140
Direct configuration=     6
   0.16666667  0.16666667  0.40496277
   0.66666113  0.16667774  0.40359330
   0.16667774  0.66666113  0.40359330
   0.66666113  0.66666113  0.40359330
   0.83276946  0.33361527  0.49953677
   0.33361527  0.33361527  0.49953677
   0.83333333  0.83333333  0.50135715
   0.33361527  0.83276946  0.49953677
  -0.00719901 -0.00719901  0.59700589
   0.51439801 -0.00719901  0.59700589
  -0.00719901  0.51439801  0.59700589
   0.50000000  0.50000000  0.59370039
   0.16666667  0.16666667  0.64456912
Direct configuration=     7
   0.16666667  0.16666667  0.40498240
   0.66668210  0.16663581  0.40359694
   0.16663581  0.66668210  0.40359694
   0.66668210  0.66668210  0.40359694
   0.83284700  0.33357650  0.49954371
   0.33357650  0.33357650  0.49954371
   0.83333333  0.83333333  0.50135303
   0.33357650  0.83284700  0.49954371
  -0.00714088 -0.00714088  0.59701740
   0.51428177 -0.00714088  0.59701740
  -0.00714088  0.51428177  0.59701740
   0.50000000  0.50000000  0.59364417
   0.16666667  0.16666667  0.64454352
Direct configuration=     8
   0.16666667  0.16666667  0.40515896
   0.66678564  0.16642871  0.40364653
   0.16642871  0.66678564  0.40364653
   0.66678564  0.66678564  0.40364653
   0.83333725  0.33333138  0.49957280
   0.33333138  0.33333138  0.49957280
   0.83333333  0.83333333  0.50141044
   0.33333138  0.83333725  0.49957280
  -0.00737944 -0.00737944  0.59702756
   0.51475888 -0.00737944  0.59702756
  -0.00737944  0.51475888  0.59702756
   0.50000000  0.50000000  0.59311228
   0.16666667  0.16666667  0.64457495
Direct configuration=     9
   0.16666667  0.16666667  0.40527889
   0.66685597  0.16628805  0.40368021
   0.16628805  0.66685597  0.40368021
   0.66685597  0.66685597  0.40368021
   0.83367022  0.33316489  0.49959255
   0.33316489  0.33316489  0.49959255
   0.83333333  0.83333333  0.50144943
   0.33316489  0.83367022  0.49959255
  -0.00754147 -0.00754147  0.59703445
   0.51508295 -0.00754147  0.59703445
  -0.00754147  0.51508295  0.59703445
   0.50000000  0.50000000  0.59275101
   0.16666667  0.16666667  0.64459630
