   4   4   0   0
  0.1958695E+02  0.4279000E-09  0.4279000E-09  0.4279000E-09  0.5000000E-15
  1.000000000000000E-004
  CAR 
 unknown system                          
     13.09191316     -0.36313535  301      5.70403398      1.00000000
     -0.363  0.0000E+00  0.0000E+00
     -0.318  0.0000E+00  0.0000E+00
     -0.273  0.0000E+00  0.0000E+00
     -0.229  0.0000E+00  0.0000E+00
     -0.184 -0.9182E-29 -0.4118E-30
     -0.139 -0.1116E-25 -0.5008E-27
     -0.094 -0.9041E-23 -0.4060E-24
     -0.049 -0.4880E-20 -0.2193E-21
     -0.004 -0.1753E-17 -0.7886E-19
      0.041 -0.4191E-15 -0.1887E-16
      0.085 -0.6439E-13 -0.2907E-14
      0.130 -0.6747E-11 -0.3055E-12
      0.175 -0.4673E-09 -0.2126E-10
      0.220 -0.2133E-07 -0.9779E-09
      0.265 -0.6383E-06 -0.2960E-07
      0.310 -0.1242E-04 -0.5868E-06
      0.354 -0.1552E-03 -0.7548E-05
      0.399 -0.1214E-02 -0.6198E-04
      0.444 -0.5620E-02 -0.3140E-03
      0.489 -0.1293E-01 -0.8938E-03
      0.534  0.4428E-03 -0.8739E-03
      0.579  0.8112E-01  0.2764E-02
      0.624  0.2089E+00  0.1214E-01
      0.668  0.2524E+00  0.2346E-01
      0.713  0.1498E+00  0.3017E-01
      0.758  0.9389E-02  0.3059E-01
      0.803 -0.4523E-01  0.2857E-01
      0.848  0.8610E-01  0.3243E-01
      0.893  0.4424E+00  0.5227E-01
      0.938  0.7511E+00  0.8596E-01
      0.982  0.6435E+00  0.1148E+00
      1.027  0.2436E+00  0.1257E+00
      1.072 -0.2676E-01  0.1245E+00
      1.117  0.3283E-01  0.1260E+00
      1.162  0.3858E+00  0.1433E+00
      1.207  0.7302E+00  0.1761E+00
      1.251  0.6677E+00  0.2060E+00
      1.296  0.2701E+00  0.2181E+00
      1.341 -0.1086E-01  0.2176E+00
      1.386  0.1083E+00  0.2225E+00
      1.431  0.5797E+00  0.2485E+00
      1.476  0.9695E+00  0.2920E+00
      1.521  0.8080E+00  0.3282E+00
      1.565  0.2798E+00  0.3408E+00
      1.610  0.4583E-01  0.3428E+00
      1.655  0.4944E+00  0.3650E+00
      1.700  0.1262E+01  0.4216E+00
      1.745  0.1457E+01  0.4869E+00
      1.790  0.9313E+00  0.5287E+00
      1.835  0.5507E+00  0.5534E+00
      1.879  0.6434E+00  0.5823E+00
      1.924  0.6280E+00  0.6104E+00
      1.969  0.2548E+00  0.6218E+00
      2.014 -0.7138E-01  0.6186E+00
      2.059  0.1373E+00  0.6248E+00
      2.104  0.1065E+01  0.6726E+00
      2.148  0.2041E+01  0.7641E+00
      2.193  0.1994E+01  0.8536E+00
      2.238  0.1349E+01  0.9141E+00
      2.283  0.1850E+01  0.9970E+00
      2.328  0.3743E+01  0.1165E+01
      2.373  0.5096E+01  0.1393E+01
      2.418  0.5195E+01  0.1626E+01
      2.462  0.5635E+01  0.1879E+01
      2.507  0.6732E+01  0.2181E+01
      2.552  0.7494E+01  0.2517E+01
      2.597  0.8227E+01  0.2886E+01
      2.642  0.9432E+01  0.3309E+01
      2.687  0.1120E+02  0.3811E+01
      2.732  0.1353E+02  0.4418E+01
      2.776  0.1487E+02  0.5085E+01
      2.821  0.1359E+02  0.5694E+01
      2.866  0.1121E+02  0.6197E+01
      2.911  0.1052E+02  0.6669E+01
      2.956  0.1142E+02  0.7181E+01
      3.001  0.1151E+02  0.7697E+01
      3.045  0.1051E+02  0.8168E+01
      3.090  0.1034E+02  0.8632E+01
      3.135  0.1101E+02  0.9126E+01
      3.180  0.1030E+02  0.9588E+01
      3.225  0.7843E+01  0.9939E+01
      3.270  0.5942E+01  0.1021E+02
      3.315  0.6548E+01  0.1050E+02
      3.359  0.9264E+01  0.1092E+02
      3.404  0.1149E+02  0.1143E+02
      3.449  0.1146E+02  0.1194E+02
      3.494  0.1020E+02  0.1240E+02
      3.539  0.9443E+01  0.1283E+02
      3.584  0.9925E+01  0.1327E+02
      3.629  0.1051E+02  0.1374E+02
      3.673  0.9735E+01  0.1418E+02
      3.718  0.9266E+01  0.1459E+02
      3.763  0.1070E+02  0.1507E+02
      3.808  0.1188E+02  0.1561E+02
      3.853  0.1182E+02  0.1614E+02
      3.898  0.1256E+02  0.1670E+02
      3.942  0.1422E+02  0.1734E+02
      3.987  0.1488E+02  0.1801E+02
      4.032  0.1487E+02  0.1867E+02
      4.077  0.1583E+02  0.1938E+02
      4.122  0.1718E+02  0.2015E+02
      4.167  0.1780E+02  0.2095E+02
      4.212  0.1780E+02  0.2175E+02
      4.256  0.1647E+02  0.2249E+02
      4.301  0.1328E+02  0.2308E+02
      4.346  0.1029E+02  0.2355E+02
      4.391  0.9455E+01  0.2397E+02
      4.436  0.1029E+02  0.2443E+02
      4.481  0.1190E+02  0.2496E+02
      4.526  0.1301E+02  0.2555E+02
      4.570  0.1181E+02  0.2608E+02
      4.615  0.9129E+01  0.2649E+02
      4.660  0.7784E+01  0.2684E+02
      4.705  0.8667E+01  0.2722E+02
      4.750  0.1063E+02  0.2770E+02
      4.795  0.1235E+02  0.2826E+02
      4.839  0.1378E+02  0.2887E+02
      4.884  0.1571E+02  0.2958E+02
      4.929  0.1627E+02  0.3031E+02
      4.974  0.1297E+02  0.3089E+02
      5.019  0.8762E+01  0.3128E+02
      5.064  0.8232E+01  0.3165E+02
      5.109  0.1134E+02  0.3216E+02
      5.153  0.1437E+02  0.3281E+02
      5.198  0.1367E+02  0.3342E+02
      5.243  0.9675E+01  0.3385E+02
      5.288  0.6983E+01  0.3417E+02
      5.333  0.8510E+01  0.3455E+02
      5.378  0.1224E+02  0.3510E+02
      5.423  0.1433E+02  0.3574E+02
      5.467  0.1362E+02  0.3635E+02
      5.512  0.1201E+02  0.3689E+02
      5.557  0.1208E+02  0.3743E+02
      5.602  0.1515E+02  0.3811E+02
      5.647  0.1895E+02  0.3896E+02
      5.692  0.1876E+02  0.3980E+02
      5.736  0.1399E+02  0.4043E+02
      5.781  0.9490E+01  0.4085E+02
      5.826  0.7748E+01  0.4120E+02
      5.871  0.6330E+01  0.4149E+02
      5.916  0.4324E+01  0.4168E+02
      5.961  0.3130E+01  0.4182E+02
      6.006  0.2315E+01  0.4192E+02
      6.050  0.1104E+01  0.4197E+02
      6.095  0.3329E+00  0.4199E+02
      6.140  0.4305E+00  0.4201E+02
      6.185  0.6340E+00  0.4204E+02
      6.230  0.4809E+00  0.4206E+02
      6.275  0.3840E+00  0.4207E+02
      6.320  0.6201E+00  0.4210E+02
      6.364  0.8788E+00  0.4214E+02
      6.409  0.9342E+00  0.4218E+02
      6.454  0.8492E+00  0.4222E+02
      6.499  0.7555E+00  0.4226E+02
      6.544  0.8186E+00  0.4229E+02
      6.589  0.1063E+01  0.4234E+02
      6.633  0.1531E+01  0.4241E+02
      6.678  0.2335E+01  0.4251E+02
      6.723  0.3028E+01  0.4265E+02
      6.768  0.2732E+01  0.4277E+02
      6.813  0.1448E+01  0.4284E+02
      6.858  0.2257E+00  0.4285E+02
      6.903 -0.9054E-01  0.4284E+02
      6.947  0.6514E+00  0.4287E+02
      6.992  0.1866E+01  0.4296E+02
      7.037  0.2267E+01  0.4306E+02
      7.082  0.1399E+01  0.4312E+02
      7.127  0.3308E+00  0.4313E+02
      7.172 -0.1005E+00  0.4313E+02
      7.217 -0.1083E+00  0.4313E+02
      7.261 -0.6860E-01  0.4312E+02
      7.306 -0.1292E-01  0.4312E+02
      7.351  0.1860E+00  0.4313E+02
      7.396  0.4408E+00  0.4315E+02
      7.441  0.5725E+00  0.4318E+02
      7.486  0.1186E+01  0.4323E+02
      7.530  0.3072E+01  0.4337E+02
      7.575  0.4913E+01  0.4359E+02
      7.620  0.4408E+01  0.4378E+02
      7.665  0.2108E+01  0.4388E+02
      7.710  0.5311E+00  0.4390E+02
      7.755  0.4543E+00  0.4392E+02
      7.800  0.1010E+01  0.4397E+02
      7.844  0.1530E+01  0.4404E+02
      7.889  0.1560E+01  0.4411E+02
      7.934  0.9036E+00  0.4415E+02
      7.979  0.1977E+00  0.4416E+02
      8.024  0.2363E+00  0.4417E+02
      8.069  0.9794E+00  0.4421E+02
      8.114  0.1517E+01  0.4428E+02
      8.158  0.1161E+01  0.4433E+02
      8.203  0.3745E+00  0.4435E+02
      8.248 -0.1001E+00  0.4434E+02
      8.293 -0.1333E+00  0.4434E+02
      8.338  0.2668E+00  0.4435E+02
      8.383  0.1132E+01  0.4440E+02
      8.427  0.1989E+01  0.4449E+02
      8.472  0.2203E+01  0.4459E+02
      8.517  0.1999E+01  0.4468E+02
      8.562  0.1943E+01  0.4477E+02
      8.607  0.1773E+01  0.4484E+02
      8.652  0.1065E+01  0.4489E+02
      8.697  0.3263E+00  0.4491E+02
      8.741  0.3435E+00  0.4492E+02
      8.786  0.9729E+00  0.4497E+02
      8.831  0.1375E+01  0.4503E+02
      8.876  0.1647E+01  0.4510E+02
      8.921  0.2668E+01  0.4522E+02
      8.966  0.3657E+01  0.4539E+02
      9.011  0.3063E+01  0.4552E+02
      9.055  0.1592E+01  0.4559E+02
      9.100  0.7602E+00  0.4563E+02
      9.145  0.4700E+00  0.4565E+02
      9.190  0.1588E+00  0.4566E+02
      9.235 -0.7857E-01  0.4565E+02
      9.280  0.6175E-01  0.4566E+02
      9.324  0.7114E+00  0.4569E+02
      9.369  0.1430E+01  0.4575E+02
      9.414  0.1412E+01  0.4582E+02
      9.459  0.6921E+00  0.4585E+02
      9.504  0.7710E-01  0.4585E+02
      9.549 -0.1186E+00  0.4584E+02
      9.594 -0.1359E+00  0.4584E+02
      9.638 -0.3722E-01  0.4584E+02
      9.683  0.4010E+00  0.4585E+02
      9.728  0.1176E+01  0.4591E+02
      9.773  0.2091E+01  0.4600E+02
      9.818  0.3290E+01  0.4615E+02
      9.863  0.4325E+01  0.4634E+02
      9.908  0.3822E+01  0.4651E+02
      9.952  0.1880E+01  0.4660E+02
      9.997  0.2737E+00  0.4661E+02
     10.042 -0.2154E+00  0.4660E+02
     10.087 -0.1676E+00  0.4659E+02
     10.132 -0.5974E-01  0.4659E+02
     10.177  0.1449E+00  0.4660E+02
     10.222  0.4798E+00  0.4662E+02
     10.266  0.7075E+00  0.4665E+02
     10.311  0.8616E+00  0.4669E+02
     10.356  0.1344E+01  0.4675E+02
     10.401  0.1896E+01  0.4683E+02
     10.446  0.1741E+01  0.4691E+02
     10.491  0.9731E+00  0.4696E+02
     10.535  0.5698E+00  0.4698E+02
     10.580  0.9965E+00  0.4703E+02
     10.625  0.1472E+01  0.4709E+02
     10.670  0.1145E+01  0.4714E+02
     10.715  0.3712E+00  0.4716E+02
     10.760 -0.9961E-01  0.4716E+02
     10.805 -0.7293E-01  0.4715E+02
     10.849  0.4533E+00  0.4717E+02
     10.894  0.1240E+01  0.4723E+02
     10.939  0.1502E+01  0.4730E+02
     10.984  0.9145E+00  0.4734E+02
     11.029  0.2646E+00  0.4735E+02
     11.074  0.2582E+00  0.4736E+02
     11.119  0.6271E+00  0.4739E+02
     11.163  0.7049E+00  0.4742E+02
     11.208  0.3541E+00  0.4744E+02
     11.253 -0.3910E-01  0.4743E+02
     11.298 -0.1448E+00  0.4743E+02
     11.343  0.3434E+00  0.4744E+02
     11.388  0.1586E+01  0.4751E+02
     11.432  0.2760E+01  0.4764E+02
     11.477  0.2607E+01  0.4775E+02
     11.522  0.1314E+01  0.4781E+02
     11.567  0.2145E+00  0.4782E+02
     11.612 -0.1270E+00  0.4782E+02
     11.657 -0.8848E-01  0.4781E+02
     11.702 -0.2550E-01  0.4781E+02
     11.746 -0.4258E-02  0.4781E+02
     11.791 -0.7899E-03  0.4781E+02
     11.836 -0.3373E-02  0.4781E+02
     11.881 -0.1937E-01  0.4781E+02
     11.926 -0.6167E-01  0.4781E+02
     11.971 -0.6338E-01  0.4781E+02
     12.016  0.2306E+00  0.4782E+02
     12.060  0.9507E+00  0.4786E+02
     12.105  0.1523E+01  0.4793E+02
     12.150  0.1255E+01  0.4798E+02
     12.195  0.4868E+00  0.4801E+02
     12.240  0.2659E-02  0.4801E+02
     12.285 -0.7755E-01  0.4800E+02
     12.329 -0.3372E-01  0.4800E+02
     12.374 -0.7282E-02  0.4800E+02
     12.419 -0.9312E-03  0.4800E+02
     12.464 -0.7454E-04  0.4800E+02
     12.509 -0.3830E-05  0.4800E+02
     12.554 -0.1280E-06  0.4800E+02
     12.599 -0.2804E-08  0.4800E+02
     12.643 -0.4048E-10  0.4800E+02
     12.688 -0.3862E-12  0.4800E+02
     12.733 -0.2785E-14  0.4800E+02
     12.778  0.0000E+00  0.4800E+02
     12.823  0.0000E+00  0.4800E+02
     12.868  0.0000E+00  0.4800E+02
     12.913  0.0000E+00  0.4800E+02
     12.957  0.0000E+00  0.4800E+02
     13.002  0.0000E+00  0.4800E+02
     13.047  0.0000E+00  0.4800E+02
     13.092  0.0000E+00  0.4800E+02
