    4    4    1    1
  0.1958695E+02  0.4279000E-09  0.4279000E-09  0.4279000E-09  0.5000000E-15
  1.000000000000000E-004
  CAR 
 unknown system                          
     40     20     24
 
  0.6250000E-01  0.6250000E-01  0.6250000E-01  0.1562500E-01
    1        0.636865   1.000000
    2        2.354823   1.000000
    3        2.354823   1.000000
    4        2.354823   1.000000
    5        2.525969   1.000000
    6        2.525969   1.000000
    7        2.525969   1.000000
    8        3.891174   1.000000
    9        3.952279   1.000000
   10        3.952279   1.000000
   11        4.918246   1.000000
   12        4.918246   1.000000
   13        5.602512   1.026636
   14        5.602512   1.026636
   15        5.602512   1.026636
   16        5.685301   0.655486
   17        5.685301   0.655486
   18        5.685301   0.655486
   19        5.832648  -0.034924
   20        5.832648  -0.034924
   21        5.832648  -0.034924
   22        9.092680   0.000000
   23        9.092680   0.000000
   24        9.092680   0.000000
 
  0.1875000E+00  0.6250000E-01  0.6250000E-01  0.4687500E-01
    1        0.927521   1.000000
    2        2.457592   1.000000
    3        2.504710   1.000000
    4        2.504710   1.000000
    5        2.620389   1.000000
    6        2.674503   1.000000
    7        2.674503   1.000000
    8        3.783812   1.000000
    9        4.050139   1.000000
   10        4.053448   1.000000
   11        4.805003   1.000000
   12        4.977289   1.000000
   13        5.160960   1.000000
   14        5.160960   1.000000
   15        5.459672   1.001484
   16        5.459672   1.001484
   17        5.462749   1.001694
   18        5.472085   1.002496
   19        5.718124   0.382059
   20        5.820122  -0.034773
   21        5.820122  -0.034773
   22        7.756275  -0.000000
   23        9.828511   0.000000
   24        9.828511   0.000000
 
  0.3125000E+00  0.6250000E-01  0.6250000E-01  0.4687500E-01
    1        1.471916   1.000000
    2        2.600812   1.000000
    3        2.764140   1.000000
    4        2.764140   1.000000
    5        2.798917   1.000000
    6        2.957628   1.000000
    7        2.957628   1.000000
    8        3.574245   1.000000
    9        4.234869   1.000000
   10        4.250140   1.000000
   11        4.493526   1.000000
   12        4.493526   1.000000
   13        4.657007   1.000000
   14        5.058761   1.000000
   15        5.087722   1.000000
   16        5.192349   1.000000
   17        5.192349   1.000000
   18        5.202780   1.000000
   19        5.564833   1.032060
   20        5.815563  -0.033326
   21        5.815563  -0.033326
   22        6.326761  -0.000000
   23       10.907768   0.000000
   24       10.907768   0.000000
 
  0.4375000E+00  0.6250000E-01  0.6250000E-01  0.4687500E-01
    1        2.142554   1.000000
    2        2.590739   1.000000
    3        3.017232   1.000000
    4        3.017232   1.000000
    5        3.039488   1.000000
    6        3.310993   1.000000
    7        3.345563   1.000000
    8        3.345563   1.000000
    9        3.869051   1.000000
   10        3.869051   1.000000
   11        4.330294   1.000000
   12        4.528880   1.000000
   13        4.563469   1.000000
   14        4.785912   1.000000
   15        4.862695   1.000000
   16        4.948813   1.000000
   17        4.948813   1.000000
   18        5.234988   1.000000
   19        5.320743   1.000000
   20        5.400300   1.000076
   21        5.814243  -0.032735
   22        5.814243  -0.032735
   23       12.091913   0.000000
   24       12.091913   0.000000
 
  0.1875000E+00  0.1875000E+00  0.6250000E-01  0.4687500E-01
    1        1.201204   1.000000
    2        2.590066   1.000000
    3        2.607488   1.000000
    4        2.607488   1.000000
    5        2.766409   1.000000
    6        2.766409   1.000000
    7        2.857533   1.000000
    8        3.750378   1.000000
    9        4.090119   1.000000
   10        4.107719   1.000000
   11        4.788558   1.000000
   12        4.889634   1.000000
   13        4.889634   1.000000
   14        4.899886   1.000000
   15        4.995738   1.000000
   16        5.289549   1.000000
   17        5.387594   1.000036
   18        5.387594   1.000036
   19        5.702526   0.512764
   20        5.702526   0.512764
   21        5.724648   0.329593
   22        8.438496   0.000000
   23        8.438496   0.000000
   24       10.441391   0.000000
 
  0.3125000E+00  0.1875000E+00  0.6250000E-01  0.9375000E-01
    1        1.709341   1.000000
    2        2.750302   1.000000
    3        2.789713   1.000000
    4        2.868980   1.000000
    5        2.941900   1.000000
    6        3.040441   1.000000
    7        3.138787   1.000000
    8        3.603584   1.000000
    9        4.177695   1.000000
   10        4.249848   1.000000
   11        4.261907   1.000000
   12        4.398183   1.000000
   13        4.499509   1.000000
   14        4.719089   1.000000
   15        5.074758   1.000000
   16        5.132694   1.000000
   17        5.162307   1.000000
   18        5.182011   1.000000
   19        5.536524   1.019645
   20        5.655858   0.859915
   21        5.659080   0.841140
   22        7.006990  -0.000000
   23        9.368280   0.000000
   24       11.407985   0.000000
 
  0.4375000E+00  0.1875000E+00  0.6250000E-01  0.9375000E-01
    1        2.330336   1.000000
    2        2.751278   1.000000
    3        3.077012   1.000000
    4        3.152353   1.000000
    5        3.159332   1.000000
    6        3.351852   1.000000
    7        3.379873   1.000000
    8        3.387879   1.000000
    9        3.759823   1.000000
   10        3.882807   1.000000
   11        4.120384   1.000000
   12        4.154925   1.000000
   13        4.493495   1.000000
   14        4.800572   1.000000
   15        4.889707   1.000000
   16        4.909347   1.000000
   17        4.939667   1.000000
   18        5.277550   1.000000
   19        5.439932   1.000603
   20        5.634866   0.956936
   21        5.635417   0.954954
   22        5.969647  -0.000560
   23       10.378513   0.000000
   24       11.448121   0.000000
 
  0.3125000E+00  0.3125000E+00  0.6250000E-01  0.4687500E-01
    1        2.135576   1.000000
    2        2.903057   1.000000
    3        2.994656   1.000000
    4        2.994656   1.000000
    5        3.223151   1.000000
    6        3.223151   1.000000
    7        3.389179   1.000000
    8        3.598051   1.000000
    9        3.959169   1.000000
   10        3.959169   1.000000
   11        4.144886   1.000000
   12        4.173696   1.000000
   13        4.312727   1.000000
   14        4.664901   1.000000
   15        4.888877   1.000000
   16        5.019927   1.000000
   17        5.019927   1.000000
   18        5.419412   1.000215
   19        5.419412   1.000215
   20        5.462269   1.001660
   21        5.486140   1.004300
   22        7.861120  -0.000000
   23        7.861120  -0.000000
   24       11.122485   0.000000
 
  0.4375000E+00  0.3125000E+00  0.6250000E-01  0.9375000E-01
    1        2.632155   1.000000
    2        2.979587   1.000000
    3        3.114660   1.000000
    4        3.268202   1.000000
    5        3.412674   1.000000
    6        3.429066   1.000000
    7        3.518124   1.000000
    8        3.518804   1.000000
    9        3.675059   1.000000
   10        3.817301   1.000000
   11        3.889920   1.000000
   12        4.004638   1.000000
   13        4.469233   1.000000
   14        4.734232   1.000000
   15        4.748324   1.000000
   16        4.800481   1.000000
   17        4.826747   1.000000
   18        5.124557   1.000000
   19        5.359909   1.000006
   20        5.381425   1.000025
   21        5.945564  -0.001676
   22        6.702048  -0.000000
   23        8.802726   0.000000
   24        9.867772   0.000000
 
  0.4375000E+00  0.4375000E+00  0.6250000E-01  0.4687500E-01
    1        2.920413   1.000000
    2        3.132307   1.000000
    3        3.132307   1.000000
    4        3.141520   1.000000
    5        3.611700   1.000000
    6        3.611700   1.000000
    7        3.615411   1.000000
    8        3.618022   1.000000
    9        3.778651   1.000000
   10        3.778651   1.000000
   11        3.908076   1.000000
   12        3.975313   1.000000
   13        4.436912   1.000000
   14        4.580480   1.000000
   15        4.602731   1.000000
   16        4.602731   1.000000
   17        4.818568   1.000000
   18        5.058425   1.000000
   19        5.058425   1.000000
   20        5.159743   1.000000
   21        6.623785  -0.000000
   22        7.546531  -0.000000
   23        7.546531  -0.000000
   24        8.574863   0.000000
 
  0.1875000E+00  0.1875000E+00  0.1875000E+00  0.1562500E-01
    1        1.443166   1.000000
    2        2.663569   1.000000
    3        2.663569   1.000000
    4        2.663569   1.000000
    5        2.965901   1.000000
    6        2.965901   1.000000
    7        2.965901   1.000000
    8        3.785243   1.000000
    9        4.107169   1.000000
   10        4.107169   1.000000
   11        4.683754   1.000000
   12        4.683754   1.000000
   13        4.683754   1.000000
   14        4.916728   1.000000
   15        4.916728   1.000000
   16        5.075386   1.000000
   17        5.075386   1.000000
   18        5.075386   1.000000
   19        5.756173   0.118384
   20        5.756173   0.118384
   21        5.756173   0.118384
   22        8.948197   0.000000
   23        8.948197   0.000000
   24        8.948197   0.000000
 
  0.3125000E+00  0.1875000E+00  0.1875000E+00  0.4687500E-01
    1        1.878345   1.000000
    2        2.746645   1.000000
    3        2.829166   1.000000
    4        2.829166   1.000000
    5        3.179266   1.000000
    6        3.239635   1.000000
    7        3.239635   1.000000
    8        3.740773   1.000000
    9        4.145501   1.000000
   10        4.174920   1.000000
   11        4.251623   1.000000
   12        4.251623   1.000000
   13        4.338677   1.000000
   14        4.796868   1.000000
   15        4.907232   1.000000
   16        4.907232   1.000000
   17        4.907272   1.000000
   18        5.124304   1.000000
   19        5.689107   0.624777
   20        5.689107   0.624777
   21        5.707333   0.472097
   22        7.408401  -0.000000
   23        9.737093   0.000000
   24        9.737093   0.000000
 
  0.4375000E+00  0.1875000E+00  0.1875000E+00  0.4687500E-01
    1        2.378722   1.000000
    2        2.707120   1.000000
    3        3.081853   1.000000
    4        3.081853   1.000000
    5        3.351079   1.000000
    6        3.351079   1.000000
    7        3.436832   1.000000
    8        3.620449   1.000000
    9        3.973172   1.000000
   10        3.973172   1.000000
   11        4.051050   1.000000
   12        4.057772   1.000000
   13        4.315736   1.000000
   14        4.529848   1.000000
   15        4.758188   1.000000
   16        4.758188   1.000000
   17        5.299741   1.000000
   18        5.356428   1.000005
   19        5.564761   1.032035
   20        5.620904   0.997627
   21        5.620904   0.997627
   22        6.156052  -0.000000
   23       10.606928   0.000000
   24       10.606928   0.000000
 
  0.3125000E+00  0.3125000E+00  0.1875000E+00  0.4687500E-01
    1        2.160781   1.000000
    2        2.826905   1.000000
    3        2.826905   1.000000
    4        2.860259   1.000000
    5        3.445887   1.000000
    6        3.458913   1.000000
    7        3.458913   1.000000
    8        3.917595   1.000000
    9        4.070362   1.000000
   10        4.070362   1.000000
   11        4.138565   1.000000
   12        4.147311   1.000000
   13        4.210593   1.000000
   14        4.651698   1.000000
   15        4.657494   1.000000
   16        4.657494   1.000000
   17        4.944210   1.000000
   18        5.359980   1.000006
   19        5.629430   0.974926
   20        5.655141   0.863959
   21        5.655141   0.863959
   22        8.094859  -0.000000
   23        8.094859  -0.000000
   24       10.243510   0.000000
 
  0.4375000E+00  0.3125000E+00  0.1875000E+00  0.9375000E-01
    1        2.466348   1.000000
    2        2.708129   1.000000
    3        2.932872   1.000000
    4        2.933639   1.000000
    5        3.499998   1.000000
    6        3.510340   1.000000
    7        3.757679   1.000000
    8        3.939773   1.000000
    9        3.966824   1.000000
   10        4.049736   1.000000
   11        4.102173   1.000000
   12        4.208862   1.000000
   13        4.231833   1.000000
   14        4.411815   1.000000
   15        4.517062   1.000000
   16        4.553011   1.000000
   17        5.175428   1.000000
   18        5.492226   1.005359
   19        5.539904   1.021168
   20        5.548495   1.025130
   21        5.846900  -0.030679
   22        6.749671  -0.000000
   23        8.939498   0.000000
   24        9.875090   0.000000
 
  0.4375000E+00  0.4375000E+00  0.1875000E+00  0.4687500E-01
    1        2.589573   1.000000
    2        2.748631   1.000000
    3        2.748631   1.000000
    4        2.820643   1.000000
    5        3.640898   1.000000
    6        3.724971   1.000000
    7        3.724971   1.000000
    8        3.878630   1.000000
    9        4.183559   1.000000
   10        4.216231   1.000000
   11        4.216231   1.000000
   12        4.335309   1.000000
   13        4.373718   1.000000
   14        4.390035   1.000000
   15        4.395264   1.000000
   16        4.395264   1.000000
   17        5.135171   1.000000
   18        5.360189   1.000007
   19        5.360189   1.000007
   20        5.397631   1.000065
   21        6.546692  -0.000000
   22        7.560598  -0.000000
   23        7.560598  -0.000000
   24        8.599754   0.000000
 
  0.3125000E+00  0.3125000E+00  0.3125000E+00  0.1562500E-01
    1        2.231856   1.000000
    2        2.723864   1.000000
    3        2.723864   1.000000
    4        2.723864   1.000000
    5        3.605018   1.000000
    6        3.605018   1.000000
    7        3.605018   1.000000
    8        4.056680   1.000000
    9        4.056680   1.000000
   10        4.306144   1.000000
   11        4.306144   1.000000
   12        4.306144   1.000000
   13        4.390372   1.000000
   14        4.390372   1.000000
   15        4.390372   1.000000
   16        4.522720   1.000000
   17        5.243790   1.000000
   18        5.243790   1.000000
   19        5.709733   0.451853
   20        5.709733   0.451853
   21        5.709733   0.451853
   22        8.521467   0.000000
   23        8.521467   0.000000
   24        8.521467   0.000000
 
  0.4375000E+00  0.3125000E+00  0.3125000E+00  0.4687500E-01
    1        2.360061   1.000000
    2        2.535994   1.000000
    3        2.678062   1.000000
    4        2.678062   1.000000
    5        3.637200   1.000000
    6        3.637200   1.000000
    7        3.805976   1.000000
    8        3.964440   1.000000
    9        4.068713   1.000000
   10        4.184710   1.000000
   11        4.266099   1.000000
   12        4.266099   1.000000
   13        4.477875   1.000000
   14        4.557427   1.000000
   15        4.557427   1.000000
   16        4.685343   1.000000
   17        5.500129   1.007033
   18        5.641928   0.929242
   19        5.641928   0.929242
   20        5.666193   0.796231
   21        5.782952   0.012772
   22        6.999939  -0.000000
   23        8.963956   0.000000
   24        8.963956   0.000000
 
  0.4375000E+00  0.4375000E+00  0.3125000E+00  0.4687500E-01
    1        2.362265   1.000000
    2        2.473545   1.000000
    3        2.473545   1.000000
    4        2.521890   1.000000
    5        3.751976   1.000000
    6        3.804085   1.000000
    7        3.804085   1.000000
    8        3.929894   1.000000
    9        4.002513   1.000000
   10        4.082374   1.000000
   11        4.082374   1.000000
   12        4.106476   1.000000
   13        4.900361   1.000000
   14        4.900361   1.000000
   15        4.902827   1.000000
   16        5.138805   1.000000
   17        5.423363   1.000264
   18        5.599156   1.029477
   19        5.601585   1.027485
   20        5.601585   1.027485
   21        6.429403  -0.000000
   22        7.581647  -0.000000
   23        7.581647  -0.000000
   24        8.388347  -0.000000
 
  0.4375000E+00  0.4375000E+00  0.4375000E+00  0.1562500E-01
    1        2.275657   1.000000
    2        2.331957   1.000000
    3        2.331957   1.000000
    4        2.331957   1.000000
    5        3.862134   1.000000
    6        3.862134   1.000000
    7        3.862134   1.000000
    8        3.925686   1.000000
    9        3.925686   1.000000
   10        3.962241   1.000000
   11        3.962241   1.000000
   12        3.962241   1.000000
   13        5.366597   1.000010
   14        5.366597   1.000010
   15        5.366597   1.000010
   16        5.618944   1.001947
   17        5.618944   1.001947
   18        5.681562   0.684952
   19        5.681562   0.684952
   20        5.681562   0.684952
   21        6.667169  -0.000000
   22        7.597680  -0.000000
   23        7.597680  -0.000000
   24        7.597680  -0.000000
