       N       E                     dE             d eps       ncg     rms          rms(c)
DAV:   1     0.140289780907E+03    0.14029E+03   -0.17786E+04   960   0.126E+03
DAV:   2    -0.189006343666E+02   -0.15919E+03   -0.15893E+03  1560   0.231E+02
DAV:   3    -0.200636672650E+02   -0.11630E+01   -0.11184E+01   984   0.270E+01
DAV:   4    -0.200838952496E+02   -0.20228E-01   -0.20180E-01  1056   0.217E+00
DAV:   5    -0.200840192039E+02   -0.12395E-03   -0.12395E-03  1080   0.223E-01    0.712E+00
DAV:   6    -0.194135937206E+02    0.67043E+00   -0.52851E+00   960   0.140E+01    0.360E+00
DAV:   7    -0.194048910939E+02    0.87026E-02   -0.55873E-02   960   0.180E+00    0.202E+00
DAV:   8    -0.194035095202E+02    0.13816E-02   -0.26586E-03   960   0.405E-01    0.997E-02
DAV:   9    -0.194035787942E+02   -0.69274E-04   -0.14195E-04   720   0.711E-02
   1 F= -.19403579E+02 E0= -.19401795E+02  d E =-.535233E-02
