<?xml version="1.0" encoding="ISO-8859-1"?>
<modeling>
 <generator>
  <i name="program" type="string">vasp </i>
  <i name="version" type="string">5.4.1  </i>
  <i name="subversion" type="string">05Feb16 (build Feb 08 2018 09:21:51) complex                          parallel </i>
  <i name="platform" type="string">LinuxIFC </i>
  <i name="date" type="string">2019 11 20 </i>
  <i name="time" type="string">21:33:57 </i>
 </generator>
 <incar>
  <i type="string" name="PREC">normal</i>
  <i name="ENCUT">    400.00000000</i>
  <i type="int" name="ISMEAR">     1</i>
  <i name="SIGMA">      0.10000000</i>
  <i type="logical" name="LWAVE"> F  </i>
  <i type="logical" name="LCHARG"> F  </i>
  <v type="int" name="KPOINT_BSE">    -1     0     0     0</v>
 </incar>
 <kpoints>
  <generation param="Monkhorst-Pack">
   <v type="int" name="divisions">       8        8        8 </v>
   <v name="usershift">      0.00000000       0.00000000       0.00000000 </v>
   <v name="genvec1">      0.12500000       0.00000000       0.00000000 </v>
   <v name="genvec2">      0.00000000       0.12500000       0.00000000 </v>
   <v name="genvec3">      0.00000000       0.00000000       0.12500000 </v>
   <v name="shift">      0.50000000       0.50000000       0.50000000 </v>
  </generation>
  <varray name="kpointlist" >
   <v>       0.06250000       0.06250000       0.06250000 </v>
   <v>       0.18750000       0.06250000       0.06250000 </v>
   <v>       0.31250000       0.06250000       0.06250000 </v>
   <v>       0.43750000       0.06250000       0.06250000 </v>
   <v>       0.18750000       0.18750000       0.06250000 </v>
   <v>       0.31250000       0.18750000       0.06250000 </v>
   <v>       0.43750000       0.18750000       0.06250000 </v>
   <v>       0.31250000       0.31250000       0.06250000 </v>
   <v>       0.43750000       0.31250000       0.06250000 </v>
   <v>       0.43750000       0.43750000       0.06250000 </v>
   <v>       0.18750000       0.18750000       0.18750000 </v>
   <v>       0.31250000       0.18750000       0.18750000 </v>
   <v>       0.43750000       0.18750000       0.18750000 </v>
   <v>       0.31250000       0.31250000       0.18750000 </v>
   <v>       0.43750000       0.31250000       0.18750000 </v>
   <v>       0.43750000       0.43750000       0.18750000 </v>
   <v>       0.31250000       0.31250000       0.31250000 </v>
   <v>       0.43750000       0.31250000       0.31250000 </v>
   <v>       0.43750000       0.43750000       0.31250000 </v>
   <v>       0.43750000       0.43750000       0.43750000 </v>
  </varray>
  <varray name="weights" >
   <v>       0.01562500 </v>
   <v>       0.04687500 </v>
   <v>       0.04687500 </v>
   <v>       0.04687500 </v>
   <v>       0.04687500 </v>
   <v>       0.09375000 </v>
   <v>       0.09375000 </v>
   <v>       0.04687500 </v>
   <v>       0.09375000 </v>
   <v>       0.04687500 </v>
   <v>       0.01562500 </v>
   <v>       0.04687500 </v>
   <v>       0.04687500 </v>
   <v>       0.04687500 </v>
   <v>       0.09375000 </v>
   <v>       0.04687500 </v>
   <v>       0.01562500 </v>
   <v>       0.04687500 </v>
   <v>       0.04687500 </v>
   <v>       0.01562500 </v>
  </varray>
 </kpoints>
 <parameters>
  <separator name="general" >
   <i type="string" name="SYSTEM">unknown system</i>
   <i type="logical" name="LCOMPAT"> F  </i>
  </separator>
  <separator name="electronic" >
   <i type="string" name="PREC">normal</i>
   <i name="ENMAX">    400.00000000</i>
   <i name="ENAUG">    416.23000000</i>
   <i name="EDIFF">      0.00010000</i>
   <i type="int" name="IALGO">    38</i>
   <i type="int" name="IWAVPR">    10</i>
   <i type="int" name="NBANDS">    24</i>
   <i name="NELECT">     40.00000000</i>
   <i type="int" name="TURBO">     0</i>
   <i type="int" name="IRESTART">     0</i>
   <i type="int" name="NREBOOT">     0</i>
   <i type="int" name="NMIN">     0</i>
   <i name="EREF">      0.00000000</i>
   <separator name="electronic smearing" >
    <i type="int" name="ISMEAR">     1</i>
    <i name="SIGMA">      0.10000000</i>
    <i name="KSPACING">      0.50000000</i>
    <i type="logical" name="KGAMMA"> T  </i>
   </separator>
   <separator name="electronic projectors" >
    <i type="logical" name="LREAL"> F  </i>
    <v name="ROPT">      0.00000000</v>
    <i type="int" name="LMAXPAW">  -100</i>
    <i type="int" name="LMAXMIX">     2</i>
    <i type="logical" name="NLSPLINE"> F  </i>
   </separator>
   <separator name="electronic startup" >
    <i type="int" name="ISTART">     0</i>
    <i type="int" name="ICHARG">     2</i>
    <i type="int" name="INIWAV">     1</i>
   </separator>
   <separator name="electronic spin" >
    <i type="int" name="ISPIN">     1</i>
    <i type="logical" name="LNONCOLLINEAR"> F  </i>
    <v name="MAGMOM">      1.00000000      1.00000000      1.00000000      1.00000000</v>
    <i name="NUPDOWN">     -1.00000000</i>
    <i type="logical" name="LSORBIT"> F  </i>
    <v name="SAXIS">      0.00000000      0.00000000      1.00000000</v>
    <i type="logical" name="LSPIRAL"> F  </i>
    <v name="QSPIRAL">      0.00000000      0.00000000      0.00000000</v>
    <i type="logical" name="LZEROZ"> F  </i>
   </separator>
   <separator name="electronic exchange-correlation" >
    <i type="logical" name="LASPH"> F  </i>
    <i type="logical" name="LMETAGGA"> F  </i>
   </separator>
   <separator name="electronic convergence" >
    <i type="int" name="NELM">    60</i>
    <i type="int" name="NELMDL">    -5</i>
    <i type="int" name="NELMIN">     2</i>
    <i name="ENINI">    400.00000000</i>
    <separator name="electronic convergence detail" >
     <i type="logical" name="LDIAG"> T  </i>
     <i type="logical" name="LSUBROT"> F  </i>
     <i name="WEIMIN">      0.00000000</i>
     <i name="EBREAK">      0.00000104</i>
     <i name="DEPER">      0.30000000</i>
     <i type="int" name="NRMM">     4</i>
     <i name="TIME">      0.40000000</i>
    </separator>
   </separator>
   <separator name="electronic mixer" >
    <i name="AMIX">      0.40000000</i>
    <i name="BMIX">      1.00000000</i>
    <i name="AMIN">      0.10000000</i>
    <i name="AMIX_MAG">      1.60000000</i>
    <i name="BMIX_MAG">      1.00000000</i>
    <separator name="electronic mixer details" >
     <i type="int" name="IMIX">     4</i>
     <i type="logical" name="MIXFIRST"> F  </i>
     <i type="int" name="MAXMIX">   -45</i>
     <i name="WC">    100.00000000</i>
     <i type="int" name="INIMIX">     1</i>
     <i type="int" name="MIXPRE">     1</i>
     <i type="int" name="MREMOVE">     5</i>
    </separator>
   </separator>
   <separator name="electronic dipolcorrection" >
    <i type="logical" name="LDIPOL"> F  </i>
    <i type="logical" name="LMONO"> F  </i>
    <i type="int" name="IDIPOL">     0</i>
    <i name="EPSILON">      1.00000000</i>
    <v name="DIPOL">   -100.00000000   -100.00000000   -100.00000000</v>
    <i name="EFIELD">      0.00000000</i>
   </separator>
  </separator>
  <separator name="grids" >
   <i type="int" name="NGX">    24</i>
   <i type="int" name="NGY">    24</i>
   <i type="int" name="NGZ">    24</i>
   <i type="int" name="NGXF">    48</i>
   <i type="int" name="NGYF">    48</i>
   <i type="int" name="NGZF">    48</i>
   <i type="logical" name="ADDGRID"> F  </i>
  </separator>
  <separator name="ionic" >
   <i type="int" name="NSW">     0</i>
   <i type="int" name="IBRION">    -1</i>
   <i type="int" name="ISIF">     2</i>
   <i name="PSTRESS">      0.00000000</i>
   <i name="EDIFFG">      0.00100000</i>
   <i type="int" name="NFREE">     0</i>
   <i name="POTIM">      0.50000000</i>
   <i name="SMASS">     -3.00000000</i>
   <i name="SCALEE">      1.00000000</i>
  </separator>
  <separator name="ionic md" >
   <i name="TEBEG">      0.00010000</i>
   <i name="TEEND">      0.00010000</i>
   <i type="int" name="NBLOCK">     1</i>
   <i type="int" name="KBLOCK">     1</i>
   <i type="int" name="NPACO">   256</i>
   <i name="APACO">     16.00000000</i>
  </separator>
  <separator name="symmetry" >
   <i type="int" name="ISYM">     2</i>
   <i name="SYMPREC">      0.00001000</i>
  </separator>
  <separator name="dos" >
   <i type="logical" name="LORBIT"> F  </i>
   <v name="RWIGS">     -1.00000000</v>
   <i type="int" name="NEDOS">   301</i>
   <i name="EMIN">     10.00000000</i>
   <i name="EMAX">    -10.00000000</i>
   <i name="EFERMI">      0.00000000</i>
  </separator>
  <separator name="writing" >
   <i type="int" name="NWRITE">     2</i>
   <i type="logical" name="LWAVE"> F  </i>
   <i type="logical" name="LCHARG"> F  </i>
   <i type="logical" name="LPARD"> F  </i>
   <i type="logical" name="LVTOT"> F  </i>
   <i type="logical" name="LVHAR"> F  </i>
   <i type="logical" name="LELF"> F  </i>
   <i type="logical" name="LOPTICS"> F  </i>
   <v name="STM">      0.00000000      0.00000000      0.00000000      0.00000000      0.00000000      0.00000000      0.00000000</v>
  </separator>
  <separator name="performance" >
   <i type="int" name="NPAR">    24</i>
   <i type="int" name="NSIM">     4</i>
   <i type="int" name="NBLK">    -1</i>
   <i type="logical" name="LPLANE"> T  </i>
   <i type="logical" name="LSCALAPACK"> F  </i>
   <i type="logical" name="LSCAAWARE"> F  </i>
   <i type="logical" name="LSCALU"> F  </i>
   <i type="logical" name="LASYNC"> F  </i>
   <i type="logical" name="LORBITALREAL"> F  </i>
  </separator>
  <separator name="miscellaneous" >
   <i type="int" name="IDIOT">     3</i>
   <i type="logical" name="LMUSIC"> F  </i>
   <v name="POMASS">    106.42000000</v>
   <v name="DARWINR">      0.00000000</v>
   <v name="DARWINV">      1.00000000</v>
   <i type="logical" name="LCORR"> T  </i>
  </separator>
  <i type="logical" name="GGA_COMPAT"> T  </i>
  <i type="logical" name="LBERRY"> F  </i>
  <i type="int" name="ICORELEVEL">     0</i>
  <i type="logical" name="LDAU"> F  </i>
  <i type="int" name="I_CONSTRAINED_M">     0</i>
  <separator name="electronic exchange-correlation" >
   <i type="string" name="GGA">--</i>
   <i type="int" name="VOSKOWN">     0</i>
   <i type="logical" name="LHFCALC"> F  </i>
   <i type="string" name="PRECFOCK"></i>
   <i type="logical" name="LSYMGRAD"> F  </i>
   <i type="logical" name="LHFONE"> F  </i>
   <i type="logical" name="LRHFCALC"> F  </i>
   <i type="logical" name="LTHOMAS"> F  </i>
   <i type="logical" name="LMODELHF"> F  </i>
   <i name="ENCUT4O">     -1.00000000</i>
   <i type="int" name="EXXOEP">     0</i>
   <i type="int" name="FOURORBIT">     0</i>
   <i name="AEXX">      0.00000000</i>
   <i name="HFALPHA">      0.00000000</i>
   <i name="MCALPHA">      0.00000000</i>
   <i name="ALDAX">      1.00000000</i>
   <i name="AGGAX">      1.00000000</i>
   <i name="ALDAC">      1.00000000</i>
   <i name="AGGAC">      1.00000000</i>
   <i type="int" name="NKREDX">     1</i>
   <i type="int" name="NKREDY">     1</i>
   <i type="int" name="NKREDZ">     1</i>
   <i type="logical" name="SHIFTRED"> F  </i>
   <i type="logical" name="ODDONLY"> F  </i>
   <i type="logical" name="EVENONLY"> F  </i>
   <i type="int" name="LMAXFOCK">     0</i>
   <i type="int" name="NMAXFOCKAE">     0</i>
   <i type="logical" name="LFOCKAEDFT"> F  </i>
   <i name="HFSCREEN">      0.00000000</i>
   <i name="HFSCREENC">      0.00000000</i>
   <i type="int" name="NBANDSGWLOW">     0</i>
  </separator>
  <separator name="vdW DFT" >
   <i type="logical" name="LUSE_VDW"> F  </i>
   <i name="Zab_VDW">     -0.84910000</i>
   <i name="PARAM1">      0.12340000</i>
   <i name="PARAM2">      1.00000000</i>
   <i name="PARAM3">      0.00000000</i>
  </separator>
  <separator name="model GW" >
   <i type="int" name="MODEL_GW">     0</i>
   <i name="MODEL_EPS0">     11.75217145</i>
   <i name="MODEL_ALPHA">      1.00000000</i>
  </separator>
  <separator name="linear response parameters" >
   <i type="logical" name="LEPSILON"> F  </i>
   <i type="logical" name="LRPA"> F  </i>
   <i type="logical" name="LNABLA"> F  </i>
   <i type="logical" name="LVEL"> F  </i>
   <i type="int" name="KINTER">     0</i>
   <i name="CSHIFT">      0.10000000</i>
   <i name="OMEGAMAX">     -1.00000000</i>
   <i name="DEG_THRESHOLD">      0.00200000</i>
  </separator>
  <separator name="orbital magnetization" >
   <i type="logical" name="NUCIND"> F  </i>
   <v name="MAGPOS">      0.00000000      0.00000000      0.00000000</v>
   <i type="logical" name="LNICSALL"> T  </i>
   <i type="logical" name="ORBITALMAG"> F  </i>
   <i type="logical" name="LMAGBLOCH"> F  </i>
   <i type="logical" name="LCHIMAG"> F  </i>
   <i type="logical" name="LGAUGE"> T  </i>
   <i type="int" name="MAGATOM">     0</i>
   <v name="MAGDIPOL">      0.00000000      0.00000000      0.00000000</v>
   <v name="AVECCONST">      0.00000000      0.00000000      0.00000000</v>
  </separator>
  <separator name="response functions" >
   <i type="logical" name="LADDER"> F  </i>
   <i type="logical" name="LFXC"> F  </i>
   <i type="logical" name="LHARTREE"> T  </i>
   <i type="int" name="IBSE">     0</i>
   <v type="int" name="KPOINT">    -1     0     0     0</v>
   <i type="logical" name="LTCTE"> F  </i>
   <i type="logical" name="LTETE"> F  </i>
   <i type="logical" name="LTRIPLET"> F  </i>
   <i type="logical" name="LFXCEPS"> F  </i>
   <i type="logical" name="LFXHEG"> F  </i>
   <i type="int" name="NATURALO">     0</i>
   <i type="logical" name="L2ORDER"> F  </i>
   <i type="logical" name="LUSEW"> F  </i>
   <i name="ENCUTGW">     -2.00000000</i>
   <i name="ENCUTGWSOFT">     -2.00000000</i>
   <i name="ENCUTLF">     -1.00000000</i>
   <i type="int" name="LMAXMP2">    -1</i>
   <i name="SCISSOR">      0.00000000</i>
   <i type="int" name="NOMEGA">     0</i>
   <i type="int" name="NOMEGAR">     0</i>
   <i type="int" name="NBANDSGW">    -1</i>
   <i type="int" name="NBANDSO">    -1</i>
   <i type="int" name="NBANDSV">    -1</i>
   <i type="int" name="NELM">     1</i>
   <i type="int" name="NELMHF">     1</i>
   <i type="int" name="DIM">     3</i>
   <i type="int" name="ANTIRES">     0</i>
   <i name="OMEGAMAX">    -30.00000000</i>
   <i name="OMEGAMIN">    -30.00000000</i>
   <i name="OMEGATL">   -200.00000000</i>
   <i type="int" name="OMEGAGRID">     0</i>
   <i name="CSHIFT">     -0.10000000</i>
   <i type="logical" name="SELFENERGY"> F  </i>
   <i type="logical" name="LSPECTRAL"> F  </i>
   <i type="logical" name="LSPECTRALGW"> F  </i>
   <i type="logical" name="LSINGLES"> F  </i>
   <i type="logical" name="LFERMIGW"> F  </i>
   <i type="logical" name="ODDONLYGW"> F  </i>
   <i type="logical" name="EVENONLYGW"> F  </i>
   <i type="int" name="NKREDLFX">     1</i>
   <i type="int" name="NKREDLFY">     1</i>
   <i type="int" name="NKREDLFZ">     1</i>
   <i type="int" name="MAXMEM">  1800</i>
   <i type="int" name="TELESCOPE">     0</i>
   <i type="int" name="TAUPAR">     1</i>
   <i type="int" name="OMEGAPAR">    -1</i>
   <i name="LAMBDA">      1.00000000</i>
  </separator>
  <separator name="External order field" >
   <i name="OFIELD_KAPPA">      0.00000000</i>
   <v name="OFIELD_K">      0.00000000      0.00000000      0.00000000</v>
   <i name="OFIELD_Q6_NEAR">      0.00000000</i>
   <i name="OFIELD_Q6_FAR">      0.00000000</i>
   <i name="OFIELD_A">      0.00000000</i>
  </separator>
 </parameters>
 <atominfo>
  <atoms>       4 </atoms>
  <types>       1 </types>
  <array name="atoms" >
   <dimension dim="1">ion</dimension>
   <field type="string">element</field>
   <field type="int">atomtype</field>
   <set>
    <rc><c>Pd</c><c>   1</c></rc>
    <rc><c>Pd</c><c>   1</c></rc>
    <rc><c>Pd</c><c>   1</c></rc>
    <rc><c>Pd</c><c>   1</c></rc>
   </set>
  </array>
  <array name="atomtypes" >
   <dimension dim="1">type</dimension>
   <field type="int">atomspertype</field>
   <field type="string">element</field>
   <field>mass</field>
   <field>valence</field>
   <field type="string">pseudopotential</field>
   <set>
    <rc><c>   4</c><c>Pd</c><c>    106.42000000</c><c>     10.00000000</c><c>  PAW_PBE Pd 04Jan2005                  </c></rc>
   </set>
  </array>
 </atominfo>
 <structure name="initialpos" >
  <crystal>
   <varray name="basis" >
    <v>       4.27900000       0.00000000       0.00000000 </v>
    <v>       0.00000000       4.27900000       0.00000000 </v>
    <v>       0.00000000       0.00000000       4.27900000 </v>
   </varray>
   <i name="volume">     78.34780964 </i>
   <varray name="rec_basis" >
    <v>       0.23369946       0.00000000       0.00000000 </v>
    <v>       0.00000000       0.23369946       0.00000000 </v>
    <v>       0.00000000       0.00000000       0.23369946 </v>
   </varray>
  </crystal>
  <varray name="positions" >
   <v>       0.00000000       0.00000000       0.00000000 </v>
   <v>       0.00000000       0.50000000       0.50000000 </v>
   <v>       0.50000000       0.00000000       0.50000000 </v>
   <v>       0.50000000       0.50000000       0.00000000 </v>
  </varray>
 </structure>
 <calculation>
  <scstep>
   <time name="dav">    0.14    0.14</time>
   <time name="total">    0.16    0.16</time>
   <energy>
    <i name="alphaZ">    133.09926657 </i>
    <i name="ewald">  -3085.81625413 </i>
    <i name="hartreedc">   -622.39295721 </i>
    <i name="XCdc">   -119.77260415 </i>
    <i name="pawpsdc">   3226.95325816 </i>
    <i name="pawaedc">  -2978.06409795 </i>
    <i name="eentropy">      0.00167636 </i>
    <i name="bandstr">    347.30592294 </i>
    <i name="atom">   3238.97557032 </i>
    <i name="e_fr_energy">    140.28978091 </i>
    <i name="e_wo_entrp">    140.28810455 </i>
    <i name="e_0_energy">    140.28922212 </i>
   </energy>
  </scstep>
  <scstep>
   <time name="dav">    0.26    0.26</time>
   <time name="total">    0.27    0.27</time>
   <energy>
    <i name="e_fr_energy">    -18.90063437 </i>
    <i name="e_wo_entrp">    -18.90227384 </i>
    <i name="e_0_energy">    -18.90118086 </i>
   </energy>
  </scstep>
  <scstep>
   <time name="dav">    0.36    0.40</time>
   <time name="total">    0.36    0.42</time>
   <energy>
    <i name="e_fr_energy">    -20.06366726 </i>
    <i name="e_wo_entrp">    -20.05512557 </i>
    <i name="e_0_energy">    -20.06082003 </i>
   </energy>
  </scstep>
  <scstep>
   <time name="dav">    0.15    0.15</time>
   <time name="total">    0.15    0.15</time>
   <energy>
    <i name="e_fr_energy">    -20.08389525 </i>
    <i name="e_wo_entrp">    -20.07532453 </i>
    <i name="e_0_energy">    -20.08103834 </i>
   </energy>
  </scstep>
  <scstep>
   <time name="dav">    0.16    0.16</time>
   <time name="total">    0.18    0.19</time>
   <energy>
    <i name="e_fr_energy">    -20.08401920 </i>
    <i name="e_wo_entrp">    -20.07544965 </i>
    <i name="e_0_energy">    -20.08116269 </i>
   </energy>
  </scstep>
  <scstep>
   <time name="dav">    0.14    0.14</time>
   <time name="total">    0.16    0.16</time>
   <energy>
    <i name="e_fr_energy">    -19.41359372 </i>
    <i name="e_wo_entrp">    -19.40843942 </i>
    <i name="e_0_energy">    -19.41187562 </i>
   </energy>
  </scstep>
  <scstep>
   <time name="dav">    0.14    0.14</time>
   <time name="total">    0.16    0.17</time>
   <energy>
    <i name="e_fr_energy">    -19.40489109 </i>
    <i name="e_wo_entrp">    -19.39944187 </i>
    <i name="e_0_energy">    -19.40307469 </i>
   </energy>
  </scstep>
  <scstep>
   <time name="dav">    0.14    0.14</time>
   <time name="total">    0.16    0.16</time>
   <energy>
    <i name="e_fr_energy">    -19.40350952 </i>
    <i name="e_wo_entrp">    -19.39813730 </i>
    <i name="e_0_energy">    -19.40171878 </i>
   </energy>
  </scstep>
  <scstep>
   <time name="dav">    0.12    0.12</time>
   <time name="total">    0.12    0.13</time>
   <energy>
    <i name="alphaZ">    133.09926657 </i>
    <i name="ewald">  -3085.81625413 </i>
    <i name="hartreedc">   -592.18199240 </i>
    <i name="XCdc">   -120.74978656 </i>
    <i name="pawpsdc">   3462.12290409 </i>
    <i name="pawaedc">  -3217.45862960 </i>
    <i name="eentropy">     -0.00535233 </i>
    <i name="bandstr">    162.61069525 </i>
    <i name="atom">   3238.97557032 </i>
    <i name="e_fr_energy">    -19.40357879 </i>
    <i name="e_wo_entrp">    -19.39822646 </i>
    <i name="e_0_energy">    -19.40179468 </i>
   </energy>
  </scstep>
  <structure>
   <crystal>
    <varray name="basis" >
     <v>       4.27900000       0.00000000       0.00000000 </v>
     <v>       0.00000000       4.27900000       0.00000000 </v>
     <v>       0.00000000       0.00000000       4.27900000 </v>
    </varray>
    <i name="volume">     78.34780964 </i>
    <varray name="rec_basis" >
     <v>       0.23369946       0.00000000       0.00000000 </v>
     <v>       0.00000000       0.23369946       0.00000000 </v>
     <v>       0.00000000       0.00000000       0.23369946 </v>
    </varray>
   </crystal>
   <varray name="positions" >
    <v>       0.00000000       0.00000000       0.00000000 </v>
    <v>       0.00000000       0.50000000       0.50000000 </v>
    <v>       0.50000000       0.00000000       0.50000000 </v>
    <v>       0.50000000       0.50000000       0.00000000 </v>
   </varray>
  </structure>
  <varray name="forces" >
   <v>       0.00000000      -0.00000000      -0.00000000 </v>
   <v>      -0.00000000       0.00000000      -0.00000000 </v>
   <v>       0.00000000       0.00000000       0.00000000 </v>
   <v>       0.00000000      -0.00000000      -0.00000000 </v>
  </varray>
  <varray name="stress" >
   <v>    -210.01551492      -0.00000000       0.00000000 </v>
   <v>       0.00000000    -210.01551492       0.00000000 </v>
   <v>       0.00000000       0.00000000    -210.01551492 </v>
  </varray>
  <energy>
   <i name="e_fr_energy">    -19.40357879 </i>
   <i name="e_wo_entrp">    -19.40179468 </i>
   <i name="e_0_energy">     -0.00535233 </i>
  </energy>
  <time name="totalsc">    1.97    2.08</time>
  <eigenvalues>
   <array>
    <dimension dim="1">band</dimension>
    <dimension dim="2">kpoint</dimension>
    <dimension dim="3">spin</dimension>
    <field>eigene</field>
    <field>occ</field>
    <set>
     <set comment="spin 1">
      <set comment="kpoint 1">
       <r>    0.6369    1.0000 </r>
       <r>    2.3548    1.0000 </r>
       <r>    2.3548    1.0000 </r>
       <r>    2.3548    1.0000 </r>
       <r>    2.5260    1.0000 </r>
       <r>    2.5260    1.0000 </r>
       <r>    2.5260    1.0000 </r>
       <r>    3.8912    1.0000 </r>
       <r>    3.9523    1.0000 </r>
       <r>    3.9523    1.0000 </r>
       <r>    4.9182    1.0000 </r>
       <r>    4.9182    1.0000 </r>
       <r>    5.6025    1.0266 </r>
       <r>    5.6025    1.0266 </r>
       <r>    5.6025    1.0266 </r>
       <r>    5.6853    0.6555 </r>
       <r>    5.6853    0.6555 </r>
       <r>    5.6853    0.6555 </r>
       <r>    5.8326   -0.0349 </r>
       <r>    5.8326   -0.0349 </r>
       <r>    5.8326   -0.0349 </r>
       <r>    9.0927    0.0000 </r>
       <r>    9.0927    0.0000 </r>
       <r>    9.0927    0.0000 </r>
      </set>
      <set comment="kpoint 2">
       <r>    0.9275    1.0000 </r>
       <r>    2.4576    1.0000 </r>
       <r>    2.5047    1.0000 </r>
       <r>    2.5047    1.0000 </r>
       <r>    2.6204    1.0000 </r>
       <r>    2.6745    1.0000 </r>
       <r>    2.6745    1.0000 </r>
       <r>    3.7838    1.0000 </r>
       <r>    4.0501    1.0000 </r>
       <r>    4.0534    1.0000 </r>
       <r>    4.8050    1.0000 </r>
       <r>    4.9773    1.0000 </r>
       <r>    5.1610    1.0000 </r>
       <r>    5.1610    1.0000 </r>
       <r>    5.4597    1.0015 </r>
       <r>    5.4597    1.0015 </r>
       <r>    5.4627    1.0017 </r>
       <r>    5.4721    1.0025 </r>
       <r>    5.7181    0.3821 </r>
       <r>    5.8201   -0.0348 </r>
       <r>    5.8201   -0.0348 </r>
       <r>    7.7563   -0.0000 </r>
       <r>    9.8285    0.0000 </r>
       <r>    9.8285    0.0000 </r>
      </set>
      <set comment="kpoint 3">
       <r>    1.4719    1.0000 </r>
       <r>    2.6008    1.0000 </r>
       <r>    2.7641    1.0000 </r>
       <r>    2.7641    1.0000 </r>
       <r>    2.7989    1.0000 </r>
       <r>    2.9576    1.0000 </r>
       <r>    2.9576    1.0000 </r>
       <r>    3.5742    1.0000 </r>
       <r>    4.2349    1.0000 </r>
       <r>    4.2501    1.0000 </r>
       <r>    4.4935    1.0000 </r>
       <r>    4.4935    1.0000 </r>
       <r>    4.6570    1.0000 </r>
       <r>    5.0588    1.0000 </r>
       <r>    5.0877    1.0000 </r>
       <r>    5.1923    1.0000 </r>
       <r>    5.1923    1.0000 </r>
       <r>    5.2028    1.0000 </r>
       <r>    5.5648    1.0321 </r>
       <r>    5.8156   -0.0333 </r>
       <r>    5.8156   -0.0333 </r>
       <r>    6.3268   -0.0000 </r>
       <r>   10.9078    0.0000 </r>
       <r>   10.9078    0.0000 </r>
      </set>
      <set comment="kpoint 4">
       <r>    2.1426    1.0000 </r>
       <r>    2.5907    1.0000 </r>
       <r>    3.0172    1.0000 </r>
       <r>    3.0172    1.0000 </r>
       <r>    3.0395    1.0000 </r>
       <r>    3.3110    1.0000 </r>
       <r>    3.3456    1.0000 </r>
       <r>    3.3456    1.0000 </r>
       <r>    3.8691    1.0000 </r>
       <r>    3.8691    1.0000 </r>
       <r>    4.3303    1.0000 </r>
       <r>    4.5289    1.0000 </r>
       <r>    4.5635    1.0000 </r>
       <r>    4.7859    1.0000 </r>
       <r>    4.8627    1.0000 </r>
       <r>    4.9488    1.0000 </r>
       <r>    4.9488    1.0000 </r>
       <r>    5.2350    1.0000 </r>
       <r>    5.3207    1.0000 </r>
       <r>    5.4003    1.0001 </r>
       <r>    5.8142   -0.0327 </r>
       <r>    5.8142   -0.0327 </r>
       <r>   12.0919    0.0000 </r>
       <r>   12.0919    0.0000 </r>
      </set>
      <set comment="kpoint 5">
       <r>    1.2012    1.0000 </r>
       <r>    2.5901    1.0000 </r>
       <r>    2.6075    1.0000 </r>
       <r>    2.6075    1.0000 </r>
       <r>    2.7664    1.0000 </r>
       <r>    2.7664    1.0000 </r>
       <r>    2.8575    1.0000 </r>
       <r>    3.7504    1.0000 </r>
       <r>    4.0901    1.0000 </r>
       <r>    4.1077    1.0000 </r>
       <r>    4.7886    1.0000 </r>
       <r>    4.8896    1.0000 </r>
       <r>    4.8896    1.0000 </r>
       <r>    4.8999    1.0000 </r>
       <r>    4.9957    1.0000 </r>
       <r>    5.2895    1.0000 </r>
       <r>    5.3876    1.0000 </r>
       <r>    5.3876    1.0000 </r>
       <r>    5.7025    0.5128 </r>
       <r>    5.7025    0.5128 </r>
       <r>    5.7246    0.3296 </r>
       <r>    8.4385    0.0000 </r>
       <r>    8.4385    0.0000 </r>
       <r>   10.4414    0.0000 </r>
      </set>
      <set comment="kpoint 6">
       <r>    1.7093    1.0000 </r>
       <r>    2.7503    1.0000 </r>
       <r>    2.7897    1.0000 </r>
       <r>    2.8690    1.0000 </r>
       <r>    2.9419    1.0000 </r>
       <r>    3.0404    1.0000 </r>
       <r>    3.1388    1.0000 </r>
       <r>    3.6036    1.0000 </r>
       <r>    4.1777    1.0000 </r>
       <r>    4.2498    1.0000 </r>
       <r>    4.2619    1.0000 </r>
       <r>    4.3982    1.0000 </r>
       <r>    4.4995    1.0000 </r>
       <r>    4.7191    1.0000 </r>
       <r>    5.0748    1.0000 </r>
       <r>    5.1327    1.0000 </r>
       <r>    5.1623    1.0000 </r>
       <r>    5.1820    1.0000 </r>
       <r>    5.5365    1.0196 </r>
       <r>    5.6559    0.8599 </r>
       <r>    5.6591    0.8411 </r>
       <r>    7.0070   -0.0000 </r>
       <r>    9.3683    0.0000 </r>
       <r>   11.4080    0.0000 </r>
      </set>
      <set comment="kpoint 7">
       <r>    2.3303    1.0000 </r>
       <r>    2.7513    1.0000 </r>
       <r>    3.0770    1.0000 </r>
       <r>    3.1524    1.0000 </r>
       <r>    3.1593    1.0000 </r>
       <r>    3.3519    1.0000 </r>
       <r>    3.3799    1.0000 </r>
       <r>    3.3879    1.0000 </r>
       <r>    3.7598    1.0000 </r>
       <r>    3.8828    1.0000 </r>
       <r>    4.1204    1.0000 </r>
       <r>    4.1549    1.0000 </r>
       <r>    4.4935    1.0000 </r>
       <r>    4.8006    1.0000 </r>
       <r>    4.8897    1.0000 </r>
       <r>    4.9093    1.0000 </r>
       <r>    4.9397    1.0000 </r>
       <r>    5.2775    1.0000 </r>
       <r>    5.4399    1.0006 </r>
       <r>    5.6349    0.9569 </r>
       <r>    5.6354    0.9550 </r>
       <r>    5.9696   -0.0006 </r>
       <r>   10.3785    0.0000 </r>
       <r>   11.4481    0.0000 </r>
      </set>
      <set comment="kpoint 8">
       <r>    2.1356    1.0000 </r>
       <r>    2.9031    1.0000 </r>
       <r>    2.9947    1.0000 </r>
       <r>    2.9947    1.0000 </r>
       <r>    3.2232    1.0000 </r>
       <r>    3.2232    1.0000 </r>
       <r>    3.3892    1.0000 </r>
       <r>    3.5981    1.0000 </r>
       <r>    3.9592    1.0000 </r>
       <r>    3.9592    1.0000 </r>
       <r>    4.1449    1.0000 </r>
       <r>    4.1737    1.0000 </r>
       <r>    4.3127    1.0000 </r>
       <r>    4.6649    1.0000 </r>
       <r>    4.8889    1.0000 </r>
       <r>    5.0199    1.0000 </r>
       <r>    5.0199    1.0000 </r>
       <r>    5.4194    1.0002 </r>
       <r>    5.4194    1.0002 </r>
       <r>    5.4623    1.0017 </r>
       <r>    5.4861    1.0043 </r>
       <r>    7.8611   -0.0000 </r>
       <r>    7.8611   -0.0000 </r>
       <r>   11.1225    0.0000 </r>
      </set>
      <set comment="kpoint 9">
       <r>    2.6322    1.0000 </r>
       <r>    2.9796    1.0000 </r>
       <r>    3.1147    1.0000 </r>
       <r>    3.2682    1.0000 </r>
       <r>    3.4127    1.0000 </r>
       <r>    3.4291    1.0000 </r>
       <r>    3.5181    1.0000 </r>
       <r>    3.5188    1.0000 </r>
       <r>    3.6751    1.0000 </r>
       <r>    3.8173    1.0000 </r>
       <r>    3.8899    1.0000 </r>
       <r>    4.0046    1.0000 </r>
       <r>    4.4692    1.0000 </r>
       <r>    4.7342    1.0000 </r>
       <r>    4.7483    1.0000 </r>
       <r>    4.8005    1.0000 </r>
       <r>    4.8267    1.0000 </r>
       <r>    5.1246    1.0000 </r>
       <r>    5.3599    1.0000 </r>
       <r>    5.3814    1.0000 </r>
       <r>    5.9456   -0.0017 </r>
       <r>    6.7020   -0.0000 </r>
       <r>    8.8027    0.0000 </r>
       <r>    9.8678    0.0000 </r>
      </set>
      <set comment="kpoint 10">
       <r>    2.9204    1.0000 </r>
       <r>    3.1323    1.0000 </r>
       <r>    3.1323    1.0000 </r>
       <r>    3.1415    1.0000 </r>
       <r>    3.6117    1.0000 </r>
       <r>    3.6117    1.0000 </r>
       <r>    3.6154    1.0000 </r>
       <r>    3.6180    1.0000 </r>
       <r>    3.7787    1.0000 </r>
       <r>    3.7787    1.0000 </r>
       <r>    3.9081    1.0000 </r>
       <r>    3.9753    1.0000 </r>
       <r>    4.4369    1.0000 </r>
       <r>    4.5805    1.0000 </r>
       <r>    4.6027    1.0000 </r>
       <r>    4.6027    1.0000 </r>
       <r>    4.8186    1.0000 </r>
       <r>    5.0584    1.0000 </r>
       <r>    5.0584    1.0000 </r>
       <r>    5.1597    1.0000 </r>
       <r>    6.6238   -0.0000 </r>
       <r>    7.5465   -0.0000 </r>
       <r>    7.5465   -0.0000 </r>
       <r>    8.5749    0.0000 </r>
      </set>
      <set comment="kpoint 11">
       <r>    1.4432    1.0000 </r>
       <r>    2.6636    1.0000 </r>
       <r>    2.6636    1.0000 </r>
       <r>    2.6636    1.0000 </r>
       <r>    2.9659    1.0000 </r>
       <r>    2.9659    1.0000 </r>
       <r>    2.9659    1.0000 </r>
       <r>    3.7852    1.0000 </r>
       <r>    4.1072    1.0000 </r>
       <r>    4.1072    1.0000 </r>
       <r>    4.6838    1.0000 </r>
       <r>    4.6838    1.0000 </r>
       <r>    4.6838    1.0000 </r>
       <r>    4.9167    1.0000 </r>
       <r>    4.9167    1.0000 </r>
       <r>    5.0754    1.0000 </r>
       <r>    5.0754    1.0000 </r>
       <r>    5.0754    1.0000 </r>
       <r>    5.7562    0.1184 </r>
       <r>    5.7562    0.1184 </r>
       <r>    5.7562    0.1184 </r>
       <r>    8.9482    0.0000 </r>
       <r>    8.9482    0.0000 </r>
       <r>    8.9482    0.0000 </r>
      </set>
      <set comment="kpoint 12">
       <r>    1.8783    1.0000 </r>
       <r>    2.7466    1.0000 </r>
       <r>    2.8292    1.0000 </r>
       <r>    2.8292    1.0000 </r>
       <r>    3.1793    1.0000 </r>
       <r>    3.2396    1.0000 </r>
       <r>    3.2396    1.0000 </r>
       <r>    3.7408    1.0000 </r>
       <r>    4.1455    1.0000 </r>
       <r>    4.1749    1.0000 </r>
       <r>    4.2516    1.0000 </r>
       <r>    4.2516    1.0000 </r>
       <r>    4.3387    1.0000 </r>
       <r>    4.7969    1.0000 </r>
       <r>    4.9072    1.0000 </r>
       <r>    4.9072    1.0000 </r>
       <r>    4.9073    1.0000 </r>
       <r>    5.1243    1.0000 </r>
       <r>    5.6891    0.6248 </r>
       <r>    5.6891    0.6248 </r>
       <r>    5.7073    0.4721 </r>
       <r>    7.4084   -0.0000 </r>
       <r>    9.7371    0.0000 </r>
       <r>    9.7371    0.0000 </r>
      </set>
      <set comment="kpoint 13">
       <r>    2.3787    1.0000 </r>
       <r>    2.7071    1.0000 </r>
       <r>    3.0819    1.0000 </r>
       <r>    3.0819    1.0000 </r>
       <r>    3.3511    1.0000 </r>
       <r>    3.3511    1.0000 </r>
       <r>    3.4368    1.0000 </r>
       <r>    3.6204    1.0000 </r>
       <r>    3.9732    1.0000 </r>
       <r>    3.9732    1.0000 </r>
       <r>    4.0510    1.0000 </r>
       <r>    4.0578    1.0000 </r>
       <r>    4.3157    1.0000 </r>
       <r>    4.5298    1.0000 </r>
       <r>    4.7582    1.0000 </r>
       <r>    4.7582    1.0000 </r>
       <r>    5.2997    1.0000 </r>
       <r>    5.3564    1.0000 </r>
       <r>    5.5648    1.0320 </r>
       <r>    5.6209    0.9976 </r>
       <r>    5.6209    0.9976 </r>
       <r>    6.1561   -0.0000 </r>
       <r>   10.6069    0.0000 </r>
       <r>   10.6069    0.0000 </r>
      </set>
      <set comment="kpoint 14">
       <r>    2.1608    1.0000 </r>
       <r>    2.8269    1.0000 </r>
       <r>    2.8269    1.0000 </r>
       <r>    2.8603    1.0000 </r>
       <r>    3.4459    1.0000 </r>
       <r>    3.4589    1.0000 </r>
       <r>    3.4589    1.0000 </r>
       <r>    3.9176    1.0000 </r>
       <r>    4.0704    1.0000 </r>
       <r>    4.0704    1.0000 </r>
       <r>    4.1386    1.0000 </r>
       <r>    4.1473    1.0000 </r>
       <r>    4.2106    1.0000 </r>
       <r>    4.6517    1.0000 </r>
       <r>    4.6575    1.0000 </r>
       <r>    4.6575    1.0000 </r>
       <r>    4.9442    1.0000 </r>
       <r>    5.3600    1.0000 </r>
       <r>    5.6294    0.9749 </r>
       <r>    5.6551    0.8640 </r>
       <r>    5.6551    0.8640 </r>
       <r>    8.0949   -0.0000 </r>
       <r>    8.0949   -0.0000 </r>
       <r>   10.2435    0.0000 </r>
      </set>
      <set comment="kpoint 15">
       <r>    2.4663    1.0000 </r>
       <r>    2.7081    1.0000 </r>
       <r>    2.9329    1.0000 </r>
       <r>    2.9336    1.0000 </r>
       <r>    3.5000    1.0000 </r>
       <r>    3.5103    1.0000 </r>
       <r>    3.7577    1.0000 </r>
       <r>    3.9398    1.0000 </r>
       <r>    3.9668    1.0000 </r>
       <r>    4.0497    1.0000 </r>
       <r>    4.1022    1.0000 </r>
       <r>    4.2089    1.0000 </r>
       <r>    4.2318    1.0000 </r>
       <r>    4.4118    1.0000 </r>
       <r>    4.5171    1.0000 </r>
       <r>    4.5530    1.0000 </r>
       <r>    5.1754    1.0000 </r>
       <r>    5.4922    1.0054 </r>
       <r>    5.5399    1.0212 </r>
       <r>    5.5485    1.0251 </r>
       <r>    5.8469   -0.0307 </r>
       <r>    6.7497   -0.0000 </r>
       <r>    8.9395    0.0000 </r>
       <r>    9.8751    0.0000 </r>
      </set>
      <set comment="kpoint 16">
       <r>    2.5896    1.0000 </r>
       <r>    2.7486    1.0000 </r>
       <r>    2.7486    1.0000 </r>
       <r>    2.8206    1.0000 </r>
       <r>    3.6409    1.0000 </r>
       <r>    3.7250    1.0000 </r>
       <r>    3.7250    1.0000 </r>
       <r>    3.8786    1.0000 </r>
       <r>    4.1836    1.0000 </r>
       <r>    4.2162    1.0000 </r>
       <r>    4.2162    1.0000 </r>
       <r>    4.3353    1.0000 </r>
       <r>    4.3737    1.0000 </r>
       <r>    4.3900    1.0000 </r>
       <r>    4.3953    1.0000 </r>
       <r>    4.3953    1.0000 </r>
       <r>    5.1352    1.0000 </r>
       <r>    5.3602    1.0000 </r>
       <r>    5.3602    1.0000 </r>
       <r>    5.3976    1.0001 </r>
       <r>    6.5467   -0.0000 </r>
       <r>    7.5606   -0.0000 </r>
       <r>    7.5606   -0.0000 </r>
       <r>    8.5998    0.0000 </r>
      </set>
      <set comment="kpoint 17">
       <r>    2.2319    1.0000 </r>
       <r>    2.7239    1.0000 </r>
       <r>    2.7239    1.0000 </r>
       <r>    2.7239    1.0000 </r>
       <r>    3.6050    1.0000 </r>
       <r>    3.6050    1.0000 </r>
       <r>    3.6050    1.0000 </r>
       <r>    4.0567    1.0000 </r>
       <r>    4.0567    1.0000 </r>
       <r>    4.3061    1.0000 </r>
       <r>    4.3061    1.0000 </r>
       <r>    4.3061    1.0000 </r>
       <r>    4.3904    1.0000 </r>
       <r>    4.3904    1.0000 </r>
       <r>    4.3904    1.0000 </r>
       <r>    4.5227    1.0000 </r>
       <r>    5.2438    1.0000 </r>
       <r>    5.2438    1.0000 </r>
       <r>    5.7097    0.4519 </r>
       <r>    5.7097    0.4519 </r>
       <r>    5.7097    0.4519 </r>
       <r>    8.5215    0.0000 </r>
       <r>    8.5215    0.0000 </r>
       <r>    8.5215    0.0000 </r>
      </set>
      <set comment="kpoint 18">
       <r>    2.3601    1.0000 </r>
       <r>    2.5360    1.0000 </r>
       <r>    2.6781    1.0000 </r>
       <r>    2.6781    1.0000 </r>
       <r>    3.6372    1.0000 </r>
       <r>    3.6372    1.0000 </r>
       <r>    3.8060    1.0000 </r>
       <r>    3.9644    1.0000 </r>
       <r>    4.0687    1.0000 </r>
       <r>    4.1847    1.0000 </r>
       <r>    4.2661    1.0000 </r>
       <r>    4.2661    1.0000 </r>
       <r>    4.4779    1.0000 </r>
       <r>    4.5574    1.0000 </r>
       <r>    4.5574    1.0000 </r>
       <r>    4.6853    1.0000 </r>
       <r>    5.5001    1.0070 </r>
       <r>    5.6419    0.9292 </r>
       <r>    5.6419    0.9292 </r>
       <r>    5.6662    0.7962 </r>
       <r>    5.7830    0.0128 </r>
       <r>    6.9999   -0.0000 </r>
       <r>    8.9640    0.0000 </r>
       <r>    8.9640    0.0000 </r>
      </set>
      <set comment="kpoint 19">
       <r>    2.3623    1.0000 </r>
       <r>    2.4735    1.0000 </r>
       <r>    2.4735    1.0000 </r>
       <r>    2.5219    1.0000 </r>
       <r>    3.7520    1.0000 </r>
       <r>    3.8041    1.0000 </r>
       <r>    3.8041    1.0000 </r>
       <r>    3.9299    1.0000 </r>
       <r>    4.0025    1.0000 </r>
       <r>    4.0824    1.0000 </r>
       <r>    4.0824    1.0000 </r>
       <r>    4.1065    1.0000 </r>
       <r>    4.9004    1.0000 </r>
       <r>    4.9004    1.0000 </r>
       <r>    4.9028    1.0000 </r>
       <r>    5.1388    1.0000 </r>
       <r>    5.4234    1.0003 </r>
       <r>    5.5992    1.0295 </r>
       <r>    5.6016    1.0275 </r>
       <r>    5.6016    1.0275 </r>
       <r>    6.4294   -0.0000 </r>
       <r>    7.5816   -0.0000 </r>
       <r>    7.5816   -0.0000 </r>
       <r>    8.3883   -0.0000 </r>
      </set>
      <set comment="kpoint 20">
       <r>    2.2757    1.0000 </r>
       <r>    2.3320    1.0000 </r>
       <r>    2.3320    1.0000 </r>
       <r>    2.3320    1.0000 </r>
       <r>    3.8621    1.0000 </r>
       <r>    3.8621    1.0000 </r>
       <r>    3.8621    1.0000 </r>
       <r>    3.9257    1.0000 </r>
       <r>    3.9257    1.0000 </r>
       <r>    3.9622    1.0000 </r>
       <r>    3.9622    1.0000 </r>
       <r>    3.9622    1.0000 </r>
       <r>    5.3666    1.0000 </r>
       <r>    5.3666    1.0000 </r>
       <r>    5.3666    1.0000 </r>
       <r>    5.6189    1.0019 </r>
       <r>    5.6189    1.0019 </r>
       <r>    5.6816    0.6850 </r>
       <r>    5.6816    0.6850 </r>
       <r>    5.6816    0.6850 </r>
       <r>    6.6672   -0.0000 </r>
       <r>    7.5977   -0.0000 </r>
       <r>    7.5977   -0.0000 </r>
       <r>    7.5977   -0.0000 </r>
      </set>
     </set>
    </set>
   </array>
  </eigenvalues>
  <separator name="orbital magnetization" >
   <v name="MAGDIPOLOUT">      0.00000000      0.00000000      0.00000000</v>
  </separator>
  <dos>
   <i name="efermi">      5.70403398 </i>
   <total>
    <array>
     <dimension dim="1">gridpoints</dimension>
     <dimension dim="2">spin</dimension>
     <field>energy</field>
     <field>total</field>
     <field>integrated</field>
     <set>
      <set comment="spin 1">
       <r>    -0.3631     0.0000     0.0000 </r>
       <r>    -0.3183     0.0000     0.0000 </r>
       <r>    -0.2734     0.0000     0.0000 </r>
       <r>    -0.2286     0.0000     0.0000 </r>
       <r>    -0.1837    -0.0000    -0.0000 </r>
       <r>    -0.1389    -0.0000    -0.0000 </r>
       <r>    -0.0940    -0.0000    -0.0000 </r>
       <r>    -0.0492    -0.0000    -0.0000 </r>
       <r>    -0.0043    -0.0000    -0.0000 </r>
       <r>     0.0405    -0.0000    -0.0000 </r>
       <r>     0.0854    -0.0000    -0.0000 </r>
       <r>     0.1302    -0.0000    -0.0000 </r>
       <r>     0.1751    -0.0000    -0.0000 </r>
       <r>     0.2199    -0.0000    -0.0000 </r>
       <r>     0.2648    -0.0000    -0.0000 </r>
       <r>     0.3096    -0.0000    -0.0000 </r>
       <r>     0.3545    -0.0002    -0.0000 </r>
       <r>     0.3993    -0.0012    -0.0001 </r>
       <r>     0.4442    -0.0056    -0.0003 </r>
       <r>     0.4890    -0.0129    -0.0009 </r>
       <r>     0.5339     0.0004    -0.0009 </r>
       <r>     0.5787     0.0811     0.0028 </r>
       <r>     0.6236     0.2089     0.0121 </r>
       <r>     0.6684     0.2524     0.0235 </r>
       <r>     0.7133     0.1498     0.0302 </r>
       <r>     0.7581     0.0094     0.0306 </r>
       <r>     0.8030    -0.0452     0.0286 </r>
       <r>     0.8478     0.0861     0.0324 </r>
       <r>     0.8927     0.4424     0.0523 </r>
       <r>     0.9375     0.7511     0.0860 </r>
       <r>     0.9824     0.6435     0.1148 </r>
       <r>     1.0272     0.2436     0.1257 </r>
       <r>     1.0721    -0.0268     0.1245 </r>
       <r>     1.1169     0.0328     0.1260 </r>
       <r>     1.1618     0.3858     0.1433 </r>
       <r>     1.2066     0.7302     0.1761 </r>
       <r>     1.2515     0.6677     0.2060 </r>
       <r>     1.2963     0.2701     0.2181 </r>
       <r>     1.3412    -0.0109     0.2176 </r>
       <r>     1.3860     0.1083     0.2225 </r>
       <r>     1.4309     0.5797     0.2485 </r>
       <r>     1.4757     0.9695     0.2920 </r>
       <r>     1.5206     0.8080     0.3282 </r>
       <r>     1.5654     0.2798     0.3408 </r>
       <r>     1.6103     0.0458     0.3428 </r>
       <r>     1.6551     0.4944     0.3650 </r>
       <r>     1.7000     1.2617     0.4216 </r>
       <r>     1.7448     1.4568     0.4869 </r>
       <r>     1.7897     0.9313     0.5287 </r>
       <r>     1.8345     0.5507     0.5534 </r>
       <r>     1.8794     0.6434     0.5823 </r>
       <r>     1.9242     0.6280     0.6104 </r>
       <r>     1.9691     0.2548     0.6218 </r>
       <r>     2.0139    -0.0714     0.6186 </r>
       <r>     2.0588     0.1373     0.6248 </r>
       <r>     2.1036     1.0654     0.6726 </r>
       <r>     2.1485     2.0408     0.7641 </r>
       <r>     2.1933     1.9942     0.8536 </r>
       <r>     2.2382     1.3490     0.9141 </r>
       <r>     2.2830     1.8500     0.9970 </r>
       <r>     2.3279     3.7432     1.1649 </r>
       <r>     2.3727     5.0964     1.3935 </r>
       <r>     2.4176     5.1948     1.6265 </r>
       <r>     2.4624     5.6348     1.8792 </r>
       <r>     2.5073     6.7323     2.1811 </r>
       <r>     2.5521     7.4943     2.5173 </r>
       <r>     2.5970     8.2267     2.8862 </r>
       <r>     2.6418     9.4319     3.3093 </r>
       <r>     2.6867    11.1960     3.8114 </r>
       <r>     2.7315    13.5258     4.4180 </r>
       <r>     2.7764    14.8654     5.0848 </r>
       <r>     2.8212    13.5878     5.6942 </r>
       <r>     2.8661    11.2063     6.1968 </r>
       <r>     2.9109    10.5219     6.6687 </r>
       <r>     2.9558    11.4215     7.1809 </r>
       <r>     3.0006    11.5098     7.6972 </r>
       <r>     3.0455    10.5057     8.1683 </r>
       <r>     3.0903    10.3411     8.6321 </r>
       <r>     3.1352    11.0098     9.1259 </r>
       <r>     3.1800    10.2962     9.5877 </r>
       <r>     3.2249     7.8431     9.9395 </r>
       <r>     3.2697     5.9422    10.2060 </r>
       <r>     3.3146     6.5480    10.4997 </r>
       <r>     3.3594     9.2644    10.9152 </r>
       <r>     3.4043    11.4856    11.4303 </r>
       <r>     3.4491    11.4588    11.9442 </r>
       <r>     3.4940    10.1987    12.4016 </r>
       <r>     3.5388     9.4432    12.8252 </r>
       <r>     3.5837     9.9246    13.2703 </r>
       <r>     3.6285    10.5145    13.7419 </r>
       <r>     3.6734     9.7350    14.1785 </r>
       <r>     3.7182     9.2660    14.5941 </r>
       <r>     3.7631    10.7050    15.0742 </r>
       <r>     3.8079    11.8771    15.6069 </r>
       <r>     3.8528    11.8156    16.1368 </r>
       <r>     3.8976    12.5647    16.7003 </r>
       <r>     3.9425    14.2223    17.3382 </r>
       <r>     3.9873    14.8837    18.0058 </r>
       <r>     4.0322    14.8720    18.6728 </r>
       <r>     4.0770    15.8319    19.3828 </r>
       <r>     4.1219    17.1762    20.1532 </r>
       <r>     4.1667    17.7987    20.9515 </r>
       <r>     4.2116    17.7990    21.7497 </r>
       <r>     4.2564    16.4659    22.4882 </r>
       <r>     4.3013    13.2776    23.0837 </r>
       <r>     4.3461    10.2886    23.5452 </r>
       <r>     4.3910     9.4551    23.9693 </r>
       <r>     4.4358    10.2945    24.4310 </r>
       <r>     4.4807    11.9040    24.9649 </r>
       <r>     4.5255    13.0060    25.5482 </r>
       <r>     4.5704    11.8062    26.0777 </r>
       <r>     4.6152     9.1294    26.4871 </r>
       <r>     4.6601     7.7837    26.8363 </r>
       <r>     4.7049     8.6667    27.2250 </r>
       <r>     4.7498    10.6273    27.7016 </r>
       <r>     4.7946    12.3491    28.2555 </r>
       <r>     4.8395    13.7789    28.8734 </r>
       <r>     4.8843    15.7138    29.5782 </r>
       <r>     4.9292    16.2684    30.3078 </r>
       <r>     4.9740    12.9740    30.8897 </r>
       <r>     5.0189     8.7624    31.2827 </r>
       <r>     5.0637     8.2317    31.6519 </r>
       <r>     5.1086    11.3437    32.1607 </r>
       <r>     5.1534    14.3734    32.8053 </r>
       <r>     5.1983    13.6672    33.4183 </r>
       <r>     5.2431     9.6749    33.8522 </r>
       <r>     5.2880     6.9832    34.1654 </r>
       <r>     5.3328     8.5102    34.5471 </r>
       <r>     5.3777    12.2412    35.0961 </r>
       <r>     5.4225    14.3304    35.7389 </r>
       <r>     5.4674    13.6199    36.3497 </r>
       <r>     5.5122    12.0117    36.8884 </r>
       <r>     5.5571    12.0834    37.4304 </r>
       <r>     5.6019    15.1453    38.1096 </r>
       <r>     5.6468    18.9481    38.9595 </r>
       <r>     5.6916    18.7629    39.8010 </r>
       <r>     5.7365    13.9883    40.4284 </r>
       <r>     5.7813     9.4905    40.8540 </r>
       <r>     5.8262     7.7481    41.2015 </r>
       <r>     5.8710     6.3299    41.4854 </r>
       <r>     5.9159     4.3238    41.6793 </r>
       <r>     5.9607     3.1298    41.8197 </r>
       <r>     6.0056     2.3148    41.9235 </r>
       <r>     6.0504     1.1042    41.9731 </r>
       <r>     6.0953     0.3329    41.9880 </r>
       <r>     6.1401     0.4305    42.0073 </r>
       <r>     6.1850     0.6340    42.0357 </r>
       <r>     6.2298     0.4809    42.0573 </r>
       <r>     6.2747     0.3840    42.0745 </r>
       <r>     6.3195     0.6201    42.1023 </r>
       <r>     6.3644     0.8788    42.1417 </r>
       <r>     6.4092     0.9342    42.1836 </r>
       <r>     6.4541     0.8492    42.2217 </r>
       <r>     6.4989     0.7555    42.2556 </r>
       <r>     6.5438     0.8186    42.2923 </r>
       <r>     6.5886     1.0633    42.3400 </r>
       <r>     6.6335     1.5309    42.4087 </r>
       <r>     6.6783     2.3351    42.5134 </r>
       <r>     6.7232     3.0276    42.6492 </r>
       <r>     6.7680     2.7321    42.7717 </r>
       <r>     6.8129     1.4479    42.8367 </r>
       <r>     6.8577     0.2257    42.8468 </r>
       <r>     6.9026    -0.0905    42.8427 </r>
       <r>     6.9474     0.6514    42.8719 </r>
       <r>     6.9923     1.8656    42.9556 </r>
       <r>     7.0371     2.2673    43.0573 </r>
       <r>     7.0820     1.3995    43.1201 </r>
       <r>     7.1268     0.3308    43.1349 </r>
       <r>     7.1717    -0.1005    43.1304 </r>
       <r>     7.2165    -0.1083    43.1255 </r>
       <r>     7.2614    -0.0686    43.1225 </r>
       <r>     7.3062    -0.0129    43.1219 </r>
       <r>     7.3511     0.1860    43.1302 </r>
       <r>     7.3959     0.4408    43.1500 </r>
       <r>     7.4408     0.5725    43.1757 </r>
       <r>     7.4856     1.1860    43.2289 </r>
       <r>     7.5305     3.0718    43.3666 </r>
       <r>     7.5753     4.9126    43.5870 </r>
       <r>     7.6202     4.4078    43.7847 </r>
       <r>     7.6650     2.1080    43.8792 </r>
       <r>     7.7099     0.5311    43.9030 </r>
       <r>     7.7547     0.4543    43.9234 </r>
       <r>     7.7996     1.0099    43.9687 </r>
       <r>     7.8444     1.5297    44.0373 </r>
       <r>     7.8893     1.5601    44.1073 </r>
       <r>     7.9341     0.9036    44.1478 </r>
       <r>     7.9790     0.1977    44.1567 </r>
       <r>     8.0238     0.2363    44.1673 </r>
       <r>     8.0687     0.9794    44.2112 </r>
       <r>     8.1135     1.5174    44.2792 </r>
       <r>     8.1584     1.1613    44.3313 </r>
       <r>     8.2032     0.3745    44.3481 </r>
       <r>     8.2481    -0.1001    44.3436 </r>
       <r>     8.2929    -0.1333    44.3377 </r>
       <r>     8.3378     0.2668    44.3496 </r>
       <r>     8.3826     1.1324    44.4004 </r>
       <r>     8.4275     1.9889    44.4896 </r>
       <r>     8.4723     2.2031    44.5884 </r>
       <r>     8.5172     1.9989    44.6781 </r>
       <r>     8.5620     1.9430    44.7652 </r>
       <r>     8.6069     1.7726    44.8447 </r>
       <r>     8.6517     1.0645    44.8925 </r>
       <r>     8.6966     0.3263    44.9071 </r>
       <r>     8.7414     0.3435    44.9225 </r>
       <r>     8.7863     0.9729    44.9661 </r>
       <r>     8.8311     1.3747    45.0278 </r>
       <r>     8.8760     1.6475    45.1017 </r>
       <r>     8.9208     2.6680    45.2213 </r>
       <r>     8.9657     3.6568    45.3853 </r>
       <r>     9.0105     3.0634    45.5227 </r>
       <r>     9.0554     1.5922    45.5942 </r>
       <r>     9.1002     0.7602    45.6282 </r>
       <r>     9.1451     0.4700    45.6493 </r>
       <r>     9.1899     0.1588    45.6565 </r>
       <r>     9.2348    -0.0786    45.6529 </r>
       <r>     9.2796     0.0617    45.6557 </r>
       <r>     9.3245     0.7114    45.6876 </r>
       <r>     9.3693     1.4298    45.7517 </r>
       <r>     9.4142     1.4116    45.8150 </r>
       <r>     9.4591     0.6921    45.8461 </r>
       <r>     9.5039     0.0771    45.8495 </r>
       <r>     9.5488    -0.1186    45.8442 </r>
       <r>     9.5936    -0.1359    45.8381 </r>
       <r>     9.6385    -0.0372    45.8365 </r>
       <r>     9.6833     0.4010    45.8544 </r>
       <r>     9.7282     1.1758    45.9072 </r>
       <r>     9.7730     2.0910    46.0010 </r>
       <r>     9.8179     3.2901    46.1485 </r>
       <r>     9.8627     4.3250    46.3425 </r>
       <r>     9.9076     3.8218    46.5139 </r>
       <r>     9.9524     1.8802    46.5982 </r>
       <r>     9.9973     0.2737    46.6105 </r>
       <r>    10.0421    -0.2154    46.6008 </r>
       <r>    10.0870    -0.1676    46.5933 </r>
       <r>    10.1318    -0.0597    46.5907 </r>
       <r>    10.1767     0.1449    46.5971 </r>
       <r>    10.2215     0.4798    46.6187 </r>
       <r>    10.2664     0.7075    46.6504 </r>
       <r>    10.3112     0.8616    46.6890 </r>
       <r>    10.3561     1.3438    46.7493 </r>
       <r>    10.4009     1.8959    46.8343 </r>
       <r>    10.4458     1.7405    46.9124 </r>
       <r>    10.4906     0.9731    46.9560 </r>
       <r>    10.5355     0.5698    46.9816 </r>
       <r>    10.5803     0.9965    47.0263 </r>
       <r>    10.6252     1.4722    47.0923 </r>
       <r>    10.6700     1.1450    47.1437 </r>
       <r>    10.7149     0.3712    47.1603 </r>
       <r>    10.7597    -0.0996    47.1559 </r>
       <r>    10.8046    -0.0729    47.1526 </r>
       <r>    10.8494     0.4533    47.1729 </r>
       <r>    10.8943     1.2402    47.2285 </r>
       <r>    10.9391     1.5017    47.2959 </r>
       <r>    10.9840     0.9145    47.3369 </r>
       <r>    11.0288     0.2646    47.3488 </r>
       <r>    11.0737     0.2582    47.3604 </r>
       <r>    11.1185     0.6271    47.3885 </r>
       <r>    11.1634     0.7049    47.4201 </r>
       <r>    11.2082     0.3541    47.4360 </r>
       <r>    11.2531    -0.0391    47.4342 </r>
       <r>    11.2979    -0.1448    47.4277 </r>
       <r>    11.3428     0.3434    47.4431 </r>
       <r>    11.3876     1.5861    47.5143 </r>
       <r>    11.4325     2.7600    47.6381 </r>
       <r>    11.4773     2.6069    47.7550 </r>
       <r>    11.5222     1.3137    47.8139 </r>
       <r>    11.5670     0.2145    47.8235 </r>
       <r>    11.6119    -0.1270    47.8178 </r>
       <r>    11.6567    -0.0885    47.8139 </r>
       <r>    11.7016    -0.0255    47.8127 </r>
       <r>    11.7464    -0.0043    47.8125 </r>
       <r>    11.7913    -0.0008    47.8125 </r>
       <r>    11.8361    -0.0034    47.8123 </r>
       <r>    11.8810    -0.0194    47.8115 </r>
       <r>    11.9258    -0.0617    47.8087 </r>
       <r>    11.9707    -0.0634    47.8059 </r>
       <r>    12.0155     0.2306    47.8162 </r>
       <r>    12.0604     0.9507    47.8588 </r>
       <r>    12.1052     1.5230    47.9271 </r>
       <r>    12.1501     1.2546    47.9834 </r>
       <r>    12.1949     0.4868    48.0052 </r>
       <r>    12.2398     0.0027    48.0054 </r>
       <r>    12.2846    -0.0776    48.0019 </r>
       <r>    12.3295    -0.0337    48.0004 </r>
       <r>    12.3743    -0.0073    48.0000 </r>
       <r>    12.4192    -0.0009    48.0000 </r>
       <r>    12.4640    -0.0001    48.0000 </r>
       <r>    12.5089    -0.0000    48.0000 </r>
       <r>    12.5537    -0.0000    48.0000 </r>
       <r>    12.5986    -0.0000    48.0000 </r>
       <r>    12.6434    -0.0000    48.0000 </r>
       <r>    12.6883    -0.0000    48.0000 </r>
       <r>    12.7331    -0.0000    48.0000 </r>
       <r>    12.7780     0.0000    48.0000 </r>
       <r>    12.8228     0.0000    48.0000 </r>
       <r>    12.8677     0.0000    48.0000 </r>
       <r>    12.9125     0.0000    48.0000 </r>
       <r>    12.9574     0.0000    48.0000 </r>
       <r>    13.0022     0.0000    48.0000 </r>
       <r>    13.0471     0.0000    48.0000 </r>
       <r>    13.0919     0.0000    48.0000 </r>
      </set>
     </set>
    </array>
   </total>
  </dos>
 </calculation>
 <structure name="finalpos" >
  <crystal>
   <varray name="basis" >
    <v>       4.27900000       0.00000000       0.00000000 </v>
    <v>       0.00000000       4.27900000       0.00000000 </v>
    <v>       0.00000000       0.00000000       4.27900000 </v>
   </varray>
   <i name="volume">     78.34780964 </i>
   <varray name="rec_basis" >
    <v>       0.23369946       0.00000000       0.00000000 </v>
    <v>       0.00000000       0.23369946       0.00000000 </v>
    <v>       0.00000000       0.00000000       0.23369946 </v>
   </varray>
  </crystal>
  <varray name="positions" >
   <v>       0.00000000       0.00000000       0.00000000 </v>
   <v>       0.00000000       0.50000000       0.50000000 </v>
   <v>       0.50000000       0.00000000       0.50000000 </v>
   <v>       0.50000000       0.50000000       0.00000000 </v>
  </varray>
 </structure>
</modeling>
