----- GAMESS execution script 'rungms' -----
This job is running on host crcfe02.crc.nd.edu
under operating system Linux at Sun Sep 29 10:54:58 EDT 2019
Available scratch disk space (Kbyte units) at beginning of the job is
Filesystem      1K-blocks  Used  Available Use% Mounted on
AFS            2147483647     0 2147483647   0% /afs
GAMESS temporary binary files will be written to /afs/crc.nd.edu/user/c/cdrisko
GAMESS supplementary output files will be written to /afs/crc.nd.edu/user/c/cdrisko/scr
Copying input file SO2.inp to your run's scratch directory...

 Distributed Data Interface kickoff program.
 Initiating 1 compute processes on 1 nodes to run the following command:
 /afs/crc.nd.edu/x86_64_linux/g/gamess/nov-2017/gamess/gamess.00.x SO2 

          ******************************************************
          *         GAMESS VERSION = 11 NOV 2017 (R3)         *
          *             FROM IOWA STATE UNIVERSITY             *
          * M.W.SCHMIDT, K.K.BALDRIDGE, J.A.BOATZ, S.T.ELBERT, *
          *   M.S.GORDON, J.H.JENSEN, S.KOSEKI, N.MATSUNAGA,   *
          *          K.A.NGUYEN, S.J.SU, T.L.WINDUS,           *
          *       TOGETHER WITH M.DUPUIS, J.A.MONTGOMERY       *
          *         J.COMPUT.CHEM.  14, 1347-1363(1993)        *
          **************** 64 BIT INTEL VERSION ****************

  SINCE 1993, STUDENTS AND POSTDOCS WORKING AT IOWA STATE UNIVERSITY
  AND ALSO IN THEIR VARIOUS JOBS AFTER LEAVING ISU HAVE MADE IMPORTANT
  CONTRIBUTIONS TO THE CODE:
     IVANA ADAMOVIC, CHRISTINE AIKENS, YURI ALEXEEV, POOJA ARORA,
     ANDREY ASADCHEV, ROB BELL, PRADIPTA BANDYOPADHYAY, JONATHAN BENTZ,
     BRETT BODE, KURT BRORSEN, CALEB CARLIN, GALINA CHABAN, WEI CHEN,
     CHEOL HO CHOI, PAUL DAY, ALBERT DEFUSCO, NUWAN DESILVA, TIM DUDLEY,
     DMITRI FEDOROV, ALEX FINDLATER, GRAHAM FLETCHER, MARK FREITAG,
     KURT GLAESEMANN, ANASTASIA GUININA,
     DAN KEMP, GRANT MERRILL, NORIYUKI MINEZAWA, JONATHAN MULLIN,
     TAKESHI NAGATA, SEAN NEDD, HEATHER NETZLOFF, BOSILJKA NJEGIC, RYAN OLSON,
     MIKE PAK, BUU PHAM,
     SPENCER PRUITT, LUKE ROSKOP, JIM SHOEMAKER, LYUDMILA SLIPCHENKO,
     TONY SMITH, SAROM SOK LEANG, JIE SONG, TETSUYA TAKETSUGU, SIMON WEBB,
     PENG XU, SOOHAENG YOO, FEDERICO ZAHARIEV

  ADDITIONAL CODE HAS BEEN PROVIDED BY COLLABORATORS IN OTHER GROUPS:
     IOWA STATE UNIVERSITY:
          JOE IVANIC, AARON WEST, LAIMUTIS BYTAUTAS, KLAUS RUEDENBERG
     UNIVERSITY OF TOKYO: KIMIHIKO HIRAO, TAKAHITO NAKAJIMA,
          TAKAO TSUNEDA, MUNEAKI KAMIYA, SUSUMU YANAGISAWA,
          KIYOSHI YAGI, MAHITO CHIBA, SEIKEN TOKURA, NAOAKI KAWAKAMI
     UNIVERSITY OF AARHUS: FRANK JENSEN
     UNIVERSITY OF IOWA: VISVALDAS KAIRYS, HUI LI
     NATIONAL INST. OF STANDARDS AND TECHNOLOGY: WALT STEVENS, DAVID GARMER
     UNIVERSITY OF PISA: BENEDETTA MENNUCCI, JACOPO TOMASI
     UNIVERSITY OF MEMPHIS: HENRY KURTZ, PRAKASHAN KORAMBATH
     UNIVERSITY OF ALBERTA: TOBY ZENG, MARIUSZ KLOBUKOWSKI
     UNIVERSITY OF NEW ENGLAND: MARK SPACKMAN
     MIE UNIVERSITY: HIROAKI UMEDA
     NAT. INST. OF ADVANCED INDUSTRIAL SCIENCE AND TECHNOLOGY: KAZUO KITAURA
     MICHIGAN STATE UNIVERSITY:
          KAROL KOWALSKI, MARTA WLOCH, JEFFREY GOUR, JESSE LUTZ,
          WEI LI, PIOTR PIECUCH
     UNIVERSITY OF SILESIA: MONIKA MUSIAL, STANISLAW KUCHARSKI
     FACULTES UNIVERSITAIRES NOTRE-DAME DE LA PAIX:
          OLIVIER QUINET, BENOIT CHAMPAGNE
     UNIVERSITY OF CALIFORNIA - SANTA BARBARA: BERNARD KIRTMAN
     INSTITUTE FOR MOLECULAR SCIENCE:
          KAZUYA ISHIMURA, MICHIO KATOUDA, AND SHIGERU NAGASE
     UNIVERSITY OF NOTRE DAME: ANNA POMOGAEVA, DAN CHIPMAN
     KYUSHU UNIVERSITY:
          HARUYUKI NAKANO,
          FENG LONG GU, JACEK KORCHOWIEC, MARCIN MAKOWSKI, AND YURIKO AOKI,
          HIROTOSHI MORI AND EISAKU MIYOSHI
     PENNSYLVANIA STATE UNIVERSITY:
          TZVETELIN IORDANOV, CHET SWALINA, JONATHAN SKONE,
          SHARON HAMMES-SCHIFFER
     WASEDA UNIVERSITY:
          MASATO KOBAYASHI, TOMOKO AKAMA, TSUGUKI TOUMA,
          TAKESHI YOSHIKAWA, YASUHIRO IKABATA, JUNJI SEINO,
          YUYA NAKAJIMA, HIROMI NAKAI
     NANJING UNIVERSITY: SHUHUA LI
     UNIVERSITY OF NEBRASKA:
          PEIFENG SU, DEJUN SI, NANDUN THELLAMUREGE, YALI WANG, HUI LI
     UNIVERSITY OF ZURICH: ROBERTO PEVERATI, KIM BALDRIDGE
     N. COPERNICUS UNIVERSITY AND JACKSON STATE UNIVERSITY:
          MARIA BARYSZ
     UNIVERSITY OF COPENHAGEN: Jimmy Kromann, CASPER STEINMANN
     TOKYO INSTITUTE OF TECHNOLOGY: HIROYA NAKATA
     NAGOYA UNIVERSITY: YOSHIO NISHIMOTO, STEPHAN IRLE
     MOSCOW STATE UNIVERSITY: VLADIMIR MIRONOV

 EXECUTION OF GAMESS BEGUN Sun Sep 29 10:54:59 2019

            ECHO OF THE FIRST FEW INPUT CARDS -
 INPUT CARD> $BASIS GBASIS=PCSEG-1 $END                                                     
 INPUT CARD> $CONTRL COORD=ZMT ISPHER=1 RUNTYP=ENERGY DFTTYP=PBE MULT=1 $END                
 INPUT CARD>                                                                                
 INPUT CARD> $DATA                                                                          
 INPUT CARD>Title SO2 single-point calculation template with Z-Matrix                       
 INPUT CARD>C1                                                                              
 INPUT CARD>S                                                                               
 INPUT CARD>O 1 1.75                                                                        
 INPUT CARD>O 1 1.75 2 90                                                                   
 INPUT CARD> $END                                                                           
    1000000 WORDS OF MEMORY AVAILABLE

     BASIS OPTIONS
     -------------
     GBASIS=PCSEG-1      IGAUSS=       0      POLAR=NONE    
     NDFUNC=       0     NFFUNC=       0     DIFFSP=       F
     NPFUNC=       0      DIFFS=       F     BASNAM=        


     RUN TITLE
     ---------
 Title SO2 single-point calculation template with Z-Matrix                       

 THE POINT GROUP OF THE MOLECULE IS C1      
 THE ORDER OF THE PRINCIPAL AXIS IS     0

 YOUR FULLY SUBSTITUTED Z-MATRIX IS
 S   
 O      1   1.7500000
 O      1   1.7500000  2   90.0000

 THE MOMENTS OF INERTIA ARE (AMU-ANGSTROM**2)
 IXX=    24.485   IYY=    48.984   IZZ=    73.470

 ATOM      ATOMIC                      COORDINATES (BOHR)
           CHARGE         X                   Y                   Z
 S          16.0     0.0000000000       -1.1695327688        0.0000000000
 O           8.0     2.3384166059        1.1688838371        0.0000000000
 O           8.0    -2.3384166059        1.1688838371        0.0000000000

          INTERNUCLEAR DISTANCES (ANGS.)
          ------------------------------

                1 S          2 O          3 O     

   1 S       0.0000000    1.7500000 *  1.7500000 *
   2 O       1.7500000 *  0.0000000    2.4748737 *
   3 O       1.7500000 *  2.4748737 *  0.0000000  

  * ... LESS THAN  3.000


     ATOMIC BASIS SET
     ----------------
 THE CONTRACTED PRIMITIVE FUNCTIONS HAVE BEEN UNNORMALIZED
 THE CONTRACTED BASIS FUNCTIONS ARE NOW NORMALIZED TO UNITY

  SHELL TYPE  PRIMITIVE        EXPONENT          CONTRACTION COEFFICIENT(S)

 S         

      1   S       1         49299.4000000    0.000677492991
      1   S       2          7395.8400000    0.005232317766
      1   S       3          1683.3000000    0.026769459077
      1   S       4           476.1440000    0.102869580705
      1   S       5           154.3290000    0.286438127414
      1   S       6            55.0288000    0.454278639081
      1   S       7            20.5029000    0.271743121997

      2   S       8            45.9596000   -0.088421914560
      2   S       9             4.9274000    0.564350486135
      2   S      10             1.9179900    0.505415953466

      3   S      11             0.3684980    1.000000000000

      4   S      12             0.1291650    1.000000000000

      5   P      13           451.6620000    0.003707705453
      5   P      14           106.0980000    0.029219352245
      5   P      15            33.6996000    0.124444551509
      5   P      16            12.3054000    0.321808587656
      5   P      17             4.7141200    0.462822172957
      5   P      18             1.7810500    0.266513371364

      6   P      19             0.8722350    0.349265132972
      6   P      20             0.3102780    0.717115018770

      7   P      21             0.1001940    1.000000000000

      8   D      22             0.5500000    1.000000000000

 O         

      9   S      23          2288.6400000    0.005451138222
      9   S      24           344.4160000    0.040718922842
      9   S      25            78.2538000    0.181369420873
      9   S      26            21.7195000    0.465536820246
      9   S      27             6.5590700    0.451211321214

     10   S      28            10.4656000   -0.150211201174
     10   S      29             0.9643510    1.052867983385

     11   S      30             0.2851270    1.000000000000

     12   P      31            17.0590000    0.068749256972
     12   P      32             3.6899900    0.351671941499
     12   P      33             0.9929960    0.724532099722

     13   P      34             0.2449240    1.000000000000

     14   D      35             1.0000000    1.000000000000

 O         

     15   S      36          2288.6400000    0.005451138222
     15   S      37           344.4160000    0.040718922842
     15   S      38            78.2538000    0.181369420873
     15   S      39            21.7195000    0.465536820246
     15   S      40             6.5590700    0.451211321214

     16   S      41            10.4656000   -0.150211201174
     16   S      42             0.9643510    1.052867983385

     17   S      43             0.2851270    1.000000000000

     18   P      44            17.0590000    0.068749256972
     18   P      45             3.6899900    0.351671941499
     18   P      46             0.9929960    0.724532099722

     19   P      47             0.2449240    1.000000000000

     20   D      48             1.0000000    1.000000000000

 TOTAL NUMBER OF BASIS SET SHELLS             =   20
 NUMBER OF CARTESIAN GAUSSIAN BASIS FUNCTIONS =   49
 NOTE: THIS RUN WILL RESTRICT THE MO VARIATION SPACE TO SPHERICAL HARMONICS.
 THE NUMBER OF ORBITALS KEPT IN THE VARIATIONAL SPACE WILL BE PRINTED LATER.
 NUMBER OF ELECTRONS                          =   32
 CHARGE OF MOLECULE                           =    0
 SPIN MULTIPLICITY                            =    1
 NUMBER OF OCCUPIED ORBITALS (ALPHA)          =   16
 NUMBER OF OCCUPIED ORBITALS (BETA )          =   16
 TOTAL NUMBER OF ATOMS                        =    3
 THE NUCLEAR REPULSION ENERGY IS       91.0955453567

     LEBEDEV GRID-BASED DFT OPTIONS
     ------------------------------
     DFTTYP=PBE     
     NRAD  =      96     NLEB  =     302
     NRAD0 =      24     NLEB0 =     110
     SWOFF =    5.00E-03 (PURE SCF -> DFT)
     SWITCH=    3.00E-04 (COARSE -> TIGHT GRID)
     THRESH=    0.00E+00 GTHRE=    1.00E+00

 GRIMME'S EMPIRICAL DISPERSION CORRECTION= F

     $CONTRL OPTIONS
     ---------------
 SCFTYP=RHF          RUNTYP=ENERGY       EXETYP=RUN     
 MPLEVL=       0     CITYP =NONE         CCTYP =NONE         VBTYP =NONE    
 DFTTYP=PBE          TDDFT =NONE    
 MULT  =       1     ICHARG=       0     NZVAR =       0     COORD =ZMT     
 PP    =NONE         RELWFN=NONE         LOCAL =NONE         NUMGRD=       F
 ISPHER=       1     NOSYM =       0     MAXIT =      30     UNITS =ANGS    
 PLTORB=       F     MOLPLT=       F     AIMPAC=       F     FRIEND=        
 NPRINT=       7     IREST =       0     GEOM  =INPUT   
 NORMF =       0     NORMP =       0     ITOL  =      20     ICUT  =       9
 INTTYP=BEST         GRDTYP=BEST         QMTTOL= 1.0E-06

     $SYSTEM OPTIONS
     ---------------
  REPLICATED MEMORY=     1000000 WORDS (ON EVERY NODE).
 DISTRIBUTED MEMDDI=           0 MILLION WORDS IN AGGREGATE,
 MEMDDI DISTRIBUTED OVER   1 PROCESSORS IS           0 WORDS/PROCESSOR.
 TOTAL MEMORY REQUESTED ON EACH PROCESSOR=     1000000 WORDS.
 TIMLIM=      525600.00 MINUTES, OR     365.0 DAYS.
 PARALL= F  BALTYP=  DLB     KDIAG=    0  COREFL= F
 MXSEQ2=     300 MXSEQ3=     150  mem10=         0

          ----------------
          PROPERTIES INPUT
          ----------------

     MOMENTS            FIELD           POTENTIAL          DENSITY
 IEMOM =       1   IEFLD =       0   IEPOT =       0   IEDEN =       0
 WHERE =COMASS     WHERE =NUCLEI     WHERE =NUCLEI     WHERE =NUCLEI  
 OUTPUT=BOTH       OUTPUT=BOTH       OUTPUT=BOTH       OUTPUT=BOTH    
 IEMINT=       0   IEFINT=       0                     IEDINT=       0
                                                       MORB  =       0
          EXTRAPOLATION IN EFFECT
          DIIS IN EFFECT
 ORBITAL PRINTING OPTION: NPREO=     1    49     2     1

     -------------------------------
     INTEGRAL TRANSFORMATION OPTIONS
     -------------------------------
     NWORD  =            0
     CUTOFF = 1.0E-09     MPTRAN =       0
     DIRTRF =       F     AOINTS =DUP     

          ----------------------
          INTEGRAL INPUT OPTIONS
          ----------------------
 NOPK  =       1 NORDER=       0 SCHWRZ=       F

   --- ENCODED Z MATRIX ---
 COORD  TYPE   I   J   K   L   M   N
    1      1    2   1
    2      1    3   1
    3      2    3   1   2

 THE DETERMINANT OF THE G MATRIX IS 10**(    -4)

 THE DETERMINANT OF THE G MATRIX IS 10**(    -4)
 * * * WARNING * * *
 YOUR B MATRIX HAS A SMALL DETERMINANT.
 THIS SUGGESTS YOU MAY HAVE BADLY CHOSEN COORDINATES.

     ------------------------------------------
     THE POINT GROUP IS C1 , NAXIS= 0, ORDER= 1
     ------------------------------------------

 -- VARIATIONAL SPACE WILL BE RESTRICTED TO PURE SPHERICAL HARMONICS ONLY --
 AFTER EXCLUDING CONTAMINANT COMBINATIONS FROM THE CARTESIAN GAUSSIAN BASIS
 SET, THE NUMBER OF SPHERICAL HARMONICS KEPT IN THE VARIATION SPACE IS   46

     DIMENSIONS OF THE SYMMETRY SUBSPACES ARE
 A   =   46

 ..... DONE SETTING UP THE RUN .....
 STEP CPU TIME =     0.04 TOTAL CPU TIME =          0.0 (      0.0 MIN)
 TOTAL WALL CLOCK TIME=          0.0 SECONDS, CPU UTILIZATION IS    80.00%

          ********************
          1 ELECTRON INTEGRALS
          ********************
 ...... END OF ONE-ELECTRON INTEGRALS ......
 STEP CPU TIME =     0.01 TOTAL CPU TIME =          0.0 (      0.0 MIN)
 TOTAL WALL CLOCK TIME=          0.0 SECONDS, CPU UTILIZATION IS   100.00%

          -------------
          GUESS OPTIONS
          -------------
          GUESS =HUCKEL            NORB  =       0          NORDER=       0
          MIX   =       F          PRTMO =       F          PUNMO =       F
          TOLZ  = 1.0E-08          TOLE  = 1.0E-05
          SYMDEN=       F          PURIFY=       F

 INITIAL GUESS ORBITALS GENERATED BY HUCKEL   ROUTINE.
 HUCKEL GUESS REQUIRES     21634 WORDS.

 STATISTICS FOR GENERATION OF SYMMETRY ORBITAL -Q- MATRIX
 NUMBER OF CARTESIAN ATOMIC ORBITALS=         49
 NUMBER OF SPHERICAL CONTAMINANTS DROPPED=     3
 NUMBER OF LINEARLY DEPENDENT MOS DROPPED=     0
 TOTAL NUMBER OF MOS IN VARIATION SPACE=      46

 SYMMETRIES FOR INITIAL GUESS ORBITALS FOLLOW.   BOTH SET(S).
    16 ORBITALS ARE OCCUPIED (    7 CORE ORBITALS).
     8=A        9=A       10=A       11=A       12=A       13=A       14=A   
    15=A       16=A       17=A       18=A       19=A       20=A       21=A   
    22=A       23=A       24=A       25=A       26=A   
 ...... END OF INITIAL ORBITAL SELECTION ......
 STEP CPU TIME =     0.00 TOTAL CPU TIME =          0.0 (      0.0 MIN)
 TOTAL WALL CLOCK TIME=          0.1 SECONDS, CPU UTILIZATION IS    83.33%

                    ----------------------
                    AO INTEGRAL TECHNOLOGY
                    ----------------------
     S,P,L SHELL ROTATED AXIS INTEGRALS, REPROGRAMMED BY
        KAZUYA ISHIMURA (IMS) AND JOSE SIERRA (SYNSTAR).
     S,P,D,L SHELL ROTATED AXIS INTEGRALS PROGRAMMED BY
        KAZUYA ISHIMURA (INSTITUTE FOR MOLECULAR SCIENCE).
     S,P,D,F,G SHELL TO TOTAL QUARTET ANGULAR MOMENTUM SUM 5,
        ERIC PROGRAM BY GRAHAM FLETCHER (ELORET AND NASA ADVANCED
        SUPERCOMPUTING DIVISION, AMES RESEARCH CENTER).
     S,P,D,F,G,L SHELL GENERAL RYS QUADRATURE PROGRAMMED BY
        MICHEL DUPUIS (PACIFIC NORTHWEST NATIONAL LABORATORY).

          --------------------
          2 ELECTRON INTEGRALS
          --------------------

 THE -PK- OPTION IS OFF, THE INTEGRALS ARE NOT IN SUPERMATRIX FORM.
 STORING   15000 INTEGRALS/RECORD ON DISK, USING 12 BYTES/INTEGRAL.
 TWO ELECTRON INTEGRAL EVALUATION REQUIRES   90606 WORDS OF MEMORY.
 II,JST,KST,LST =  1  1  1  1 NREC =         1 INTLOC =    1
 II,JST,KST,LST =  2  1  1  1 NREC =         1 INTLOC =    2
 II,JST,KST,LST =  3  1  1  1 NREC =         1 INTLOC =    7
 II,JST,KST,LST =  4  1  1  1 NREC =         1 INTLOC =   22
 II,JST,KST,LST =  5  1  1  1 NREC =         1 INTLOC =   56
 II,JST,KST,LST =  6  1  1  1 NREC =         1 INTLOC =  125
 II,JST,KST,LST =  7  1  1  1 NREC =         1 INTLOC =  329
 II,JST,KST,LST =  8  1  1  1 NREC =         1 INTLOC =  776
 II,JST,KST,LST =  9  1  1  1 NREC =         1 INTLOC = 2864
 II,JST,KST,LST = 10  1  1  1 NREC =         1 INTLOC = 4795
 II,JST,KST,LST = 11  1  1  1 NREC =         1 INTLOC = 7442
 II,JST,KST,LST = 12  1  1  1 NREC =         1 INTLOC =10544
 II,JST,KST,LST = 13  1  1  1 NREC =         2 INTLOC = 6354
 II,JST,KST,LST = 14  1  1  1 NREC =         3 INTLOC = 6557
 II,JST,KST,LST = 15  1  1  1 NREC =         6 INTLOC = 8248
 II,JST,KST,LST = 16  1  1  1 NREC =         7 INTLOC =  262
 II,JST,KST,LST = 17  1  1  1 NREC =         7 INTLOC =11909
 II,JST,KST,LST = 18  1  1  1 NREC =         8 INTLOC =10272
 II,JST,KST,LST = 19  1  1  1 NREC =        11 INTLOC = 5439
 II,JST,KST,LST = 20  1  1  1 NREC =        14 INTLOC =12451
 TOTAL NUMBER OF NONZERO TWO-ELECTRON INTEGRALS =              339901
         23 INTEGRAL RECORDS WERE STORED ON DISK FILE  8.
  ...... END OF TWO-ELECTRON INTEGRALS .....
 STEP CPU TIME =     0.11 TOTAL CPU TIME =          0.2 (      0.0 MIN)
 TOTAL WALL CLOCK TIME=          0.2 SECONDS, CPU UTILIZATION IS   100.00%

          --------------------------
               R-PBE SCF CALCULATION
          --------------------------

     NUCLEAR ENERGY =        91.0955453567
     MAXIT =   30     NPUNCH=    2
     EXTRAP=T  DAMP=F  SHIFT=F  RSTRCT=F  DIIS=T  DEM=F  SOSCF=F
         DENSITY MATRIX CONVERGENCE THRESHOLD=  1.00E-05
     COARSE -> FINE DFT GRID SWITCH THRESHOLD=  3.00E-04 (SWITCH IN $DFT)
                   HF -> DFT SWITCH THRESHOLD=  5.00E-03 (SWOFF IN $DFT)
     MEMORY REQUIRED FOR RHF ITERS=    183108 WORDS.

 DFT CODE IS SWITCHING FROM THE FINE GRID NRAD= 96,  NLEB=  302
                      TO THE COARSE GRID NRAD0= 24, NLEB0=  110

     EXCHANGE FUNCTIONAL   =PBE       
     CORRELATION FUNCTIONAL=PBE       
     DFT THRESHOLD         =.460E-07
     GRID CHANGE THRESHOLD =.300E-03
 FOR AN EULER-MACLAURIN QUADRATURE USING  96 RADIAL POINTS:
 SMALLEST GAUSSIAN PRIMITIVE EXPONENT=        0.1001940000 OF TYPE -P-
 ON ATOM NUMBER   1 HAS RADIAL NORMALIZATION=  1.000000
  LARGEST GAUSSIAN PRIMITIVE EXPONENT=    49299.4000000000 OF TYPE -S-
 ON ATOM NUMBER   1 HAS RADIAL NORMALIZATION=  1.000000
 DFT IS SWITCHED OFF, PERFORMING PURE SCF UNTIL SWOFF THRESHOLD IS REACHED.

 ITER EX DEM     TOTAL ENERGY        E CHANGE  DENSITY CHANGE    DIIS ERROR
   1  0  0     -545.8612586273  -545.8612586273   0.878138095   0.920883958
          * * *   INITIATING DIIS PROCEDURE   * * *
   2  1  0     -546.1292035875    -0.2679449601   1.009877491   0.430049575
   3  2  0     -545.9001105301     0.2290930574   0.432508639   0.535710397
   4  3  0     -546.9102932166    -1.0101826865   0.050170694   0.014089072
   5  4  0     -546.9130646424    -0.0027714259   0.017403987   0.012652961
   6  5  0     -546.9138381071    -0.0007734647   0.010451927   0.004989806
   7  6  0     -546.9140832755    -0.0002451684   0.005997284   0.001526433
   8  7  0     -546.9141410341    -0.0000577586   0.005691500   0.000974789
   9  8  0     -546.9141623532    -0.0000213191   0.003381312   0.000432312
 CONVERGED TO SWOFF, SO DFT CALCULATION IS NOW SWITCHED ON.
          * * *   INITIATING DIIS PROCEDURE   * * *
  10  9  0     -548.0831055926    -1.1689432394   0.558098789   0.096500758
  11 10  0     -548.0410223684     0.0420832242   0.499288059   0.179037739
  12 11  0     -548.0480132419    -0.0069908735   0.159236955   0.183973195
  13 12  0     -548.1322907339    -0.0842774921   0.035850494   0.015491184
  14 13  0     -548.1334318377    -0.0011411038   0.003354361   0.002296367
  15 14  0     -548.1334447735    -0.0000129358   0.003236390   0.000703804
  16 15  0     -548.1334212270     0.0000235466   0.002735107   0.004179386
  17 16  0     -548.1334466379    -0.0000254109   0.000051495   0.000055941
 DFT CODE IS SWITCHING BACK TO THE FINE GRID
          * * *   INITIATING DIIS PROCEDURE   * * *
  18 17  0     -548.1470278227    -0.0135811848   0.023934866   0.013586694
  19 18  0     -548.1471497397    -0.0001219170   0.041926407   0.010263758
  20 19  0     -548.1460858094     0.0010639302   0.029420522   0.023484906
  21 20  0     -548.1474463079    -0.0013604985   0.000599113   0.000737786
  22 21  0     -548.1474474802    -0.0000011723   0.001171138   0.000280414
  23 22  0     -548.1474443155     0.0000031648   0.000988053   0.001518411
  24 23  0     -548.1474476479    -0.0000033325   0.000071964   0.000019359
  25 24  0     -548.1474476501    -0.0000000022   0.000014124   0.000009611
  26 25  0     -548.1474476502    -0.0000000002   0.000000482   0.000000287
  27 26  0     -548.1474476502    -0.0000000000   0.000000034   0.000000034

          -----------------
          DENSITY CONVERGED
          -----------------
     TIME TO FORM FOCK OPERATORS=       2.7 SECONDS (       0.1 SEC/ITER)
     TIME TO SOLVE SCF EQUATIONS=       0.0 SECONDS (       0.0 SEC/ITER)

 FINAL R-PBE ENERGY IS     -548.1474476502 AFTER  27 ITERATIONS
 DFT EXCHANGE + CORRELATION ENERGY =       -42.2264460465
 TOTAL ELECTRON NUMBER             =        31.9999843178

          ------------
          EIGENVECTORS
          ------------

                      1          2          3          4          5
                  -88.2259   -18.8110   -18.8110    -7.8426    -5.8681
                     A          A          A          A          A   
    1  S  1  S    0.997765  -0.000006  -0.000000  -0.308405  -0.000000
    2  S  1  S    0.008194   0.000006   0.000000   1.031824   0.000000
    3  S  1  S   -0.002833  -0.001567  -0.000036   0.027683   0.000000
    4  S  1  S    0.001216   0.007179   0.000167  -0.006295  -0.000000
    5  S  1  X   -0.000000   0.000004  -0.000158  -0.000000   0.994769
    6  S  1  Y    0.000097  -0.000197  -0.000005   0.006658  -0.000002
    7  S  1  Z    0.000000   0.000000   0.000000   0.000000   0.000000
    8  S  1  X    0.000000  -0.000031   0.001324  -0.000000   0.016740
    9  S  1  Y   -0.000208   0.001432   0.000033   0.000666  -0.000000
   10  S  1  Z    0.000000   0.000000   0.000000   0.000000   0.000000
   11  S  1  X    0.000000  -0.000055   0.002363  -0.000000  -0.002887
   12  S  1  Y    0.000111   0.003695   0.000086  -0.000219   0.000000
   13  S  1  Z    0.000000   0.000000   0.000000   0.000000   0.000000
   14  S  1 XX   -0.000035   0.000443   0.000010   0.000215  -0.000000
   15  S  1 YY   -0.000021   0.000514   0.000012   0.000057  -0.000000
   16  S  1 ZZ    0.000055  -0.000957  -0.000022  -0.000273   0.000000
   17  S  1 XY    0.000000  -0.000024   0.001038  -0.000000   0.000892
   18  S  1 XZ    0.000000   0.000000   0.000000   0.000000   0.000000
   19  S  1 YZ    0.000000   0.000000   0.000000   0.000000   0.000000
   20  O  2  S   -0.000004   0.685838   0.718453   0.000026  -0.000025
   21  O  2  S   -0.000047   0.022970   0.023781  -0.000021  -0.000015
   22  O  2  S   -0.000018  -0.011016  -0.009834   0.000069  -0.000489
   23  O  2  X    0.000011  -0.000455  -0.000668   0.000127   0.000039
   24  O  2  Y    0.000018  -0.000610  -0.000645   0.000108   0.000107
   25  O  2  Z    0.000000   0.000000   0.000000   0.000000   0.000000
   26  O  2  X   -0.000124   0.001801   0.001617   0.000414   0.000692
   27  O  2  Y   -0.000155   0.001686   0.001552   0.000493   0.000698
   28  O  2  Z    0.000000   0.000000   0.000000   0.000000   0.000000
   29  O  2 XX    0.000037  -0.000054  -0.000147  -0.000105   0.000109
   30  O  2 YY    0.000040  -0.000044  -0.000081  -0.000116  -0.000135
   31  O  2 ZZ   -0.000078   0.000098   0.000228   0.000222   0.000026
   32  O  2 XY    0.000136  -0.000274  -0.000222  -0.000386  -0.000035
   33  O  2 XZ    0.000000   0.000000   0.000000   0.000000   0.000000
   34  O  2 YZ    0.000000   0.000000   0.000000   0.000000   0.000000
   35  O  3  S   -0.000004   0.718471  -0.685819   0.000026   0.000025
   36  O  3  S   -0.000047   0.024050  -0.022688  -0.000021   0.000015
   37  O  3  S   -0.000018  -0.011461   0.009311   0.000069   0.000489
   38  O  3  X   -0.000011   0.000486  -0.000646  -0.000127   0.000039
   39  O  3  Y    0.000018  -0.000639   0.000616   0.000108  -0.000107
   40  O  3  Z    0.000000   0.000000   0.000000   0.000000   0.000000
   41  O  3  X    0.000124  -0.001874   0.001531  -0.000414   0.000692
   42  O  3  Y   -0.000155   0.001756  -0.001472   0.000493  -0.000698
   43  O  3  Z    0.000000   0.000000   0.000000   0.000000   0.000000
   44  O  3 XX    0.000037  -0.000060   0.000145  -0.000105  -0.000109
   45  O  3 YY    0.000040  -0.000048   0.000079  -0.000116   0.000135
   46  O  3 ZZ   -0.000078   0.000108  -0.000223   0.000222  -0.000026
   47  O  3 XY   -0.000136   0.000284  -0.000209   0.000386  -0.000035
   48  O  3 XZ    0.000000   0.000000   0.000000   0.000000   0.000000
   49  O  3 YZ    0.000000   0.000000   0.000000   0.000000   0.000000

                      6          7          8          9         10
                   -5.8662    -5.8648    -0.9374    -0.8640    -0.6480
                     A          A          A          A          A   
    1  S  1  S    0.000000   0.002033   0.042984   0.000000   0.075348
    2  S  1  S    0.000000  -0.006923  -0.266491  -0.000001  -0.479995
    3  S  1  S    0.000000  -0.000874   0.379646   0.000003   0.725901
    4  S  1  S    0.000000   0.001980   0.092812  -0.000005   0.281322
    5  S  1  X    0.000000   0.000002   0.000000  -0.071398   0.000000
    6  S  1  Y    0.000000   0.994792  -0.054193   0.000000   0.042511
    7  S  1  Z    0.994960   0.000000   0.000000   0.000000   0.000000
    8  S  1  X    0.000000   0.000000  -0.000000   0.164087  -0.000000
    9  S  1  Y    0.000000   0.016566   0.121667  -0.000000  -0.103234
   10  S  1  Z    0.015937   0.000000   0.000000   0.000000   0.000000
   11  S  1  X    0.000000  -0.000000   0.000001   0.002742  -0.000001
   12  S  1  Y    0.000000  -0.002483  -0.008871  -0.000003  -0.038238
   13  S  1  Z   -0.003203   0.000000   0.000000   0.000000   0.000000
   14  S  1 XX    0.000000   0.000030   0.012814  -0.000000  -0.002968
   15  S  1 YY    0.000000   0.000538   0.012110  -0.000000  -0.007668
   16  S  1 ZZ    0.000000  -0.000568  -0.024924   0.000000   0.010636
   17  S  1 XY    0.000000   0.000000   0.000000   0.052769  -0.000000
   18  S  1 XZ   -0.000000   0.000000   0.000000   0.000000   0.000000
   19  S  1 YZ    0.000253   0.000000   0.000000   0.000000   0.000000
   20  O  2  S    0.000000  -0.000026  -0.142308  -0.171695   0.100385
   21  O  2  S    0.000000   0.000074   0.292030   0.357201  -0.213541
   22  O  2  S    0.000000  -0.000893   0.285704   0.361807  -0.255615
   23  O  2  X    0.000000   0.000102  -0.062465  -0.037839  -0.054552
   24  O  2  Y    0.000000   0.000043  -0.058282  -0.054499  -0.068425
   25  O  2  Z   -0.000057   0.000000   0.000000   0.000000   0.000000
   26  O  2  X    0.000000   0.000757  -0.026844  -0.017947  -0.023931
   27  O  2  Y    0.000000   0.000653  -0.027284  -0.026498  -0.030991
   28  O  2  Z   -0.000016   0.000000   0.000000   0.000000   0.000000
   29  O  2 XX    0.000000  -0.000136   0.001357  -0.001188   0.000890
   30  O  2 YY    0.000000   0.000158   0.002431   0.002735   0.002416
   31  O  2 ZZ    0.000000  -0.000022  -0.003788  -0.001547  -0.003306
   32  O  2 XY    0.000000   0.000026   0.010326   0.008578   0.003494
   33  O  2 XZ    0.000147   0.000000   0.000000   0.000000   0.000000
   34  O  2 YZ    0.000144   0.000000   0.000000   0.000000   0.000000
   35  O  3  S    0.000000  -0.000026  -0.142309   0.171694   0.100385
   36  O  3  S    0.000000   0.000074   0.292031  -0.357201  -0.213541
   37  O  3  S    0.000000  -0.000893   0.285708  -0.361800  -0.255617
   38  O  3  X    0.000000  -0.000102   0.062465  -0.037839   0.054552
   39  O  3  Y    0.000000   0.000043  -0.058282   0.054499  -0.068425
   40  O  3  Z   -0.000057   0.000000   0.000000   0.000000   0.000000
   41  O  3  X    0.000000  -0.000757   0.026844  -0.017944   0.023932
   42  O  3  Y    0.000000   0.000653  -0.027285   0.026497  -0.030991
   43  O  3  Z   -0.000016   0.000000   0.000000   0.000000   0.000000
   44  O  3 XX    0.000000  -0.000136   0.001357   0.001188   0.000890
   45  O  3 YY    0.000000   0.000158   0.002431  -0.002735   0.002416
   46  O  3 ZZ    0.000000  -0.000022  -0.003788   0.001547  -0.003306
   47  O  3 XY    0.000000  -0.000026  -0.010326   0.008578  -0.003494
   48  O  3 XZ   -0.000147   0.000000   0.000000   0.000000   0.000000
   49  O  3 YZ    0.000144   0.000000   0.000000   0.000000   0.000000

                     11         12         13         14         15
                   -0.4138    -0.4061    -0.3877    -0.2920    -0.2869
                     A          A          A          A          A   
    1  S  1  S    0.000000  -0.010254   0.000000   0.010180   0.000000
    2  S  1  S   -0.000000   0.064861   0.000000  -0.066444   0.000000
    3  S  1  S    0.000001  -0.065586   0.000000   0.093989   0.000000
    4  S  1  S    0.000001  -0.206899   0.000000   0.140435   0.000000
    5  S  1  X   -0.201639  -0.000001   0.000000   0.000000   0.000000
    6  S  1  Y    0.000001  -0.216533   0.000000   0.052248   0.000000
    7  S  1  Z    0.000000   0.000000  -0.228107   0.000000   0.000000
    8  S  1  X    0.545117   0.000003   0.000000  -0.000000   0.000000
    9  S  1  Y   -0.000003   0.585197   0.000000  -0.143910   0.000000
   10  S  1  Z    0.000000   0.000000   0.623295   0.000000  -0.000001
   11  S  1  X    0.085621   0.000001   0.000000   0.000001   0.000000
   12  S  1  Y   -0.000000   0.101379   0.000000  -0.010716   0.000000
   13  S  1  Z    0.000000   0.000000   0.199625   0.000000  -0.000000
   14  S  1 XX   -0.000000  -0.009041   0.000000  -0.087885   0.000000
   15  S  1 YY   -0.000000   0.031187   0.000000   0.063854   0.000000
   16  S  1 ZZ    0.000000  -0.022145   0.000000   0.024031   0.000000
   17  S  1 XY    0.046020   0.000000   0.000000  -0.000000   0.000000
   18  S  1 XZ    0.000000   0.000000  -0.000000   0.000000  -0.070447
   19  S  1 YZ    0.000000   0.000000   0.034297   0.000000   0.000000
   20  O  2  S    0.055486   0.043102   0.000000  -0.000268   0.000000
   21  O  2  S   -0.119063  -0.093234   0.000000   0.001385   0.000000
   22  O  2  S   -0.179338  -0.130848   0.000000  -0.011731   0.000000
   23  O  2  X   -0.165457  -0.290965   0.000000  -0.195757   0.000000
   24  O  2  Y   -0.295517  -0.103872   0.000000   0.410997   0.000000
   25  O  2  Z    0.000000   0.000000   0.271951   0.000000  -0.479540
   26  O  2  X   -0.096638  -0.176888   0.000000  -0.144811   0.000000
   27  O  2  Y   -0.169402  -0.061734   0.000000   0.299964   0.000000
   28  O  2  Z    0.000000   0.000000   0.170643   0.000000  -0.339733
   29  O  2 XX   -0.001685   0.009905   0.000000   0.010890   0.000000
   30  O  2 YY    0.008596  -0.003961   0.000000  -0.013556   0.000000
   31  O  2 ZZ   -0.006912  -0.005944   0.000000   0.002666   0.000000
   32  O  2 XY    0.008956   0.009155   0.000000  -0.004778   0.000000
   33  O  2 XZ    0.000000   0.000000  -0.010541   0.000000   0.008078
   34  O  2 YZ    0.000000   0.000000  -0.010461   0.000000   0.011156
   35  O  3  S   -0.055486   0.043101   0.000000  -0.000268   0.000000
   36  O  3  S    0.119063  -0.093233   0.000000   0.001385   0.000000
   37  O  3  S    0.179340  -0.130845   0.000000  -0.011730   0.000000
   38  O  3  X   -0.165459   0.290964   0.000000   0.195761   0.000000
   39  O  3  Y    0.295519  -0.103869   0.000000   0.410998   0.000000
   40  O  3  Z    0.000000   0.000000   0.271952   0.000000   0.479540
   41  O  3  X   -0.096639   0.176889   0.000000   0.144813   0.000000
   42  O  3  Y    0.169402  -0.061733   0.000000   0.299964   0.000000
   43  O  3  Z    0.000000   0.000000   0.170644   0.000000   0.339733
   44  O  3 XX    0.001685   0.009906   0.000000   0.010890   0.000000
   45  O  3 YY   -0.008596  -0.003962   0.000000  -0.013556   0.000000
   46  O  3 ZZ    0.006912  -0.005944   0.000000   0.002666   0.000000
   47  O  3 XY    0.008956  -0.009155   0.000000   0.004778   0.000000
   48  O  3 XZ    0.000000   0.000000   0.010541   0.000000   0.008078
   49  O  3 YZ    0.000000   0.000000  -0.010461   0.000000  -0.011156

                     16         17         18         19         20
                   -0.2501    -0.2269    -0.1283    -0.0671     0.2118
                     A          A          A          A          A   
    1  S  1  S   -0.000000   0.000000  -0.000000   0.032979   0.009428
    2  S  1  S    0.000000   0.000000   0.000001  -0.222793  -0.068418
    3  S  1  S   -0.000003   0.000000  -0.000001   0.390979   0.180322
    4  S  1  S    0.000005   0.000000  -0.000003   0.368428  -0.029308
    5  S  1  X   -0.018272   0.000000  -0.220668  -0.000002  -0.000006
    6  S  1  Y   -0.000000   0.000000   0.000001  -0.197082   0.261792
    7  S  1  Z    0.000000  -0.205842   0.000000   0.000000   0.000000
    8  S  1  X    0.049652   0.000000   0.659903   0.000005   0.000025
    9  S  1  Y    0.000000   0.000000  -0.000003   0.601286  -1.017888
   10  S  1  Z    0.000000   0.596664   0.000000   0.000000   0.000000
   11  S  1  X    0.139811   0.000000   0.498106  -0.000001  -0.000032
   12  S  1  Y    0.000004   0.000000  -0.000003   0.600360   1.396218
   13  S  1  Z    0.000000   0.235018   0.000000   0.000000   0.000000
   14  S  1 XX    0.000000   0.000000   0.000000  -0.042563   0.077881
   15  S  1 YY   -0.000000   0.000000   0.000000  -0.097765  -0.070747
   16  S  1 ZZ   -0.000000   0.000000  -0.000000   0.140328  -0.007134
   17  S  1 XY   -0.065088   0.000000  -0.156989  -0.000000   0.000002
   18  S  1 XZ    0.000000  -0.000000   0.000000   0.000000   0.000000
   19  S  1 YZ    0.000000  -0.063642   0.000000   0.000000   0.000000
   20  O  2  S    0.007745   0.000000   0.030113   0.046046   0.004855
   21  O  2  S   -0.016031   0.000000  -0.058047  -0.085268   0.050476
   22  O  2  S   -0.056703   0.000000  -0.230844  -0.352230  -0.354792
   23  O  2  X    0.455048   0.000000   0.060254   0.306455  -0.122587
   24  O  2  Y   -0.183489   0.000000   0.350659   0.197549  -0.112280
   25  O  2  Z    0.000000  -0.394901   0.000000   0.000000   0.000000
   26  O  2  X    0.315770   0.000000   0.052782   0.312742   0.079933
   27  O  2  Y   -0.118302   0.000000   0.294131   0.166446  -0.069620
   28  O  2  Z    0.000000  -0.304380   0.000000   0.000000   0.000000
   29  O  2 XX   -0.009351   0.000000  -0.001147   0.000867  -0.017827
   30  O  2 YY    0.008436   0.000000   0.001831  -0.002688   0.005870
   31  O  2 ZZ    0.000915   0.000000  -0.000683   0.001821   0.011957
   32  O  2 XY   -0.007066   0.000000  -0.000766   0.002801  -0.014929
   33  O  2 XZ    0.000000   0.003392   0.000000   0.000000   0.000000
   34  O  2 YZ    0.000000   0.002256   0.000000   0.000000   0.000000
   35  O  3  S   -0.007745   0.000000  -0.030113   0.046046   0.004856
   36  O  3  S    0.016031   0.000000   0.058046  -0.085270   0.050472
   37  O  3  S    0.056698   0.000000   0.230849  -0.352227  -0.354802
   38  O  3  X    0.455046   0.000000   0.060256  -0.306456   0.122591
   39  O  3  Y    0.183486   0.000000  -0.350661   0.197545  -0.112284
   40  O  3  Z    0.000000  -0.394901   0.000000   0.000000   0.000000
   41  O  3  X    0.315766   0.000000   0.052785  -0.312740  -0.079926
   42  O  3  Y    0.118301   0.000000  -0.294133   0.166444  -0.069618
   43  O  3  Z    0.000000  -0.304379   0.000000   0.000000   0.000000
   44  O  3 XX    0.009351   0.000000   0.001147   0.000867  -0.017827
   45  O  3 YY   -0.008436   0.000000  -0.001831  -0.002688   0.005869
   46  O  3 ZZ   -0.000915   0.000000   0.000683   0.001821   0.011957
   47  O  3 XY   -0.007066   0.000000  -0.000766  -0.002801   0.014930
   48  O  3 XZ    0.000000  -0.003392   0.000000   0.000000   0.000000
   49  O  3 YZ    0.000000   0.002256   0.000000   0.000000   0.000000

                     21         22         23         24         25
                    0.2147     0.2237     0.2500     0.4798     0.4804
                     A          A          A          A          A   
    1  S  1  S    0.000000   0.000001  -0.063008   0.000101   0.000000
    2  S  1  S    0.000000  -0.000010   0.468011  -0.000751   0.000000
    3  S  1  S    0.000000   0.000040  -1.903217   0.007098   0.000000
    4  S  1  S    0.000000  -0.000047   2.301899  -0.019725   0.000000
    5  S  1  X    0.000000   0.259159   0.000004   0.000000   0.000000
    6  S  1  Y    0.000000   0.000006  -0.013811  -0.027377   0.000000
    7  S  1  Z    0.253906   0.000000   0.000000   0.000000  -0.000000
    8  S  1  X    0.000000  -1.016344  -0.000016  -0.000001   0.000000
    9  S  1  Y    0.000000  -0.000025   0.048630   0.111590   0.000000
   10  S  1  Z   -1.003438   0.000000   0.000000   0.000000   0.000001
   11  S  1  X    0.000000   1.415377   0.000026   0.000001   0.000000
   12  S  1  Y    0.000000   0.000021   0.527217  -0.107688   0.000000
   13  S  1  Z    1.299360   0.000000   0.000000   0.000000  -0.000001
   14  S  1 XX    0.000000   0.000002  -0.062239   0.760648   0.000000
   15  S  1 YY    0.000000  -0.000001  -0.119041  -0.682749   0.000000
   16  S  1 ZZ    0.000000  -0.000001   0.181280  -0.077898   0.000000
   17  S  1 XY    0.000000  -0.004562   0.000002  -0.000000   0.000000
   18  S  1 XZ    0.000000   0.000000   0.000000   0.000000   0.914462
   19  S  1 YZ   -0.096993   0.000000   0.000000   0.000000  -0.000011
   20  O  2  S    0.000000   0.008182   0.032789  -0.002224   0.000000
   21  O  2  S    0.000000   0.026536  -0.043402   0.013427   0.000000
   22  O  2  S    0.000000  -0.341551  -0.504801   0.011036   0.000000
   23  O  2  X    0.000000  -0.169046  -0.076584  -0.230803   0.000000
   24  O  2  Y    0.000000  -0.075194  -0.068248   0.273205   0.000000
   25  O  2  Z   -0.047703   0.000000   0.000000   0.000000  -0.262091
   26  O  2  X    0.000000  -0.072412   0.202535   0.110705   0.000000
   27  O  2  Y    0.000000   0.074272   0.136672  -0.122101   0.000000
   28  O  2  Z   -0.132679   0.000000   0.000000   0.000000   0.139730
   29  O  2 XX    0.000000   0.000152  -0.014530  -0.050903   0.000000
   30  O  2 YY    0.000000  -0.011784  -0.008521   0.053174   0.000000
   31  O  2 ZZ    0.000000   0.011632   0.023050  -0.002270   0.000000
   32  O  2 XY    0.000000  -0.020616  -0.027745   0.005500   0.000000
   33  O  2 XZ    0.010018   0.000000   0.000000   0.000000  -0.023101
   34  O  2 YZ    0.007584   0.000000   0.000000   0.000000  -0.040955
   35  O  3  S    0.000000  -0.008182   0.032789  -0.002224   0.000000
   36  O  3  S    0.000000  -0.026539  -0.043411   0.013427   0.000000
   37  O  3  S    0.000000   0.341562  -0.504780   0.011035   0.000000
   38  O  3  X    0.000000  -0.169047   0.076574   0.230803   0.000000
   39  O  3  Y    0.000000   0.075191  -0.068246   0.273205   0.000000
   40  O  3  Z   -0.047703   0.000000   0.000000   0.000000   0.262098
   41  O  3  X    0.000000  -0.072405  -0.202531  -0.110705   0.000000
   42  O  3  Y    0.000000  -0.074283   0.136667  -0.122101   0.000000
   43  O  3  Z   -0.132678   0.000000   0.000000   0.000000  -0.139734
   44  O  3 XX    0.000000  -0.000152  -0.014530  -0.050903   0.000000
   45  O  3 YY    0.000000   0.011784  -0.008520   0.053174   0.000000
   46  O  3 ZZ    0.000000  -0.011632   0.023050  -0.002270   0.000000
   47  O  3 XY    0.000000  -0.020616   0.027744  -0.005500   0.000000
   48  O  3 XZ   -0.010018   0.000000   0.000000   0.000000  -0.023102
   49  O  3 YZ    0.007584   0.000000   0.000000   0.000000   0.040956

                     26         27         28         29         30
                    0.4828     0.6024     0.6725     0.7775     0.8230
                     A          A          A          A          A   
    1  S  1  S    0.000000   0.006283   0.000000   0.007001   0.000000
    2  S  1  S    0.000000  -0.051013  -0.000000  -0.056544   0.000000
    3  S  1  S    0.000000   0.364257   0.000002   0.177037   0.000000
    4  S  1  S    0.000000  -0.848879  -0.000004   0.195798   0.000000
    5  S  1  X    0.000000   0.000000  -0.054755   0.000000   0.000000
    6  S  1  Y    0.000000   0.041881   0.000000  -0.032879   0.000000
    7  S  1  Z    0.025675   0.000000   0.000000   0.000000  -0.000000
    8  S  1  X    0.000000  -0.000001   0.242501  -0.000000   0.000000
    9  S  1  Y    0.000000  -0.166906  -0.000001   0.193013   0.000000
   10  S  1  Z   -0.105356   0.000000   0.000000   0.000000   0.000000
   11  S  1  X    0.000000  -0.000001   0.240417   0.000001   0.000000
   12  S  1  Y    0.000000  -0.334914  -0.000002   0.260783   0.000000
   13  S  1  Z    0.067235   0.000000   0.000000   0.000000  -0.000003
   14  S  1 XX    0.000000  -0.471596  -0.000000  -0.423766   0.000000
   15  S  1 YY    0.000000  -0.487945  -0.000001   0.438811   0.000000
   16  S  1 ZZ    0.000000   0.959542   0.000002  -0.015045   0.000000
   17  S  1 XY    0.000000  -0.000003   0.971940   0.000000   0.000000
   18  S  1 XZ    0.000011   0.000000   0.000000   0.000000   0.418258
   19  S  1 YZ    0.892774   0.000000   0.000000   0.000000  -0.000003
   20  O  2  S    0.000000  -0.063596   0.072364   0.009896   0.000000
   21  O  2  S    0.000000   0.281706  -0.327811  -0.026178   0.000000
   22  O  2  S    0.000000   0.142159  -0.031301  -0.105740   0.000000
   23  O  2  X    0.000000  -0.044779  -0.061048  -0.539707   0.000000
   24  O  2  Y    0.000000   0.048549   0.020793   0.164807   0.000000
   25  O  2  Z   -0.288824   0.000000   0.000000   0.000000   0.593449
   26  O  2  X    0.000000  -0.247754   0.394893   0.724859   0.000000
   27  O  2  Y    0.000000  -0.290796   0.324505  -0.156627   0.000000
   28  O  2  Z    0.158129   0.000000   0.000000   0.000000  -0.768397
   29  O  2 XX    0.000000  -0.012586   0.010112   0.028676   0.000000
   30  O  2 YY    0.000000  -0.006052   0.009890  -0.033030   0.000000
   31  O  2 ZZ    0.000000   0.018638  -0.020003   0.004354   0.000000
   32  O  2 XY    0.000000  -0.003764   0.042203   0.026764   0.000000
   33  O  2 XZ   -0.040071   0.000000   0.000000   0.000000  -0.031326
   34  O  2 YZ   -0.022441   0.000000   0.000000   0.000000  -0.027439
   35  O  3  S    0.000000  -0.063596  -0.072364   0.009896   0.000000
   36  O  3  S    0.000000   0.281710   0.327811  -0.026177   0.000000
   37  O  3  S    0.000000   0.142153   0.031305  -0.105740   0.000000
   38  O  3  X    0.000000   0.044782  -0.061049   0.539702   0.000000
   39  O  3  Y    0.000000   0.048550  -0.020792   0.164807   0.000000
   40  O  3  Z   -0.288818   0.000000   0.000000   0.000000  -0.593455
   41  O  3  X    0.000000   0.247748   0.394897  -0.724852   0.000000
   42  O  3  Y    0.000000  -0.290795  -0.324508  -0.156627   0.000000
   43  O  3  Z    0.158126   0.000000   0.000000   0.000000   0.768406
   44  O  3 XX    0.000000  -0.012586  -0.010112   0.028676   0.000000
   45  O  3 YY    0.000000  -0.006052  -0.009890  -0.033030   0.000000
   46  O  3 ZZ    0.000000   0.018638   0.020003   0.004354   0.000000
   47  O  3 XY    0.000000   0.003764   0.042203  -0.026764   0.000000
   48  O  3 XZ    0.040070   0.000000   0.000000   0.000000  -0.031327
   49  O  3 YZ   -0.022440   0.000000   0.000000   0.000000   0.027439

                     31         32         33         34         35
                    0.8264     0.8320     0.8327     0.9281     1.4085
                     A          A          A          A          A   
    1  S  1  S    0.000000   0.000000   0.016878   0.000000  -0.000000
    2  S  1  S   -0.000002   0.000000  -0.137954  -0.000001   0.000000
    3  S  1  S    0.000008   0.000000   0.568626   0.000000   0.000027
    4  S  1  S   -0.000001   0.000000  -0.055550   0.000004  -0.000106
    5  S  1  X    0.053518   0.000000  -0.000001  -0.014981   0.061061
    6  S  1  Y   -0.000001   0.000000  -0.056800  -0.000000   0.000005
    7  S  1  Z    0.000000  -0.004162   0.000000   0.000000   0.000000
    8  S  1  X   -0.348683   0.000000   0.000004   0.120195  -0.350826
    9  S  1  Y    0.000006   0.000000   0.374522   0.000002  -0.000025
   10  S  1  Z    0.000000   0.030893   0.000000   0.000000   0.000000
   11  S  1  X    0.038669   0.000000  -0.000000  -0.576758  -0.521502
   12  S  1  Y   -0.000005   0.000000  -0.323795   0.000000  -0.000050
   13  S  1  Z    0.000000  -0.471369   0.000000   0.000000   0.000000
   14  S  1 XX    0.000002   0.000000   0.140021   0.000002  -0.000011
   15  S  1 YY   -0.000004   0.000000  -0.318343  -0.000001  -0.000013
   16  S  1 ZZ    0.000003   0.000000   0.178322  -0.000001   0.000024
   17  S  1 XY    0.259202   0.000000  -0.000004  -0.237069  -0.395845
   18  S  1 XZ    0.000000  -0.000002   0.000000   0.000000   0.000000
   19  S  1 YZ    0.000000  -0.457914   0.000000   0.000000   0.000000
   20  O  2  S   -0.018697   0.000000   0.013079   0.007794   0.078575
   21  O  2  S    0.150459   0.000000  -0.100046  -0.142032  -1.137261
   22  O  2  S   -0.120096   0.000000   0.134998   0.299736   1.505216
   23  O  2  X    0.246611   0.000000  -0.229521  -0.565549   0.154725
   24  O  2  Y    0.579179   0.000000  -0.546602   0.269712   0.072739
   25  O  2  Z    0.000000  -0.579318   0.000000   0.000000   0.000000
   26  O  2  X   -0.318883   0.000000   0.278486   0.760570  -0.465245
   27  O  2  Y   -0.711178   0.000000   0.763717  -0.484578  -0.374036
   28  O  2  Z    0.000000   0.817674   0.000000   0.000000   0.000000
   29  O  2 XX   -0.005111   0.000000  -0.020055   0.049599  -0.092347
   30  O  2 YY   -0.005330   0.000000   0.039829  -0.030458  -0.035399
   31  O  2 ZZ    0.010441   0.000000  -0.019774  -0.019141   0.127745
   32  O  2 XY   -0.011590   0.000000   0.037176  -0.018784  -0.128691
   33  O  2 XZ    0.000000   0.030128   0.000000   0.000000   0.000000
   34  O  2 YZ    0.000000   0.033838   0.000000   0.000000   0.000000
   35  O  3  S    0.018697   0.000000   0.013078  -0.007795  -0.078565
   36  O  3  S   -0.150463   0.000000  -0.100039   0.142047   1.137103
   37  O  3  S    0.120101   0.000000   0.134991  -0.299753  -1.504972
   38  O  3  X    0.246619   0.000000   0.229516  -0.565552   0.154721
   39  O  3  Y   -0.579195   0.000000  -0.546584  -0.269715  -0.072728
   40  O  3  Z    0.000000  -0.579311   0.000000   0.000000   0.000000
   41  O  3  X   -0.318892   0.000000  -0.278479   0.760572  -0.465191
   42  O  3  Y    0.711200   0.000000   0.763695   0.484584   0.373983
   43  O  3  Z    0.000000   0.817666   0.000000   0.000000   0.000000
   44  O  3 XX    0.005111   0.000000  -0.020055  -0.049599   0.092346
   45  O  3 YY    0.005331   0.000000   0.039829   0.030459   0.035395
   46  O  3 ZZ   -0.010442   0.000000  -0.019774   0.019141  -0.127741
   47  O  3 XY   -0.011591   0.000000  -0.037176  -0.018785  -0.128673
   48  O  3 XZ    0.000000  -0.030128   0.000000   0.000000   0.000000
   49  O  3 YZ    0.000000   0.033838   0.000000   0.000000   0.000000

                     36         37         38         39         40
                    1.4506     2.0948     2.1004     2.1043     2.1071
                     A          A          A          A          A   
    1  S  1  S    0.002097  -0.000000   0.000000   0.000000   0.001648
    2  S  1  S   -0.018033   0.000000   0.000000   0.000000  -0.012116
    3  S  1  S    0.520545  -0.000001   0.000000   0.000000   0.063616
    4  S  1  S   -1.799571   0.000001   0.000000   0.000000  -0.134988
    5  S  1  X   -0.000004  -0.012843   0.000000   0.000000  -0.000000
    6  S  1  Y    0.070313  -0.000000   0.000000   0.000000  -0.003568
    7  S  1  Z    0.000000   0.000000  -0.005629   0.000000   0.000000
    8  S  1  X    0.000024   0.033456   0.000000   0.000000   0.000000
    9  S  1  Y   -0.360616   0.000000   0.000000   0.000000   0.007327
   10  S  1  Z    0.000000   0.000000   0.015810  -0.000000   0.000000
   11  S  1  X    0.000026   0.066821   0.000000   0.000000   0.000000
   12  S  1  Y   -0.876147   0.000001   0.000000   0.000000  -0.088523
   13  S  1  Z    0.000000   0.000000   0.025804  -0.000001   0.000000
   14  S  1 XX   -0.180022  -0.000000   0.000000   0.000000   0.013632
   15  S  1 YY   -0.215245   0.000000   0.000000   0.000000   0.019127
   16  S  1 ZZ    0.395267   0.000000   0.000000   0.000000  -0.032760
   17  S  1 XY    0.000023  -0.013068   0.000000   0.000000  -0.000000
   18  S  1 XZ    0.000000   0.000000   0.000000   0.032111   0.000000
   19  S  1 YZ    0.000000   0.000000   0.010726  -0.000001   0.000000
   20  O  2  S    0.074447   0.000039   0.000000   0.000000   0.005140
   21  O  2  S   -1.223768   0.015148   0.000000   0.000000  -0.075689
   22  O  2  S    1.947501  -0.040224   0.000000   0.000000   0.123209
   23  O  2  X    0.029022   0.025481   0.000000   0.000000   0.023975
   24  O  2  Y    0.076396  -0.014535   0.000000   0.000000  -0.002557
   25  O  2  Z    0.000000   0.000000   0.017889   0.019810   0.000000
   26  O  2  X   -0.437774  -0.032465   0.000000   0.000000  -0.054292
   27  O  2  Y   -0.416388   0.029532   0.000000   0.000000  -0.004989
   28  O  2  Z    0.000000   0.000000  -0.030507  -0.030774   0.000000
   29  O  2 XX   -0.010001   0.214678   0.000000   0.000000  -0.364236
   30  O  2 YY   -0.025100  -0.638679   0.000000   0.000000  -0.274801
   31  O  2 ZZ    0.035102   0.424001   0.000000   0.000000   0.639037
   32  O  2 XY   -0.145813   0.281217   0.000000   0.000000   0.297092
   33  O  2 XZ    0.000000   0.000000  -0.400250   0.623933   0.000000
   34  O  2 YZ    0.000000   0.000000   0.583035  -0.333155   0.000000
   35  O  3  S    0.074457  -0.000039   0.000000   0.000000   0.005140
   36  O  3  S   -1.223910  -0.015147   0.000000   0.000000  -0.075689
   37  O  3  S    1.947686   0.040221   0.000000   0.000000   0.123209
   38  O  3  X   -0.029046   0.025481   0.000000   0.000000  -0.023974
   39  O  3  Y    0.076403   0.014535   0.000000   0.000000  -0.002556
   40  O  3  Z    0.000000   0.000000   0.017888  -0.019812   0.000000
   41  O  3  X    0.437840  -0.032466   0.000000   0.000000   0.054291
   42  O  3  Y   -0.416429  -0.029532   0.000000   0.000000  -0.004989
   43  O  3  Z    0.000000   0.000000  -0.030506   0.030776   0.000000
   44  O  3 XX   -0.010016  -0.214676   0.000000   0.000000  -0.364244
   45  O  3 YY   -0.025104   0.638683   0.000000   0.000000  -0.274794
   46  O  3 ZZ    0.035120  -0.424007   0.000000   0.000000   0.639038
   47  O  3 XY    0.145831   0.281219   0.000000   0.000000  -0.297092
   48  O  3 XZ    0.000000   0.000000   0.400281   0.623913   0.000000
   49  O  3 YZ    0.000000   0.000000   0.583054   0.333124   0.000000

                     41         42         43         44         45
                    2.1231     2.1429     2.1573     2.1968     2.4128
                     A          A          A          A          A   
    1  S  1  S    0.000000  -0.000000   0.000000  -0.002947  -0.021488
    2  S  1  S    0.000000   0.000000   0.000000   0.022584   0.156480
    3  S  1  S    0.000000  -0.000002   0.000000  -0.070354  -0.234690
    4  S  1  S    0.000000   0.000003   0.000000   0.004227  -0.624431
    5  S  1  X    0.000000  -0.008605   0.000000   0.000000   0.000000
    6  S  1  Y    0.000000   0.000000   0.000000  -0.009430   0.128226
    7  S  1  Z    0.000000   0.000000  -0.030912   0.000000   0.000000
    8  S  1  X    0.000000  -0.001689   0.000000   0.000000  -0.000001
    9  S  1  Y    0.000000  -0.000000   0.000000   0.003091  -0.558375
   10  S  1  Z   -0.000000   0.000000   0.089760   0.000000   0.000000
   11  S  1  X    0.000000   0.063055   0.000000  -0.000000  -0.000002
   12  S  1  Y    0.000000   0.000002   0.000000   0.076053  -0.175291
   13  S  1  Z   -0.000000   0.000000   0.087769   0.000000   0.000000
   14  S  1 XX    0.000000  -0.000000   0.000000  -0.265077  -0.141234
   15  S  1 YY    0.000000   0.000000   0.000000   0.245418  -0.194749
   16  S  1 ZZ    0.000000  -0.000000   0.000000   0.019660   0.335983
   17  S  1 XY    0.000000   0.002543   0.000000   0.000000  -0.000001
   18  S  1 XZ    0.213144   0.000000   0.000001   0.000000   0.000000
   19  S  1 YZ   -0.000001   0.000000   0.224860   0.000000   0.000000
   20  O  2  S    0.000000   0.006466   0.000000   0.003782   0.013105
   21  O  2  S    0.000000  -0.089606   0.000000  -0.037852  -0.400323
   22  O  2  S    0.000000   0.091423   0.000000   0.021277   0.722682
   23  O  2  X    0.000000   0.089214   0.000000   0.011554   0.056275
   24  O  2  Y    0.000000  -0.023425   0.000000   0.038034   0.062867
   25  O  2  Z    0.033464   0.000000   0.038779   0.000000   0.000000
   26  O  2  X    0.000000  -0.158862   0.000000  -0.000293  -0.321214
   27  O  2  Y    0.000000   0.040425   0.000000  -0.079724  -0.308819
   28  O  2  Z   -0.054888   0.000000  -0.085392   0.000000   0.000000
   29  O  2 XX    0.000000   0.648904   0.000000  -0.576307   0.221011
   30  O  2 YY    0.000000  -0.234188   0.000000   0.652048   0.093402
   31  O  2 ZZ    0.000000  -0.414716   0.000000  -0.075741  -0.314414
   32  O  2 XY    0.000000  -0.260878   0.000000   0.038027   0.660478
   33  O  2 XZ    0.335394   0.000000   0.587234   0.000000   0.000000
   34  O  2 YZ    0.625684   0.000000   0.405662   0.000000   0.000000
   35  O  3  S    0.000000  -0.006466   0.000000   0.003782   0.013105
   36  O  3  S    0.000000   0.089609   0.000000  -0.037852  -0.400322
   37  O  3  S    0.000000  -0.091428   0.000000   0.021276   0.722680
   38  O  3  X    0.000000   0.089214   0.000000  -0.011554  -0.056276
   39  O  3  Y    0.000000   0.023425   0.000000   0.038034   0.062866
   40  O  3  Z   -0.033464   0.000000   0.038779   0.000000   0.000000
   41  O  3  X    0.000000  -0.158863   0.000000   0.000294   0.321215
   42  O  3  Y    0.000000  -0.040424   0.000000  -0.079724  -0.308816
   43  O  3  Z    0.054889   0.000000  -0.085392   0.000000   0.000000
   44  O  3 XX    0.000000  -0.648902   0.000000  -0.576304   0.221012
   45  O  3 YY    0.000000   0.234193   0.000000   0.652046   0.093400
   46  O  3 ZZ    0.000000   0.414709   0.000000  -0.075742  -0.314412
   47  O  3 XY    0.000000  -0.260878   0.000000  -0.038027  -0.660475
   48  O  3 XZ    0.335399   0.000000  -0.587231   0.000000   0.000000
   49  O  3 YZ   -0.625684   0.000000   0.405660   0.000000   0.000000

                     46
                    2.5356
                     A   
    1  S  1  S   -0.000000
    2  S  1  S    0.000000
    3  S  1  S    0.000002
    4  S  1  S   -0.000007
    5  S  1  X   -0.136599
    6  S  1  Y    0.000000
    7  S  1  Z    0.000000
    8  S  1  X    0.605585
    9  S  1  Y   -0.000002
   10  S  1  Z    0.000000
   11  S  1  X    0.143591
   12  S  1  Y   -0.000004
   13  S  1  Z    0.000000
   14  S  1 XX   -0.000001
   15  S  1 YY   -0.000001
   16  S  1 ZZ    0.000002
   17  S  1 XY    0.600815
   18  S  1 XZ    0.000000
   19  S  1 YZ    0.000000
   20  O  2  S   -0.011717
   21  O  2  S    0.435936
   22  O  2  S   -0.729785
   23  O  2  X   -0.071108
   24  O  2  Y   -0.054081
   25  O  2  Z    0.000000
   26  O  2  X    0.368827
   27  O  2  Y    0.354922
   28  O  2  Z    0.000000
   29  O  2 XX   -0.179381
   30  O  2 YY   -0.216090
   31  O  2 ZZ    0.395471
   32  O  2 XY   -0.633925
   33  O  2 XZ    0.000000
   34  O  2 YZ    0.000000
   35  O  3  S    0.011717
   36  O  3  S   -0.435941
   37  O  3  S    0.729796
   38  O  3  X   -0.071108
   39  O  3  Y    0.054082
   40  O  3  Z    0.000000
   41  O  3  X    0.368831
   42  O  3  Y   -0.354925
   43  O  3  Z    0.000000
   44  O  3 XX    0.179382
   45  O  3 YY    0.216090
   46  O  3 ZZ   -0.395472
   47  O  3 XY   -0.633928
   48  O  3 XZ    0.000000
   49  O  3 YZ    0.000000
 ...... END OF RHF CALCULATION ......
 STEP CPU TIME =     2.79 TOTAL CPU TIME =          2.9 (      0.0 MIN)
 TOTAL WALL CLOCK TIME=          3.0 SECONDS, CPU UTILIZATION IS    98.33%

     ---------------------------------------------------------------------
     PROPERTIES FOR THE PBE      DFT FUNCTIONAL (RHF  TYPE) DENSITY MATRIX
     ---------------------------------------------------------------------

          -----------------
          ENERGY COMPONENTS
          -----------------

         WAVEFUNCTION NORMALIZATION =       1.0000000000

                ONE ELECTRON ENERGY =    -936.9371607182
                TWO ELECTRON ENERGY =     297.6941677112
           NUCLEAR REPULSION ENERGY =      91.0955453567
                                      ------------------
                       TOTAL ENERGY =    -548.1474476502

 ELECTRON-ELECTRON POTENTIAL ENERGY =     297.6941677112
  NUCLEUS-ELECTRON POTENTIAL ENERGY =   -1483.7036338544
   NUCLEUS-NUCLEUS POTENTIAL ENERGY =      91.0955453567
                                      ------------------
             TOTAL POTENTIAL ENERGY =   -1094.9139207864
               TOTAL KINETIC ENERGY =     546.7664731362
                 VIRIAL RATIO (V/T) =       2.0025257118

          ---------------------------------------
          MULLIKEN AND LOWDIN POPULATION ANALYSES
          ---------------------------------------

     ATOMIC MULLIKEN POPULATION IN EACH MOLECULAR ORBITAL

                      1          2          3          4          5

                  2.000000   2.000000   2.000000   2.000000   2.000000

    1             1.999990   0.001050   0.000379   2.000293   2.000202
    2             0.000005   0.953039   1.046246  -0.000147  -0.000101
    3             0.000005   1.045910   0.953375  -0.000147  -0.000101

                      6          7          8          9         10

                  2.000000   2.000000   2.000000   2.000000   2.000000

    1             2.000003   2.000227   0.570684   0.159994   1.348539
    2            -0.000001  -0.000114   0.714653   0.920010   0.325730
    3            -0.000001  -0.000114   0.714663   0.919996   0.325731

                     11         12         13         14         15

                  2.000000   2.000000   2.000000   2.000000   2.000000

    1             0.752298   0.978359   1.232325   0.117509   0.027775
    2             0.623847   0.510823   0.383836   0.941241   0.986112
    3             0.623855   0.510818   0.383838   0.941250   0.986113

                     16

                  2.000000

    1             0.105803
    2             0.947107
    3             0.947091

               ----- POPULATIONS IN EACH AO -----
                             MULLIKEN      LOWDIN
              1  S  1  S      1.99984     1.99928
              2  S  1  S      1.99259     1.88856
              3  S  1  S      1.36575     0.70534
              4  S  1  S      0.52785     0.46784
              5  S  1  X      1.99351     1.95847
              6  S  1  Y      1.99427     1.96328
              7  S  1  Z      1.99413     1.96309
              8  S  1  X      0.82893     0.73162
              9  S  1  Y      0.96863     0.87560
             10  S  1  Z      0.94430     0.85858
             11  S  1  X      0.13200     0.25304
             12  S  1  Y      0.10585     0.27209
             13  S  1  Z      0.28695     0.39151
             14  S  1 XX      0.01442     0.28034
             15  S  1 YY      0.04745     0.28355
             16  S  1 ZZ      0.06423     0.28027
             17  S  1 XY      0.02777     0.08017
             18  S  1 XZ      0.00695     0.03203
             19  S  1 YZ      0.00000     0.00680
             20  O  2  S      1.99574     1.97312
             21  O  2  S      0.97038     0.71521
             22  O  2  S      0.99464     0.56766
             23  O  2  X      1.00047     0.96814
             24  O  2  Y      0.86823     0.83279
             25  O  2  Z      0.82414     0.79561
             26  O  2  X      0.59319     0.65440
             27  O  2  Y      0.55229     0.63240
             28  O  2  Z      0.54328     0.57491
             29  O  2 XX      0.00130     0.20693
             30  O  2 YY      0.00199     0.20962
             31  O  2 ZZ      0.00411     0.21280
             32  O  2 XY      0.00118     0.00721
             33  O  2 XZ      0.00135     0.00168
             34  O  2 YZ      0.00000     0.00178
             35  O  3  S      1.99574     1.97312
             36  O  3  S      0.97038     0.71521
             37  O  3  S      0.99463     0.56766
             38  O  3  X      1.00047     0.96814
             39  O  3  Y      0.86823     0.83279
             40  O  3  Z      0.82414     0.79562
             41  O  3  X      0.59319     0.65440
             42  O  3  Y      0.55229     0.63240
             43  O  3  Z      0.54328     0.57491
             44  O  3 XX      0.00130     0.20692
             45  O  3 YY      0.00199     0.20962
             46  O  3 ZZ      0.00411     0.21280
             47  O  3 XY      0.00118     0.00721
             48  O  3 XZ      0.00135     0.00168
             49  O  3 YZ      0.00000     0.00178

          ----- MULLIKEN ATOMIC OVERLAP POPULATIONS -----
          (OFF-DIAGONAL ELEMENTS NEED TO BE MULTIPLIED BY 2)

             1           2           3

    1   14.7441156
    2    0.2756526   8.1511368
    3    0.2756615  -0.0745023   8.1511241

          TOTAL MULLIKEN AND LOWDIN ATOMIC POPULATIONS
       ATOM         MULL.POP.    CHARGE          LOW.POP.     CHARGE
    1 S            15.295430    0.704570        15.291452    0.708548
    2 O             8.352287   -0.352287         8.354275   -0.354275
    3 O             8.352283   -0.352283         8.354273   -0.354273

          MULLIKEN SPHERICAL HARMONIC POPULATIONS
       ATOM           S       P       D      F      G      H      I    TOTAL
    1 S             5.89    9.25    0.16   0.00   0.00   0.00   0.00   15.30
    2 O             3.96    4.38    0.01   0.00   0.00   0.00   0.00    8.35
    3 O             3.96    4.38    0.01   0.00   0.00   0.00   0.00    8.35

          -------------------------------
          BOND ORDER AND VALENCE ANALYSIS     BOND ORDER THRESHOLD=0.050
          -------------------------------

                   BOND                       BOND                       BOND
  ATOM PAIR DIST  ORDER      ATOM PAIR DIST  ORDER      ATOM PAIR DIST  ORDER
    1   2  1.750  1.609        1   3  1.750  1.609        2   3  2.475  0.481

                       TOTAL       BONDED        FREE
      ATOM            VALENCE     VALENCE     VALENCE
    1 S                 3.218       3.218       0.000
    2 O                 2.090       2.090       0.000
    3 O                 2.090       2.090      -0.000

          ---------------------
          ELECTROSTATIC MOMENTS
          ---------------------

 POINT   1           X           Y           Z (BOHR)    CHARGE
                 0.000000    0.000000    0.000000       -0.00 (A.U.)
         DX          DY          DZ         /D/  (DEBYE)
    -0.000004   -3.188659    0.000000    3.188659
 ...... END OF PROPERTY EVALUATION ......
 STEP CPU TIME =     0.00 TOTAL CPU TIME =          2.9 (      0.0 MIN)
 TOTAL WALL CLOCK TIME=          3.0 SECONDS, CPU UTILIZATION IS    98.33%
                580000  WORDS OF DYNAMIC MEMORY USED
 EXECUTION OF GAMESS TERMINATED NORMALLY Sun Sep 29 10:55:02 2019
 DDI: 263640 bytes (0.3 MB / 0 MWords) used by master data server.

 ----------------------------------------
 CPU timing information for all processes
 ========================================
 0: 2.880 + 0.82 = 2.963
 ----------------------------------------
 ddikick.x: exited gracefully.
----- accounting info -----
Files used on the master node crcfe02.crc.nd.edu were:
-rw-r--r-- 1 cdrisko campus     207 Sep 29 10:54 /afs/crc.nd.edu/user/c/cdrisko/SO2.F05
-rw-r--r-- 1 cdrisko campus   37566 Sep 29 10:55 /afs/crc.nd.edu/user/c/cdrisko/SO2.F07
-rw-r--r-- 1 cdrisko campus 4140368 Sep 29 10:54 /afs/crc.nd.edu/user/c/cdrisko/SO2.F08
-rw-r--r-- 1 cdrisko campus 1766880 Sep 29 10:55 /afs/crc.nd.edu/user/c/cdrisko/SO2.F10
Sun Sep 29 10:55:05 EDT 2019
0.425u 0.241s 0:06.64 9.9%	0+0k 0+24io 0pf+0w
