----- GAMESS execution script 'rungms' -----
This job is running on host crcfe02.crc.nd.edu
under operating system Linux at Thu Dec 12 13:23:50 EST 2019
Available scratch disk space (Kbyte units) at beginning of the job is
Filesystem      1K-blocks  Used  Available Use% Mounted on
AFS            2147483647     0 2147483647   0% /afs
GAMESS temporary binary files will be written to /afs/crc.nd.edu/user/c/cdrisko
GAMESS supplementary output files will be written to /afs/crc.nd.edu/user/c/cdrisko/scr
Copying input file acetaldehyde.inp to your run's scratch directory...

 Distributed Data Interface kickoff program.
 Initiating 1 compute processes on 1 nodes to run the following command:
 /afs/crc.nd.edu/x86_64_linux/g/gamess/nov-2017/gamess/gamess.00.x acetaldehyde 

          ******************************************************
          *         GAMESS VERSION = 11 NOV 2017 (R3)         *
          *             FROM IOWA STATE UNIVERSITY             *
          * M.W.SCHMIDT, K.K.BALDRIDGE, J.A.BOATZ, S.T.ELBERT, *
          *   M.S.GORDON, J.H.JENSEN, S.KOSEKI, N.MATSUNAGA,   *
          *          K.A.NGUYEN, S.J.SU, T.L.WINDUS,           *
          *       TOGETHER WITH M.DUPUIS, J.A.MONTGOMERY       *
          *         J.COMPUT.CHEM.  14, 1347-1363(1993)        *
          **************** 64 BIT INTEL VERSION ****************

  SINCE 1993, STUDENTS AND POSTDOCS WORKING AT IOWA STATE UNIVERSITY
  AND ALSO IN THEIR VARIOUS JOBS AFTER LEAVING ISU HAVE MADE IMPORTANT
  CONTRIBUTIONS TO THE CODE:
     IVANA ADAMOVIC, CHRISTINE AIKENS, YURI ALEXEEV, POOJA ARORA,
     ANDREY ASADCHEV, ROB BELL, PRADIPTA BANDYOPADHYAY, JONATHAN BENTZ,
     BRETT BODE, KURT BRORSEN, CALEB CARLIN, GALINA CHABAN, WEI CHEN,
     CHEOL HO CHOI, PAUL DAY, ALBERT DEFUSCO, NUWAN DESILVA, TIM DUDLEY,
     DMITRI FEDOROV, ALEX FINDLATER, GRAHAM FLETCHER, MARK FREITAG,
     KURT GLAESEMANN, ANASTASIA GUININA,
     DAN KEMP, GRANT MERRILL, NORIYUKI MINEZAWA, JONATHAN MULLIN,
     TAKESHI NAGATA, SEAN NEDD, HEATHER NETZLOFF, BOSILJKA NJEGIC, RYAN OLSON,
     MIKE PAK, BUU PHAM,
     SPENCER PRUITT, LUKE ROSKOP, JIM SHOEMAKER, LYUDMILA SLIPCHENKO,
     TONY SMITH, SAROM SOK LEANG, JIE SONG, TETSUYA TAKETSUGU, SIMON WEBB,
     PENG XU, SOOHAENG YOO, FEDERICO ZAHARIEV

  ADDITIONAL CODE HAS BEEN PROVIDED BY COLLABORATORS IN OTHER GROUPS:
     IOWA STATE UNIVERSITY:
          JOE IVANIC, AARON WEST, LAIMUTIS BYTAUTAS, KLAUS RUEDENBERG
     UNIVERSITY OF TOKYO: KIMIHIKO HIRAO, TAKAHITO NAKAJIMA,
          TAKAO TSUNEDA, MUNEAKI KAMIYA, SUSUMU YANAGISAWA,
          KIYOSHI YAGI, MAHITO CHIBA, SEIKEN TOKURA, NAOAKI KAWAKAMI
     UNIVERSITY OF AARHUS: FRANK JENSEN
     UNIVERSITY OF IOWA: VISVALDAS KAIRYS, HUI LI
     NATIONAL INST. OF STANDARDS AND TECHNOLOGY: WALT STEVENS, DAVID GARMER
     UNIVERSITY OF PISA: BENEDETTA MENNUCCI, JACOPO TOMASI
     UNIVERSITY OF MEMPHIS: HENRY KURTZ, PRAKASHAN KORAMBATH
     UNIVERSITY OF ALBERTA: TOBY ZENG, MARIUSZ KLOBUKOWSKI
     UNIVERSITY OF NEW ENGLAND: MARK SPACKMAN
     MIE UNIVERSITY: HIROAKI UMEDA
     NAT. INST. OF ADVANCED INDUSTRIAL SCIENCE AND TECHNOLOGY: KAZUO KITAURA
     MICHIGAN STATE UNIVERSITY:
          KAROL KOWALSKI, MARTA WLOCH, JEFFREY GOUR, JESSE LUTZ,
          WEI LI, PIOTR PIECUCH
     UNIVERSITY OF SILESIA: MONIKA MUSIAL, STANISLAW KUCHARSKI
     FACULTES UNIVERSITAIRES NOTRE-DAME DE LA PAIX:
          OLIVIER QUINET, BENOIT CHAMPAGNE
     UNIVERSITY OF CALIFORNIA - SANTA BARBARA: BERNARD KIRTMAN
     INSTITUTE FOR MOLECULAR SCIENCE:
          KAZUYA ISHIMURA, MICHIO KATOUDA, AND SHIGERU NAGASE
     UNIVERSITY OF NOTRE DAME: ANNA POMOGAEVA, DAN CHIPMAN
     KYUSHU UNIVERSITY:
          HARUYUKI NAKANO,
          FENG LONG GU, JACEK KORCHOWIEC, MARCIN MAKOWSKI, AND YURIKO AOKI,
          HIROTOSHI MORI AND EISAKU MIYOSHI
     PENNSYLVANIA STATE UNIVERSITY:
          TZVETELIN IORDANOV, CHET SWALINA, JONATHAN SKONE,
          SHARON HAMMES-SCHIFFER
     WASEDA UNIVERSITY:
          MASATO KOBAYASHI, TOMOKO AKAMA, TSUGUKI TOUMA,
          TAKESHI YOSHIKAWA, YASUHIRO IKABATA, JUNJI SEINO,
          YUYA NAKAJIMA, HIROMI NAKAI
     NANJING UNIVERSITY: SHUHUA LI
     UNIVERSITY OF NEBRASKA:
          PEIFENG SU, DEJUN SI, NANDUN THELLAMUREGE, YALI WANG, HUI LI
     UNIVERSITY OF ZURICH: ROBERTO PEVERATI, KIM BALDRIDGE
     N. COPERNICUS UNIVERSITY AND JACKSON STATE UNIVERSITY:
          MARIA BARYSZ
     UNIVERSITY OF COPENHAGEN: Jimmy Kromann, CASPER STEINMANN
     TOKYO INSTITUTE OF TECHNOLOGY: HIROYA NAKATA
     NAGOYA UNIVERSITY: YOSHIO NISHIMOTO, STEPHAN IRLE
     MOSCOW STATE UNIVERSITY: VLADIMIR MIRONOV

 EXECUTION OF GAMESS BEGUN Thu Dec 12 13:23:50 2019

            ECHO OF THE FIRST FEW INPUT CARDS -
 INPUT CARD> $CONTRL SCFTYP=RHF DFTTYP=B3LYP RUNTYP=ENERGY                                  
 INPUT CARD>       ISPHER=1 MULT=1 COORD=ZMT NZVAR=15 $END                                  
 INPUT CARD> $BASIS GBASIS=N31 NGAUSS=6 NDFUNC=1 $END                                       
 INPUT CARD> $STATPT IFREEZ(1)=9 $END                                                       
 INPUT CARD> $DATA                                                                          
 INPUT CARD>Title Single Point Energy Calculation of Acetaldehyde                           
 INPUT CARD>C1                                                                              
 INPUT CARD>C                                                                               
 INPUT CARD>C      1   1.5086892                                                            
 INPUT CARD>O      2   1.2107245  1  124.7161                                               
 INPUT CARD>H      2   1.1145804  1  114.7739  3  180.0000  0                               
 INPUT CARD>H      1   1.0926781  2  110.5176  3  350.      0                               
 INPUT CARD>H      1   1.0983769  2  109.8265  3  121.4889  0                               
 INPUT CARD>H      1   1.0983769  2  109.8265  3 -121.4889  0                               
 INPUT CARD> $END                                                                           
    1000000 WORDS OF MEMORY AVAILABLE

     BASIS OPTIONS
     -------------
     GBASIS=N31          IGAUSS=       6      POLAR=POPN31  
     NDFUNC=       1     NFFUNC=       0     DIFFSP=       F
     NPFUNC=       0      DIFFS=       F     BASNAM=        


     RUN TITLE
     ---------
 Title Single Point Energy Calculation of Acetaldehyde                           

 THE POINT GROUP OF THE MOLECULE IS C1      
 THE ORDER OF THE PRINCIPAL AXIS IS     0

 YOUR FULLY SUBSTITUTED Z-MATRIX IS
 C   
 C      1   1.5086892
 O      2   1.2107245  1  124.7161
 H      2   1.1145804  1  114.7739  3  180.0000  0
 H      1   1.0926781  2  110.5176  3  350.0000  0
 H      1   1.0983769  2  109.8265  3  121.4889  0
 H      1   1.0983769  2  109.8265  3 -121.4889  0

 THE MOMENTS OF INERTIA ARE (AMU-ANGSTROM**2)
 IXX=     8.883   IYY=    50.231   IZZ=    55.941

 ATOM      ATOMIC                      COORDINATES (BOHR)
           CHARGE         X                   Y                   Z
 C           6.0    -2.3880364578        0.3119784405       -0.0310331181
 C           6.0     0.2404389334       -0.7908847967        0.0243129894
 O           8.0     2.1700967708        0.4377571131       -0.0146476097
 H           1.0     0.3134889817       -2.8942528628        0.1067875267
 H           1.0    -2.3192435445        2.3597002503        0.2254017415
 H           1.0    -3.4243116103       -0.4203240161       -1.6736263465
 H           1.0    -3.4398589099       -0.2903885228        1.6539206392

          INTERNUCLEAR DISTANCES (ANGS.)
          ------------------------------

                1 C          2 C          3 O          4 H          5 H     

   1 C       0.0000000    1.5086892 *  2.4129941 *  2.2198436 *  1.0926781 *
   2 C       1.5086892 *  0.0000000    1.2107245 *  1.1145804 *  2.1507392 *
   3 O       2.4129941 *  1.2107245 *  0.0000000    2.0194911 *  2.5873286 *
   4 H       2.2198436 *  1.1145804 *  2.0194911 *  0.0000000    3.1104359  
   5 H       1.0926781 *  2.1507392 *  2.5873286 *  3.1104359    0.0000000  
   6 H       1.0983769 *  2.1463151 *  3.1210656    2.5522231 *  1.8751116 *
   7 H       1.0983769 *  2.1463151 *  3.1210656    2.5522231 *  1.6999209 *

                6 H          7 H     

   1 C       1.0983769 *  1.0983769 *
   2 C       2.1463151 *  2.1463151 *
   3 O       3.1210656    3.1210656  
   4 H       2.5522231 *  2.5522231 *
   5 H       1.8751116 *  1.6999209 *
   6 H       0.0000000    1.7622233 *
   7 H       1.7622233 *  0.0000000  

  * ... LESS THAN  3.000


     ATOMIC BASIS SET
     ----------------
 THE CONTRACTED PRIMITIVE FUNCTIONS HAVE BEEN UNNORMALIZED
 THE CONTRACTED BASIS FUNCTIONS ARE NOW NORMALIZED TO UNITY

  SHELL TYPE  PRIMITIVE        EXPONENT          CONTRACTION COEFFICIENT(S)

 C         

      1   S       1          3047.5248800    0.001834737132
      1   S       2           457.3695180    0.014037322813
      1   S       3           103.9486850    0.068842622264
      1   S       4            29.2101553    0.232184443216
      1   S       5             9.2866630    0.467941348435
      1   S       6             3.1639270    0.362311985337

      2   L       7             7.8682723   -0.119332419775    0.068999066591
      2   L       8             1.8812885   -0.160854151696    0.316423960957
      2   L       9             0.5442493    1.143456437840    0.744308290898

      3   L      10             0.1687145    1.000000000000    1.000000000000

      4   D      11             0.8000000    1.000000000000

 C         

      5   S      12          3047.5248800    0.001834737132
      5   S      13           457.3695180    0.014037322813
      5   S      14           103.9486850    0.068842622264
      5   S      15            29.2101553    0.232184443216
      5   S      16             9.2866630    0.467941348435
      5   S      17             3.1639270    0.362311985337

      6   L      18             7.8682723   -0.119332419775    0.068999066591
      6   L      19             1.8812885   -0.160854151696    0.316423960957
      6   L      20             0.5442493    1.143456437840    0.744308290898

      7   L      21             0.1687145    1.000000000000    1.000000000000

      8   D      22             0.8000000    1.000000000000

 O         

      9   S      23          5484.6716600    0.001831074430
      9   S      24           825.2349460    0.013950172200
      9   S      25           188.0469580    0.068445078098
      9   S      26            52.9645000    0.232714335992
      9   S      27            16.8975704    0.470192897984
      9   S      28             5.7996353    0.358520852987

     10   L      29            15.5396162   -0.110777549525    0.070874268231
     10   L      30             3.5999336   -0.148026262701    0.339752839147
     10   L      31             1.0137618    1.130767015354    0.727158577316

     11   L      32             0.2700058    1.000000000000    1.000000000000

     12   D      33             0.8000000    1.000000000000

 H         

     13   S      34            18.7311370    0.033494604338
     13   S      35             2.8253944    0.234726953484
     13   S      36             0.6401217    0.813757326146

     14   S      37             0.1612778    1.000000000000

 H         

     15   S      38            18.7311370    0.033494604338
     15   S      39             2.8253944    0.234726953484
     15   S      40             0.6401217    0.813757326146

     16   S      41             0.1612778    1.000000000000

 H         

     17   S      42            18.7311370    0.033494604338
     17   S      43             2.8253944    0.234726953484
     17   S      44             0.6401217    0.813757326146

     18   S      45             0.1612778    1.000000000000

 H         

     19   S      46            18.7311370    0.033494604338
     19   S      47             2.8253944    0.234726953484
     19   S      48             0.6401217    0.813757326146

     20   S      49             0.1612778    1.000000000000

 TOTAL NUMBER OF BASIS SET SHELLS             =   20
 NUMBER OF CARTESIAN GAUSSIAN BASIS FUNCTIONS =   53
 NOTE: THIS RUN WILL RESTRICT THE MO VARIATION SPACE TO SPHERICAL HARMONICS.
 THE NUMBER OF ORBITALS KEPT IN THE VARIATIONAL SPACE WILL BE PRINTED LATER.
 NUMBER OF ELECTRONS                          =   24
 CHARGE OF MOLECULE                           =    0
 SPIN MULTIPLICITY                            =    1
 NUMBER OF OCCUPIED ORBITALS (ALPHA)          =   12
 NUMBER OF OCCUPIED ORBITALS (BETA )          =   12
 TOTAL NUMBER OF ATOMS                        =    7
 THE NUCLEAR REPULSION ENERGY IS       69.4581454069

     LEBEDEV GRID-BASED DFT OPTIONS
     ------------------------------
     DFTTYP=B3LYP   
     NRAD  =      96     NLEB  =     302
     NRAD0 =      24     NLEB0 =     110
     SWOFF =    5.00E-03 (PURE SCF -> DFT)
     SWITCH=    3.00E-04 (COARSE -> TIGHT GRID)
     THRESH=    0.00E+00 GTHRE=    1.00E+00

 GRIMME'S EMPIRICAL DISPERSION CORRECTION= F

     $CONTRL OPTIONS
     ---------------
 SCFTYP=RHF          RUNTYP=ENERGY       EXETYP=RUN     
 MPLEVL=       0     CITYP =NONE         CCTYP =NONE         VBTYP =NONE    
 DFTTYP=B3LYP        TDDFT =NONE    
 MULT  =       1     ICHARG=       0     NZVAR =      15     COORD =ZMT     
 PP    =NONE         RELWFN=NONE         LOCAL =NONE         NUMGRD=       F
 ISPHER=       1     NOSYM =       0     MAXIT =      30     UNITS =ANGS    
 PLTORB=       F     MOLPLT=       F     AIMPAC=       F     FRIEND=        
 NPRINT=       7     IREST =       0     GEOM  =INPUT   
 NORMF =       0     NORMP =       0     ITOL  =      20     ICUT  =       9
 INTTYP=BEST         GRDTYP=BEST         QMTTOL= 1.0E-06

     $SYSTEM OPTIONS
     ---------------
  REPLICATED MEMORY=     1000000 WORDS (ON EVERY NODE).
 DISTRIBUTED MEMDDI=           0 MILLION WORDS IN AGGREGATE,
 MEMDDI DISTRIBUTED OVER   1 PROCESSORS IS           0 WORDS/PROCESSOR.
 TOTAL MEMORY REQUESTED ON EACH PROCESSOR=     1000000 WORDS.
 TIMLIM=      525600.00 MINUTES, OR     365.0 DAYS.
 PARALL= F  BALTYP=  DLB     KDIAG=    0  COREFL= F
 MXSEQ2=     300 MXSEQ3=     150  mem10=         0

          ----------------
          PROPERTIES INPUT
          ----------------

     MOMENTS            FIELD           POTENTIAL          DENSITY
 IEMOM =       1   IEFLD =       0   IEPOT =       0   IEDEN =       0
 WHERE =COMASS     WHERE =NUCLEI     WHERE =NUCLEI     WHERE =NUCLEI  
 OUTPUT=BOTH       OUTPUT=BOTH       OUTPUT=BOTH       OUTPUT=BOTH    
 IEMINT=       0   IEFINT=       0                     IEDINT=       0
                                                       MORB  =       0
          EXTRAPOLATION IN EFFECT
          DIIS IN EFFECT
 ORBITAL PRINTING OPTION: NPREO=     1    53     2     1

     -------------------------------
     INTEGRAL TRANSFORMATION OPTIONS
     -------------------------------
     NWORD  =            0
     CUTOFF = 1.0E-09     MPTRAN =       0
     DIRTRF =       F     AOINTS =DUP     

          ----------------------
          INTEGRAL INPUT OPTIONS
          ----------------------
 NOPK  =       1 NORDER=       0 SCHWRZ=       T

   --- ENCODED Z MATRIX ---
 COORD  TYPE   I   J   K   L   M   N
    1      1    2   1
    2      1    3   2
    3      2    3   2   1
    4      1    4   2
    5      2    4   2   1
    6      3    4   2   1   3
    7      1    5   1
    8      2    5   1   2
    9      3    5   1   2   3
   10      1    6   1
   11      2    6   1   2
   12      3    6   1   2   3
   13      1    7   1
   14      2    7   1   2
   15      3    7   1   2   3

 THE DETERMINANT OF THE G MATRIX IS 10**(    -8)


                     --------------------
                     INTERNAL COORDINATES
                     --------------------

                 - - ATOMS - -         COORDINATE      COORDINATE
 NO.   TYPE    I  J  K  L  M  N        (BOHR,RAD)       (ANG,DEG)
 ----------------------------------------------------------------
   1 STRETCH   2  1                     2.8510092       1.5086892
   2 STRETCH   3  2                     2.2879376       1.2107245
   3 BEND      3  2  1                  2.1767066     124.7161000
   4 STRETCH   4  2                     2.1062515       1.1145804
   5 BEND      4  2  1                  2.0031825     114.7739000
   6 TORSION   4  2  1  3               3.1415927     180.0000000
   7 STRETCH   5  1                     2.0648622       1.0926781
   8 BEND      5  1  2                  1.9288960     110.5176000
   9 TORSION   5  1  2  3              -0.1745329     -10.0000000
  10 STRETCH   6  1                     2.0756314       1.0983769
  11 BEND      6  1  2                  1.9168340     109.8265000
  12 TORSION   6  1  2  3               2.1203813     121.4889000
  13 STRETCH   7  1                     2.0756314       1.0983769
  14 BEND      7  1  2                  1.9168340     109.8265000
  15 TORSION   7  1  2  3              -2.1203813    -121.4889000

     ------------------------------------------
     THE POINT GROUP IS C1 , NAXIS= 0, ORDER= 1
     ------------------------------------------

 -- VARIATIONAL SPACE WILL BE RESTRICTED TO PURE SPHERICAL HARMONICS ONLY --
 AFTER EXCLUDING CONTAMINANT COMBINATIONS FROM THE CARTESIAN GAUSSIAN BASIS
 SET, THE NUMBER OF SPHERICAL HARMONICS KEPT IN THE VARIATION SPACE IS   50

     DIMENSIONS OF THE SYMMETRY SUBSPACES ARE
 A   =   50

 ..... DONE SETTING UP THE RUN .....
 STEP CPU TIME =     0.01 TOTAL CPU TIME =          0.0 (      0.0 MIN)
 TOTAL WALL CLOCK TIME=          0.0 SECONDS, CPU UTILIZATION IS    50.00%

          ********************
          1 ELECTRON INTEGRALS
          ********************
 ...... END OF ONE-ELECTRON INTEGRALS ......
 STEP CPU TIME =     0.00 TOTAL CPU TIME =          0.0 (      0.0 MIN)
 TOTAL WALL CLOCK TIME=          0.0 SECONDS, CPU UTILIZATION IS    50.00%

          -------------
          GUESS OPTIONS
          -------------
          GUESS =HUCKEL            NORB  =       0          NORDER=       0
          MIX   =       F          PRTMO =       F          PUNMO =       F
          TOLZ  = 1.0E-08          TOLE  = 1.0E-05
          SYMDEN=       F          PURIFY=       F

 INITIAL GUESS ORBITALS GENERATED BY HUCKEL   ROUTINE.
 HUCKEL GUESS REQUIRES     27154 WORDS.

 STATISTICS FOR GENERATION OF SYMMETRY ORBITAL -Q- MATRIX
 NUMBER OF CARTESIAN ATOMIC ORBITALS=         53
 NUMBER OF SPHERICAL CONTAMINANTS DROPPED=     3
 NUMBER OF LINEARLY DEPENDENT MOS DROPPED=     0
 TOTAL NUMBER OF MOS IN VARIATION SPACE=      50

 SYMMETRIES FOR INITIAL GUESS ORBITALS FOLLOW.   BOTH SET(S).
    12 ORBITALS ARE OCCUPIED (    3 CORE ORBITALS).
     4=A        5=A        6=A        7=A        8=A        9=A       10=A   
    11=A       12=A       13=A       14=A       15=A       16=A       17=A   
    18=A       19=A       20=A       21=A       22=A   
 ...... END OF INITIAL ORBITAL SELECTION ......
 STEP CPU TIME =     0.01 TOTAL CPU TIME =          0.0 (      0.0 MIN)
 TOTAL WALL CLOCK TIME=          0.0 SECONDS, CPU UTILIZATION IS    66.67%

                    ----------------------
                    AO INTEGRAL TECHNOLOGY
                    ----------------------
     S,P,L SHELL ROTATED AXIS INTEGRALS, REPROGRAMMED BY
        KAZUYA ISHIMURA (IMS) AND JOSE SIERRA (SYNSTAR).
     S,P,D,L SHELL ROTATED AXIS INTEGRALS PROGRAMMED BY
        KAZUYA ISHIMURA (INSTITUTE FOR MOLECULAR SCIENCE).
     S,P,D,F,G SHELL TO TOTAL QUARTET ANGULAR MOMENTUM SUM 5,
        ERIC PROGRAM BY GRAHAM FLETCHER (ELORET AND NASA ADVANCED
        SUPERCOMPUTING DIVISION, AMES RESEARCH CENTER).
     S,P,D,F,G,L SHELL GENERAL RYS QUADRATURE PROGRAMMED BY
        MICHEL DUPUIS (PACIFIC NORTHWEST NATIONAL LABORATORY).

          --------------------
          2 ELECTRON INTEGRALS
          --------------------

 THE -PK- OPTION IS OFF, THE INTEGRALS ARE NOT IN SUPERMATRIX FORM.
 STORING   15000 INTEGRALS/RECORD ON DISK, USING 12 BYTES/INTEGRAL.
 TWO ELECTRON INTEGRAL EVALUATION REQUIRES   90606 WORDS OF MEMORY.
 SCHWARZ INEQUALITY OVERHEAD:      1430 INTEGRALS, T=        0.00
 II,JST,KST,LST =  1  1  1  1 NREC =         1 INTLOC =    1
 II,JST,KST,LST =  2  1  1  1 NREC =         1 INTLOC =    2
 II,JST,KST,LST =  3  1  1  1 NREC =         1 INTLOC =   34
 II,JST,KST,LST =  4  1  1  1 NREC =         1 INTLOC =  214
 II,JST,KST,LST =  5  1  1  1 NREC =         1 INTLOC = 1189
 II,JST,KST,LST =  6  1  1  1 NREC =         1 INTLOC = 3209
 II,JST,KST,LST =  7  1  1  1 NREC =         2 INTLOC =  952
 II,JST,KST,LST =  8  1  1  1 NREC =         3 INTLOC = 8200
 II,JST,KST,LST =  9  1  1  1 NREC =         7 INTLOC = 6108
 II,JST,KST,LST = 10  1  1  1 NREC =         8 INTLOC = 3234
 II,JST,KST,LST = 11  1  1  1 NREC =        13 INTLOC =  238
 II,JST,KST,LST = 12  1  1  1 NREC =        19 INTLOC =13745
 II,JST,KST,LST = 13  1  1  1 NREC =        34 INTLOC = 8116
 II,JST,KST,LST = 14  1  1  1 NREC =        37 INTLOC =10935
 II,JST,KST,LST = 15  1  1  1 NREC =        41 INTLOC = 2433
 II,JST,KST,LST = 16  1  1  1 NREC =        44 INTLOC =11223
 II,JST,KST,LST = 17  1  1  1 NREC =        48 INTLOC = 9571
 II,JST,KST,LST = 18  1  1  1 NREC =        52 INTLOC = 8765
 II,JST,KST,LST = 19  1  1  1 NREC =        56 INTLOC =14482
 II,JST,KST,LST = 20  1  1  1 NREC =        61 INTLOC = 6179
 SCHWARZ INEQUALITY TEST SKIPPED         774 INTEGRAL BLOCKS.
 TOTAL NUMBER OF NONZERO TWO-ELECTRON INTEGRALS =              979918
         66 INTEGRAL RECORDS WERE STORED ON DISK FILE  8.
  ...... END OF TWO-ELECTRON INTEGRALS .....
 STEP CPU TIME =     0.10 TOTAL CPU TIME =          0.1 (      0.0 MIN)
 TOTAL WALL CLOCK TIME=          0.1 SECONDS, CPU UTILIZATION IS    85.71%

          --------------------------
             R-B3LYP SCF CALCULATION
          --------------------------

     NUCLEAR ENERGY =        69.4581454069
     MAXIT =   30     NPUNCH=    2
     EXTRAP=T  DAMP=F  SHIFT=F  RSTRCT=F  DIIS=T  DEM=F  SOSCF=F
         DENSITY MATRIX CONVERGENCE THRESHOLD=  1.00E-05
     COARSE -> FINE DFT GRID SWITCH THRESHOLD=  3.00E-04 (SWITCH IN $DFT)
                   HF -> DFT SWITCH THRESHOLD=  5.00E-03 (SWOFF IN $DFT)
     MEMORY REQUIRED FOR RHF ITERS=    307426 WORDS.

 DFT CODE IS SWITCHING FROM THE FINE GRID NRAD= 96,  NLEB=  302
                      TO THE COARSE GRID NRAD0= 24, NLEB0=  110

     EXCHANGE FUNCTIONAL   =B88&HFX   
     CORRELATION FUNCTIONAL=LYP88&VWN5
     DFT THRESHOLD         =.197E-07
     GRID CHANGE THRESHOLD =.300E-03
 FOR AN EULER-MACLAURIN QUADRATURE USING  96 RADIAL POINTS:
 SMALLEST GAUSSIAN PRIMITIVE EXPONENT=        0.1612777588 OF TYPE -S-
 ON ATOM NUMBER   4 HAS RADIAL NORMALIZATION=  1.000000
  LARGEST GAUSSIAN PRIMITIVE EXPONENT=     5484.6716600000 OF TYPE -S-
 ON ATOM NUMBER   3 HAS RADIAL NORMALIZATION=  1.000000
 DFT IS SWITCHED OFF, PERFORMING PURE SCF UNTIL SWOFF THRESHOLD IS REACHED.

 ITER EX DEM     TOTAL ENERGY        E CHANGE  DENSITY CHANGE    DIIS ERROR
   1  0  0     -152.4582108488  -152.4582108488   0.249239108   0.514939147
          * * *   INITIATING DIIS PROCEDURE   * * *
   2  1  0     -152.8521926653    -0.3939818165   0.149946686   0.121928893
   3  2  0     -152.8834806697    -0.0312880044   0.074554448   0.111976169
   4  3  0     -152.9099046853    -0.0264240156   0.009212504   0.007318942
   5  4  0     -152.9104683062    -0.0005636209   0.004527589   0.003581967
 CONVERGED TO SWOFF, SO DFT CALCULATION IS NOW SWITCHED ON.
          * * *   INITIATING DIIS PROCEDURE   * * *
   6  5  0     -153.7227417603    -0.8122734542   0.092523843   0.057345694
   7  6  0     -153.7328791264    -0.0101373660   0.055739281   0.032838844
   8  7  0     -153.7309218153     0.0019573111   0.042783305   0.042882713
   9  8  0     -153.7364312507    -0.0055094354   0.008461782   0.010915213
  10  9  0     -153.7366734620    -0.0002422112   0.000711200   0.000588253
  11 10  0     -153.7366756943    -0.0000022323   0.000252054   0.000192465
 DFT CODE IS SWITCHING BACK TO THE FINE GRID
          * * *   INITIATING DIIS PROCEDURE   * * *
  12 11  0     -153.7359883367     0.0006873575   0.002301271   0.001729983
  13 12  0     -153.7359966883    -0.0000083516   0.000661516   0.000219971
  14 13  0     -153.7359964378     0.0000002505   0.000393629   0.000401086
  15 14  0     -153.7359969209    -0.0000004831   0.000068650   0.000065024
  16 15  0     -153.7359969291    -0.0000000083   0.000015621   0.000018690
  17 16  0     -153.7359969299    -0.0000000007   0.000004529   0.000005034
  18 17  0     -153.7359969300    -0.0000000001   0.000000782   0.000000521

          -----------------
          DENSITY CONVERGED
          -----------------
     TIME TO FORM FOCK OPERATORS=      11.4 SECONDS (       0.6 SEC/ITER)
     TIME TO SOLVE SCF EQUATIONS=       2.6 SECONDS (       0.1 SEC/ITER)

 FINAL R-B3LYP ENERGY IS     -153.7359969300 AFTER  18 ITERATIONS
 DFT EXCHANGE + CORRELATION ENERGY =       -16.8244624459
 TOTAL ELECTRON NUMBER             =        24.0001029691

          ------------
          EIGENVECTORS
          ------------

                      1          2          3          4          5
                  -19.1430   -10.2725   -10.1866    -1.0422    -0.7505
                     A          A          A          A          A   
    1  C  1  S    0.000028   0.000969   0.995270  -0.017862  -0.181466
    2  C  1  S   -0.000085  -0.000843   0.037439   0.033189   0.348013
    3  C  1  X   -0.000254  -0.000941   0.000137   0.025590   0.030094
    4  C  1  Y    0.000199   0.000391  -0.000241  -0.004103  -0.030651
    5  C  1  Z    0.000029   0.000002   0.000195   0.000615   0.011323
    6  C  1  S   -0.000872   0.004852  -0.033229   0.020243   0.317154
    7  C  1  X   -0.001397   0.002666  -0.001658   0.006134   0.000482
    8  C  1  Y   -0.002475  -0.002129   0.000840   0.008697  -0.007262
    9  C  1  Z   -0.000239  -0.000022  -0.001156   0.000955   0.006693
   10  C  1 XX   -0.000373  -0.000996   0.000002   0.004973  -0.001106
   11  C  1 YY    0.000279   0.000312   0.000027  -0.002275   0.000422
   12  C  1 ZZ    0.000094   0.000683  -0.000030  -0.002698   0.000684
   13  C  1 XY   -0.000220   0.000691  -0.000064  -0.001520  -0.000608
   14  C  1 XZ    0.000019  -0.000031   0.000048   0.000135  -0.000129
   15  C  1 YZ   -0.000028   0.000032   0.000053   0.000229   0.002874
   16  C  2  S    0.000227   0.995142  -0.000922  -0.117412  -0.079662
   17  C  2  S    0.000037   0.035738  -0.001246   0.224202   0.160546
   18  C  2  X   -0.000039   0.001732   0.000523   0.154313  -0.182586
   19  C  2  Y   -0.000221   0.001349  -0.000368   0.101866  -0.010600
   20  C  2  Z    0.000008  -0.000047   0.000019  -0.003206   0.000579
   21  C  2  S    0.009388  -0.015788   0.007859   0.083046   0.117654
   22  C  2  X    0.005273   0.005758  -0.004059  -0.013112  -0.039685
   23  C  2  Y    0.005761   0.002726   0.002512  -0.018651  -0.014968
   24  C  2  Z   -0.000119  -0.000053   0.000143   0.000447  -0.000349
   25  C  2 XX   -0.000520   0.001314  -0.000904   0.016127   0.003396
   26  C  2 YY    0.000266  -0.000107   0.000474  -0.000643   0.001568
   27  C  2 ZZ    0.000254  -0.001207   0.000429  -0.015484  -0.004964
   28  C  2 XY   -0.000806   0.001307   0.000741   0.022841  -0.013812
   29  C  2 XZ    0.000016  -0.000040  -0.000074  -0.000678   0.000574
   30  C  2 YZ    0.000005  -0.000041   0.000024  -0.000545  -0.000247
   31  O  3  S    0.995120  -0.000046  -0.000006  -0.194439   0.053343
   32  O  3  S    0.029539   0.000491  -0.000277   0.428674  -0.124011
   33  O  3  X   -0.001957   0.000955   0.000130  -0.138732  -0.016549
   34  O  3  Y   -0.001205   0.000558   0.000027  -0.087111   0.015529
   35  O  3  Z    0.000046  -0.000014   0.000022   0.002840  -0.000357
   36  O  3  S   -0.019941  -0.006042   0.000008   0.376549  -0.119586
   37  O  3  X    0.005243   0.003738   0.000250  -0.042104  -0.015095
   38  O  3  Y    0.002828   0.002766  -0.000604  -0.024289   0.001388
   39  O  3  Z   -0.000117  -0.000103  -0.000080   0.000959   0.000348
   40  O  3 XX   -0.000201  -0.001093  -0.000070   0.005956   0.003446
   41  O  3 YY    0.000120  -0.000037   0.000284  -0.002823  -0.001668
   42  O  3 ZZ    0.000081   0.001130  -0.000214  -0.003133  -0.001778
   43  O  3 XY   -0.000124  -0.001534   0.000084   0.010160   0.000262
   44  O  3 XZ    0.000007   0.000049   0.000010  -0.000393  -0.000040
   45  O  3 YZ    0.000000   0.000046  -0.000016   0.000035  -0.000029
   46  H  4  S   -0.000186  -0.000976  -0.000347   0.027988   0.053167
   47  H  4  S    0.001313   0.004953   0.000854  -0.011324   0.009077
   48  H  5  S    0.000140  -0.000249  -0.000530   0.007340   0.105572
   49  H  5  S    0.001338   0.000818   0.005704  -0.003203   0.019708
   50  H  6  S   -0.000057  -0.000447  -0.000623   0.005441   0.113619
   51  H  6  S   -0.000689   0.000653   0.005377   0.000350   0.025792
   52  H  7  S    0.000012  -0.000420  -0.000381   0.005405   0.117073
   53  H  7  S   -0.000472   0.000709   0.006040  -0.000642   0.023726

                      6          7          8          9         10
                   -0.5778    -0.4732    -0.4466    -0.4276    -0.3919
                     A          A          A          A          A   
    1  C  1  S    0.070743   0.013654   0.003067  -0.007805  -0.004417
    2  C  1  S   -0.139035  -0.024856  -0.007757   0.016113   0.009194
    3  C  1  X    0.132746   0.279437  -0.062189  -0.186032   0.117414
    4  C  1  Y   -0.115707   0.115332   0.135534   0.160824   0.349913
    5  C  1  Z   -0.016060   0.036966   0.356588  -0.119823  -0.050929
    6  C  1  S   -0.169410  -0.034141  -0.002134   0.020803   0.018043
    7  C  1  X    0.042791   0.121571  -0.027465  -0.090866   0.055089
    8  C  1  Y   -0.033465   0.072331   0.065466   0.097032   0.164125
    9  C  1  Z   -0.007611   0.018314   0.165924  -0.053270  -0.027052
   10  C  1 XX    0.008564   0.010041  -0.006131  -0.006473  -0.009303
   11  C  1 YY   -0.003313   0.002700   0.006421   0.004424   0.022912
   12  C  1 ZZ   -0.005251  -0.012741  -0.000290   0.002049  -0.013609
   13  C  1 XY   -0.011398  -0.005433   0.000911   0.008312  -0.006618
   14  C  1 XZ    0.001261  -0.000287  -0.011467   0.002508   0.000110
   15  C  1 YZ   -0.002462  -0.000858  -0.012156   0.007024   0.006194
   16  C  2  S   -0.134477  -0.045306  -0.001803  -0.008899   0.004393
   17  C  2  S    0.283144   0.105848   0.005330   0.029077  -0.016558
   18  C  2  X   -0.035672  -0.087998   0.116593   0.351090  -0.060540
   19  C  2  Y   -0.218469   0.315412  -0.072068   0.028226  -0.196245
   20  C  2  Z    0.003627   0.004507   0.204749  -0.084024  -0.101164
   21  C  2  S    0.265973   0.063330   0.001407  -0.015312   0.032720
   22  C  2  X   -0.040586  -0.053247   0.033947   0.073276   0.020199
   23  C  2  Y   -0.088812   0.079154  -0.031011  -0.024273  -0.054470
   24  C  2  Z    0.002174   0.004756   0.102321  -0.045210  -0.060969
   25  C  2 XX   -0.008762  -0.003056  -0.001027   0.005906  -0.012114
   26  C  2 YY    0.013482   0.002040   0.002845  -0.003567   0.012861
   27  C  2 ZZ   -0.004720   0.001017  -0.001817  -0.002339  -0.000746
   28  C  2 XY   -0.004271  -0.000089  -0.000976   0.006882  -0.015927
   29  C  2 XZ    0.000513  -0.000339  -0.001765  -0.000762  -0.004311
   30  C  2 YZ   -0.001036   0.000660   0.007475  -0.003083  -0.004647
   31  O  3  S    0.068887   0.051254   0.013866   0.063614  -0.020225
   32  O  3  S   -0.162217  -0.118901  -0.030620  -0.138898   0.041825
   33  O  3  X   -0.062368  -0.293838  -0.011023  -0.272042   0.239183
   34  O  3  Y   -0.124243   0.071401  -0.105037  -0.328439   0.044890
   35  O  3  Z    0.002092   0.008934   0.177302  -0.070283  -0.135583
   36  O  3  S   -0.193029  -0.179040  -0.057586  -0.268542   0.085529
   37  O  3  X   -0.039624  -0.161484  -0.002870  -0.138629   0.135040
   38  O  3  Y   -0.064935   0.042002  -0.055785  -0.177488   0.027242
   39  O  3  Z    0.000947   0.004817   0.099659  -0.040502  -0.082277
   40  O  3 XX   -0.000296   0.019854  -0.003356   0.003290  -0.010478
   41  O  3 YY    0.005454  -0.013271   0.004789   0.006513   0.006693
   42  O  3 ZZ   -0.005158  -0.006583  -0.001433  -0.009803   0.003785
   43  O  3 XY    0.009789   0.000834   0.004537   0.016994  -0.004837
   44  O  3 XZ   -0.000111  -0.000846  -0.011776   0.004536   0.007846
   45  O  3 YZ   -0.000339  -0.000183  -0.006922   0.002346   0.004686
   46  H  4  S    0.211179  -0.119347   0.048798  -0.003883   0.118487
   47  H  4  S    0.099971  -0.105647   0.036054  -0.017120   0.112970
   48  H  5  S   -0.111992   0.057140   0.096350   0.094660   0.237715
   49  H  5  S   -0.056069   0.028588   0.058058   0.047798   0.202171
   50  H  6  S   -0.066266  -0.136392  -0.188008   0.097411  -0.088150
   51  H  6  S   -0.029539  -0.090346  -0.141397   0.079557  -0.073284
   52  H  7  S   -0.079608  -0.099030   0.169327  -0.022683  -0.136942
   53  H  7  S   -0.034638  -0.068699   0.129643  -0.021215  -0.122648

                     11         12         13         14         15
                   -0.3595    -0.2513    -0.0182     0.1097     0.1328
                     A          A          A          A          A   
    1  C  1  S   -0.004076   0.037556  -0.001121  -0.123338  -0.082342
    2  C  1  S    0.009924  -0.069742  -0.001666   0.137216   0.099263
    3  C  1  X    0.018366  -0.220565  -0.000035  -0.230225   0.095598
    4  C  1  Y    0.076786   0.070900   0.002296  -0.013008   0.137586
    5  C  1  Z   -0.231105  -0.005239  -0.019679  -0.008281  -0.066405
    6  C  1  S    0.007463  -0.293634   0.024250   2.081158   1.305923
    7  C  1  X    0.007387  -0.166696   0.006607  -0.610132   0.326035
    8  C  1  Y    0.035622   0.048102   0.020309   0.037426   0.197867
    9  C  1  Z   -0.113130  -0.014221   0.045773   0.008781  -0.173380
   10  C  1 XX   -0.001778  -0.004090  -0.000205   0.004729   0.004439
   11  C  1 YY    0.004900   0.002840  -0.000350   0.002356  -0.010900
   12  C  1 ZZ   -0.003122   0.001249   0.000556  -0.007085   0.006460
   13  C  1 XY   -0.000058   0.005769   0.001678  -0.007958   0.013071
   14  C  1 XZ    0.019397  -0.000456   0.032707  -0.001538  -0.002793
   15  C  1 YZ    0.008116   0.000140  -0.006173  -0.000669  -0.004132
   16  C  2  S    0.001125   0.001680   0.000279  -0.028513   0.095840
   17  C  2  S   -0.003730  -0.016808  -0.000346   0.101192  -0.126485
   18  C  2  X    0.001717   0.086634  -0.001224  -0.014322   0.062068
   19  C  2  Y   -0.020737  -0.120308   0.019380  -0.135037   0.266302
   20  C  2  Z    0.265505   0.004301   0.510193   0.010668   0.005169
   21  C  2  S    0.007021   0.034722  -0.006799   0.242104  -1.502655
   22  C  2  X    0.008590  -0.065414  -0.000230  -0.021796   0.346627
   23  C  2  Y    0.000480   0.042795   0.018080  -0.376913   0.606470
   24  C  2  Z    0.162629  -0.001096   0.559033   0.016898   0.034215
   25  C  2 XX   -0.002280  -0.038778  -0.000074   0.001941  -0.002378
   26  C  2 YY    0.003226   0.040894  -0.001015   0.004248   0.007167
   27  C  2 ZZ   -0.000945  -0.002116   0.001089  -0.006189  -0.004789
   28  C  2 XY   -0.002173   0.019127  -0.000997   0.000303  -0.012245
   29  C  2 XZ    0.028362  -0.000945  -0.023903   0.000637   0.002481
   30  C  2 YZ    0.011701  -0.001680  -0.017415  -0.001773  -0.005075
   31  O  3  S   -0.000793   0.000632   0.000026  -0.010580  -0.000676
   32  O  3  S    0.001525  -0.003327  -0.000327   0.020537   0.012727
   33  O  3  X    0.032730  -0.312230   0.002409  -0.047351  -0.007588
   34  O  3  Y    0.012972   0.486566  -0.015585   0.071473  -0.042762
   35  O  3  Z    0.459793  -0.019053  -0.429241  -0.001281  -0.000048
   36  O  3  S    0.000091   0.007468   0.001413   0.151335  -0.085518
   37  O  3  X    0.020539  -0.221407   0.001486  -0.113594   0.029235
   38  O  3  Y    0.009542   0.344477  -0.016509   0.070517  -0.095459
   39  O  3  Z    0.295843  -0.013632  -0.449050  -0.003933  -0.013291
   40  O  3 XX   -0.001696   0.014048   0.000101   0.004465   0.004941
   41  O  3 YY    0.000474  -0.013760  -0.000096  -0.002608  -0.000756
   42  O  3 ZZ    0.001223  -0.000288  -0.000005  -0.001857  -0.004185
   43  O  3 XY   -0.001235  -0.007968  -0.000009   0.005745  -0.003492
   44  O  3 XZ   -0.023728   0.000323  -0.000532  -0.000030   0.001384
   45  O  3 YZ   -0.015346   0.000631  -0.000688  -0.000563  -0.001611
   46  H  4  S    0.020498   0.178065   0.001283   0.018396   0.101862
   47  H  4  S    0.021550   0.290727   0.002723  -0.589398   1.560975
   48  H  5  S    0.046088   0.018850  -0.001753  -0.015196  -0.071512
   49  H  5  S    0.051071   0.094023  -0.028924  -0.700116  -1.033980
   50  H  6  S    0.120319   0.033929   0.101124  -0.049298  -0.011376
   51  H  6  S    0.120788   0.065132   0.228937  -1.250955  -0.373433
   52  H  7  S   -0.160183   0.030374  -0.100075  -0.033450   0.043142
   53  H  7  S   -0.160666   0.067143  -0.224685  -1.180258   0.122664

                     16         17         18         19         20
                    0.1492     0.1630     0.2585     0.2850     0.5263
                     A          A          A          A          A   
    1  C  1  S    0.024746  -0.003423  -0.073458  -0.023008  -0.006926
    2  C  1  S   -0.019577  -0.007426   0.026549   0.048384   0.034434
    3  C  1  X    0.003187   0.016917   0.133616   0.181113   0.188647
    4  C  1  Y    0.226623   0.241041  -0.120567   0.166712  -0.261051
    5  C  1  Z   -0.272670   0.316637  -0.014220  -0.013220   0.333710
    6  C  1  S   -0.383378   0.219096   1.678628  -0.074223  -0.010248
    7  C  1  X    0.024227   0.166014   1.689497   0.688190  -0.160804
    8  C  1  Y    0.870696   0.949005  -0.643684   0.667786   0.409277
    9  C  1  Z   -0.864207   1.103270  -0.009398  -0.017228  -0.604814
   10  C  1 XX    0.009740   0.006735  -0.032442  -0.035557   0.004663
   11  C  1 YY   -0.018611  -0.015564   0.004709   0.034213  -0.017984
   12  C  1 ZZ    0.008871   0.008829   0.027733   0.001344   0.013321
   13  C  1 XY   -0.007178  -0.002297   0.027560  -0.006546  -0.006009
   14  C  1 XZ   -0.005573   0.002467   0.000316  -0.000403  -0.033597
   15  C  1 YZ   -0.011167   0.007614   0.003530   0.000392  -0.053358
   16  C  2  S   -0.068719  -0.037859   0.053705   0.059756   0.020096
   17  C  2  S    0.077894   0.048084  -0.106222  -0.032693   0.006317
   18  C  2  X   -0.021671   0.003023   0.391011   0.026100  -0.011090
   19  C  2  Y   -0.082315  -0.025011  -0.315799  -0.241701  -0.013202
   20  C  2  Z    0.056680  -0.049931   0.011188   0.016557   0.814828
   21  C  2  S    1.203768   0.628169  -0.971383  -1.737691  -0.029400
   22  C  2  X   -0.017570   0.102836   1.781860  -1.463363  -0.049487
   23  C  2  Y   -0.246366  -0.195702  -0.785493  -1.447538  -0.138720
   24  C  2  Z    0.255991  -0.308207   0.052156   0.051002  -0.761232
   25  C  2 XX   -0.015429  -0.015266  -0.000269  -0.002546   0.027589
   26  C  2 YY    0.003409   0.006062   0.001310   0.010700   0.003335
   27  C  2 ZZ    0.012020   0.009204  -0.001041  -0.008153  -0.030923
   28  C  2 XY   -0.013508  -0.014658  -0.007655  -0.000834  -0.017371
   29  C  2 XZ    0.007782  -0.008029   0.001008   0.001132   0.009447
   30  C  2 YZ   -0.013924   0.014175  -0.000726  -0.002469   0.001015
   31  O  3  S    0.020973   0.016091   0.026766  -0.098943  -0.008271
   32  O  3  S   -0.043314  -0.031930  -0.040730   0.143110   0.027999
   33  O  3  X    0.080450   0.058303  -0.070647  -0.149334  -0.024763
   34  O  3  Y    0.076388   0.073429   0.132932  -0.057170  -0.006635
   35  O  3  Z   -0.025602   0.035124  -0.006914   0.004414   0.056518
   36  O  3  S   -0.249989  -0.198686  -0.554262   2.021697   0.094074
   37  O  3  X    0.133574   0.095647  -0.054313  -0.794245  -0.067680
   38  O  3  Y    0.133085   0.113342   0.432454  -0.398427  -0.002631
   39  O  3  Z   -0.082423   0.094670  -0.020131   0.010267   0.044360
   40  O  3 XX   -0.002719   0.000383  -0.012231   0.023986  -0.002518
   41  O  3 YY   -0.003036  -0.003731   0.010723   0.002221   0.003942
   42  O  3 ZZ    0.005755   0.003348   0.001508  -0.026207  -0.001424
   43  O  3 XY   -0.001642  -0.001054  -0.011770   0.041611  -0.006764
   44  O  3 XZ    0.003947  -0.004299   0.000678  -0.001074  -0.042381
   45  O  3 YZ   -0.003267   0.002906  -0.000364  -0.002019  -0.036620
   46  H  4  S   -0.023438   0.001506   0.006407   0.067066   0.082627
   47  H  4  S   -0.788017  -0.401369  -0.804218  -0.584183  -0.050434
   48  H  5  S   -0.109095  -0.071710   0.025455   0.107692  -0.146458
   49  H  5  S   -0.933036  -1.335010   0.127571  -0.685487   0.024249
   50  H  6  S   -0.033450   0.078047   0.095557  -0.004250  -0.248209
   51  H  6  S   -0.414487   1.572771   0.067284   0.429303  -0.084984
   52  H  7  S    0.093944  -0.005264   0.090321   0.002626   0.263693
   53  H  7  S    1.498938  -0.695853   0.160749   0.497283   0.117467

                     21         22         23         24         25
                    0.5440     0.5819     0.6136     0.6716     0.7111
                     A          A          A          A          A   
    1  C  1  S    0.021076   0.008728   0.008370   0.019440  -0.014955
    2  C  1  S   -0.244423  -0.116231   0.034201  -0.140156   0.039107
    3  C  1  X   -0.760224  -0.467165  -0.181829  -0.331885   0.087190
    4  C  1  Y    0.473670  -0.342277  -0.312523  -0.122583   0.252561
    5  C  1  Z   -0.002092   0.372157  -0.612293  -0.014733  -0.052184
    6  C  1  S   -0.045603  -0.276919  -0.208576   1.130360  -0.600086
    7  C  1  X    0.829608   0.731931   0.419969   1.343519  -0.953603
    8  C  1  Y   -0.754770   0.978382   0.957611   0.362045  -0.620006
    9  C  1  Z   -0.051134  -0.823886   1.576010   0.046635   0.144897
   10  C  1 XX   -0.027617  -0.003920   0.018490   0.017624  -0.013648
   11  C  1 YY    0.030236  -0.067121  -0.072239   0.002405   0.012164
   12  C  1 ZZ   -0.002619   0.071040   0.053750  -0.020029   0.001484
   13  C  1 XY    0.018397   0.015319   0.014440  -0.091657   0.027520
   14  C  1 XZ   -0.005186  -0.031621   0.054356   0.004496   0.003360
   15  C  1 YZ   -0.001469  -0.044633   0.064109   0.002107  -0.002649
   16  C  2  S   -0.049860  -0.001282   0.003378   0.041649   0.039175
   17  C  2  S   -0.140857  -0.035483   0.156649  -0.215626  -0.424230
   18  C  2  X    0.070723   0.049907  -0.011226  -0.977955  -0.205356
   19  C  2  Y    0.085018  -0.070142   0.020633   0.099160  -0.910100
   20  C  2  Z    0.365079  -0.393685   0.318079  -0.009732   0.047527
   21  C  2  S   -0.081835  -0.454299  -0.506322  -0.933887   0.628530
   22  C  2  X   -0.215110  -0.796620  -0.480189   1.456588  -0.156394
   23  C  2  Y    0.112099  -0.147720  -0.190296  -1.425213   2.349376
   24  C  2  Z   -0.420543   0.733147  -0.867981   0.053659  -0.148161
   25  C  2 XX   -0.086768  -0.044679  -0.031528   0.036333   0.070875
   26  C  2 YY   -0.010923   0.027411   0.048661  -0.014733  -0.005768
   27  C  2 ZZ    0.097691   0.017268  -0.017133  -0.021600  -0.065107
   28  C  2 XY    0.059812  -0.000226  -0.029151   0.106991   0.091873
   29  C  2 XZ    0.001795  -0.000616  -0.010477  -0.003645  -0.005828
   30  C  2 YZ    0.010309  -0.024557   0.037860  -0.000099   0.003007
   31  O  3  S    0.017624  -0.013974  -0.014174  -0.043389  -0.011490
   32  O  3  S   -0.104697  -0.012612   0.026231   0.159201   0.075972
   33  O  3  X    0.119962   0.152147   0.121272  -0.291981  -0.175916
   34  O  3  Y   -0.064428  -0.161113  -0.085484  -0.009365  -0.352885
   35  O  3  Z    0.026943  -0.022716   0.039000   0.002934   0.011575
   36  O  3  S    0.058325   0.616627   0.440413   0.147897  -0.665106
   37  O  3  X    0.084763  -0.192040  -0.165630  -0.438747   0.146799
   38  O  3  Y   -0.039489  -0.157757  -0.109906  -0.053416  -0.107648
   39  O  3  Z    0.039056  -0.099290   0.146872  -0.000837   0.017615
   40  O  3 XX    0.014312   0.026300   0.030405  -0.019927  -0.116702
   41  O  3 YY   -0.019509  -0.008656  -0.008112  -0.024538   0.038935
   42  O  3 ZZ    0.005197  -0.017643  -0.022293   0.044466   0.077767
   43  O  3 XY    0.008094   0.000629   0.003575  -0.106415  -0.083406
   44  O  3 XZ   -0.021785   0.031864  -0.033656   0.004035  -0.000440
   45  O  3 YZ   -0.012957   0.004163   0.007930   0.002623   0.003647
   46  H  4  S   -0.199128   0.232867   0.320440  -0.100571   0.037628
   47  H  4  S    0.104120  -0.056074  -0.103298  -0.682105   1.183314
   48  H  5  S    0.198448  -0.315689  -0.214240   0.074254  -0.169820
   49  H  5  S    0.173930  -0.155800  -0.347930  -0.350333   0.255009
   50  H  6  S   -0.018421   0.025196   0.456951   0.062900  -0.090180
   51  H  6  S   -0.079158   0.104334   0.532229   0.414450  -0.204895
   52  H  7  S    0.059569   0.347676  -0.054341   0.046413  -0.105790
   53  H  7  S    0.074275   0.240814  -0.213655   0.406118  -0.326200

                     26         27         28         29         30
                    0.7607     0.8419     0.8596     0.8980     0.9335
                     A          A          A          A          A   
    1  C  1  S   -0.037097   0.013824  -0.014280  -0.019374  -0.021911
    2  C  1  S    0.087559  -0.053689   0.070779  -0.149111   0.693738
    3  C  1  X   -0.150110  -0.031815   0.048091   0.215130  -0.123741
    4  C  1  Y   -0.558025  -0.192110   0.162352   0.461160   0.374830
    5  C  1  Z   -0.146451   0.757960   0.071419   0.168156   0.119391
    6  C  1  S   -0.651594  -0.045555  -0.432844   0.334401  -1.127512
    7  C  1  X   -0.289618  -0.030641  -0.399168  -0.424449   0.562188
    8  C  1  Y    1.735836   0.239019  -0.196494  -0.499049  -0.220639
    9  C  1  Z    0.459961  -1.163288  -0.125501  -0.197877  -0.128253
   10  C  1 XX   -0.099262  -0.016071  -0.026398   0.030211   0.029521
   11  C  1 YY    0.052684   0.044433   0.007026  -0.135163  -0.132777
   12  C  1 ZZ    0.046578  -0.028362   0.019372   0.104952   0.103256
   13  C  1 XY   -0.057065   0.012477   0.035813   0.032646  -0.109161
   14  C  1 XZ    0.016442   0.168824   0.013500   0.053207   0.048448
   15  C  1 YZ    0.002321   0.089453   0.005552   0.001137  -0.013375
   16  C  2  S   -0.004392  -0.002786   0.050685  -0.020032   0.015166
   17  C  2  S   -0.971124   0.128074  -0.967790  -0.916714   0.688394
   18  C  2  X    0.353377   0.010695   0.131443  -0.056314   0.027072
   19  C  2  Y   -0.026312  -0.091065   0.545567   0.105171   0.019578
   20  C  2  Z    0.009156   0.050650  -0.015701   0.006347   0.005871
   21  C  2  S    2.141444  -0.097940   2.812010   0.743071  -0.721573
   22  C  2  X   -1.161224  -0.073860   0.003889  -0.318657   0.134610
   23  C  2  Y   -0.476266   0.371061  -0.621656  -0.829448  -0.393767
   24  C  2  Z   -0.123214   0.040539   0.029489   0.011505  -0.003969
   25  C  2 XX    0.067493   0.012050  -0.000886  -0.094987   0.101417
   26  C  2 YY   -0.146967  -0.005871   0.103840   0.009170  -0.061704
   27  C  2 ZZ    0.079474  -0.006179  -0.102955   0.085817  -0.039713
   28  C  2 XY    0.049098   0.007885   0.096933  -0.108873   0.051716
   29  C  2 XZ   -0.010670  -0.063825  -0.010037  -0.028005  -0.030950
   30  C  2 YZ    0.022191   0.030209  -0.005118   0.024073   0.022525
   31  O  3  S    0.001724   0.004246   0.026955  -0.044748   0.022396
   32  O  3  S   -0.026418  -0.012300  -0.096238   0.183632  -0.111080
   33  O  3  X   -0.088579   0.007864  -0.312779   0.327627  -0.398328
   34  O  3  Y    0.050107  -0.025876  -0.307491   0.273780  -0.095506
   35  O  3  Z    0.019293   0.232164   0.024773   0.056502   0.057741
   36  O  3  S    0.155005  -0.073967  -0.545224   0.404401   0.108620
   37  O  3  X    0.130448   0.066685   0.676761  -0.841313   0.583294
   38  O  3  Y    0.023404  -0.004191   0.523253  -0.467126   0.354025
   39  O  3  Z    0.011292  -0.218343  -0.030428  -0.042681  -0.061108
   40  O  3 XX   -0.047956  -0.004060   0.003464  -0.000440  -0.009358
   41  O  3 YY    0.012344   0.000188  -0.053081  -0.001942   0.040276
   42  O  3 ZZ    0.035612   0.003872   0.049618   0.002382  -0.030917
   43  O  3 XY   -0.000727   0.000929  -0.069007   0.004938   0.018543
   44  O  3 XZ   -0.003904   0.015354   0.003399   0.000421  -0.001576
   45  O  3 YZ    0.007478  -0.003575   0.004533   0.006379   0.004602
   46  H  4  S   -0.579114   0.011048   0.716372  -0.095361  -0.399671
   47  H  4  S   -0.081909   0.293781  -1.719127  -0.703876   0.287510
   48  H  5  S   -0.076513   0.270672  -0.089981  -0.648771  -0.754280
   49  H  5  S   -1.074558  -0.451579   0.272745   0.946751   1.129270
   50  H  6  S   -0.287999   0.656135  -0.031447   0.311422   0.153315
   51  H  6  S    0.575862  -1.222387  -0.217688  -0.843553   0.131620
   52  H  7  S   -0.363334  -0.664624  -0.144554  -0.018247  -0.080586
   53  H  7  S    0.201944   1.425113   0.018703  -0.352350   0.425335

                     31         32         33         34         35
                    0.9409     0.9945     1.0839     1.2522     1.4214
                     A          A          A          A          A   
    1  C  1  S    0.053813   0.004320  -0.016115  -0.107336  -0.034375
    2  C  1  S   -1.086955   0.057683  -0.158028  -2.034523  -0.563707
    3  C  1  X    0.408268   0.009410  -0.109017  -0.068795  -0.040454
    4  C  1  Y    0.009059  -0.008756  -0.043411   0.037851   0.024894
    5  C  1  Z   -0.054632   0.189471   0.008788  -0.059600   0.105345
    6  C  1  S    1.631651  -0.217311  -0.426204   6.268530   1.711340
    7  C  1  X   -0.827890  -0.067914  -0.320183   1.176370   0.297506
    8  C  1  Y    0.387306   0.117133  -0.084334  -0.395836  -0.043040
    9  C  1  Z    0.110159  -0.192805  -0.001273   0.316752   0.173787
   10  C  1 XX   -0.110497  -0.007905  -0.013942   0.050683   0.035754
   11  C  1 YY   -0.034491  -0.008275  -0.006576   0.020853  -0.053651
   12  C  1 ZZ    0.144988   0.016180   0.020517  -0.071536   0.017897
   13  C  1 XY    0.008811  -0.004652   0.051997  -0.035548  -0.066602
   14  C  1 XZ   -0.005819   0.033175   0.003810   0.114766  -0.320868
   15  C  1 YZ    0.009451   0.065877  -0.004895  -0.126655   0.454742
   16  C  2  S   -0.008899  -0.001912   0.000656   0.038081   0.011727
   17  C  2  S   -0.183823  -0.053125   0.033938   0.580994   0.097222
   18  C  2  X    0.093378   0.009625   0.133521  -0.018826   0.019882
   19  C  2  Y   -0.047796  -0.001159  -0.265677   0.044127   0.000309
   20  C  2  Z   -0.004227   0.123025   0.012338   0.005483  -0.045786
   21  C  2  S    0.909641   0.209326  -0.177981  -3.181455  -0.713305
   22  C  2  X   -0.511874  -0.126483  -0.842113   1.646456   0.391672
   23  C  2  Y    0.116796  -0.008726   1.548363  -1.266106  -0.316826
   24  C  2  Z   -0.003782  -0.590719  -0.073245  -0.084246   0.061740
   25  C  2 XX    0.009913   0.005442  -0.135998   0.013644   0.019816
   26  C  2 YY   -0.059211  -0.011378   0.151709   0.110048   0.023146
   27  C  2 ZZ    0.049298   0.005936  -0.015711  -0.123692  -0.042962
   28  C  2 XY    0.108298   0.001367   0.054946  -0.018683   0.001873
   29  C  2 XZ   -0.000926  -0.055764  -0.007987  -0.136670   0.556217
   30  C  2 YZ    0.003635   0.013938  -0.004131   0.060129  -0.118795
   31  O  3  S    0.014787  -0.000693   0.002235   0.002758  -0.002186
   32  O  3  S   -0.092836   0.008244  -0.037922  -0.097027   0.033591
   33  O  3  X   -0.282649  -0.008898  -0.427304   0.049688  -0.006675
   34  O  3  Y   -0.070137  -0.035493   0.695518  -0.096807  -0.016156
   35  O  3  Z    0.027586  -0.912661  -0.032949  -0.019366  -0.066890
   36  O  3  S   -0.011055  -0.000614   0.019205   0.395884   0.016712
   37  O  3  X    0.480091   0.019255   0.779153  -0.348495  -0.047377
   38  O  3  Y    0.117132   0.043566  -1.299218   0.347308   0.081238
   39  O  3  Z   -0.034316   1.253710   0.062755   0.090359  -0.107632
   40  O  3 XX   -0.016812  -0.005008   0.091981   0.056683   0.015128
   41  O  3 YY   -0.010356   0.001290  -0.090897   0.110464   0.046569
   42  O  3 ZZ    0.027168   0.003718  -0.001083  -0.167146  -0.061698
   43  O  3 XY   -0.006873   0.001863  -0.055111  -0.019320  -0.015876
   44  O  3 XZ   -0.000296   0.029698   0.002993   0.017377  -0.135699
   45  O  3 YZ    0.001123   0.024191   0.005595   0.048335  -0.276380
   46  H  4  S   -0.326387  -0.037262   0.227680   0.021803  -0.013087
   47  H  4  S    0.250062   0.020145   0.735410  -0.338858  -0.090400
   48  H  5  S    0.162434  -0.007551  -0.071096  -0.429806  -0.203309
   49  H  5  S   -0.608226  -0.040782   0.079930  -0.747991  -0.216967
   50  H  6  S    0.613514   0.203717  -0.109849  -0.438450   0.002578
   51  H  6  S   -0.997565  -0.367530  -0.056613  -0.513171  -0.190684
   52  H  7  S    0.653815  -0.124401  -0.123579  -0.497270  -0.292448
   53  H  7  S   -1.134111   0.377721  -0.043980  -0.685544  -0.158496

                     36         37         38         39         40
                    1.5351     1.6135     1.6969     1.8012     1.8119
                     A          A          A          A          A   
    1  C  1  S    0.006547   0.010793  -0.043377   0.021933  -0.005452
    2  C  1  S    0.106522   0.103865  -0.310884  -0.326082   0.159559
    3  C  1  X    0.013763  -0.001696   0.108180  -0.253139   0.103717
    4  C  1  Y   -0.006739  -0.015653   0.060695   0.070298   0.007988
    5  C  1  Z    0.037571  -0.006146   0.004889   0.024290   0.062922
    6  C  1  S   -0.303742  -0.475031   1.664257  -0.205306  -0.082060
    7  C  1  X   -0.043356   0.100093   0.279828  -0.013231  -0.151514
    8  C  1  Y    0.004492   0.502674  -0.684562  -0.178413  -0.141594
    9  C  1  Z   -0.347036   0.017741   0.055105  -0.213016  -0.283254
   10  C  1 XX   -0.017313  -0.076440  -0.454546   0.304740  -0.201440
   11  C  1 YY    0.035349   0.017919   0.097772  -0.207534   0.072775
   12  C  1 ZZ   -0.018037   0.058522   0.356774  -0.097206   0.128665
   13  C  1 XY    0.023167  -0.226807  -0.441555  -0.099235  -0.146216
   14  C  1 XZ    0.127037   0.003834   0.003969  -0.127031  -0.292496
   15  C  1 YZ   -0.066167   0.011228   0.003369   0.176207   0.349849
   16  C  2  S   -0.002384  -0.015676   0.025005   0.014158  -0.009095
   17  C  2  S   -0.003678  -0.106154   0.521957  -0.211157   0.035131
   18  C  2  X   -0.008598  -0.072208  -0.022243   0.045108   0.040560
   19  C  2  Y   -0.005465  -0.006366   0.048020   0.065844  -0.039637
   20  C  2  Z   -0.185462   0.000731  -0.001261   0.035075   0.080052
   21  C  2  S    0.084095  -1.813212  -1.594887   0.241344   0.322741
   22  C  2  X   -0.068975  -1.581284   1.089157  -0.440458   0.331709
   23  C  2  Y    0.044021  -1.013934   0.512144   0.730624   0.085736
   24  C  2  Z    0.210553   0.024655  -0.029220   0.088563   0.180057
   25  C  2 XX   -0.011899  -0.012697  -0.001140   0.305644  -0.071039
   26  C  2 YY    0.042015   0.046582  -0.295719  -0.337606   0.146753
   27  C  2 ZZ   -0.030116  -0.033886   0.296859   0.031962  -0.075714
   28  C  2 XY    0.011520  -0.260694   0.261617  -0.253150   0.120959
   29  C  2 XZ    0.109884   0.012489   0.002480  -0.076557  -0.128317
   30  C  2 YZ    0.719390  -0.008264   0.014434   0.010091  -0.068202
   31  O  3  S    0.001034   0.035226   0.011911  -0.007138   0.004294
   32  O  3  S   -0.026000  -1.628144  -0.010435   0.151022   0.090073
   33  O  3  X    0.007036   0.097941   0.160165  -0.200079   0.113846
   34  O  3  Y   -0.002455   0.096796   0.062299   0.162841  -0.047553
   35  O  3  Z   -0.087923  -0.004435  -0.003385   0.028537   0.066444
   36  O  3  S    0.038712   3.819841  -0.431156  -0.225525  -0.458196
   37  O  3  X   -0.007710  -1.098413  -0.075939   0.324317   0.011443
   38  O  3  Y   -0.022078  -0.730962   0.025857  -0.294681   0.169019
   39  O  3  Z   -0.116714   0.026735   0.002153  -0.044009  -0.104720
   40  O  3 XX    0.002564  -0.126149  -0.089375  -0.440550   0.272461
   41  O  3 YY   -0.020447   0.124617  -0.347926   0.280945   0.008529
   42  O  3 ZZ    0.017883   0.001532   0.437301   0.159605  -0.280990
   43  O  3 XY   -0.016567  -0.197516   0.207313   0.307597  -0.223667
   44  O  3 XZ   -0.507826   0.009434  -0.005716  -0.115486  -0.184756
   45  O  3 YZ    0.050011  -0.007521   0.019061   0.358960   0.684353
   46  H  4  S    0.002847   0.032816   0.488327   0.440815  -0.155409
   47  H  4  S    0.014404  -0.158232   0.326300   0.151764   0.031266
   48  H  5  S    0.038268   0.010806  -0.145091   0.181913  -0.046605
   49  H  5  S    0.035731  -0.168267   0.139535   0.004713   0.105592
   50  H  6  S   -0.044653   0.085586  -0.170278   0.024617  -0.036483
   51  H  6  S   -0.112958   0.128637  -0.147082  -0.155651  -0.132480
   52  H  7  S    0.106636   0.078695  -0.202497   0.081449  -0.022382
   53  H  7  S    0.185436   0.106933  -0.163669   0.008043   0.097510

                     41         42         43         44         45
                    1.8596     2.0558     2.0660     2.1479     2.2972
                     A          A          A          A          A   
    1  C  1  S    0.047828   0.011239  -0.004937   0.004112   0.003141
    2  C  1  S    0.246701  -0.034743   0.098614   0.127342   0.048598
    3  C  1  X   -0.082004  -0.023097   0.032634   0.034494  -0.005114
    4  C  1  Y    0.140237   0.040267  -0.027271   0.100369   0.017774
    5  C  1  Z   -0.016973   0.051258   0.040717  -0.011180  -0.091998
    6  C  1  S   -1.701490  -0.162203  -0.130189  -0.443147  -0.184894
    7  C  1  X   -0.732705   0.168461  -0.263994   0.000895  -0.063676
    8  C  1  Y   -0.561477   0.299731   0.038296   0.614081  -0.007561
    9  C  1  Z   -0.095130   0.545195   0.383925  -0.008621  -0.230468
   10  C  1 XX   -0.196004   0.136409  -0.276007  -0.223496  -0.042762
   11  C  1 YY    0.064236   0.272941   0.013234   0.817499   0.046179
   12  C  1 ZZ    0.131768  -0.409350   0.262773  -0.594003  -0.003418
   13  C  1 XY   -0.580000  -0.203655   0.320846   0.222979   0.073519
   14  C  1 XZ    0.129041  -0.097542  -0.070039  -0.088148   0.962586
   15  C  1 YZ   -0.120443  -0.567563  -0.430518   0.227079   0.370174
   16  C  2  S   -0.018698  -0.014399   0.008135  -0.023668  -0.008745
   17  C  2  S   -0.365526  -0.234428   0.253894  -0.005080  -0.021360
   18  C  2  X    0.235094   0.192931  -0.246736  -0.053988  -0.015131
   19  C  2  Y   -0.014660  -0.047223   0.123809   0.161656   0.020137
   20  C  2  Z   -0.023795  -0.026679  -0.034710   0.029841  -0.074485
   21  C  2  S    2.155450   0.492790  -0.358672   0.197561   0.148881
   22  C  2  X    0.044219  -0.048935  -0.163230  -0.289418  -0.027711
   23  C  2  Y    1.818230  -0.081906   0.238041   0.065244   0.066461
   24  C  2  Z   -0.060941  -0.310727  -0.247672   0.068824  -0.035977
   25  C  2 XX    0.361887   0.225550  -0.167313   0.249563   0.060137
   26  C  2 YY   -0.137296   0.118249  -0.348516  -0.231826  -0.011367
   27  C  2 ZZ   -0.224592  -0.343800   0.515830  -0.017737  -0.048770
   28  C  2 XY    0.026164   0.101443   0.029290   0.395721   0.090810
   29  C  2 XZ   -0.016557   0.273235   0.205925  -0.080602   0.233081
   30  C  2 YZ    0.058089  -0.402442  -0.263083   0.156229  -0.397858
   31  O  3  S    0.006893   0.011016  -0.007166   0.017354   0.004272
   32  O  3  S    0.537097  -0.073766   0.002515  -0.297353  -0.053212
   33  O  3  X    0.059326   0.132101  -0.117425   0.168214   0.049535
   34  O  3  Y    0.159031   0.082280  -0.015015   0.210034   0.039939
   35  O  3  Z   -0.013584  -0.059137  -0.044530   0.013692  -0.016456
   36  O  3  S   -2.038264  -0.174299   0.243813   0.226767  -0.030731
   37  O  3  X    0.685773   0.014972   0.027159  -0.019969   0.002902
   38  O  3  Y   -0.000280   0.033837  -0.151386  -0.250739  -0.035796
   39  O  3  Z    0.009978   0.157425   0.132243  -0.057731   0.060748
   40  O  3 XX    0.146128   0.078296  -0.153481  -0.133748  -0.025617
   41  O  3 YY    0.346618  -0.276079   0.509477   0.242549   0.039478
   42  O  3 ZZ   -0.492745   0.197783  -0.355996  -0.108801  -0.013861
   43  O  3 XY   -0.187986   0.067937  -0.101180   0.080264   0.025235
   44  O  3 XZ    0.070646  -0.337397  -0.264656   0.155217  -0.236287
   45  O  3 YZ   -0.227017   0.199290   0.091286  -0.041826   0.140157
   46  H  4  S    0.289105  -0.161935   0.338557   0.219256   0.000628
   47  H  4  S    0.427291  -0.058827   0.102185  -0.027983   0.008424
   48  H  5  S    0.255238  -0.157669   0.007207  -0.683175  -0.056361
   49  H  5  S    0.359958  -0.112141  -0.031188   0.001537   0.078953
   50  H  6  S    0.136464   0.578985   0.099924   0.223376  -0.542920
   51  H  6  S   -0.114078   0.101182   0.067536   0.102178   0.130437
   52  H  7  S    0.221528  -0.084402  -0.384510   0.313317   0.552654
   53  H  7  S   -0.066384  -0.057962  -0.029846   0.022614  -0.120812

                     46         47         48         49         50
                    2.3613     2.5403     2.5854     2.8575     2.9475
                     A          A          A          A          A   
    1  C  1  S    0.044435   0.041207  -0.001233   0.029246  -0.012757
    2  C  1  S    0.325100   0.062371   0.010240  -0.137706   0.049079
    3  C  1  X   -0.146053  -0.246130   0.017835  -0.232725   0.090823
    4  C  1  Y    0.008609   0.097974  -0.012054   0.141527  -0.055788
    5  C  1  Z    0.009132  -0.001251   0.031557  -0.009748   0.001129
    6  C  1  S   -1.748280  -1.273433   0.036531  -0.144977   0.160681
    7  C  1  X   -0.939226  -0.707918   0.027958  -0.187767   0.198372
    8  C  1  Y    0.056973   0.232242  -0.045052   0.237766   0.113513
    9  C  1  Z   -0.049608   0.015057   0.019449   0.017945   0.010816
   10  C  1 XX   -0.403214  -0.774492   0.067680  -0.243496   0.074411
   11  C  1 YY   -0.206547   0.658358  -0.100793  -0.042145   0.019354
   12  C  1 ZZ    0.609761   0.116134   0.033113   0.285640  -0.093765
   13  C  1 XY    0.341754   0.069690  -0.000461   0.521082  -0.172844
   14  C  1 XZ   -0.099700   0.024054   0.143252  -0.030718   0.007649
   15  C  1 YZ   -0.056885   0.014758  -0.173484   0.015155  -0.002412
   16  C  2  S   -0.080735  -0.021118   0.000334  -0.043174  -0.029714
   17  C  2  S   -0.249100   0.003823  -0.012101  -0.294185  -1.334838
   18  C  2  X   -0.221333  -0.222817   0.015908  -0.346229  -1.073367
   19  C  2  Y    0.139963   0.054984   0.002561  -0.156363  -0.695873
   20  C  2  Z   -0.010031   0.021178   0.241461   0.004648   0.022031
   21  C  2  S    1.856793   1.384641  -0.057390   0.155136  -1.763610
   22  C  2  X   -0.500117  -0.689546   0.050147  -0.324803  -0.692099
   23  C  2  Y    0.916957   0.641946  -0.001119  -0.563393  -0.613843
   24  C  2  Z   -0.030645  -0.012787   0.239702   0.013229   0.016835
   25  C  2 XX    0.349133  -0.107621   0.006716   0.937103  -0.644784
   26  C  2 YY    0.432877   0.307122   0.013627  -0.824028   0.186804
   27  C  2 ZZ   -0.782010  -0.199501  -0.020343  -0.113076   0.457981
   28  C  2 XY    0.302137  -0.878496   0.109467  -0.492341  -0.456079
   29  C  2 XZ   -0.044908   0.123152   0.884050   0.025039   0.012342
   30  C  2 YZ   -0.032075   0.006413   0.445441   0.029103   0.008616
   31  O  3  S    0.023499  -0.021868   0.002170  -0.008490  -0.062000
   32  O  3  S   -0.207788   0.570956  -0.046305  -0.328109  -0.698047
   33  O  3  X    0.259684  -0.355252   0.033703  -0.001673  -0.246003
   34  O  3  Y    0.206259  -0.165625   0.015260   0.048781  -0.174835
   35  O  3  Z   -0.006442   0.005164  -0.011638  -0.002763   0.005349
   36  O  3  S   -0.500156  -0.614222   0.022362   0.959506   3.153884
   37  O  3  X    0.192463   0.463193  -0.028797  -0.634677  -1.513162
   38  O  3  Y   -0.279715   0.008225  -0.021062   0.085389  -1.008949
   39  O  3  Z    0.017848  -0.041864  -0.451254  -0.003089   0.033992
   40  O  3 XX   -0.333467  -0.148793   0.003635   0.824053   0.699368
   41  O  3 YY    0.292476  -0.001284   0.042825  -0.673284   0.019935
   42  O  3 ZZ    0.040991   0.150078  -0.046460  -0.150769  -0.719302
   43  O  3 XY    0.357977   0.096826   0.026144  -0.092770   1.182232
   44  O  3 XZ   -0.026105   0.074513   0.819657   0.007930  -0.039340
   45  O  3 YZ   -0.033920   0.062561   0.561975   0.022199  -0.028251
   46  H  4  S   -0.198688  -0.219760   0.015859   0.251786  -0.019434
   47  H  4  S    0.259863   0.276100  -0.011072  -0.427761  -0.015723
   48  H  5  S    0.270117  -0.301058   0.078337  -0.001302  -0.017051
   49  H  5  S    0.064124   0.163513  -0.013666  -0.106976  -0.043056
   50  H  6  S   -0.093887   0.072291  -0.001561  -0.102018   0.032321
   51  H  6  S    0.017776  -0.036155   0.030183   0.036408   0.034864
   52  H  7  S   -0.194408   0.099717  -0.029186  -0.116054   0.030000
   53  H  7  S    0.100257  -0.089331  -0.012433   0.022209   0.024780
 ...... END OF RHF CALCULATION ......
 STEP CPU TIME =    14.13 TOTAL CPU TIME =         14.2 (      0.2 MIN)
 TOTAL WALL CLOCK TIME=         15.8 SECONDS, CPU UTILIZATION IS    90.02%

     ---------------------------------------------------------------------
     PROPERTIES FOR THE B3LYP    DFT FUNCTIONAL (RHF  TYPE) DENSITY MATRIX
     ---------------------------------------------------------------------

          -----------------
          ENERGY COMPONENTS
          -----------------

         WAVEFUNCTION NORMALIZATION =       1.0000000000

                ONE ELECTRON ENERGY =    -345.6718569083
                TWO ELECTRON ENERGY =     122.4777145715
           NUCLEAR REPULSION ENERGY =      69.4581454069
                                      ------------------
                       TOTAL ENERGY =    -153.7359969300

 ELECTRON-ELECTRON POTENTIAL ENERGY =     122.4777145715
  NUCLEUS-ELECTRON POTENTIAL ENERGY =    -498.4929554696
   NUCLEUS-NUCLEUS POTENTIAL ENERGY =      69.4581454069
                                      ------------------
             TOTAL POTENTIAL ENERGY =    -306.5570954912
               TOTAL KINETIC ENERGY =     152.8210985613
                 VIRIAL RATIO (V/T) =       2.0059867281

          ---------------------------------------
          MULLIKEN AND LOWDIN POPULATION ANALYSES
          ---------------------------------------

     ATOMIC MULLIKEN POPULATION IN EACH MOLECULAR ORBITAL

                      1          2          3          4          5

                  2.000000   2.000000   2.000000   2.000000   2.000000

    1            -0.000053   0.001179   1.994841   0.022203   1.136369
    2             0.002389   2.000685   0.001856   0.524421   0.432490
    3             1.997623  -0.002826  -0.000003   1.453812   0.085102
    4             0.000033   0.000895   0.000022  -0.000572   0.023478
    5             0.000008   0.000025   0.001098  -0.000279   0.093516
    6            -0.000001   0.000020   0.001019   0.000280   0.112382
    7            -0.000000   0.000022   0.001168   0.000134   0.116664

                      6          7          8          9         10

                  2.000000   2.000000   2.000000   2.000000   2.000000

    1             0.351929   0.542107   0.837613   0.414818   0.707409
    2             0.823314   0.507900   0.345976   0.445428   0.206896
    3             0.269975   0.567444   0.224304   0.998662   0.353781
    4             0.360607   0.129497   0.017666   0.001278   0.108595
    5             0.109107   0.023961   0.067644   0.059858   0.427801
    6             0.034779   0.148302   0.275554   0.075957   0.053862
    7             0.050288   0.080788   0.231243   0.003998   0.141656

                     11         12

                  2.000000   2.000000

    1             0.285904   0.226284
    2             0.375256   0.089574
    3             1.020400   1.383841
    4             0.003124   0.256393
    5             0.017897   0.016679
    6             0.107421   0.014244
    7             0.189997   0.012985

               ----- POPULATIONS IN EACH AO -----
                             MULLIKEN      LOWDIN
              1  C  1  S      1.99671     1.98029
              2  C  1  S      0.67313     0.36578
              3  C  1  X      0.70601     0.63576
              4  C  1  Y      0.72848     0.65513
              5  C  1  Z      0.71184     0.63553
              6  C  1  S      0.64495     0.33485
              7  C  1  X      0.30608     0.41233
              8  C  1  Y      0.36057     0.47820
              9  C  1  Z      0.36120     0.48899
             10  C  1 XX      0.00616     0.14857
             11  C  1 YY      0.00872     0.15818
             12  C  1 ZZ      0.00503     0.15455
             13  C  1 XY      0.00774     0.00927
             14  C  1 XZ      0.00400     0.01529
             15  C  1 YZ      0.00000     0.00633
             16  C  2  S      1.99655     1.97465
             17  C  2  S      0.70964     0.36694
             18  C  2  X      0.74462     0.65075
             19  C  2  Y      0.74972     0.65222
             20  C  2  Z      0.45370     0.40724
             21  C  2  S      0.45040     0.30813
             22  C  2  X      0.10178     0.28183
             23  C  2  Y      0.18635     0.37361
             24  C  2  Z      0.27819     0.32950
             25  C  2 XX      0.00503     0.21573
             26  C  2 YY      0.04064     0.19651
             27  C  2 ZZ      0.02316     0.10499
             28  C  2 XY      0.01287     0.04745
             29  C  2 XZ      0.00353     0.02457
             30  C  2 YZ      0.00000     0.00614
             31  O  3  S      1.99730     1.97770
             32  O  3  S      0.92817     0.72002
             33  O  3  X      0.99956     0.93782
             34  O  3  Y      1.08684     1.03839
             35  O  3  Z      0.77134     0.72033
             36  O  3  S      0.93164     0.46974
             37  O  3  X      0.49993     0.57490
             38  O  3  Y      0.59532     0.65956
             39  O  3  Z      0.51396     0.55074
             40  O  3 XX      0.00228     0.18359
             41  O  3 YY      0.00731     0.17490
             42  O  3 ZZ      0.00726     0.17352
             43  O  3 XY      0.00801     0.01588
             44  O  3 XZ      0.00320     0.01038
             45  O  3 YZ      0.00000     0.00417
             46  H  4  S      0.53474     0.50125
             47  H  4  S      0.36627     0.38870
             48  H  5  S      0.51956     0.48043
             49  H  5  S      0.29775     0.34765
             50  H  6  S      0.51720     0.47338
             51  H  6  S      0.30662     0.34890
             52  H  7  S      0.51824     0.47927
             53  H  7  S      0.31070     0.34945

          ----- MULLIKEN ATOMIC OVERLAP POPULATIONS -----
          (OFF-DIAGONAL ELEMENTS NEED TO BE MULTIPLIED BY 2)

             1           2           3           4           5

    1    5.3713869
    2    0.3074745   4.5408553
    3   -0.0793137   0.6252709   7.8596815
    4   -0.1223200   0.3406963  -0.0619683   0.7302431
    5    0.3477031  -0.0204972   0.0054326   0.0061494   0.5235201
    6    0.3517727  -0.0199667   0.0011938   0.0046071  -0.0128552
    7    0.3439019  -0.0176484   0.0018192   0.0036100  -0.0321382

             6           7

    6    0.5256615
    7   -0.0265933   0.5559904

          TOTAL MULLIKEN AND LOWDIN ATOMIC POPULATIONS
       ATOM         MULL.POP.    CHARGE          LOW.POP.     CHARGE
    1 C             6.520605   -0.520605         6.479053   -0.479053
    2 C             5.756185    0.243815         5.940270    0.059730
    3 O             8.352116   -0.352116         8.211640   -0.211640
    4 H             0.901018    0.098982         0.889954    0.110046
    5 H             0.817315    0.182685         0.828084    0.171916
    6 H             0.823820    0.176180         0.822279    0.177721
    7 H             0.828942    0.171058         0.828721    0.171279

          MULLIKEN SPHERICAL HARMONIC POPULATIONS
       ATOM           S       P       D      F      G      H      I    TOTAL
    1 C             3.31    3.17    0.03   0.00   0.00   0.00   0.00    6.52
    2 C             3.16    2.51    0.09   0.00   0.00   0.00   0.00    5.76
    3 O             3.86    4.47    0.03   0.00   0.00   0.00   0.00    8.35
    4 H             0.90    0.00    0.00   0.00   0.00   0.00   0.00    0.90
    5 H             0.82    0.00    0.00   0.00   0.00   0.00   0.00    0.82
    6 H             0.82    0.00    0.00   0.00   0.00   0.00   0.00    0.82
    7 H             0.83    0.00    0.00   0.00   0.00   0.00   0.00    0.83

          -------------------------------
          BOND ORDER AND VALENCE ANALYSIS     BOND ORDER THRESHOLD=0.050
          -------------------------------

                   BOND                       BOND                       BOND
  ATOM PAIR DIST  ORDER      ATOM PAIR DIST  ORDER      ATOM PAIR DIST  ORDER
    1   2  1.509  0.967        1   5  1.093  0.940        1   6  1.098  0.930
    1   7  1.098  0.928        2   3  1.211  2.024        2   4  1.115  0.885

                       TOTAL       BONDED        FREE
      ATOM            VALENCE     VALENCE     VALENCE
    1 C                 3.767       3.767      -0.000
    2 C                 3.872       3.872      -0.000
    3 O                 2.119       2.119       0.000
    4 H                 0.927       0.927      -0.000
    5 H                 0.936       0.936      -0.000
    6 H                 0.933       0.933      -0.000
    7 H                 0.925       0.925      -0.000

          ---------------------
          ELECTROSTATIC MOMENTS
          ---------------------

 POINT   1           X           Y           Z (BOHR)    CHARGE
                -0.000000    0.000000   -0.000000        0.00 (A.U.)
         DX          DY          DZ         /D/  (DEBYE)
    -2.447786   -0.991594    0.094218    2.642686
 ...... END OF PROPERTY EVALUATION ......
 STEP CPU TIME =     0.00 TOTAL CPU TIME =         14.2 (      0.2 MIN)
 TOTAL WALL CLOCK TIME=         15.8 SECONDS, CPU UTILIZATION IS    90.02%
                580000  WORDS OF DYNAMIC MEMORY USED
 EXECUTION OF GAMESS TERMINATED NORMALLY Thu Dec 12 13:24:06 2019
 DDI: 263640 bytes (0.3 MB / 0 MWords) used by master data server.

 ----------------------------------------
 CPU timing information for all processes
 ========================================
 0: 4.993 + 9.269 = 14.263
 ----------------------------------------
 ddikick.x: exited gracefully.
----- accounting info -----
Files used on the master node crcfe02.crc.nd.edu were:
-rw-r--r-- 1 cdrisko campus      490 Dec 12 13:23 /afs/crc.nd.edu/user/c/cdrisko/acetaldehyde.F05
-rw-r--r-- 1 cdrisko campus    45118 Dec 12 13:24 /afs/crc.nd.edu/user/c/cdrisko/acetaldehyde.F07
-rw-r--r-- 1 cdrisko campus 11881056 Dec 12 13:23 /afs/crc.nd.edu/user/c/cdrisko/acetaldehyde.F08
-rw-r--r-- 1 cdrisko campus  1799600 Dec 12 13:24 /afs/crc.nd.edu/user/c/cdrisko/acetaldehyde.F10
Thu Dec 12 13:24:09 EST 2019
0.322u 0.373s 0:19.76 3.4%	0+0k 0+24io 0pf+0w
