   1   1   0   0
  0.1728000E+04  0.1200000E-08  0.1200000E-08  0.1200000E-08  0.5000000E-15
  1.000000000000000E-004
  CAR 
 unknown system                          
      2.13513418    -25.43520884  301    -10.06474261      1.00000000
    -25.435  0.0000E+00  0.0000E+00
    -25.343  0.0000E+00  0.0000E+00
    -25.251  0.0000E+00  0.0000E+00
    -25.160  0.0000E+00  0.0000E+00
    -25.068  0.0000E+00  0.0000E+00
    -24.976  0.0000E+00  0.0000E+00
    -24.884  0.0000E+00  0.0000E+00
    -24.792  0.0000E+00  0.0000E+00
    -24.700  0.0000E+00  0.0000E+00
    -24.608  0.0000E+00  0.0000E+00
    -24.516  0.0000E+00  0.0000E+00
    -24.424  0.0000E+00  0.0000E+00
    -24.332  0.0000E+00  0.0000E+00
    -24.240  0.1208E-14  0.1110E-15
    -24.149  0.2176E+02  0.2000E+01
    -24.057  0.0000E+00  0.2000E+01
    -23.965  0.0000E+00  0.2000E+01
    -23.873  0.0000E+00  0.2000E+01
    -23.781  0.0000E+00  0.2000E+01
    -23.689  0.0000E+00  0.2000E+01
    -23.597  0.0000E+00  0.2000E+01
    -23.505  0.0000E+00  0.2000E+01
    -23.413  0.0000E+00  0.2000E+01
    -23.321  0.0000E+00  0.2000E+01
    -23.230  0.0000E+00  0.2000E+01
    -23.138  0.0000E+00  0.2000E+01
    -23.046  0.0000E+00  0.2000E+01
    -22.954  0.0000E+00  0.2000E+01
    -22.862  0.0000E+00  0.2000E+01
    -22.770  0.0000E+00  0.2000E+01
    -22.678  0.0000E+00  0.2000E+01
    -22.586  0.0000E+00  0.2000E+01
    -22.494  0.0000E+00  0.2000E+01
    -22.402  0.0000E+00  0.2000E+01
    -22.311  0.0000E+00  0.2000E+01
    -22.219  0.0000E+00  0.2000E+01
    -22.127  0.0000E+00  0.2000E+01
    -22.035  0.0000E+00  0.2000E+01
    -21.943  0.0000E+00  0.2000E+01
    -21.851  0.0000E+00  0.2000E+01
    -21.759  0.0000E+00  0.2000E+01
    -21.667  0.0000E+00  0.2000E+01
    -21.575  0.0000E+00  0.2000E+01
    -21.483  0.0000E+00  0.2000E+01
    -21.392  0.0000E+00  0.2000E+01
    -21.300  0.0000E+00  0.2000E+01
    -21.208  0.0000E+00  0.2000E+01
    -21.116  0.0000E+00  0.2000E+01
    -21.024  0.0000E+00  0.2000E+01
    -20.932  0.0000E+00  0.2000E+01
    -20.840  0.0000E+00  0.2000E+01
    -20.748  0.0000E+00  0.2000E+01
    -20.656  0.0000E+00  0.2000E+01
    -20.564  0.0000E+00  0.2000E+01
    -20.473  0.0000E+00  0.2000E+01
    -20.381  0.0000E+00  0.2000E+01
    -20.289  0.0000E+00  0.2000E+01
    -20.197  0.0000E+00  0.2000E+01
    -20.105  0.0000E+00  0.2000E+01
    -20.013  0.0000E+00  0.2000E+01
    -19.921  0.0000E+00  0.2000E+01
    -19.829  0.0000E+00  0.2000E+01
    -19.737  0.0000E+00  0.2000E+01
    -19.645  0.0000E+00  0.2000E+01
    -19.554  0.0000E+00  0.2000E+01
    -19.462  0.0000E+00  0.2000E+01
    -19.370  0.0000E+00  0.2000E+01
    -19.278  0.0000E+00  0.2000E+01
    -19.186  0.0000E+00  0.2000E+01
    -19.094  0.0000E+00  0.2000E+01
    -19.002  0.0000E+00  0.2000E+01
    -18.910  0.0000E+00  0.2000E+01
    -18.818  0.0000E+00  0.2000E+01
    -18.726  0.0000E+00  0.2000E+01
    -18.635  0.0000E+00  0.2000E+01
    -18.543  0.0000E+00  0.2000E+01
    -18.451  0.0000E+00  0.2000E+01
    -18.359  0.0000E+00  0.2000E+01
    -18.267  0.0000E+00  0.2000E+01
    -18.175  0.0000E+00  0.2000E+01
    -18.083  0.0000E+00  0.2000E+01
    -17.991  0.0000E+00  0.2000E+01
    -17.899  0.0000E+00  0.2000E+01
    -17.807  0.0000E+00  0.2000E+01
    -17.716  0.0000E+00  0.2000E+01
    -17.624  0.0000E+00  0.2000E+01
    -17.532  0.0000E+00  0.2000E+01
    -17.440  0.0000E+00  0.2000E+01
    -17.348  0.0000E+00  0.2000E+01
    -17.256  0.0000E+00  0.2000E+01
    -17.164  0.0000E+00  0.2000E+01
    -17.072  0.0000E+00  0.2000E+01
    -16.980  0.0000E+00  0.2000E+01
    -16.888  0.0000E+00  0.2000E+01
    -16.797  0.0000E+00  0.2000E+01
    -16.705  0.0000E+00  0.2000E+01
    -16.613  0.0000E+00  0.2000E+01
    -16.521  0.0000E+00  0.2000E+01
    -16.429  0.0000E+00  0.2000E+01
    -16.337  0.0000E+00  0.2000E+01
    -16.245  0.0000E+00  0.2000E+01
    -16.153  0.0000E+00  0.2000E+01
    -16.061  0.0000E+00  0.2000E+01
    -15.969  0.0000E+00  0.2000E+01
    -15.877  0.0000E+00  0.2000E+01
    -15.786  0.0000E+00  0.2000E+01
    -15.694  0.0000E+00  0.2000E+01
    -15.602  0.0000E+00  0.2000E+01
    -15.510  0.0000E+00  0.2000E+01
    -15.418  0.0000E+00  0.2000E+01
    -15.326  0.0000E+00  0.2000E+01
    -15.234  0.0000E+00  0.2000E+01
    -15.142  0.0000E+00  0.2000E+01
    -15.050  0.0000E+00  0.2000E+01
    -14.958  0.0000E+00  0.2000E+01
    -14.867  0.0000E+00  0.2000E+01
    -14.775  0.0000E+00  0.2000E+01
    -14.683  0.0000E+00  0.2000E+01
    -14.591  0.0000E+00  0.2000E+01
    -14.499  0.0000E+00  0.2000E+01
    -14.407  0.0000E+00  0.2000E+01
    -14.315  0.0000E+00  0.2000E+01
    -14.223  0.0000E+00  0.2000E+01
    -14.131  0.0000E+00  0.2000E+01
    -14.039  0.0000E+00  0.2000E+01
    -13.948  0.0000E+00  0.2000E+01
    -13.856  0.0000E+00  0.2000E+01
    -13.764  0.0000E+00  0.2000E+01
    -13.672  0.0000E+00  0.2000E+01
    -13.580  0.0000E+00  0.2000E+01
    -13.488  0.0000E+00  0.2000E+01
    -13.396  0.0000E+00  0.2000E+01
    -13.304  0.0000E+00  0.2000E+01
    -13.212  0.0000E+00  0.2000E+01
    -13.120  0.0000E+00  0.2000E+01
    -13.029  0.0000E+00  0.2000E+01
    -12.937  0.0000E+00  0.2000E+01
    -12.845  0.0000E+00  0.2000E+01
    -12.753  0.0000E+00  0.2000E+01
    -12.661  0.0000E+00  0.2000E+01
    -12.569  0.0000E+00  0.2000E+01
    -12.477  0.0000E+00  0.2000E+01
    -12.385  0.0000E+00  0.2000E+01
    -12.293  0.0000E+00  0.2000E+01
    -12.201  0.0000E+00  0.2000E+01
    -12.110  0.0000E+00  0.2000E+01
    -12.018  0.0000E+00  0.2000E+01
    -11.926  0.0000E+00  0.2000E+01
    -11.834  0.0000E+00  0.2000E+01
    -11.742  0.0000E+00  0.2000E+01
    -11.650  0.0000E+00  0.2000E+01
    -11.558  0.0000E+00  0.2000E+01
    -11.466  0.0000E+00  0.2000E+01
    -11.374  0.0000E+00  0.2000E+01
    -11.282  0.0000E+00  0.2000E+01
    -11.191  0.0000E+00  0.2000E+01
    -11.099  0.0000E+00  0.2000E+01
    -11.007  0.0000E+00  0.2000E+01
    -10.915  0.0000E+00  0.2000E+01
    -10.823  0.0000E+00  0.2000E+01
    -10.731  0.0000E+00  0.2000E+01
    -10.639  0.0000E+00  0.2000E+01
    -10.547  0.0000E+00  0.2000E+01
    -10.455  0.0000E+00  0.2000E+01
    -10.363  0.0000E+00  0.2000E+01
    -10.272  0.0000E+00  0.2000E+01
    -10.180  0.2483E+00  0.2023E+01
    -10.088  0.6504E+02  0.8000E+01
     -9.996  0.0000E+00  0.8000E+01
     -9.904  0.0000E+00  0.8000E+01
     -9.812  0.0000E+00  0.8000E+01
     -9.720  0.0000E+00  0.8000E+01
     -9.628  0.0000E+00  0.8000E+01
     -9.536  0.0000E+00  0.8000E+01
     -9.444  0.0000E+00  0.8000E+01
     -9.353  0.0000E+00  0.8000E+01
     -9.261  0.0000E+00  0.8000E+01
     -9.169  0.0000E+00  0.8000E+01
     -9.077  0.0000E+00  0.8000E+01
     -8.985  0.0000E+00  0.8000E+01
     -8.893  0.0000E+00  0.8000E+01
     -8.801  0.0000E+00  0.8000E+01
     -8.709  0.0000E+00  0.8000E+01
     -8.617  0.0000E+00  0.8000E+01
     -8.525  0.0000E+00  0.8000E+01
     -8.433  0.0000E+00  0.8000E+01
     -8.342  0.0000E+00  0.8000E+01
     -8.250  0.0000E+00  0.8000E+01
     -8.158  0.0000E+00  0.8000E+01
     -8.066  0.0000E+00  0.8000E+01
     -7.974  0.0000E+00  0.8000E+01
     -7.882  0.0000E+00  0.8000E+01
     -7.790  0.0000E+00  0.8000E+01
     -7.698  0.0000E+00  0.8000E+01
     -7.606  0.0000E+00  0.8000E+01
     -7.514  0.0000E+00  0.8000E+01
     -7.423  0.0000E+00  0.8000E+01
     -7.331  0.0000E+00  0.8000E+01
     -7.239  0.0000E+00  0.8000E+01
     -7.147  0.0000E+00  0.8000E+01
     -7.055  0.0000E+00  0.8000E+01
     -6.963  0.0000E+00  0.8000E+01
     -6.871  0.0000E+00  0.8000E+01
     -6.779  0.0000E+00  0.8000E+01
     -6.687  0.0000E+00  0.8000E+01
     -6.595  0.0000E+00  0.8000E+01
     -6.504  0.0000E+00  0.8000E+01
     -6.412  0.0000E+00  0.8000E+01
     -6.320  0.0000E+00  0.8000E+01
     -6.228  0.0000E+00  0.8000E+01
     -6.136  0.0000E+00  0.8000E+01
     -6.044  0.0000E+00  0.8000E+01
     -5.952  0.0000E+00  0.8000E+01
     -5.860  0.0000E+00  0.8000E+01
     -5.768  0.0000E+00  0.8000E+01
     -5.676  0.0000E+00  0.8000E+01
     -5.585  0.0000E+00  0.8000E+01
     -5.493  0.0000E+00  0.8000E+01
     -5.401  0.0000E+00  0.8000E+01
     -5.309  0.0000E+00  0.8000E+01
     -5.217  0.0000E+00  0.8000E+01
     -5.125  0.0000E+00  0.8000E+01
     -5.033  0.0000E+00  0.8000E+01
     -4.941  0.0000E+00  0.8000E+01
     -4.849  0.0000E+00  0.8000E+01
     -4.757  0.0000E+00  0.8000E+01
     -4.666  0.0000E+00  0.8000E+01
     -4.574  0.0000E+00  0.8000E+01
     -4.482  0.0000E+00  0.8000E+01
     -4.390  0.0000E+00  0.8000E+01
     -4.298  0.0000E+00  0.8000E+01
     -4.206  0.0000E+00  0.8000E+01
     -4.114  0.0000E+00  0.8000E+01
     -4.022  0.0000E+00  0.8000E+01
     -3.930  0.0000E+00  0.8000E+01
     -3.838  0.0000E+00  0.8000E+01
     -3.747  0.0000E+00  0.8000E+01
     -3.655  0.0000E+00  0.8000E+01
     -3.563  0.0000E+00  0.8000E+01
     -3.471  0.0000E+00  0.8000E+01
     -3.379  0.0000E+00  0.8000E+01
     -3.287  0.0000E+00  0.8000E+01
     -3.195  0.0000E+00  0.8000E+01
     -3.103  0.0000E+00  0.8000E+01
     -3.011  0.0000E+00  0.8000E+01
     -2.919  0.0000E+00  0.8000E+01
     -2.828  0.0000E+00  0.8000E+01
     -2.736  0.0000E+00  0.8000E+01
     -2.644  0.0000E+00  0.8000E+01
     -2.552  0.0000E+00  0.8000E+01
     -2.460  0.0000E+00  0.8000E+01
     -2.368  0.0000E+00  0.8000E+01
     -2.276  0.0000E+00  0.8000E+01
     -2.184  0.0000E+00  0.8000E+01
     -2.092  0.0000E+00  0.8000E+01
     -2.000  0.0000E+00  0.8000E+01
     -1.909  0.0000E+00  0.8000E+01
     -1.817  0.0000E+00  0.8000E+01
     -1.725  0.0000E+00  0.8000E+01
     -1.633  0.0000E+00  0.8000E+01
     -1.541  0.0000E+00  0.8000E+01
     -1.449  0.0000E+00  0.8000E+01
     -1.357  0.0000E+00  0.8000E+01
     -1.265  0.0000E+00  0.8000E+01
     -1.173  0.0000E+00  0.8000E+01
     -1.081  0.0000E+00  0.8000E+01
     -0.990  0.0000E+00  0.8000E+01
     -0.898  0.0000E+00  0.8000E+01
     -0.806  0.0000E+00  0.8000E+01
     -0.714  0.0000E+00  0.8000E+01
     -0.622  0.0000E+00  0.8000E+01
     -0.530  0.0000E+00  0.8000E+01
     -0.438  0.0000E+00  0.8000E+01
     -0.346  0.9043E-02  0.8001E+01
     -0.254  0.2175E+02  0.1000E+02
     -0.162  0.0000E+00  0.1000E+02
     -0.070  0.0000E+00  0.1000E+02
      0.021  0.0000E+00  0.1000E+02
      0.113  0.0000E+00  0.1000E+02
      0.205  0.0000E+00  0.1000E+02
      0.297  0.0000E+00  0.1000E+02
      0.389  0.0000E+00  0.1000E+02
      0.481  0.0000E+00  0.1000E+02
      0.573  0.1208E-14  0.1000E+02
      0.665  0.2176E+02  0.1200E+02
      0.757  0.0000E+00  0.1200E+02
      0.849  0.4981E-04  0.1200E+02
      0.940  0.4352E+02  0.1600E+02
      1.032  0.0000E+00  0.1600E+02
      1.124  0.0000E+00  0.1600E+02
      1.216  0.0000E+00  0.1600E+02
      1.308  0.0000E+00  0.1600E+02
      1.400  0.0000E+00  0.1600E+02
      1.492  0.0000E+00  0.1600E+02
      1.584  0.0000E+00  0.1600E+02
      1.676  0.0000E+00  0.1600E+02
      1.768  0.0000E+00  0.1600E+02
      1.859  0.0000E+00  0.1600E+02
      1.951  0.0000E+00  0.1600E+02
      2.043  0.0000E+00  0.1600E+02
      2.135  0.0000E+00  0.1600E+02
