       N       E                     dE             d eps       ncg     rms          rms(c)
DAV:   1     0.648624600685E+02    0.64862E+02   -0.12667E+03    24   0.290E+02
DAV:   2     0.120416500398E+02   -0.52821E+02   -0.52821E+02    32   0.781E+01
DAV:   3     0.294188416143E+00   -0.11747E+02   -0.11747E+02    16   0.519E+01
DAV:   4    -0.200888119335E-01   -0.31428E+00   -0.31428E+00    16   0.129E+01
DAV:   5    -0.233426701844E-01   -0.32539E-02   -0.32539E-02    32   0.107E+00    0.169E-01
DAV:   6    -0.298792008075E-01   -0.65365E-02   -0.11493E-03    16   0.396E-01    0.953E-02
DAV:   7    -0.305741122997E-01   -0.69491E-03   -0.21049E-04    16   0.152E-01    0.251E-02
DAV:   8    -0.306158663224E-01   -0.41754E-04   -0.14608E-05    16   0.349E-02
   1 F= -.30615866E-01 E0= -.30615866E-01  d E =-.158795E-41
