<?xml version="1.0" encoding="ISO-8859-1"?>
<modeling>
 <generator>
  <i name="program" type="string">vasp </i>
  <i name="version" type="string">5.4.1  </i>
  <i name="subversion" type="string">05Feb16 (build Feb 08 2018 09:21:51) complex                          parallel </i>
  <i name="platform" type="string">LinuxIFC </i>
  <i name="date" type="string">2019 11 07 </i>
  <i name="time" type="string">19:59:26 </i>
 </generator>
 <incar>
  <i type="string" name="PREC">normal</i>
  <i type="int" name="ISMEAR">     0</i>
  <i name="SIGMA">      0.01000000</i>
  <i type="logical" name="LWAVE"> F  </i>
  <i type="logical" name="LCHARG"> F  </i>
  <v type="int" name="KPOINT_BSE">    -1     0     0     0</v>
 </incar>
 <kpoints>
  <generation param="Monkhorst-Pack">
   <v type="int" name="divisions">       1        1        1 </v>
   <v name="usershift">      0.00000000       0.00000000       0.00000000 </v>
   <v name="genvec1">      1.00000000       0.00000000       0.00000000 </v>
   <v name="genvec2">      0.00000000       1.00000000       0.00000000 </v>
   <v name="genvec3">      0.00000000       0.00000000       1.00000000 </v>
   <v name="shift">      0.00000000       0.00000000       0.00000000 </v>
  </generation>
  <varray name="kpointlist" >
   <v>       0.00000000       0.00000000       0.00000000 </v>
  </varray>
  <varray name="weights" >
   <v>       1.00000000 </v>
  </varray>
 </kpoints>
 <parameters>
  <separator name="general" >
   <i type="string" name="SYSTEM">unknown system</i>
   <i type="logical" name="LCOMPAT"> F  </i>
  </separator>
  <separator name="electronic" >
   <i type="string" name="PREC">normal</i>
   <i name="ENMAX">    266.40800000</i>
   <i name="ENAUG">    482.93000000</i>
   <i name="EDIFF">      0.00010000</i>
   <i type="int" name="IALGO">    38</i>
   <i type="int" name="IWAVPR">    10</i>
   <i type="int" name="NBANDS">     8</i>
   <i name="NELECT">      8.00000000</i>
   <i type="int" name="TURBO">     0</i>
   <i type="int" name="IRESTART">     0</i>
   <i type="int" name="NREBOOT">     0</i>
   <i type="int" name="NMIN">     0</i>
   <i name="EREF">      0.00000000</i>
   <separator name="electronic smearing" >
    <i type="int" name="ISMEAR">     0</i>
    <i name="SIGMA">      0.01000000</i>
    <i name="KSPACING">      0.50000000</i>
    <i type="logical" name="KGAMMA"> T  </i>
   </separator>
   <separator name="electronic projectors" >
    <i type="logical" name="LREAL"> F  </i>
    <v name="ROPT">      0.00000000</v>
    <i type="int" name="LMAXPAW">  -100</i>
    <i type="int" name="LMAXMIX">     2</i>
    <i type="logical" name="NLSPLINE"> F  </i>
   </separator>
   <separator name="electronic startup" >
    <i type="int" name="ISTART">     0</i>
    <i type="int" name="ICHARG">     2</i>
    <i type="int" name="INIWAV">     1</i>
   </separator>
   <separator name="electronic spin" >
    <i type="int" name="ISPIN">     1</i>
    <i type="logical" name="LNONCOLLINEAR"> F  </i>
    <v name="MAGMOM">      1.00000000</v>
    <i name="NUPDOWN">     -1.00000000</i>
    <i type="logical" name="LSORBIT"> F  </i>
    <v name="SAXIS">      0.00000000      0.00000000      1.00000000</v>
    <i type="logical" name="LSPIRAL"> F  </i>
    <v name="QSPIRAL">      0.00000000      0.00000000      0.00000000</v>
    <i type="logical" name="LZEROZ"> F  </i>
   </separator>
   <separator name="electronic exchange-correlation" >
    <i type="logical" name="LASPH"> F  </i>
    <i type="logical" name="LMETAGGA"> F  </i>
   </separator>
   <separator name="electronic convergence" >
    <i type="int" name="NELM">    60</i>
    <i type="int" name="NELMDL">    -5</i>
    <i type="int" name="NELMIN">     2</i>
    <i name="ENINI">    266.40800000</i>
    <separator name="electronic convergence detail" >
     <i type="logical" name="LDIAG"> T  </i>
     <i type="logical" name="LSUBROT"> F  </i>
     <i name="WEIMIN">      0.00000000</i>
     <i name="EBREAK">      0.00000313</i>
     <i name="DEPER">      0.30000000</i>
     <i type="int" name="NRMM">     4</i>
     <i name="TIME">      0.40000000</i>
    </separator>
   </separator>
   <separator name="electronic mixer" >
    <i name="AMIX">      0.40000000</i>
    <i name="BMIX">      1.00000000</i>
    <i name="AMIN">      0.10000000</i>
    <i name="AMIX_MAG">      1.60000000</i>
    <i name="BMIX_MAG">      1.00000000</i>
    <separator name="electronic mixer details" >
     <i type="int" name="IMIX">     4</i>
     <i type="logical" name="MIXFIRST"> F  </i>
     <i type="int" name="MAXMIX">   -45</i>
     <i name="WC">    100.00000000</i>
     <i type="int" name="INIMIX">     1</i>
     <i type="int" name="MIXPRE">     1</i>
     <i type="int" name="MREMOVE">     5</i>
    </separator>
   </separator>
   <separator name="electronic dipolcorrection" >
    <i type="logical" name="LDIPOL"> F  </i>
    <i type="logical" name="LMONO"> F  </i>
    <i type="int" name="IDIPOL">     0</i>
    <i name="EPSILON">      1.00000000</i>
    <v name="DIPOL">   -100.00000000   -100.00000000   -100.00000000</v>
    <i name="EFIELD">      0.00000000</i>
   </separator>
  </separator>
  <separator name="grids" >
   <i type="int" name="NGX">    48</i>
   <i type="int" name="NGY">    48</i>
   <i type="int" name="NGZ">    48</i>
   <i type="int" name="NGXF">    96</i>
   <i type="int" name="NGYF">    96</i>
   <i type="int" name="NGZF">    96</i>
   <i type="logical" name="ADDGRID"> F  </i>
  </separator>
  <separator name="ionic" >
   <i type="int" name="NSW">     0</i>
   <i type="int" name="IBRION">    -1</i>
   <i type="int" name="ISIF">     2</i>
   <i name="PSTRESS">      0.00000000</i>
   <i name="EDIFFG">      0.00100000</i>
   <i type="int" name="NFREE">     0</i>
   <i name="POTIM">      0.50000000</i>
   <i name="SMASS">     -3.00000000</i>
   <i name="SCALEE">      1.00000000</i>
  </separator>
  <separator name="ionic md" >
   <i name="TEBEG">      0.00010000</i>
   <i name="TEEND">      0.00010000</i>
   <i type="int" name="NBLOCK">     1</i>
   <i type="int" name="KBLOCK">     1</i>
   <i type="int" name="NPACO">   256</i>
   <i name="APACO">     16.00000000</i>
  </separator>
  <separator name="symmetry" >
   <i type="int" name="ISYM">     2</i>
   <i name="SYMPREC">      0.00001000</i>
  </separator>
  <separator name="dos" >
   <i type="logical" name="LORBIT"> F  </i>
   <v name="RWIGS">     -1.00000000</v>
   <i type="int" name="NEDOS">   301</i>
   <i name="EMIN">     10.00000000</i>
   <i name="EMAX">    -10.00000000</i>
   <i name="EFERMI">      0.00000000</i>
  </separator>
  <separator name="writing" >
   <i type="int" name="NWRITE">     2</i>
   <i type="logical" name="LWAVE"> F  </i>
   <i type="logical" name="LCHARG"> F  </i>
   <i type="logical" name="LPARD"> F  </i>
   <i type="logical" name="LVTOT"> F  </i>
   <i type="logical" name="LVHAR"> F  </i>
   <i type="logical" name="LELF"> F  </i>
   <i type="logical" name="LOPTICS"> F  </i>
   <v name="STM">      0.00000000      0.00000000      0.00000000      0.00000000      0.00000000      0.00000000      0.00000000</v>
  </separator>
  <separator name="performance" >
   <i type="int" name="NPAR">     8</i>
   <i type="int" name="NSIM">     4</i>
   <i type="int" name="NBLK">    -1</i>
   <i type="logical" name="LPLANE"> T  </i>
   <i type="logical" name="LSCALAPACK"> F  </i>
   <i type="logical" name="LSCAAWARE"> F  </i>
   <i type="logical" name="LSCALU"> F  </i>
   <i type="logical" name="LASYNC"> F  </i>
   <i type="logical" name="LORBITALREAL"> F  </i>
  </separator>
  <separator name="miscellaneous" >
   <i type="int" name="IDIOT">     3</i>
   <i type="logical" name="LMUSIC"> F  </i>
   <v name="POMASS">     39.94900000</v>
   <v name="DARWINR">      0.00000000</v>
   <v name="DARWINV">      1.00000000</v>
   <i type="logical" name="LCORR"> T  </i>
  </separator>
  <i type="logical" name="GGA_COMPAT"> T  </i>
  <i type="logical" name="LBERRY"> F  </i>
  <i type="int" name="ICORELEVEL">     0</i>
  <i type="logical" name="LDAU"> F  </i>
  <i type="int" name="I_CONSTRAINED_M">     0</i>
  <separator name="electronic exchange-correlation" >
   <i type="string" name="GGA">--</i>
   <i type="int" name="VOSKOWN">     0</i>
   <i type="logical" name="LHFCALC"> F  </i>
   <i type="string" name="PRECFOCK"></i>
   <i type="logical" name="LSYMGRAD"> F  </i>
   <i type="logical" name="LHFONE"> F  </i>
   <i type="logical" name="LRHFCALC"> F  </i>
   <i type="logical" name="LTHOMAS"> F  </i>
   <i type="logical" name="LMODELHF"> F  </i>
   <i name="ENCUT4O">     -1.00000000</i>
   <i type="int" name="EXXOEP">     0</i>
   <i type="int" name="FOURORBIT">     0</i>
   <i name="AEXX">      0.00000000</i>
   <i name="HFALPHA">      0.00000000</i>
   <i name="MCALPHA">      0.00000000</i>
   <i name="ALDAX">      1.00000000</i>
   <i name="AGGAX">      1.00000000</i>
   <i name="ALDAC">      1.00000000</i>
   <i name="AGGAC">      1.00000000</i>
   <i type="int" name="NKREDX">     1</i>
   <i type="int" name="NKREDY">     1</i>
   <i type="int" name="NKREDZ">     1</i>
   <i type="logical" name="SHIFTRED"> F  </i>
   <i type="logical" name="ODDONLY"> F  </i>
   <i type="logical" name="EVENONLY"> F  </i>
   <i type="int" name="LMAXFOCK">     0</i>
   <i type="int" name="NMAXFOCKAE">     0</i>
   <i type="logical" name="LFOCKAEDFT"> F  </i>
   <i name="HFSCREEN">      0.00000000</i>
   <i name="HFSCREENC">      0.00000000</i>
   <i type="int" name="NBANDSGWLOW">     0</i>
  </separator>
  <separator name="vdW DFT" >
   <i type="logical" name="LUSE_VDW"> F  </i>
   <i name="Zab_VDW">     -0.84910000</i>
   <i name="PARAM1">      0.12340000</i>
   <i name="PARAM2">      1.00000000</i>
   <i name="PARAM3">      0.00000000</i>
  </separator>
  <separator name="model GW" >
   <i type="int" name="MODEL_GW">     0</i>
   <i name="MODEL_EPS0">   1036.80000000</i>
   <i name="MODEL_ALPHA">      1.00000000</i>
  </separator>
  <separator name="linear response parameters" >
   <i type="logical" name="LEPSILON"> F  </i>
   <i type="logical" name="LRPA"> F  </i>
   <i type="logical" name="LNABLA"> F  </i>
   <i type="logical" name="LVEL"> F  </i>
   <i type="int" name="KINTER">     0</i>
   <i name="CSHIFT">      0.10000000</i>
   <i name="OMEGAMAX">     -1.00000000</i>
   <i name="DEG_THRESHOLD">      0.00200000</i>
  </separator>
  <separator name="orbital magnetization" >
   <i type="logical" name="NUCIND"> F  </i>
   <v name="MAGPOS">      0.00000000      0.00000000      0.00000000</v>
   <i type="logical" name="LNICSALL"> T  </i>
   <i type="logical" name="ORBITALMAG"> F  </i>
   <i type="logical" name="LMAGBLOCH"> F  </i>
   <i type="logical" name="LCHIMAG"> F  </i>
   <i type="logical" name="LGAUGE"> T  </i>
   <i type="int" name="MAGATOM">     0</i>
   <v name="MAGDIPOL">      0.00000000      0.00000000      0.00000000</v>
   <v name="AVECCONST">      0.00000000      0.00000000      0.00000000</v>
  </separator>
  <separator name="response functions" >
   <i type="logical" name="LADDER"> F  </i>
   <i type="logical" name="LFXC"> F  </i>
   <i type="logical" name="LHARTREE"> T  </i>
   <i type="int" name="IBSE">     0</i>
   <v type="int" name="KPOINT">    -1     0     0     0</v>
   <i type="logical" name="LTCTE"> F  </i>
   <i type="logical" name="LTETE"> F  </i>
   <i type="logical" name="LTRIPLET"> F  </i>
   <i type="logical" name="LFXCEPS"> F  </i>
   <i type="logical" name="LFXHEG"> F  </i>
   <i type="int" name="NATURALO">     0</i>
   <i type="logical" name="L2ORDER"> F  </i>
   <i type="logical" name="LUSEW"> F  </i>
   <i name="ENCUTGW">     -2.00000000</i>
   <i name="ENCUTGWSOFT">     -2.00000000</i>
   <i name="ENCUTLF">     -1.00000000</i>
   <i type="int" name="LMAXMP2">    -1</i>
   <i name="SCISSOR">      0.00000000</i>
   <i type="int" name="NOMEGA">     0</i>
   <i type="int" name="NOMEGAR">     0</i>
   <i type="int" name="NBANDSGW">    -1</i>
   <i type="int" name="NBANDSO">    -1</i>
   <i type="int" name="NBANDSV">    -1</i>
   <i type="int" name="NELM">     1</i>
   <i type="int" name="NELMHF">     1</i>
   <i type="int" name="DIM">     3</i>
   <i type="int" name="ANTIRES">     0</i>
   <i name="OMEGAMAX">    -30.00000000</i>
   <i name="OMEGAMIN">    -30.00000000</i>
   <i name="OMEGATL">   -200.00000000</i>
   <i type="int" name="OMEGAGRID">     0</i>
   <i name="CSHIFT">     -0.10000000</i>
   <i type="logical" name="SELFENERGY"> F  </i>
   <i type="logical" name="LSPECTRAL"> F  </i>
   <i type="logical" name="LSPECTRALGW"> F  </i>
   <i type="logical" name="LSINGLES"> F  </i>
   <i type="logical" name="LFERMIGW"> F  </i>
   <i type="logical" name="ODDONLYGW"> F  </i>
   <i type="logical" name="EVENONLYGW"> F  </i>
   <i type="int" name="NKREDLFX">     1</i>
   <i type="int" name="NKREDLFY">     1</i>
   <i type="int" name="NKREDLFZ">     1</i>
   <i type="int" name="MAXMEM">  1800</i>
   <i type="int" name="TELESCOPE">     0</i>
   <i type="int" name="TAUPAR">     1</i>
   <i type="int" name="OMEGAPAR">    -1</i>
   <i name="LAMBDA">      1.00000000</i>
  </separator>
  <separator name="External order field" >
   <i name="OFIELD_KAPPA">      0.00000000</i>
   <v name="OFIELD_K">      0.00000000      0.00000000      0.00000000</v>
   <i name="OFIELD_Q6_NEAR">      0.00000000</i>
   <i name="OFIELD_Q6_FAR">      0.00000000</i>
   <i name="OFIELD_A">      0.00000000</i>
  </separator>
 </parameters>
 <atominfo>
  <atoms>       1 </atoms>
  <types>       1 </types>
  <array name="atoms" >
   <dimension dim="1">ion</dimension>
   <field type="string">element</field>
   <field type="int">atomtype</field>
   <set>
    <rc><c>Ar</c><c>   1</c></rc>
   </set>
  </array>
  <array name="atomtypes" >
   <dimension dim="1">type</dimension>
   <field type="int">atomspertype</field>
   <field type="string">element</field>
   <field>mass</field>
   <field>valence</field>
   <field type="string">pseudopotential</field>
   <set>
    <rc><c>   1</c><c>Ar</c><c>     39.94900000</c><c>      8.00000000</c><c>  PAW_PBE Ar 07Sep2000                  </c></rc>
   </set>
  </array>
 </atominfo>
 <structure name="initialpos" >
  <crystal>
   <varray name="basis" >
    <v>      12.00000000       0.00000000       0.00000000 </v>
    <v>       0.00000000      12.00000000       0.00000000 </v>
    <v>       0.00000000       0.00000000      12.00000000 </v>
   </varray>
   <i name="volume">   1728.00000000 </i>
   <varray name="rec_basis" >
    <v>       0.08333333       0.00000000       0.00000000 </v>
    <v>       0.00000000       0.08333333       0.00000000 </v>
    <v>       0.00000000       0.00000000       0.08333333 </v>
   </varray>
  </crystal>
  <varray name="positions" >
   <v>       0.50000000       0.50000000       0.50000000 </v>
  </varray>
 </structure>
 <calculation>
  <scstep>
   <time name="dav">    0.03    0.03</time>
   <time name="total">    0.12    0.12</time>
   <energy>
    <i name="alphaZ">      0.08552978 </i>
    <i name="ewald">   -108.95061336 </i>
    <i name="hartreedc">   -385.56052840 </i>
    <i name="XCdc">     29.15733451 </i>
    <i name="pawpsdc">    464.39213177 </i>
    <i name="pawaedc">   -468.88429268 </i>
    <i name="eentropy">     -0.00000000 </i>
    <i name="bandstr">    -44.33932988 </i>
    <i name="atom">    578.96222833 </i>
    <i name="e_fr_energy">     64.86246007 </i>
    <i name="e_wo_entrp">     64.86246007 </i>
    <i name="e_0_energy">     64.86246007 </i>
   </energy>
  </scstep>
  <scstep>
   <time name="dav">    0.04    0.04</time>
   <time name="total">    0.04    0.05</time>
   <energy>
    <i name="e_fr_energy">     12.04165004 </i>
    <i name="e_wo_entrp">     12.04165004 </i>
    <i name="e_0_energy">     12.04165004 </i>
   </energy>
  </scstep>
  <scstep>
   <time name="dav">    0.02    0.02</time>
   <time name="total">    0.02    0.02</time>
   <energy>
    <i name="e_fr_energy">      0.29418842 </i>
    <i name="e_wo_entrp">      0.29418842 </i>
    <i name="e_0_energy">      0.29418842 </i>
   </energy>
  </scstep>
  <scstep>
   <time name="dav">    0.02    0.02</time>
   <time name="total">    0.02    0.03</time>
   <energy>
    <i name="e_fr_energy">     -0.02008881 </i>
    <i name="e_wo_entrp">     -0.02008881 </i>
    <i name="e_0_energy">     -0.02008881 </i>
   </energy>
  </scstep>
  <scstep>
   <time name="dav">    0.04    0.04</time>
   <time name="total">    0.06    0.07</time>
   <energy>
    <i name="e_fr_energy">     -0.02334267 </i>
    <i name="e_wo_entrp">     -0.02334267 </i>
    <i name="e_0_energy">     -0.02334267 </i>
   </energy>
  </scstep>
  <scstep>
   <time name="dav">    0.02    0.02</time>
   <time name="total">    0.11    0.12</time>
   <energy>
    <i name="e_fr_energy">     -0.02987920 </i>
    <i name="e_wo_entrp">     -0.02987920 </i>
    <i name="e_0_energy">     -0.02987920 </i>
   </energy>
  </scstep>
  <scstep>
   <time name="dav">    0.02    0.02</time>
   <time name="total">    0.10    0.10</time>
   <energy>
    <i name="e_fr_energy">     -0.03057411 </i>
    <i name="e_wo_entrp">     -0.03057411 </i>
    <i name="e_0_energy">     -0.03057411 </i>
   </energy>
  </scstep>
  <scstep>
   <time name="dav">    0.02    0.02</time>
   <time name="total">    0.09    0.10</time>
   <energy>
    <i name="alphaZ">      0.08552978 </i>
    <i name="ewald">   -108.95061336 </i>
    <i name="hartreedc">   -385.49598470 </i>
    <i name="XCdc">     29.16303043 </i>
    <i name="pawpsdc">    464.78768057 </i>
    <i name="pawaedc">   -469.25398588 </i>
    <i name="eentropy">     -0.00000000 </i>
    <i name="bandstr">   -109.32850103 </i>
    <i name="atom">    578.96222833 </i>
    <i name="e_fr_energy">     -0.03061587 </i>
    <i name="e_wo_entrp">     -0.03061587 </i>
    <i name="e_0_energy">     -0.03061587 </i>
   </energy>
  </scstep>
  <structure>
   <crystal>
    <varray name="basis" >
     <v>      12.00000000       0.00000000       0.00000000 </v>
     <v>       0.00000000      12.00000000       0.00000000 </v>
     <v>       0.00000000       0.00000000      12.00000000 </v>
    </varray>
    <i name="volume">   1728.00000000 </i>
    <varray name="rec_basis" >
     <v>       0.08333333       0.00000000       0.00000000 </v>
     <v>       0.00000000       0.08333333       0.00000000 </v>
     <v>       0.00000000       0.00000000       0.08333333 </v>
    </varray>
   </crystal>
   <varray name="positions" >
    <v>       0.50000000       0.50000000       0.50000000 </v>
   </varray>
  </structure>
  <varray name="forces" >
   <v>       0.00000000       0.00000000       0.00000000 </v>
  </varray>
  <varray name="stress" >
   <v>      -0.47293534       0.00000000      -0.00000000 </v>
   <v>       0.00000000      -0.47293534       0.00000000 </v>
   <v>      -0.00000000       0.00000000      -0.47293534 </v>
  </varray>
  <energy>
   <i name="e_fr_energy">     -0.03061587 </i>
   <i name="e_wo_entrp">     -0.03061587 </i>
   <i name="e_0_energy">     -0.00000000 </i>
  </energy>
  <time name="totalsc">    0.82    0.87</time>
  <eigenvalues>
   <array>
    <dimension dim="1">band</dimension>
    <dimension dim="2">kpoint</dimension>
    <dimension dim="3">spin</dimension>
    <field>eigene</field>
    <field>occ</field>
    <set>
     <set comment="spin 1">
      <set comment="kpoint 1">
       <r>  -24.1820    1.0000 </r>
       <r>  -10.1607    1.0000 </r>
       <r>  -10.1607    1.0000 </r>
       <r>  -10.1607    1.0000 </r>
       <r>   -0.3226    0.0000 </r>
       <r>    0.6319    0.0000 </r>
       <r>    0.8819    0.0000 </r>
       <r>    0.8819    0.0000 </r>
      </set>
     </set>
    </set>
   </array>
  </eigenvalues>
  <separator name="orbital magnetization" >
   <v name="MAGDIPOLOUT">      0.00000000      0.00000000      0.00000000</v>
  </separator>
  <dos>
   <i name="efermi">    -10.06474261 </i>
   <total>
    <array>
     <dimension dim="1">gridpoints</dimension>
     <dimension dim="2">spin</dimension>
     <field>energy</field>
     <field>total</field>
     <field>integrated</field>
     <set>
      <set comment="spin 1">
       <r>   -25.4352     0.0000     0.0000 </r>
       <r>   -25.3433     0.0000     0.0000 </r>
       <r>   -25.2514     0.0000     0.0000 </r>
       <r>   -25.1595     0.0000     0.0000 </r>
       <r>   -25.0676     0.0000     0.0000 </r>
       <r>   -24.9757     0.0000     0.0000 </r>
       <r>   -24.8838     0.0000     0.0000 </r>
       <r>   -24.7919     0.0000     0.0000 </r>
       <r>   -24.7000     0.0000     0.0000 </r>
       <r>   -24.6081     0.0000     0.0000 </r>
       <r>   -24.5162     0.0000     0.0000 </r>
       <r>   -24.4243     0.0000     0.0000 </r>
       <r>   -24.3324     0.0000     0.0000 </r>
       <r>   -24.2405     0.0000     0.0000 </r>
       <r>   -24.1486    21.7625     2.0000 </r>
       <r>   -24.0567     0.0000     2.0000 </r>
       <r>   -23.9648     0.0000     2.0000 </r>
       <r>   -23.8729     0.0000     2.0000 </r>
       <r>   -23.7810     0.0000     2.0000 </r>
       <r>   -23.6891     0.0000     2.0000 </r>
       <r>   -23.5972     0.0000     2.0000 </r>
       <r>   -23.5053     0.0000     2.0000 </r>
       <r>   -23.4134     0.0000     2.0000 </r>
       <r>   -23.3215     0.0000     2.0000 </r>
       <r>   -23.2296     0.0000     2.0000 </r>
       <r>   -23.1377     0.0000     2.0000 </r>
       <r>   -23.0458     0.0000     2.0000 </r>
       <r>   -22.9539     0.0000     2.0000 </r>
       <r>   -22.8620     0.0000     2.0000 </r>
       <r>   -22.7701     0.0000     2.0000 </r>
       <r>   -22.6782     0.0000     2.0000 </r>
       <r>   -22.5863     0.0000     2.0000 </r>
       <r>   -22.4944     0.0000     2.0000 </r>
       <r>   -22.4025     0.0000     2.0000 </r>
       <r>   -22.3106     0.0000     2.0000 </r>
       <r>   -22.2187     0.0000     2.0000 </r>
       <r>   -22.1268     0.0000     2.0000 </r>
       <r>   -22.0349     0.0000     2.0000 </r>
       <r>   -21.9430     0.0000     2.0000 </r>
       <r>   -21.8511     0.0000     2.0000 </r>
       <r>   -21.7592     0.0000     2.0000 </r>
       <r>   -21.6673     0.0000     2.0000 </r>
       <r>   -21.5754     0.0000     2.0000 </r>
       <r>   -21.4835     0.0000     2.0000 </r>
       <r>   -21.3916     0.0000     2.0000 </r>
       <r>   -21.2997     0.0000     2.0000 </r>
       <r>   -21.2078     0.0000     2.0000 </r>
       <r>   -21.1159     0.0000     2.0000 </r>
       <r>   -21.0240     0.0000     2.0000 </r>
       <r>   -20.9321     0.0000     2.0000 </r>
       <r>   -20.8402     0.0000     2.0000 </r>
       <r>   -20.7483     0.0000     2.0000 </r>
       <r>   -20.6563     0.0000     2.0000 </r>
       <r>   -20.5644     0.0000     2.0000 </r>
       <r>   -20.4725     0.0000     2.0000 </r>
       <r>   -20.3806     0.0000     2.0000 </r>
       <r>   -20.2887     0.0000     2.0000 </r>
       <r>   -20.1968     0.0000     2.0000 </r>
       <r>   -20.1049     0.0000     2.0000 </r>
       <r>   -20.0130     0.0000     2.0000 </r>
       <r>   -19.9211     0.0000     2.0000 </r>
       <r>   -19.8292     0.0000     2.0000 </r>
       <r>   -19.7373     0.0000     2.0000 </r>
       <r>   -19.6454     0.0000     2.0000 </r>
       <r>   -19.5535     0.0000     2.0000 </r>
       <r>   -19.4616     0.0000     2.0000 </r>
       <r>   -19.3697     0.0000     2.0000 </r>
       <r>   -19.2778     0.0000     2.0000 </r>
       <r>   -19.1859     0.0000     2.0000 </r>
       <r>   -19.0940     0.0000     2.0000 </r>
       <r>   -19.0021     0.0000     2.0000 </r>
       <r>   -18.9102     0.0000     2.0000 </r>
       <r>   -18.8183     0.0000     2.0000 </r>
       <r>   -18.7264     0.0000     2.0000 </r>
       <r>   -18.6345     0.0000     2.0000 </r>
       <r>   -18.5426     0.0000     2.0000 </r>
       <r>   -18.4507     0.0000     2.0000 </r>
       <r>   -18.3588     0.0000     2.0000 </r>
       <r>   -18.2669     0.0000     2.0000 </r>
       <r>   -18.1750     0.0000     2.0000 </r>
       <r>   -18.0831     0.0000     2.0000 </r>
       <r>   -17.9912     0.0000     2.0000 </r>
       <r>   -17.8993     0.0000     2.0000 </r>
       <r>   -17.8074     0.0000     2.0000 </r>
       <r>   -17.7155     0.0000     2.0000 </r>
       <r>   -17.6236     0.0000     2.0000 </r>
       <r>   -17.5317     0.0000     2.0000 </r>
       <r>   -17.4398     0.0000     2.0000 </r>
       <r>   -17.3479     0.0000     2.0000 </r>
       <r>   -17.2560     0.0000     2.0000 </r>
       <r>   -17.1641     0.0000     2.0000 </r>
       <r>   -17.0722     0.0000     2.0000 </r>
       <r>   -16.9803     0.0000     2.0000 </r>
       <r>   -16.8884     0.0000     2.0000 </r>
       <r>   -16.7965     0.0000     2.0000 </r>
       <r>   -16.7046     0.0000     2.0000 </r>
       <r>   -16.6127     0.0000     2.0000 </r>
       <r>   -16.5208     0.0000     2.0000 </r>
       <r>   -16.4289     0.0000     2.0000 </r>
       <r>   -16.3370     0.0000     2.0000 </r>
       <r>   -16.2451     0.0000     2.0000 </r>
       <r>   -16.1532     0.0000     2.0000 </r>
       <r>   -16.0613     0.0000     2.0000 </r>
       <r>   -15.9694     0.0000     2.0000 </r>
       <r>   -15.8775     0.0000     2.0000 </r>
       <r>   -15.7856     0.0000     2.0000 </r>
       <r>   -15.6937     0.0000     2.0000 </r>
       <r>   -15.6018     0.0000     2.0000 </r>
       <r>   -15.5099     0.0000     2.0000 </r>
       <r>   -15.4180     0.0000     2.0000 </r>
       <r>   -15.3261     0.0000     2.0000 </r>
       <r>   -15.2342     0.0000     2.0000 </r>
       <r>   -15.1423     0.0000     2.0000 </r>
       <r>   -15.0504     0.0000     2.0000 </r>
       <r>   -14.9585     0.0000     2.0000 </r>
       <r>   -14.8666     0.0000     2.0000 </r>
       <r>   -14.7747     0.0000     2.0000 </r>
       <r>   -14.6828     0.0000     2.0000 </r>
       <r>   -14.5909     0.0000     2.0000 </r>
       <r>   -14.4990     0.0000     2.0000 </r>
       <r>   -14.4071     0.0000     2.0000 </r>
       <r>   -14.3152     0.0000     2.0000 </r>
       <r>   -14.2233     0.0000     2.0000 </r>
       <r>   -14.1314     0.0000     2.0000 </r>
       <r>   -14.0395     0.0000     2.0000 </r>
       <r>   -13.9476     0.0000     2.0000 </r>
       <r>   -13.8557     0.0000     2.0000 </r>
       <r>   -13.7638     0.0000     2.0000 </r>
       <r>   -13.6719     0.0000     2.0000 </r>
       <r>   -13.5800     0.0000     2.0000 </r>
       <r>   -13.4881     0.0000     2.0000 </r>
       <r>   -13.3962     0.0000     2.0000 </r>
       <r>   -13.3043     0.0000     2.0000 </r>
       <r>   -13.2124     0.0000     2.0000 </r>
       <r>   -13.1205     0.0000     2.0000 </r>
       <r>   -13.0286     0.0000     2.0000 </r>
       <r>   -12.9367     0.0000     2.0000 </r>
       <r>   -12.8448     0.0000     2.0000 </r>
       <r>   -12.7529     0.0000     2.0000 </r>
       <r>   -12.6609     0.0000     2.0000 </r>
       <r>   -12.5690     0.0000     2.0000 </r>
       <r>   -12.4771     0.0000     2.0000 </r>
       <r>   -12.3852     0.0000     2.0000 </r>
       <r>   -12.2933     0.0000     2.0000 </r>
       <r>   -12.2014     0.0000     2.0000 </r>
       <r>   -12.1095     0.0000     2.0000 </r>
       <r>   -12.0176     0.0000     2.0000 </r>
       <r>   -11.9257     0.0000     2.0000 </r>
       <r>   -11.8338     0.0000     2.0000 </r>
       <r>   -11.7419     0.0000     2.0000 </r>
       <r>   -11.6500     0.0000     2.0000 </r>
       <r>   -11.5581     0.0000     2.0000 </r>
       <r>   -11.4662     0.0000     2.0000 </r>
       <r>   -11.3743     0.0000     2.0000 </r>
       <r>   -11.2824     0.0000     2.0000 </r>
       <r>   -11.1905     0.0000     2.0000 </r>
       <r>   -11.0986     0.0000     2.0000 </r>
       <r>   -11.0067     0.0000     2.0000 </r>
       <r>   -10.9148     0.0000     2.0000 </r>
       <r>   -10.8229     0.0000     2.0000 </r>
       <r>   -10.7310     0.0000     2.0000 </r>
       <r>   -10.6391     0.0000     2.0000 </r>
       <r>   -10.5472     0.0000     2.0000 </r>
       <r>   -10.4553     0.0000     2.0000 </r>
       <r>   -10.3634     0.0000     2.0000 </r>
       <r>   -10.2715     0.0000     2.0000 </r>
       <r>   -10.1796     0.2483     2.0228 </r>
       <r>   -10.0877    65.0392     8.0000 </r>
       <r>    -9.9958     0.0000     8.0000 </r>
       <r>    -9.9039     0.0000     8.0000 </r>
       <r>    -9.8120     0.0000     8.0000 </r>
       <r>    -9.7201     0.0000     8.0000 </r>
       <r>    -9.6282     0.0000     8.0000 </r>
       <r>    -9.5363     0.0000     8.0000 </r>
       <r>    -9.4444     0.0000     8.0000 </r>
       <r>    -9.3525     0.0000     8.0000 </r>
       <r>    -9.2606     0.0000     8.0000 </r>
       <r>    -9.1687     0.0000     8.0000 </r>
       <r>    -9.0768     0.0000     8.0000 </r>
       <r>    -8.9849     0.0000     8.0000 </r>
       <r>    -8.8930     0.0000     8.0000 </r>
       <r>    -8.8011     0.0000     8.0000 </r>
       <r>    -8.7092     0.0000     8.0000 </r>
       <r>    -8.6173     0.0000     8.0000 </r>
       <r>    -8.5254     0.0000     8.0000 </r>
       <r>    -8.4335     0.0000     8.0000 </r>
       <r>    -8.3416     0.0000     8.0000 </r>
       <r>    -8.2497     0.0000     8.0000 </r>
       <r>    -8.1578     0.0000     8.0000 </r>
       <r>    -8.0659     0.0000     8.0000 </r>
       <r>    -7.9740     0.0000     8.0000 </r>
       <r>    -7.8821     0.0000     8.0000 </r>
       <r>    -7.7902     0.0000     8.0000 </r>
       <r>    -7.6983     0.0000     8.0000 </r>
       <r>    -7.6064     0.0000     8.0000 </r>
       <r>    -7.5145     0.0000     8.0000 </r>
       <r>    -7.4226     0.0000     8.0000 </r>
       <r>    -7.3307     0.0000     8.0000 </r>
       <r>    -7.2388     0.0000     8.0000 </r>
       <r>    -7.1469     0.0000     8.0000 </r>
       <r>    -7.0550     0.0000     8.0000 </r>
       <r>    -6.9631     0.0000     8.0000 </r>
       <r>    -6.8712     0.0000     8.0000 </r>
       <r>    -6.7793     0.0000     8.0000 </r>
       <r>    -6.6874     0.0000     8.0000 </r>
       <r>    -6.5955     0.0000     8.0000 </r>
       <r>    -6.5036     0.0000     8.0000 </r>
       <r>    -6.4117     0.0000     8.0000 </r>
       <r>    -6.3198     0.0000     8.0000 </r>
       <r>    -6.2279     0.0000     8.0000 </r>
       <r>    -6.1360     0.0000     8.0000 </r>
       <r>    -6.0441     0.0000     8.0000 </r>
       <r>    -5.9522     0.0000     8.0000 </r>
       <r>    -5.8603     0.0000     8.0000 </r>
       <r>    -5.7684     0.0000     8.0000 </r>
       <r>    -5.6765     0.0000     8.0000 </r>
       <r>    -5.5846     0.0000     8.0000 </r>
       <r>    -5.4927     0.0000     8.0000 </r>
       <r>    -5.4008     0.0000     8.0000 </r>
       <r>    -5.3089     0.0000     8.0000 </r>
       <r>    -5.2170     0.0000     8.0000 </r>
       <r>    -5.1251     0.0000     8.0000 </r>
       <r>    -5.0332     0.0000     8.0000 </r>
       <r>    -4.9413     0.0000     8.0000 </r>
       <r>    -4.8494     0.0000     8.0000 </r>
       <r>    -4.7575     0.0000     8.0000 </r>
       <r>    -4.6656     0.0000     8.0000 </r>
       <r>    -4.5736     0.0000     8.0000 </r>
       <r>    -4.4817     0.0000     8.0000 </r>
       <r>    -4.3898     0.0000     8.0000 </r>
       <r>    -4.2979     0.0000     8.0000 </r>
       <r>    -4.2060     0.0000     8.0000 </r>
       <r>    -4.1141     0.0000     8.0000 </r>
       <r>    -4.0222     0.0000     8.0000 </r>
       <r>    -3.9303     0.0000     8.0000 </r>
       <r>    -3.8384     0.0000     8.0000 </r>
       <r>    -3.7465     0.0000     8.0000 </r>
       <r>    -3.6546     0.0000     8.0000 </r>
       <r>    -3.5627     0.0000     8.0000 </r>
       <r>    -3.4708     0.0000     8.0000 </r>
       <r>    -3.3789     0.0000     8.0000 </r>
       <r>    -3.2870     0.0000     8.0000 </r>
       <r>    -3.1951     0.0000     8.0000 </r>
       <r>    -3.1032     0.0000     8.0000 </r>
       <r>    -3.0113     0.0000     8.0000 </r>
       <r>    -2.9194     0.0000     8.0000 </r>
       <r>    -2.8275     0.0000     8.0000 </r>
       <r>    -2.7356     0.0000     8.0000 </r>
       <r>    -2.6437     0.0000     8.0000 </r>
       <r>    -2.5518     0.0000     8.0000 </r>
       <r>    -2.4599     0.0000     8.0000 </r>
       <r>    -2.3680     0.0000     8.0000 </r>
       <r>    -2.2761     0.0000     8.0000 </r>
       <r>    -2.1842     0.0000     8.0000 </r>
       <r>    -2.0923     0.0000     8.0000 </r>
       <r>    -2.0004     0.0000     8.0000 </r>
       <r>    -1.9085     0.0000     8.0000 </r>
       <r>    -1.8166     0.0000     8.0000 </r>
       <r>    -1.7247     0.0000     8.0000 </r>
       <r>    -1.6328     0.0000     8.0000 </r>
       <r>    -1.5409     0.0000     8.0000 </r>
       <r>    -1.4490     0.0000     8.0000 </r>
       <r>    -1.3571     0.0000     8.0000 </r>
       <r>    -1.2652     0.0000     8.0000 </r>
       <r>    -1.1733     0.0000     8.0000 </r>
       <r>    -1.0814     0.0000     8.0000 </r>
       <r>    -0.9895     0.0000     8.0000 </r>
       <r>    -0.8976     0.0000     8.0000 </r>
       <r>    -0.8057     0.0000     8.0000 </r>
       <r>    -0.7138     0.0000     8.0000 </r>
       <r>    -0.6219     0.0000     8.0000 </r>
       <r>    -0.5300     0.0000     8.0000 </r>
       <r>    -0.4381     0.0000     8.0000 </r>
       <r>    -0.3462     0.0090     8.0008 </r>
       <r>    -0.2543    21.7535    10.0000 </r>
       <r>    -0.1624     0.0000    10.0000 </r>
       <r>    -0.0705     0.0000    10.0000 </r>
       <r>     0.0214     0.0000    10.0000 </r>
       <r>     0.1133     0.0000    10.0000 </r>
       <r>     0.2052     0.0000    10.0000 </r>
       <r>     0.2971     0.0000    10.0000 </r>
       <r>     0.3890     0.0000    10.0000 </r>
       <r>     0.4809     0.0000    10.0000 </r>
       <r>     0.5728     0.0000    10.0000 </r>
       <r>     0.6647    21.7625    12.0000 </r>
       <r>     0.7566     0.0000    12.0000 </r>
       <r>     0.8485     0.0000    12.0000 </r>
       <r>     0.9404    43.5250    16.0000 </r>
       <r>     1.0323     0.0000    16.0000 </r>
       <r>     1.1242     0.0000    16.0000 </r>
       <r>     1.2161     0.0000    16.0000 </r>
       <r>     1.3080     0.0000    16.0000 </r>
       <r>     1.3999     0.0000    16.0000 </r>
       <r>     1.4918     0.0000    16.0000 </r>
       <r>     1.5837     0.0000    16.0000 </r>
       <r>     1.6756     0.0000    16.0000 </r>
       <r>     1.7675     0.0000    16.0000 </r>
       <r>     1.8594     0.0000    16.0000 </r>
       <r>     1.9513     0.0000    16.0000 </r>
       <r>     2.0432     0.0000    16.0000 </r>
       <r>     2.1351     0.0000    16.0000 </r>
      </set>
     </set>
    </array>
   </total>
  </dos>
 </calculation>
 <structure name="finalpos" >
  <crystal>
   <varray name="basis" >
    <v>      12.00000000       0.00000000       0.00000000 </v>
    <v>       0.00000000      12.00000000       0.00000000 </v>
    <v>       0.00000000       0.00000000      12.00000000 </v>
   </varray>
   <i name="volume">   1728.00000000 </i>
   <varray name="rec_basis" >
    <v>       0.08333333       0.00000000       0.00000000 </v>
    <v>       0.00000000       0.08333333       0.00000000 </v>
    <v>       0.00000000       0.00000000       0.08333333 </v>
   </varray>
  </crystal>
  <varray name="positions" >
   <v>       0.50000000       0.50000000       0.50000000 </v>
  </varray>
 </structure>
</modeling>
