  12  12   1   0
  0.4617591E+02  0.5142081E-09  0.5142081E-09  0.2419849E-08  0.5000000E-15
  1.000000000000000E-004
  CAR 
 unknown system                          
     10.05140024    -11.08076176  301     -1.50820750      1.00000000
    -11.081  0.0000E+00  0.0000E+00
    -11.010  0.0000E+00  0.0000E+00
    -10.940 -0.7491E-32 -0.5277E-33
    -10.869 -0.7556E-27 -0.5323E-28
    -10.799 -0.2803E-22 -0.1974E-23
    -10.729 -0.3817E-18 -0.2689E-19
    -10.658 -0.1846E-14 -0.1300E-15
    -10.588 -0.3335E-11 -0.2351E-12
    -10.517 -0.2178E-08 -0.1537E-09
    -10.447 -0.5089E-06 -0.3600E-07
    -10.376 -0.4172E-04 -0.2975E-05
    -10.306 -0.1156E-02 -0.8444E-04
    -10.235 -0.9988E-02 -0.7880E-03
    -10.165 -0.1813E-01 -0.2065E-02
    -10.095  0.9427E-01  0.4575E-02
    -10.024  0.6392E+00  0.4960E-01
     -9.954  0.1170E+01  0.1320E+00
     -9.883  0.5802E+00  0.1729E+00
     -9.813  0.6395E+00  0.2179E+00
     -9.742  0.1492E+01  0.3230E+00
     -9.672  0.1505E+01  0.4290E+00
     -9.602  0.5825E+00  0.4701E+00
     -9.531 -0.1155E+00  0.4619E+00
     -9.461  0.7091E+00  0.5119E+00
     -9.390  0.2245E+01  0.6700E+00
     -9.320  0.1398E+01  0.7685E+00
     -9.249  0.7383E+00  0.8205E+00
     -9.179  0.1048E+01  0.8943E+00
     -9.108  0.2862E+00  0.9145E+00
     -9.038 -0.6002E-01  0.9102E+00
     -8.968  0.7743E+00  0.9648E+00
     -8.897  0.2276E+01  0.1125E+01
     -8.827  0.2586E+01  0.1307E+01
     -8.756  0.8185E+00  0.1365E+01
     -8.686 -0.1072E-01  0.1364E+01
     -8.615  0.8183E+00  0.1422E+01
     -8.545  0.1013E+01  0.1493E+01
     -8.474  0.1084E+00  0.1501E+01
     -8.404  0.4612E+00  0.1533E+01
     -8.334  0.2057E+01  0.1678E+01
     -8.263  0.1849E+01  0.1808E+01
     -8.193  0.1935E+01  0.1945E+01
     -8.122  0.2043E+01  0.2089E+01
     -8.052  0.1038E+01  0.2162E+01
     -7.981  0.1029E+01  0.2234E+01
     -7.911  0.1150E+01  0.2315E+01
     -7.840  0.2007E+01  0.2457E+01
     -7.770  0.2225E+01  0.2613E+01
     -7.700  0.2716E+01  0.2805E+01
     -7.629  0.3139E+01  0.3026E+01
     -7.559  0.2051E+01  0.3170E+01
     -7.488  0.3023E+01  0.3383E+01
     -7.418  0.4105E+01  0.3672E+01
     -7.347  0.2124E+01  0.3822E+01
     -7.277  0.8821E+00  0.3884E+01
     -7.207  0.3916E+00  0.3912E+01
     -7.136  0.1261E+01  0.4000E+01
     -7.066  0.3309E+01  0.4233E+01
     -6.995  0.5619E+01  0.4629E+01
     -6.925  0.4684E+01  0.4959E+01
     -6.854  0.2620E+01  0.5144E+01
     -6.784  0.3016E+01  0.5356E+01
     -6.713  0.2142E+01  0.5507E+01
     -6.643  0.1605E+01  0.5620E+01
     -6.573  0.4392E+01  0.5930E+01
     -6.502  0.4928E+01  0.6277E+01
     -6.432  0.5189E+01  0.6642E+01
     -6.361  0.9690E+01  0.7325E+01
     -6.291  0.7841E+01  0.7877E+01
     -6.220  0.5052E+01  0.8233E+01
     -6.150  0.1006E+02  0.8941E+01
     -6.079  0.1115E+02  0.9727E+01
     -6.009  0.1282E+02  0.1063E+02
     -5.939  0.1862E+02  0.1194E+02
     -5.868  0.1761E+02  0.1318E+02
     -5.798  0.1340E+02  0.1413E+02
     -5.727  0.1125E+02  0.1492E+02
     -5.657  0.1149E+02  0.1573E+02
     -5.586  0.1831E+02  0.1702E+02
     -5.516  0.2877E+02  0.1904E+02
     -5.446  0.2806E+02  0.2102E+02
     -5.375  0.2371E+02  0.2269E+02
     -5.305  0.2203E+02  0.2424E+02
     -5.234  0.2192E+02  0.2579E+02
     -5.164  0.2156E+02  0.2730E+02
     -5.093  0.2076E+02  0.2877E+02
     -5.023  0.1324E+02  0.2970E+02
     -4.952  0.1908E+02  0.3104E+02
     -4.882  0.4223E+02  0.3402E+02
     -4.812  0.4222E+02  0.3699E+02
     -4.741  0.2411E+02  0.3869E+02
     -4.671  0.1860E+02  0.4000E+02
     -4.600  0.2164E+02  0.4152E+02
     -4.530  0.3166E+02  0.4375E+02
     -4.459  0.4986E+02  0.4727E+02
     -4.389  0.5083E+02  0.5085E+02
     -4.318  0.4661E+02  0.5413E+02
     -4.248  0.5762E+02  0.5819E+02
     -4.178  0.7128E+02  0.6321E+02
     -4.107  0.6893E+02  0.6807E+02
     -4.037  0.5488E+02  0.7193E+02
     -3.966  0.3907E+02  0.7468E+02
     -3.896  0.2843E+02  0.7669E+02
     -3.825  0.2396E+02  0.7837E+02
     -3.755  0.3108E+02  0.8056E+02
     -3.685  0.5529E+02  0.8446E+02
     -3.614  0.7139E+02  0.8949E+02
     -3.544  0.5990E+02  0.9370E+02
     -3.473  0.3798E+02  0.9638E+02
     -3.403  0.3755E+02  0.9903E+02
     -3.332  0.4694E+02  0.1023E+03
     -3.262  0.4932E+02  0.1058E+03
     -3.191  0.5767E+02  0.1099E+03
     -3.121  0.8076E+02  0.1156E+03
     -3.051  0.8010E+02  0.1212E+03
     -2.980  0.4590E+02  0.1244E+03
     -2.910  0.1822E+02  0.1257E+03
     -2.839  0.1197E+02  0.1266E+03
     -2.769  0.1029E+02  0.1273E+03
     -2.698  0.3160E+01  0.1275E+03
     -2.628 -0.1595E+00  0.1275E+03
     -2.557  0.3720E+00  0.1275E+03
     -2.487  0.1034E+01  0.1276E+03
     -2.417  0.2620E+01  0.1278E+03
     -2.346  0.8540E+01  0.1284E+03
     -2.276  0.1263E+02  0.1293E+03
     -2.205  0.7302E+01  0.1298E+03
     -2.135  0.3385E+01  0.1300E+03
     -2.064  0.2675E+01  0.1302E+03
     -1.994  0.2193E+01  0.1304E+03
     -1.923  0.1104E+01  0.1304E+03
     -1.853 -0.2845E-01  0.1304E+03
     -1.783  0.6992E+00  0.1305E+03
     -1.712  0.2348E+01  0.1307E+03
     -1.642  0.2291E+01  0.1308E+03
     -1.571  0.5276E+01  0.1312E+03
     -1.501  0.1305E+02  0.1321E+03
     -1.430  0.1215E+02  0.1330E+03
     -1.360  0.5087E+01  0.1333E+03
     -1.290  0.2781E+01  0.1335E+03
     -1.219  0.3052E+01  0.1337E+03
     -1.149  0.2613E+01  0.1339E+03
     -1.078  0.2763E+01  0.1341E+03
     -1.008  0.1616E+01  0.1342E+03
     -0.937  0.9462E+00  0.1343E+03
     -0.867  0.2232E+01  0.1345E+03
     -0.796  0.2559E+01  0.1346E+03
     -0.726  0.1987E+01  0.1348E+03
     -0.656  0.2191E+01  0.1349E+03
     -0.585  0.3797E+01  0.1352E+03
     -0.515  0.8378E+01  0.1358E+03
     -0.444  0.1366E+02  0.1367E+03
     -0.374  0.1022E+02  0.1375E+03
     -0.303  0.3111E+01  0.1377E+03
     -0.233  0.1841E+01  0.1378E+03
     -0.162  0.1385E+01  0.1379E+03
     -0.092  0.9655E+00  0.1380E+03
     -0.022  0.1077E+01  0.1381E+03
      0.049  0.2880E+01  0.1383E+03
      0.119  0.4333E+01  0.1386E+03
      0.190  0.3772E+01  0.1388E+03
      0.260  0.1922E+01  0.1390E+03
      0.331  0.9926E+00  0.1390E+03
      0.401  0.3276E+01  0.1393E+03
      0.471  0.6123E+01  0.1397E+03
      0.542  0.7795E+01  0.1402E+03
      0.612  0.4987E+01  0.1406E+03
      0.683  0.2412E+01  0.1408E+03
      0.753  0.4821E+01  0.1411E+03
      0.824  0.5757E+01  0.1415E+03
      0.894  0.2796E+01  0.1417E+03
      0.965  0.2860E+01  0.1419E+03
      1.035  0.7175E+01  0.1424E+03
      1.105  0.6799E+01  0.1429E+03
      1.176  0.2815E+01  0.1431E+03
      1.246  0.4533E+01  0.1434E+03
      1.317  0.5027E+01  0.1438E+03
      1.387  0.1856E+01  0.1439E+03
      1.458  0.1574E+01  0.1440E+03
      1.528  0.2020E+01  0.1442E+03
      1.599  0.4563E+00  0.1442E+03
      1.669 -0.2213E+00  0.1442E+03
      1.739 -0.1314E+00  0.1442E+03
      1.810  0.1757E+01  0.1443E+03
      1.880  0.4146E+01  0.1446E+03
      1.951  0.3008E+01  0.1448E+03
      2.021  0.3069E+01  0.1450E+03
      2.092  0.4456E+01  0.1453E+03
      2.162  0.3834E+01  0.1456E+03
      2.233  0.2816E+01  0.1458E+03
      2.303  0.2059E+01  0.1459E+03
      2.373  0.2037E+01  0.1461E+03
      2.444  0.2276E+01  0.1462E+03
      2.514  0.4441E+01  0.1465E+03
      2.585  0.3907E+01  0.1468E+03
      2.655  0.6354E+00  0.1469E+03
      2.726  0.5602E+00  0.1469E+03
      2.796  0.1047E+01  0.1470E+03
      2.866  0.7679E+00  0.1470E+03
      2.937  0.1918E+01  0.1472E+03
      3.007  0.3844E+01  0.1474E+03
      3.078  0.6633E+01  0.1479E+03
      3.148  0.8007E+01  0.1485E+03
      3.219  0.5054E+01  0.1488E+03
      3.289  0.5592E+01  0.1492E+03
      3.360  0.8774E+01  0.1498E+03
      3.430  0.9030E+01  0.1505E+03
      3.500  0.5735E+01  0.1509E+03
      3.571  0.2813E+01  0.1511E+03
      3.641  0.4717E+01  0.1514E+03
      3.712  0.8111E+01  0.1520E+03
      3.782  0.8211E+01  0.1526E+03
      3.853  0.5727E+01  0.1530E+03
      3.923  0.8343E+01  0.1535E+03
      3.994  0.9765E+01  0.1542E+03
      4.064  0.6336E+01  0.1547E+03
      4.134  0.4197E+01  0.1550E+03
      4.205  0.8769E+01  0.1556E+03
      4.275  0.1164E+02  0.1564E+03
      4.346  0.1095E+02  0.1572E+03
      4.416  0.8188E+01  0.1578E+03
      4.487  0.8058E+01  0.1583E+03
      4.557  0.7926E+01  0.1589E+03
      4.627  0.6651E+01  0.1594E+03
      4.698  0.5831E+01  0.1598E+03
      4.768  0.6358E+01  0.1602E+03
      4.839  0.7604E+01  0.1608E+03
      4.909  0.7370E+01  0.1613E+03
      4.980  0.9247E+01  0.1619E+03
      5.050  0.1244E+02  0.1628E+03
      5.121  0.9465E+01  0.1635E+03
      5.191  0.7016E+01  0.1640E+03
      5.261  0.1036E+02  0.1647E+03
      5.332  0.1224E+02  0.1656E+03
      5.402  0.1139E+02  0.1664E+03
      5.473  0.7065E+01  0.1669E+03
      5.543  0.4578E+01  0.1672E+03
      5.614  0.5613E+01  0.1676E+03
      5.684  0.7876E+01  0.1681E+03
      5.755  0.1122E+02  0.1689E+03
      5.825  0.1526E+02  0.1700E+03
      5.895  0.1411E+02  0.1710E+03
      5.966  0.7404E+01  0.1715E+03
      6.036  0.3029E+01  0.1717E+03
      6.107  0.6490E+01  0.1722E+03
      6.177  0.9423E+01  0.1728E+03
      6.248  0.8621E+01  0.1734E+03
      6.318  0.8065E+01  0.1740E+03
      6.388  0.5530E+01  0.1744E+03
      6.459  0.4762E+01  0.1747E+03
      6.529  0.6434E+01  0.1752E+03
      6.600  0.9535E+01  0.1759E+03
      6.670  0.1216E+02  0.1767E+03
      6.741  0.1102E+02  0.1775E+03
      6.811  0.9053E+01  0.1781E+03
      6.882  0.1244E+02  0.1790E+03
      6.952  0.1396E+02  0.1800E+03
      7.022  0.6976E+01  0.1805E+03
      7.093  0.6072E+01  0.1809E+03
      7.163  0.1367E+02  0.1819E+03
      7.234  0.1114E+02  0.1827E+03
      7.304  0.6086E+01  0.1831E+03
      7.375  0.8535E+01  0.1837E+03
      7.445  0.8378E+01  0.1843E+03
      7.516  0.5490E+01  0.1847E+03
      7.586  0.1103E+02  0.1854E+03
      7.656  0.1579E+02  0.1866E+03
      7.727  0.1343E+02  0.1875E+03
      7.797  0.1203E+02  0.1884E+03
      7.868  0.1223E+02  0.1892E+03
      7.938  0.8689E+01  0.1898E+03
      8.009  0.6944E+01  0.1903E+03
      8.079  0.5482E+01  0.1907E+03
      8.150  0.1560E+01  0.1908E+03
      8.220 -0.3418E+00  0.1908E+03
      8.290  0.2477E+00  0.1908E+03
      8.361  0.2271E+01  0.1910E+03
      8.431  0.4306E+01  0.1913E+03
      8.502  0.4522E+01  0.1916E+03
      8.572  0.2350E+01  0.1918E+03
      8.643  0.9662E+00  0.1918E+03
      8.713  0.1856E+00  0.1918E+03
      8.783 -0.6725E-01  0.1918E+03
      8.854 -0.4392E-01  0.1918E+03
      8.924 -0.3776E-01  0.1918E+03
      8.995  0.4292E+00  0.1919E+03
      9.065  0.1263E+01  0.1919E+03
      9.136  0.8390E+00  0.1920E+03
      9.206  0.4393E-01  0.1920E+03
      9.277 -0.4889E-01  0.1920E+03
      9.347 -0.6727E-02  0.1920E+03
      9.417 -0.2494E-03  0.1920E+03
      9.488 -0.3055E-05  0.1920E+03
      9.558 -0.1308E-07  0.1920E+03
      9.629 -0.2002E-10  0.1920E+03
      9.699 -0.1074E-13  0.1920E+03
      9.770  0.0000E+00  0.1920E+03
      9.840  0.0000E+00  0.1920E+03
      9.911  0.0000E+00  0.1920E+03
      9.981  0.0000E+00  0.1920E+03
     10.051  0.0000E+00  0.1920E+03
     10.05140024    -11.08076176  301     -1.50820750      1.00000000
    -11.081  0.0000E+00  0.0000E+00  0.0000E+00
    -11.010  0.0000E+00  0.0000E+00  0.0000E+00
    -10.940 -0.2277E-33 -0.2173E-34 -0.3829E-36
    -10.869 -0.2297E-28 -0.2192E-29 -0.3863E-31
    -10.799 -0.8520E-24 -0.8132E-25 -0.1433E-26
    -10.729 -0.1160E-19 -0.1107E-20 -0.1951E-22
    -10.658 -0.5611E-16 -0.5355E-17 -0.9435E-19
    -10.588 -0.1014E-12 -0.9678E-14 -0.1705E-15
    -10.517 -0.6621E-10 -0.6320E-11 -0.1114E-12
    -10.447 -0.1547E-07 -0.1477E-08 -0.2609E-10
    -10.376 -0.1268E-05 -0.1212E-06 -0.2160E-08
    -10.306 -0.3514E-04 -0.3370E-05 -0.6245E-07
    -10.235 -0.3030E-03 -0.2957E-04 -0.6477E-06
    -10.165 -0.5429E-03 -0.5985E-04 -0.2618E-05
    -10.095  0.2878E-02  0.2626E-03  0.2263E-05
    -10.024  0.1929E-01  0.1974E-02  0.6051E-04
     -9.954  0.3525E-01  0.3673E-02  0.1235E-03
     -9.883  0.1747E-01  0.1831E-02  0.6314E-04
     -9.813  0.1885E-01  0.2359E-02  0.1689E-03
     -9.742  0.4383E-01  0.5626E-02  0.4390E-03
     -9.672  0.4398E-01  0.5846E-02  0.5068E-03
     -9.602  0.1701E-01  0.2279E-02  0.1988E-03
     -9.531 -0.3278E-02 -0.5237E-03 -0.7342E-04
     -9.461  0.1996E-01  0.3348E-02  0.5083E-03
     -9.390  0.6335E-01  0.1050E-01  0.1559E-02
     -9.320  0.3940E-01  0.6553E-02  0.9831E-03
     -9.249  0.2035E-01  0.3786E-02  0.7343E-03
     -9.179  0.2882E-01  0.5417E-02  0.1071E-02
     -9.108  0.7934E-02  0.1437E-02  0.2600E-03
     -9.038 -0.1622E-02 -0.3267E-03 -0.8089E-04
     -8.968  0.2055E-01  0.4509E-02  0.1175E-02
     -8.897  0.6002E-01  0.1345E-01  0.3733E-02
     -8.827  0.6788E-01  0.1547E-01  0.4472E-02
     -8.756  0.2149E-01  0.4896E-02  0.1410E-02
     -8.686 -0.3786E-03 -0.1461E-04  0.5515E-04
     -8.615  0.2052E-01  0.5383E-02  0.2146E-02
     -8.545  0.2550E-01  0.6611E-02  0.2580E-02
     -8.474  0.2843E-02  0.6421E-03  0.1894E-03
     -8.404  0.1107E-01  0.3323E-02  0.1575E-02
     -8.334  0.4959E-01  0.1468E-01  0.6812E-02
     -8.263  0.4401E-01  0.1332E-01  0.6357E-02
     -8.193  0.4443E-01  0.1433E-01  0.8044E-02
     -8.122  0.5124E-01  0.1425E-01  0.9155E-02
     -8.052  0.4810E-01  0.2919E-02  0.6858E-02
     -7.981  0.6245E-01  0.6317E-04  0.8368E-02
     -7.911  0.4520E-01  0.4971E-02  0.8073E-02
     -7.840  0.7431E-01  0.1028E-01  0.1364E-01
     -7.770  0.1039E+00  0.8156E-02  0.1592E-01
     -7.700  0.9922E-01  0.1520E-01  0.1950E-01
     -7.629  0.7111E-01  0.2475E-01  0.2262E-01
     -7.559  0.5153E-01  0.1578E-01  0.1498E-01
     -7.488  0.1219E+00  0.1686E-01  0.2451E-01
     -7.418  0.1391E+00  0.2595E-01  0.3584E-01
     -7.347  0.7157E-01  0.1403E-01  0.1845E-01
     -7.277  0.4705E-01  0.4327E-02  0.6153E-02
     -7.207  0.1292E-01  0.2344E-02  0.4490E-02
     -7.136  0.2960E-01  0.9322E-02  0.1560E-01
     -7.066  0.1158E+00  0.2398E-01  0.3279E-01
     -6.995  0.1799E+00  0.4305E-01  0.5998E-01
     -6.925  0.1115E+00  0.3771E-01  0.6043E-01
     -6.854  0.5370E-01  0.2088E-01  0.3905E-01
     -6.784  0.6937E-01  0.2192E-01  0.4878E-01
     -6.713  0.3966E-01  0.1551E-01  0.3781E-01
     -6.643  0.4955E-01  0.1262E-01  0.2050E-01
     -6.573  0.1346E+00  0.3085E-01  0.6569E-01
     -6.502  0.1427E+00  0.3151E-01  0.8515E-01
     -6.432  0.9655E-01  0.3383E-01  0.1188E+00
     -6.361  0.1189E+00  0.5910E-01  0.2542E+00
     -6.291  0.9199E-01  0.4104E-01  0.2113E+00
     -6.220  0.8243E-01  0.2802E-01  0.1120E+00
     -6.150  0.1741E+00  0.5675E-01  0.2231E+00
     -6.079  0.1447E+00  0.5048E-01  0.3047E+00
     -6.009  0.1132E+00  0.4568E-01  0.4485E+00
     -5.939  0.1719E+00  0.7120E-01  0.6703E+00
     -5.868  0.1622E+00  0.7096E-01  0.6071E+00
     -5.798  0.1085E+00  0.4848E-01  0.4516E+00
     -5.727  0.7922E-01  0.4201E-01  0.3694E+00
     -5.657  0.5495E-01  0.4335E-01  0.4147E+00
     -5.586  0.6096E-01  0.4953E-01  0.7896E+00
     -5.516  0.9860E-01  0.6031E-01  0.1363E+01
     -5.446  0.8315E-01  0.5365E-01  0.1456E+01
     -5.375  0.5704E-01  0.4248E-01  0.1325E+01
     -5.305  0.4756E-01  0.3535E-01  0.1200E+01
     -5.234  0.4522E-01  0.3448E-01  0.1216E+01
     -5.164  0.4137E-01  0.4253E-01  0.1364E+01
     -5.093  0.3362E-01  0.4184E-01  0.1392E+01
     -5.023  0.1905E-01  0.2060E-01  0.7738E+00
     -4.952  0.1824E-01  0.2359E-01  0.1217E+01
     -4.882  0.2881E-01  0.5647E-01  0.3150E+01
     -4.812  0.3467E-01  0.6114E-01  0.3139E+01
     -4.741  0.2352E-01  0.3894E-01  0.1651E+01
     -4.671  0.1760E-01  0.2998E-01  0.1237E+01
     -4.600  0.2522E-01  0.3029E-01  0.1463E+01
     -4.530  0.3412E-01  0.3852E-01  0.2209E+01
     -4.459  0.5336E-01  0.6802E-01  0.3591E+01
     -4.389  0.5993E-01  0.7863E-01  0.3788E+01
     -4.318  0.4422E-01  0.6517E-01  0.3571E+01
     -4.248  0.3399E-01  0.6687E-01  0.4652E+01
     -4.178  0.3806E-01  0.9750E-01  0.6125E+01
     -4.107  0.5252E-01  0.1139E+00  0.5926E+01
     -4.037  0.6247E-01  0.1019E+00  0.4617E+01
     -3.966  0.5216E-01  0.8796E-01  0.3300E+01
     -3.896  0.3693E-01  0.7845E-01  0.2455E+01
     -3.825  0.3144E-01  0.6596E-01  0.2064E+01
     -3.755  0.3435E-01  0.7198E-01  0.2677E+01
     -3.685  0.3987E-01  0.9603E-01  0.4957E+01
     -3.614  0.3387E-01  0.7792E-01  0.6499E+01
     -3.544  0.2462E-01  0.3941E-01  0.5440E+01
     -3.473  0.2085E-01  0.2903E-01  0.3386E+01
     -3.403  0.1983E-01  0.3685E-01  0.3035E+01
     -3.332  0.1663E-01  0.4094E-01  0.3671E+01
     -3.262  0.1944E-01  0.3662E-01  0.3946E+01
     -3.191  0.2955E-01  0.3163E-01  0.4547E+01
     -3.121  0.4282E-01  0.3587E-01  0.6519E+01
     -3.051  0.4985E-01  0.3389E-01  0.6280E+01
     -2.980  0.2633E-01  0.2508E-01  0.3466E+01
     -2.910  0.1705E-01  0.2309E-01  0.1554E+01
     -2.839  0.6615E-01  0.4492E-01  0.9477E+00
     -2.769  0.8516E-01  0.5550E-01  0.6196E+00
     -2.698  0.3380E-01  0.2383E-01  0.1462E+00
     -2.628  0.1861E-02  0.1593E-02 -0.2315E-01
     -2.557  0.2880E-02  0.4232E-02  0.1641E-01
     -2.487  0.7832E-02  0.1019E-01  0.4866E-01
     -2.417  0.1332E-01  0.2340E-01  0.1359E+00
     -2.346  0.6281E-01  0.7413E-01  0.4539E+00
     -2.276  0.1340E+00  0.1197E+00  0.6417E+00
     -2.205  0.8989E-01  0.7853E-01  0.3444E+00
     -2.135  0.2798E-01  0.4404E-01  0.1389E+00
     -2.064  0.2454E-01  0.4323E-01  0.9095E-01
     -1.994  0.2930E-01  0.3929E-01  0.6220E-01
     -1.923  0.1352E-01  0.1626E-01  0.3753E-01
     -1.853 -0.7088E-03 -0.1109E-02  0.4826E-03
     -1.783  0.6821E-02  0.6957E-02  0.2879E-01
     -1.712  0.2419E-01  0.2418E-01  0.9410E-01
     -1.642  0.2227E-01  0.2097E-01  0.9328E-01
     -1.571  0.3471E-01  0.5889E-01  0.2107E+00
     -1.501  0.1125E+00  0.1908E+00  0.4906E+00
     -1.430  0.1465E+00  0.2221E+00  0.4243E+00
     -1.360  0.7565E-01  0.1269E+00  0.1329E+00
     -1.290  0.2462E-01  0.6925E-01  0.4315E-01
     -1.219  0.2417E-01  0.4601E-01  0.8019E-01
     -1.149  0.2844E-01  0.3132E-01  0.8459E-01
     -1.078  0.3162E-01  0.5040E-01  0.7410E-01
     -1.008  0.1731E-01  0.4905E-01  0.2512E-01
     -0.937  0.4480E-02  0.2815E-01  0.8770E-02
     -0.867  0.1167E-01  0.4288E-01  0.4447E-01
     -0.796  0.1308E-01  0.4933E-01  0.6077E-01
     -0.726  0.4523E-02  0.4363E-01  0.3964E-01
     -0.656  0.1704E-01  0.3712E-01  0.4716E-01
     -0.585  0.4110E-01  0.4602E-01  0.1060E+00
     -0.515  0.7310E-01  0.1505E+00  0.2211E+00
     -0.444  0.1344E+00  0.3333E+00  0.3252E+00
     -0.374  0.1224E+00  0.2725E+00  0.2416E+00
     -0.303  0.2911E-01  0.8057E-01  0.6472E-01
     -0.233 -0.5878E-02  0.4210E-01  0.1949E-01
     -0.162  0.3522E-02  0.2875E-01  0.2018E-01
     -0.092  0.1269E-01  0.1501E-01  0.2010E-01
     -0.022  0.5812E-02  0.2429E-01  0.1769E-01
      0.049  0.8575E-02  0.7865E-01  0.4321E-01
      0.119  0.3222E-01  0.1003E+00  0.7742E-01
      0.190  0.4257E-01  0.6784E-01  0.7582E-01
      0.260  0.2417E-01  0.3123E-01  0.3909E-01
      0.331  0.1106E-01  0.1789E-01  0.1634E-01
      0.401  0.2429E-01  0.7091E-01  0.4983E-01
      0.471  0.2995E-01  0.1571E+00  0.1000E+00
      0.542  0.2749E-01  0.2165E+00  0.1369E+00
      0.612  0.1943E-01  0.1382E+00  0.8680E-01
      0.683  0.1694E-01  0.6007E-01  0.3679E-01
      0.753  0.4163E-01  0.1153E+00  0.9497E-01
      0.824  0.5673E-01  0.1493E+00  0.1312E+00
      0.894  0.2435E-01  0.7666E-01  0.6379E-01
      0.965  0.1144E-01  0.7293E-01  0.3686E-01
      1.035  0.4827E-01  0.1737E+00  0.9930E-01
      1.105  0.5038E-01  0.1618E+00  0.1040E+00
      1.176  0.1309E-01  0.7216E-01  0.4112E-01
      1.246  0.1244E-01  0.1138E+00  0.6305E-01
      1.317  0.2533E-01  0.1184E+00  0.7946E-01
      1.387  0.1405E-01  0.4187E-01  0.3274E-01
      1.458  0.2256E-03  0.3473E-01  0.2151E-01
      1.528 -0.7645E-03  0.4483E-01  0.2693E-01
      1.599 -0.1324E-03  0.1007E-01  0.6120E-02
      1.669 -0.5464E-03 -0.5600E-02 -0.3133E-02
      1.739 -0.4201E-03 -0.3438E-02 -0.2111E-02
      1.810  0.9192E-02  0.5015E-01  0.2574E-01
      1.880  0.1940E-01  0.1151E+00  0.6176E-01
      1.951  0.8438E-02  0.8679E-01  0.4990E-01
      2.021  0.6540E-02  0.1015E+00  0.6172E-01
      2.092  0.2080E-01  0.1218E+00  0.7435E-01
      2.162  0.1791E-01  0.8268E-01  0.5299E-01
      2.233  0.3200E-02  0.5837E-01  0.3625E-01
      2.303  0.2097E-02  0.4626E-01  0.2699E-01
      2.373  0.1054E-01  0.4874E-01  0.2870E-01
      2.444  0.1436E-01  0.5249E-01  0.3432E-01
      2.514  0.3071E-01  0.9585E-01  0.7133E-01
      2.585  0.2745E-01  0.8396E-01  0.6285E-01
      2.655  0.4095E-02  0.1063E-01  0.8477E-02
      2.726  0.1186E-02 -0.4995E-02 -0.6449E-03
      2.796  0.3585E-02 -0.1472E-02  0.3335E-02
      2.866  0.1077E-01 -0.4939E-03  0.6376E-02
      2.937  0.2345E-01  0.8401E-02  0.1818E-01
      3.007  0.4800E-01  0.3023E-01  0.4024E-01
      3.078  0.1224E+00  0.7499E-01  0.9320E-01
      3.148  0.1106E+00  0.1228E+00  0.1134E+00
      3.219  0.3360E-01  0.7784E-01  0.6000E-01
      3.289  0.2872E-01  0.5606E-01  0.4779E-01
      3.360  0.9024E-01  0.8962E-01  0.9415E-01
      3.430  0.1343E+00  0.7426E-01  0.1032E+00
      3.500  0.1019E+00  0.4245E-01  0.6300E-01
      3.571  0.5167E-01  0.4266E-01  0.3522E-01
      3.641  0.2491E-01  0.6168E-01  0.3664E-01
      3.712  0.4191E-01  0.4893E-01  0.4761E-01
      3.782  0.5995E-01  0.4215E-01  0.5613E-01
      3.853  0.5419E-01  0.6265E-01  0.5529E-01
      3.923  0.1293E+00  0.1143E+00  0.1010E+00
      3.994  0.1638E+00  0.9621E-01  0.1071E+00
      4.064  0.9024E-01  0.5037E-01  0.5943E-01
      4.134  0.5607E-01  0.4498E-01  0.3979E-01
      4.205  0.1005E+00  0.1114E+00  0.8301E-01
      4.275  0.1236E+00  0.1425E+00  0.1027E+00
      4.346  0.1649E+00  0.1330E+00  0.1090E+00
      4.416  0.1307E+00  0.8148E-01  0.7944E-01
      4.487  0.8428E-01  0.6122E-01  0.6039E-01
      4.557  0.5963E-01  0.6662E-01  0.5505E-01
      4.627  0.3362E-01  0.7136E-01  0.5534E-01
      4.698  0.4311E-01  0.8316E-01  0.6292E-01
      4.768  0.7265E-01  0.7864E-01  0.6276E-01
      4.839  0.7423E-01  0.6397E-01  0.5803E-01
      4.909  0.5183E-01  0.6367E-01  0.5917E-01
      4.980  0.7036E-01  0.8366E-01  0.7130E-01
      5.050  0.8221E-01  0.8155E-01  0.6591E-01
      5.121  0.5255E-01  0.5880E-01  0.4245E-01
      5.191  0.4504E-01  0.9567E-01  0.4851E-01
      5.261  0.6943E-01  0.1623E+00  0.7241E-01
      5.332  0.7723E-01  0.1860E+00  0.9419E-01
      5.402  0.5457E-01  0.1709E+00  0.9822E-01
      5.473  0.1596E-01  0.8117E-01  0.4753E-01
      5.543  0.4038E-02  0.1262E-01  0.1116E-01
      5.614  0.1738E-01  0.4048E-01  0.1545E-01
      5.684  0.3698E-01  0.1188E+00  0.4091E-01
      5.755  0.5209E-01  0.1704E+00  0.7087E-01
      5.825  0.9243E-01  0.2140E+00  0.1016E+00
      5.895  0.1038E+00  0.1802E+00  0.9375E-01
      5.966  0.4803E-01  0.7831E-01  0.4274E-01
      6.036  0.1755E-01  0.1922E-01  0.1143E-01
      6.107  0.7761E-01  0.5132E-01  0.2873E-01
      6.177  0.9853E-01  0.9055E-01  0.4729E-01
      6.248  0.7659E-01  0.1023E+00  0.5933E-01
      6.318  0.7081E-01  0.8507E-01  0.5509E-01
      6.388  0.5317E-01  0.5524E-01  0.3299E-01
      6.459  0.4206E-01  0.4905E-01  0.2599E-01
      6.529  0.3232E-01  0.4417E-01  0.1992E-01
      6.600  0.4236E-01  0.9710E-01  0.4170E-01
      6.670  0.6191E-01  0.1734E+00  0.7903E-01
      6.741  0.5045E-01  0.1357E+00  0.6507E-01
      6.811  0.3885E-01  0.9261E-01  0.3736E-01
      6.882  0.6012E-01  0.1320E+00  0.5221E-01
      6.952  0.7416E-01  0.1162E+00  0.7327E-01
      7.022  0.4750E-01  0.4895E-01  0.5326E-01
      7.093  0.2626E-01  0.3093E-01  0.3884E-01
      7.163  0.4209E-01  0.7038E-01  0.8708E-01
      7.234  0.3765E-01  0.6032E-01  0.9373E-01
      7.304  0.2667E-01  0.2335E-01  0.4051E-01
      7.375  0.6168E-01  0.3909E-01  0.3493E-01
      7.445  0.8113E-01  0.6915E-01  0.5219E-01
      7.516  0.5062E-01  0.6354E-01  0.5568E-01
      7.586  0.6916E-01  0.1379E+00  0.1286E+00
      7.656  0.7785E-01  0.1852E+00  0.1446E+00
      7.727  0.4811E-01  0.1240E+00  0.7208E-01
      7.797  0.3813E-01  0.1174E+00  0.7637E-01
      7.868  0.3097E-01  0.1525E+00  0.1060E+00
      7.938  0.1660E-01  0.9541E-01  0.5824E-01
      8.009  0.1552E-01  0.4345E-01  0.2805E-01
      8.079  0.1884E-01  0.4607E-01  0.3964E-01
      8.150  0.6641E-02  0.1930E-01  0.1788E-01
      8.220 -0.1130E-02 -0.2341E-02 -0.1426E-02
      8.290  0.1289E-02  0.5373E-03 -0.1416E-02
      8.361  0.8921E-02  0.1722E-01  0.6166E-02
      8.431  0.1557E-01  0.4461E-01  0.3010E-01
      8.502  0.1475E-01  0.5853E-01  0.4435E-01
      8.572  0.7709E-02  0.2883E-01  0.1983E-01
      8.643  0.4139E-02  0.5659E-02  0.2382E-02
      8.713  0.9202E-03  0.3270E-03 -0.1545E-03
      8.783 -0.2614E-03 -0.5130E-03 -0.2811E-03
      8.854 -0.8763E-04 -0.2755E-03 -0.1186E-03
      8.924 -0.1670E-04 -0.6836E-04 -0.1547E-03
      8.995  0.1986E-03  0.2689E-02  0.9685E-03
      9.065  0.5414E-03  0.6428E-02  0.3453E-02
      9.136  0.3474E-03  0.3844E-02  0.2468E-02
      9.206  0.1653E-04  0.1442E-03  0.1525E-03
      9.277 -0.2029E-04 -0.2257E-03 -0.1431E-03
      9.347 -0.2764E-05 -0.3010E-04 -0.2008E-04
      9.417 -0.1022E-06 -0.1105E-05 -0.7494E-06
      9.488 -0.1250E-08 -0.1347E-07 -0.9204E-08
      9.558 -0.5346E-11 -0.5754E-10 -0.3945E-10
      9.629 -0.8182E-14 -0.8801E-13 -0.6043E-13
      9.699 -0.4388E-17 -0.4717E-16 -0.3243E-16
      9.770  0.0000E+00  0.0000E+00  0.0000E+00
      9.840  0.0000E+00  0.0000E+00  0.0000E+00
      9.911  0.0000E+00  0.0000E+00  0.0000E+00
      9.981  0.0000E+00  0.0000E+00  0.0000E+00
     10.051  0.0000E+00  0.0000E+00  0.0000E+00
     10.05140024    -11.08076176  301     -1.50820750      1.00000000
    -11.081  0.0000E+00  0.0000E+00  0.0000E+00
    -11.010  0.0000E+00  0.0000E+00  0.0000E+00
    -10.940 -0.2277E-33 -0.2173E-34 -0.3829E-36
    -10.869 -0.2297E-28 -0.2192E-29 -0.3863E-31
    -10.799 -0.8520E-24 -0.8132E-25 -0.1433E-26
    -10.729 -0.1160E-19 -0.1107E-20 -0.1951E-22
    -10.658 -0.5611E-16 -0.5355E-17 -0.9435E-19
    -10.588 -0.1014E-12 -0.9678E-14 -0.1705E-15
    -10.517 -0.6621E-10 -0.6320E-11 -0.1114E-12
    -10.447 -0.1547E-07 -0.1477E-08 -0.2609E-10
    -10.376 -0.1268E-05 -0.1212E-06 -0.2160E-08
    -10.306 -0.3514E-04 -0.3370E-05 -0.6245E-07
    -10.235 -0.3030E-03 -0.2957E-04 -0.6477E-06
    -10.165 -0.5429E-03 -0.5985E-04 -0.2618E-05
    -10.095  0.2878E-02  0.2626E-03  0.2263E-05
    -10.024  0.1929E-01  0.1974E-02  0.6051E-04
     -9.954  0.3525E-01  0.3673E-02  0.1235E-03
     -9.883  0.1747E-01  0.1831E-02  0.6314E-04
     -9.813  0.1885E-01  0.2359E-02  0.1689E-03
     -9.742  0.4383E-01  0.5626E-02  0.4390E-03
     -9.672  0.4398E-01  0.5846E-02  0.5068E-03
     -9.602  0.1701E-01  0.2279E-02  0.1988E-03
     -9.531 -0.3278E-02 -0.5237E-03 -0.7342E-04
     -9.461  0.1996E-01  0.3348E-02  0.5083E-03
     -9.390  0.6335E-01  0.1050E-01  0.1559E-02
     -9.320  0.3940E-01  0.6553E-02  0.9831E-03
     -9.249  0.2035E-01  0.3786E-02  0.7343E-03
     -9.179  0.2882E-01  0.5417E-02  0.1071E-02
     -9.108  0.7935E-02  0.1437E-02  0.2600E-03
     -9.038 -0.1622E-02 -0.3267E-03 -0.8089E-04
     -8.968  0.2055E-01  0.4509E-02  0.1175E-02
     -8.897  0.6002E-01  0.1345E-01  0.3733E-02
     -8.827  0.6788E-01  0.1547E-01  0.4472E-02
     -8.756  0.2149E-01  0.4896E-02  0.1410E-02
     -8.686 -0.3786E-03 -0.1461E-04  0.5515E-04
     -8.615  0.2052E-01  0.5383E-02  0.2146E-02
     -8.545  0.2550E-01  0.6611E-02  0.2580E-02
     -8.474  0.2843E-02  0.6421E-03  0.1894E-03
     -8.404  0.1107E-01  0.3323E-02  0.1575E-02
     -8.334  0.4959E-01  0.1468E-01  0.6812E-02
     -8.263  0.4401E-01  0.1332E-01  0.6357E-02
     -8.193  0.4443E-01  0.1433E-01  0.8044E-02
     -8.122  0.5124E-01  0.1425E-01  0.9155E-02
     -8.052  0.4810E-01  0.2919E-02  0.6858E-02
     -7.981  0.6245E-01  0.6318E-04  0.8368E-02
     -7.911  0.4520E-01  0.4971E-02  0.8073E-02
     -7.840  0.7431E-01  0.1028E-01  0.1364E-01
     -7.770  0.1039E+00  0.8156E-02  0.1592E-01
     -7.700  0.9922E-01  0.1520E-01  0.1950E-01
     -7.629  0.7111E-01  0.2475E-01  0.2262E-01
     -7.559  0.5153E-01  0.1578E-01  0.1498E-01
     -7.488  0.1219E+00  0.1686E-01  0.2451E-01
     -7.418  0.1391E+00  0.2595E-01  0.3584E-01
     -7.347  0.7157E-01  0.1403E-01  0.1845E-01
     -7.277  0.4705E-01  0.4327E-02  0.6153E-02
     -7.207  0.1292E-01  0.2344E-02  0.4490E-02
     -7.136  0.2960E-01  0.9322E-02  0.1560E-01
     -7.066  0.1158E+00  0.2398E-01  0.3279E-01
     -6.995  0.1799E+00  0.4305E-01  0.5998E-01
     -6.925  0.1115E+00  0.3771E-01  0.6043E-01
     -6.854  0.5370E-01  0.2088E-01  0.3905E-01
     -6.784  0.6937E-01  0.2192E-01  0.4878E-01
     -6.713  0.3966E-01  0.1551E-01  0.3781E-01
     -6.643  0.4955E-01  0.1262E-01  0.2050E-01
     -6.573  0.1346E+00  0.3085E-01  0.6569E-01
     -6.502  0.1427E+00  0.3151E-01  0.8515E-01
     -6.432  0.9655E-01  0.3383E-01  0.1188E+00
     -6.361  0.1189E+00  0.5910E-01  0.2542E+00
     -6.291  0.9199E-01  0.4104E-01  0.2113E+00
     -6.220  0.8243E-01  0.2802E-01  0.1120E+00
     -6.150  0.1741E+00  0.5675E-01  0.2231E+00
     -6.079  0.1447E+00  0.5048E-01  0.3047E+00
     -6.009  0.1132E+00  0.4568E-01  0.4485E+00
     -5.939  0.1719E+00  0.7120E-01  0.6703E+00
     -5.868  0.1622E+00  0.7096E-01  0.6071E+00
     -5.798  0.1085E+00  0.4848E-01  0.4516E+00
     -5.727  0.7922E-01  0.4201E-01  0.3694E+00
     -5.657  0.5495E-01  0.4335E-01  0.4147E+00
     -5.586  0.6096E-01  0.4953E-01  0.7896E+00
     -5.516  0.9860E-01  0.6031E-01  0.1363E+01
     -5.446  0.8315E-01  0.5365E-01  0.1456E+01
     -5.375  0.5704E-01  0.4248E-01  0.1325E+01
     -5.305  0.4756E-01  0.3535E-01  0.1200E+01
     -5.234  0.4522E-01  0.3448E-01  0.1216E+01
     -5.164  0.4137E-01  0.4253E-01  0.1364E+01
     -5.093  0.3362E-01  0.4184E-01  0.1392E+01
     -5.023  0.1905E-01  0.2060E-01  0.7738E+00
     -4.952  0.1824E-01  0.2359E-01  0.1217E+01
     -4.882  0.2881E-01  0.5647E-01  0.3150E+01
     -4.812  0.3467E-01  0.6114E-01  0.3139E+01