       N       E                     dE             d eps       ncg     rms          rms(c)
DAV:   1     0.990736459195E+03    0.99074E+03   -0.47362E+04  2304   0.125E+03
DAV:   2     0.958969002687E+01   -0.98115E+03   -0.93348E+03  2304   0.298E+02
DAV:   3    -0.488960778081E+02   -0.58486E+02   -0.57129E+02  2856   0.120E+02
DAV:   4    -0.503656442526E+02   -0.14696E+01   -0.14686E+01  2760   0.228E+01
DAV:   5    -0.504033567375E+02   -0.37712E-01   -0.37711E-01  3120   0.283E+00    0.255E+01
DAV:   6    -0.464420422522E+02    0.39613E+01   -0.10503E+02  2784   0.107E+02    0.152E+01
DAV:   7    -0.410462370428E+02    0.53958E+01   -0.21839E+01  2832   0.488E+01    0.150E+00
DAV:   8    -0.410582460816E+02   -0.12009E-01   -0.15573E+00  3144   0.201E+01    0.260E+00
DAV:   9    -0.409960605506E+02    0.62186E-01   -0.53496E-01  2784   0.157E+01    0.171E+00
DAV:  10    -0.409548283444E+02    0.41232E-01   -0.20270E-01  2688   0.436E+00    0.349E-01
DAV:  11    -0.409504832764E+02    0.43451E-02   -0.17033E-02  2952   0.218E+00    0.125E-01
DAV:  12    -0.409491357094E+02    0.13476E-02   -0.46493E-03  2856   0.618E-01    0.494E-02
DAV:  13    -0.409493686821E+02   -0.23297E-03   -0.25679E-03  2928   0.665E-01    0.170E-01
DAV:  14    -0.409490951087E+02    0.27357E-03   -0.25812E-03  2832   0.715E-01    0.417E-02
DAV:  15    -0.409494145797E+02   -0.31947E-03   -0.16786E-04  1968   0.160E-01    0.163E-02
DAV:  16    -0.409499172062E+02   -0.50263E-03   -0.75205E-05  1800   0.646E-02    0.117E-02
DAV:  17    -0.409501464941E+02   -0.22929E-03   -0.31284E-05  2088   0.700E-02    0.958E-03
DAV:  18    -0.409503003508E+02   -0.15386E-03   -0.18549E-05  1824   0.635E-02    0.212E-03
DAV:  19    -0.409503408850E+02   -0.40534E-04   -0.99814E-06  1920   0.175E-02
   1 F= -.40950341E+02 E0= -.40944467E+02  d E =-.176231E-01
