 vasp.5.4.1 05Feb16 (build Feb 08 2018 09:21:51) complex                        
  
 executed on             LinuxIFC date 2019.11.21  23:49:11
 running on   24 total cores
 distrk:  each k-point on   24 cores,    1 groups
 distr:  one band on NCORES_PER_BAND=   1 cores,   24 groups


--------------------------------------------------------------------------------------------------------


 INCAR:
 POTCAR:    PAW_PBE Cu 22Jun2005                  

 ----------------------------------------------------------------------------- 
|                                                                             |
|           W    W    AA    RRRRR   N    N  II  N    N   GGGG   !!!           |
|           W    W   A  A   R    R  NN   N  II  NN   N  G    G  !!!           |
|           W    W  A    A  R    R  N N  N  II  N N  N  G       !!!           |
|           W WW W  AAAAAA  RRRRR   N  N N  II  N  N N  G  GGG   !            |
|           WW  WW  A    A  R   R   N   NN  II  N   NN  G    G                |
|           W    W  A    A  R    R  N    N  II  N    N   GGGG   !!!           |
|                                                                             |
|      For optimal performance we recommend to set                            |
|        NCORE= 4 - approx SQRT( number of cores)                             |
|      NCORE specifies how many cores store one orbital (NPAR=cpu/NCORE).     |
|      This setting can  greatly improve the performance of VASP for DFT.     |
|      The default, NPAR=number of cores might be grossly inefficient         |
|      on modern multi-core architectures or massively parallel machines.     |
|      Do your own testing !!!!                                               |
|      Unfortunately you need to use the default for GW and RPA calculations. |
|      (for HF NCORE is supported but not extensively tested yet)             |
|                                                                             |
 ----------------------------------------------------------------------------- 

 POTCAR:    PAW_PBE Cu 22Jun2005                  
   VRHFIN =Cu: d10 p1                                                           
   LEXCH  = PE                                                                  
   EATOM  =  1390.9808 eV,  102.2342 Ry                                         
                                                                                
   TITEL  = PAW_PBE Cu 22Jun2005                                                
   LULTRA =        F    use ultrasoft PP ?                                      
   IUNSCR =        1    unscreen: 0-lin 1-nonlin 2-no                           
   RPACOR =    2.000    partial core radius                                     
   POMASS =   63.546; ZVAL   =   11.000    mass and valenz                      
   RCORE  =    2.300    outmost cutoff radius                                   
   RWIGS  =    2.200; RWIGS  =    1.164    wigner-seitz radius (au A)           
   ENMAX  =  295.446; ENMIN  =  221.585 eV                                      
   ICORE  =        3    local potential                                         
   LCOR   =        T    correct aug charges                                     
   LPAW   =        T    paw PP                                                  
   EAUG   =  586.980                                                            
   DEXC   =    0.000                                                            
   RMAX   =    2.344    core radius for proj-oper                               
   RAUG   =    1.300    factor for augmentation sphere                          
   RDEP   =    2.302    radius for radial grids                                 
   RDEPT  =    1.771    core radius for aug-charge                              
                                                                                
   Atomic configuration                                                         
    9 entries                                                                   
     n  l   j            E        occ.                                          
     1  0  0.50     -8850.2468   2.0000                                         
     2  0  0.50     -1062.3498   2.0000                                         
     2  1  1.50      -916.8226   6.0000                                         
     3  0  0.50      -114.6929   2.0000                                         
     3  1  1.50       -72.1325   6.0000                                         
     3  2  2.50        -5.0394  10.0000                                         
     4  0  0.50        -4.6097   1.0000                                         
     4  1  0.50        -4.0817   0.0000                                         
     4  3  2.50        -1.3606   0.0000                                         
   Description                                                                  
     l       E           TYP  RCUT    TYP  RCUT                                 
     2     -5.0393973     23  2.200                                             
     2     10.8846608     23  2.200                                             
     0     -4.6097109     23  2.200                                             
     0      8.2520465     23  2.200                                             
     1     -2.7211652     23  2.200                                             
     1     21.7055443     23  2.200                                             
     3      2.7211652     23  2.300                                             
  local pseudopotential read in
  partial core-charges read in
  partial kinetic energy density read in
  atomic valenz-charges read in
  non local Contribution for L=           2  read in
    real space projection operators read in
  non local Contribution for L=           2  read in
    real space projection operators read in
  non local Contribution for L=           0  read in
    real space projection operators read in
  non local Contribution for L=           0  read in
    real space projection operators read in
  non local Contribution for L=           1  read in
    real space projection operators read in
  non local Contribution for L=           1  read in
    real space projection operators read in
    PAW grid and wavefunctions read in
 
   number of l-projection  operators is LMAX  =           6
   number of lm-projection operators is LMMAX =          18
 
  PAW_PBE Cu 22Jun2005                  :
 energy of atom  1       EATOM=-1390.9808
 kinetic energy error for atom=    0.0232 (will be added to EATOM!!)
 
 
 POSCAR: Cu                                      
  positions in cartesian coordinates
  No initial velocities read in
 exchange correlation table for  LEXCH =        8
   RHO(1)=    0.500       N(1)  =     2000
   RHO(2)=  100.500       N(2)  =     4000
 


--------------------------------------------------------------------------------------------------------


 ion  position               nearest neighbor table
   1  0.167  0.167  0.415-   6 2.54   5 2.54   8 2.54   4 2.57   4 2.57   2 2.57   2 2.57   3 2.57
                             3 2.57
   2  0.667  0.167  0.415-   5 2.54   6 2.54   7 2.54   3 2.57   3 2.57   1 2.57   1 2.57   4 2.57
                             4 2.57
   3  0.167  0.667  0.415-   8 2.54   7 2.54   6 2.54   2 2.57   2 2.57   4 2.57   4 2.57   1 2.57
                             1 2.57
   4  0.667  0.667  0.415-   7 2.54   8 2.54   5 2.54   1 2.57   1 2.57   3 2.57   3 2.57   2 2.57
                             2 2.57
   5  0.833  0.333  0.500-   2 2.54  12 2.54   9 2.54   1 2.54   4 2.54  11 2.54   8 2.57   8 2.57
                             6 2.57   6 2.57   7 2.57   7 2.57
   6  0.333  0.333  0.500-   1 2.54  11 2.54  10 2.54   2 2.54   3 2.54  12 2.54   7 2.57   7 2.57
                             5 2.57   5 2.57   8 2.57   8 2.57
   7  0.833  0.833  0.500-   4 2.54  10 2.54  11 2.54   3 2.54   2 2.54   9 2.54   6 2.57   6 2.57
                             8 2.57   8 2.57   5 2.57   5 2.57
   8  0.333  0.833  0.500-   3 2.54   9 2.54  12 2.54   4 2.54   1 2.54  10 2.54   5 2.57   5 2.57
                             7 2.57   7 2.57   6 2.57   6 2.57
   9  0.000  0.000  0.585-   8 2.54   5 2.54   7 2.54  12 2.57  12 2.57  10 2.57  10 2.57  11 2.57
                            11 2.57
  10  0.500  0.000  0.585-   7 2.54   6 2.54   8 2.54  11 2.57  11 2.57   9 2.57   9 2.57  12 2.57
                            12 2.57
  11  0.000  0.500  0.585-   6 2.54   7 2.54   5 2.54  10 2.57  10 2.57  12 2.57  12 2.57   9 2.57
                             9 2.57
  12  0.500  0.500  0.585-   5 2.54   8 2.54   6 2.54   9 2.57   9 2.57  11 2.57  11 2.57  10 2.57
                            10 2.57
 
  LATTYP: Found a hexagonal cell.
 ALAT       =     5.1420805075
 C/A-ratio  =     4.7059728304
  
  Lattice vectors:
  
 A1 = (   2.5710402500,  -4.4531723500,   0.0000000000)
 A2 = (  -5.1420805100,   0.0000000000,   0.0000000000)
 A3 = (   0.0000000000,   0.0000000000, -24.1984911600)


Analysis of symmetry for initial positions (statically):
=====================================================================
 Subroutine PRICEL returns following result:
 
  LATTYP: Found a hexagonal cell.
 ALAT       =     2.5710402538
 C/A-ratio  =     9.4119456607
  
  Lattice vectors:
  
 A1 = (   1.2855201250,  -2.2265861750,   0.0000000000)
 A2 = (  -2.5710402550,   0.0000000000,   0.0000000000)
 A3 = (   0.0000000000,   0.0000000000, -24.1984911600)
 
   4 primitive cells build up your supercell.
 

 Routine SETGRP: Setting up the symmetry group for a 
 hexagonal supercell.


 Subroutine GETGRP returns: Found 12 space group operations
 (whereof  6 operations were pure point group operations)
 out of a pool of 24 trial point group operations.


The static configuration has the point symmetry C_3v.
 The point group associated with its full space group is D_3d.


Analysis of symmetry for dynamics (positions and initial velocities):
=====================================================================
 Subroutine PRICEL returns following result:
 
  LATTYP: Found a hexagonal cell.
 ALAT       =     2.5710402538
 C/A-ratio  =     9.4119456607
  
  Lattice vectors:
  
 A1 = (   1.2855201250,  -2.2265861750,   0.0000000000)
 A2 = (  -2.5710402550,   0.0000000000,   0.0000000000)
 A3 = (   0.0000000000,   0.0000000000, -24.1984911600)
 
   4 primitive cells build up your supercell.
 

 Routine SETGRP: Setting up the symmetry group for a 
 hexagonal supercell.


 Subroutine GETGRP returns: Found 12 space group operations
 (whereof  6 operations were pure point group operations)
 out of a pool of 24 trial point group operations.


The dynamic configuration has the point symmetry C_3v.
 The point group associated with its full space group is D_3d.


 Subroutine INISYM returns: Found 12 space group operations
 (whereof  6 operations are pure point group operations),
 and found     4 'primitive' translations

 
 
 KPOINTS: KPOINTS created by Atomic Simulation Env

Automatic generation of k-mesh.
Space group operators:
 irot       det(A)        alpha          n_x          n_y          n_z        tau_x        tau_y        tau_z
    1     1.000000     0.000000     1.000000     0.000000     0.000000     0.000000     0.000000     0.000000
    2     1.000000   120.000000     0.000000     0.000000     1.000000     0.000000     0.000000     0.000000
    3     1.000000   120.000000     0.000000     0.000000    -1.000000     0.000000     0.000000     0.000000
    4    -1.000000   180.000000     0.500000    -0.866025     0.000000     0.000000     0.000000     0.000000
    5    -1.000000   180.000000     1.000000    -0.000000     0.000000     0.000000     0.000000     0.000000
    6    -1.000000   179.999999    -0.500000    -0.866025     0.000000     0.000000     0.000000     0.000000
    7    -1.000000     0.000000     1.000000     0.000000     0.000000     0.166667    -0.333333     0.000000
    8    -1.000000   120.000000     0.000000     0.000000     1.000000     0.166667    -0.333333     0.000000
    9    -1.000000   120.000000     0.000000     0.000000    -1.000000     0.166667    -0.333333     0.000000
   10     1.000000   180.000000     0.500000    -0.866025     0.000000     0.166667    -0.333333     0.000000
   11     1.000000   180.000000     1.000000    -0.000000     0.000000     0.166667    -0.333333     0.000000
   12     1.000000   179.999999    -0.500000    -0.866025     0.000000     0.166667    -0.333333     0.000000
 
 Subroutine IBZKPT returns following result:
 ===========================================
 
 Found     12 irreducible k-points:
 
 Following reciprocal coordinates:
            Coordinates               Weight
  0.000000  0.000000  0.000000      1.000000
  0.111111  0.000000  0.000000      6.000000
  0.222222  0.000000  0.000000      6.000000
  0.333333 -0.000000  0.000000      6.000000
  0.444444  0.000000  0.000000      6.000000
  0.222222  0.111111  0.000000      6.000000
  0.333333  0.111111  0.000000     12.000000
  0.444444  0.111111  0.000000     12.000000
 -0.444444  0.111111  0.000000      6.000000
  0.444444  0.222222  0.000000      6.000000
 -0.444444  0.222222  0.000000     12.000000
 -0.333333  0.333333  0.000000      2.000000
 
 Following cartesian coordinates:
            Coordinates               Weight
  0.000000  0.000000  0.000000      1.000000
  0.021608 -0.012476  0.000000      6.000000
  0.043216 -0.024951  0.000000      6.000000
  0.064825 -0.037427  0.000000      6.000000
  0.086433 -0.049902  0.000000      6.000000
  0.043216 -0.000000  0.000000      6.000000
  0.064825 -0.012476  0.000000     12.000000
  0.086433 -0.024951  0.000000     12.000000
 -0.086433  0.074853  0.000000      6.000000
  0.086433 -0.000000  0.000000      6.000000
 -0.086433  0.099804  0.000000     12.000000
 -0.064825  0.112280  0.000000      2.000000
 


--------------------------------------------------------------------------------------------------------




 Dimension of arrays:
   k-points           NKPTS =     12   k-points in BZ     NKDIM =     12   number of bands    NBANDS=     96
   number of dos      NEDOS =    301   number of ions     NIONS =     12
   non local maximal  LDIM  =      6   non local SUM 2l+1 LMDIM =     18
   total plane-waves  NPLWV =  94080
   max r-space proj   IRMAX =      1   max aug-charges    IRDMAX=   5117
   dimension x,y,z NGX =    28 NGY =   28 NGZ =  120
   dimension x,y,z NGXF=    56 NGYF=   56 NGZF=  240
   support grid    NGXF=    56 NGYF=   56 NGZF=  240
   ions per type =              12
 NGX,Y,Z   is equivalent  to a cutoff of   9.05,  9.05,  8.24 a.u.
 NGXF,Y,Z  is equivalent  to a cutoff of  18.11, 18.11, 16.49 a.u.


 I would recommend the setting:
   dimension x,y,z NGX =    25 NGY =   25 NGZ =  118
 SYSTEM =  unknown system                          
 POSCAR =  Cu                                      

 Startparameter for this run:
   NWRITE =      2    write-flag & timer
   PREC   = normal    normal or accurate (medium, high low for compatibility)
   ISTART =      0    job   : 0-new  1-cont  2-samecut
   ICHARG =      2    charge: 1-file 2-atom 10-const
   ISPIN  =      1    spin polarized calculation?
   LNONCOLLINEAR =      F non collinear calculations
   LSORBIT =      F    spin-orbit coupling
   INIWAV =      1    electr: 0-lowe 1-rand  2-diag
   LASPH  =      F    aspherical Exc in radial PAW
   METAGGA=      F    non-selfconsistent MetaGGA calc.

 Electronic Relaxation 1
   ENCUT  =  400.0 eV  29.40 Ry    5.42 a.u.   8.39  8.39 39.46*2*pi/ulx,y,z
   ENINI  =  400.0     initial cutoff
   ENAUG  =  587.0 eV  augmentation charge cutoff
   NELM   =     60;   NELMIN=  2; NELMDL= -5     # of ELM steps 
   EDIFF  = 0.1E-03   stopping-criterion for ELM
   LREAL  =      F    real-space projection
   NLSPLINE    = F    spline interpolate recip. space projectors
   LCOMPAT=      F    compatible to vasp.4.4
   GGA_COMPAT  = T    GGA compatible to vasp.4.4-vasp.4.6
   LMAXPAW     = -100 max onsite density
   LMAXMIX     =    2 max onsite mixed and CHGCAR
   VOSKOWN=      0    Vosko Wilk Nusair interpolation
   ROPT   =    0.00000
 Ionic relaxation
   EDIFFG = 0.1E-02   stopping-criterion for IOM
   NSW    =      0    number of steps for IOM
   NBLOCK =      1;   KBLOCK =      1    inner block; outer block 
   IBRION =     -1    ionic relax: 0-MD 1-quasi-New 2-CG
   NFREE  =      0    steps in history (QN), initial steepest desc. (CG)
   ISIF   =      2    stress and relaxation
   IWAVPR =     10    prediction:  0-non 1-charg 2-wave 3-comb
   ISYM   =      2    0-nonsym 1-usesym 2-fastsym
   LCORR  =      T    Harris-Foulkes like correction to forces

   POTIM  = 0.5000    time-step for ionic-motion
   TEIN   =    0.0    initial temperature
   TEBEG  =    0.0;   TEEND  =   0.0 temperature during run
   SMASS  =  -3.00    Nose mass-parameter (am)
   estimated Nose-frequenzy (Omega)   =  0.10E-29 period in steps =****** mass=  -0.604E-27a.u.
   SCALEE = 1.0000    scale energy and forces
   NPACO  =    256;   APACO  = 16.0  distance and # of slots for P.C.
   PSTRESS=    0.0 pullay stress

  Mass of Ions in am
   POMASS =  63.55
  Ionic Valenz
   ZVAL   =  11.00
  Atomic Wigner-Seitz radii
   RWIGS  =  -1.00
  virtual crystal weights 
   VCA    =   1.00
   NELECT =     132.0000    total number of electrons
   NUPDOWN=      -1.0000    fix difference up-down

 DOS related values:
   EMIN   =  10.00;   EMAX   =-10.00  energy-range for DOS
   EFERMI =   0.00
   ISMEAR =     1;   SIGMA  =   0.10  broadening in eV -4-tet -1-fermi 0-gaus

 Electronic relaxation 2 (details)
   IALGO  =     38    algorithm
   LDIAG  =      T    sub-space diagonalisation (order eigenvalues)
   LSUBROT=      F    optimize rotation matrix (better conditioning)
   TURBO    =      0    0=normal 1=particle mesh
   IRESTART =      0    0=no restart 2=restart with 2 vectors
   NREBOOT  =      0    no. of reboots
   NMIN     =      0    reboot dimension
   EREF     =   0.00    reference energy to select bands
   IMIX   =      4    mixing-type and parameters
     AMIX     =   0.40;   BMIX     =  1.00
     AMIX_MAG =   1.60;   BMIX_MAG =  1.00
     AMIN     =   0.10
     WC   =   100.;   INIMIX=   1;  MIXPRE=   1;  MAXMIX= -45

 Intra band minimization:
   WEIMIN = 0.0000     energy-eigenvalue tresh-hold
   EBREAK =  0.26E-06  absolut break condition
   DEPER  =   0.30     relativ break condition  

   TIME   =   0.40     timestep for ELM

  volume/ion in A,a.u.               =      46.18       311.61
  Fermi-wavevector in a.u.,A,eV,Ry     =   1.014847  1.917783 14.012838  1.029915
  Thomas-Fermi vector in A             =   2.148098
 
 Write flags
   LWAVE  =      F    write WAVECAR
   LCHARG =      F    write CHGCAR
   LVTOT  =      F    write LOCPOT, total local potential
   LVHAR  =      F    write LOCPOT, Hartree potential only
   LELF   =      F    write electronic localiz. function (ELF)
   LORBIT =     10    0 simple, 1 ext, 2 COOP (PROOUT)


 Dipole corrections
   LMONO  =      F    monopole corrections only (constant potential shift)
   LDIPOL =      F    correct potential (dipole corrections)
   IDIPOL =      0    1-x, 2-y, 3-z, 4-all directions 
   EPSILON=  1.0000000 bulk dielectric constant

 Exchange correlation treatment:
   GGA     =    --    GGA type
   LEXCH   =     8    internal setting for exchange type
   VOSKOWN=      0    Vosko Wilk Nusair interpolation
   LHFCALC =     F    Hartree Fock is set to
   LHFONE  =     F    Hartree Fock one center treatment
   AEXX    =    0.0000 exact exchange contribution

 Linear response parameters
   LEPSILON=     F    determine dielectric tensor
   LRPA    =     F    only Hartree local field effects (RPA)
   LNABLA  =     F    use nabla operator in PAW spheres
   LVEL    =     F    velocity operator in full k-point grid
   LINTERFAST=   F  fast interpolation
   KINTER  =     0    interpolate to denser k-point grid
   CSHIFT  =0.1000    complex shift for real part using Kramers Kronig
   OMEGAMAX=  -1.0    maximum frequency
   DEG_THRESHOLD= 0.2000000E-02 threshold for treating states as degnerate
   RTIME   =    0.100 relaxation time in fs

 Orbital magnetization related:
   ORBITALMAG=     F  switch on orbital magnetization
   LCHIMAG   =     F  perturbation theory with respect to B field
   DQ        =  0.001000  dq finite difference perturbation B field



--------------------------------------------------------------------------------------------------------


 Static calculation
 charge density and potential will be updated during run
 non-spin polarized calculation
 Variant of blocked Davidson
 Davidson routine will perform the subspace rotation
 perform sub-space diagonalisation
    after iterative eigenvector-optimisation
 modified Broyden-mixing scheme, WC =      100.0
 initial mixing is a Kerker type mixing with AMIX =  0.4000 and BMIX =      1.0000
 Hartree-type preconditioning will be used
 using additional bands           30
 reciprocal scheme for non local part
 use partial core corrections
 calculate Harris-corrections to forces 
   (improved forces if not selfconsistent)
 use gradient corrections 
 use of overlap-Matrix (Vanderbilt PP)
 Methfessel and Paxton  Order N= 1 SIGMA  =   0.10


--------------------------------------------------------------------------------------------------------


  energy-cutoff  :      400.00
  volume of cell :      554.11
      direct lattice vectors                 reciprocal lattice vectors
     5.142080510  0.000000000  0.000000000     0.194473812 -0.112279508  0.000000000
     2.571040260  4.453172350  0.000000000     0.000000000  0.224559016  0.000000000
     0.000000000  0.000000000 24.198491160     0.000000000  0.000000000  0.041324891

  length of vectors
     5.142080510  5.142080513 24.198491160     0.224559016  0.224559016  0.041324891


 
 k-points in units of 2pi/SCALE and weight: KPOINTS created by Atomic Simulation Env
   0.00000000  0.00000000  0.00000000       0.012
   0.02160820 -0.01247550  0.00000000       0.074
   0.04321640 -0.02495100  0.00000000       0.074
   0.06482460 -0.03742650  0.00000000       0.074
   0.08643281 -0.04990200  0.00000000       0.074
   0.04321640 -0.00000000  0.00000000       0.074
   0.06482460 -0.01247550  0.00000000       0.148
   0.08643281 -0.02495100  0.00000000       0.148
  -0.08643281  0.07485301  0.00000000       0.074
   0.08643281 -0.00000000  0.00000000       0.074
  -0.08643281  0.09980401  0.00000000       0.148
  -0.06482460  0.11227951  0.00000000       0.025
 
 k-points in reciprocal lattice and weights: KPOINTS created by Atomic Simulation Env
   0.00000000  0.00000000  0.00000000       0.012
   0.11111111  0.00000000  0.00000000       0.074
   0.22222222  0.00000000  0.00000000       0.074
   0.33333333 -0.00000000  0.00000000       0.074
   0.44444444  0.00000000  0.00000000       0.074
   0.22222222  0.11111111  0.00000000       0.074
   0.33333333  0.11111111  0.00000000       0.148
   0.44444444  0.11111111  0.00000000       0.148
  -0.44444444  0.11111111  0.00000000       0.074
   0.44444444  0.22222222  0.00000000       0.074
  -0.44444444  0.22222222  0.00000000       0.148
  -0.33333333  0.33333333  0.00000000       0.025
 
 position of ions in fractional coordinates (direct lattice) 
   0.16666667  0.16666667  0.41469244
   0.66666667  0.16666667  0.41469244
   0.16666667  0.66666667  0.41469244
   0.66666667  0.66666667  0.41469244
   0.83333333  0.33333333  0.50000000
   0.33333333  0.33333333  0.50000000
   0.83333333  0.83333333  0.50000000
   0.33333333  0.83333333  0.50000000
   0.00000000  0.00000000  0.58530756
   0.50000000  0.00000000  0.58530756
   0.00000000  0.50000000  0.58530756
   0.50000000  0.50000000  0.58530756
 
 position of ions in cartesian coordinates  (Angst):
   1.28552015  0.74219541 10.03493134
   3.85656041  0.74219541 10.03493134
   2.57104028  2.96878158 10.03493134
   5.14208054  2.96878158 10.03493134
   5.14208049  1.48439077 12.09924558
   2.57104023  1.48439077 12.09924558
   6.42760062  3.71097694 12.09924558
   3.85656036  3.71097694 12.09924558
   0.00000000  0.00000000 14.16355982
   2.57104026  0.00000000 14.16355982
   1.28552013  2.22658618 14.16355982
   3.85656039  2.22658618 14.16355982
 


--------------------------------------------------------------------------------------------------------


 k-point  1 :   0.0000 0.0000 0.0000  plane waves:   10129
 k-point  2 :   0.1111 0.0000 0.0000  plane waves:   10127
 k-point  3 :   0.2222 0.0000 0.0000  plane waves:   10089
 k-point  4 :   0.3333-0.0000 0.0000  plane waves:   10064
 k-point  5 :   0.4444 0.0000 0.0000  plane waves:   10042
 k-point  6 :   0.2222 0.1111 0.0000  plane waves:   10097
 k-point  7 :   0.3333 0.1111 0.0000  plane waves:   10059
 k-point  8 :   0.4444 0.1111 0.0000  plane waves:   10045
 k-point  9 :  -0.4444 0.1111 0.0000  plane waves:   10036
 k-point 10 :   0.4444 0.2222 0.0000  plane waves:   10078
 k-point 11 :  -0.4444 0.2222 0.0000  plane waves:   10068
 k-point 12 :  -0.3333 0.3333 0.0000  plane waves:   10044

 maximum and minimum number of plane-waves per node :     10129    10036

 maximum number of plane-waves:     10129
 maximum index in each direction: 
   IXMAX=    8   IYMAX=    8   IZMAX=   39
   IXMIN=   -8   IYMIN=   -8   IZMIN=  -39

 WARNING: aliasing errors must be expected set NGX to  34 to avoid them
 WARNING: aliasing errors must be expected set NGY to  34 to avoid them
 WARNING: aliasing errors must be expected set NGZ to 158 to avoid them
 aliasing errors are usually negligible using standard VASP settings
 and one can safely disregard these warnings

 serial   3D FFT for wavefunctions
 parallel 3D FFT for charge:
    minimum data exchange during FFTs selected (reduces bandwidth)


 total amount of memory used by VASP on root node    65043. kBytes
========================================================================

   base      :      30000. kBytes
   nonl-proj :      19491. kBytes
   fftplans  :       1683. kBytes
   grid      :       5721. kBytes
   one-center:        186. kBytes
   wavefun   :       7962. kBytes
 
     INWAV:  cpu time    0.0001: real time    0.0001
 Broyden mixing: mesh for mixing (old mesh)
   NGX = 17   NGY = 17   NGZ = 79
  (NGX  = 56   NGY  = 56   NGZ  =240)
  gives a total of  22831 points

 initial charge density was supplied:
 charge density of overlapping atoms calculated
 number of electron     132.0000000 magnetization 
 keeping initial charge density in first step


--------------------------------------------------------------------------------------------------------


 Maximum index for augmentation-charges          470 (set IRDMAX)


--------------------------------------------------------------------------------------------------------


 First call to EWALD:  gamma=   0.216
 Maximum number of real-space cells 5x 5x 1
 Maximum number of reciprocal cells 2x 2x 7

 FEWALD executed in parallel
    FEWALD:  cpu time    0.0024: real time    0.0027


----------------------------------------- Iteration    1(   1)  ---------------------------------------


    POTLOK:  cpu time    0.0497: real time    0.0625
    SETDIJ:  cpu time    0.0043: real time    0.0046
     EDDAV:  cpu time    2.7951: real time    2.8492
       DOS:  cpu time    0.0009: real time    0.0010
    --------------------------------------------
      LOOP:  cpu time    2.8526: real time    2.9206

 eigenvalue-minimisations  :  2304
 total energy-change (2. order) : 0.9907365E+03  (-0.4736222E+04)
 number of electron     132.0000000 magnetization 
 augmentation part      132.0000000 magnetization 

 Free energy of the ion-electron system (eV)
  ---------------------------------------------------
  alpha Z        PSCENC =       190.05445405
  Ewald energy   TEWEN  =     66568.58895233
  -Hartree energ DENC   =    -82324.57319203
  -exchange      EXHF   =         0.00000000
  -V(xc)+E(xc)   XCENC  =       545.39014460
  PAW double counting   =     14738.47991854   -16008.58160551
  entropy T*S    EENTRO =        -0.00403730
  eigenvalues    EBANDS =       589.89014213
  atomic energy  EATOM  =     16691.49168240
  Solvation  Ediel_sol  =         0.00000000
  ---------------------------------------------------
  free energy    TOTEN  =       990.73645919 eV

  energy without entropy =      990.74049650  energy(sigma->0) =      990.73780496


--------------------------------------------------------------------------------------------------------




----------------------------------------- Iteration    1(   2)  ---------------------------------------


     EDDAV:  cpu time    2.8135: real time    2.8164
       DOS:  cpu time    0.0007: real time    0.0007
    --------------------------------------------
      LOOP:  cpu time    2.8161: real time    2.8204

 eigenvalue-minimisations  :  2304
 total energy-change (2. order) :-0.9811468E+03  (-0.9334799E+03)
 number of electron     132.0000000 magnetization 
 augmentation part      132.0000000 magnetization 

 Free energy of the ion-electron system (eV)
  ---------------------------------------------------
  alpha Z        PSCENC =       190.05445405
  Ewald energy   TEWEN  =     66568.58895233
  -Hartree energ DENC   =    -82324.57319203
  -exchange      EXHF   =         0.00000000
  -V(xc)+E(xc)   XCENC  =       545.39014460
  PAW double counting   =     14738.47991854   -16008.58160551
  entropy T*S    EENTRO =         0.00770248
  eigenvalues    EBANDS =      -391.26836683
  atomic energy  EATOM  =     16691.49168240
  Solvation  Ediel_sol  =         0.00000000
  ---------------------------------------------------
  free energy    TOTEN  =         9.58969003 eV

  energy without entropy =        9.58198754  energy(sigma->0) =        9.58712253


--------------------------------------------------------------------------------------------------------




----------------------------------------- Iteration    1(   3)  ---------------------------------------


     EDDAV:  cpu time    3.4976: real time    3.5008
       DOS:  cpu time    0.0006: real time    0.0006
    --------------------------------------------
      LOOP:  cpu time    3.4991: real time    3.5042

 eigenvalue-minimisations  :  2856
 total energy-change (2. order) :-0.5848577E+02  (-0.5712903E+02)
 number of electron     132.0000000 magnetization 
 augmentation part      132.0000000 magnetization 

 Free energy of the ion-electron system (eV)
  ---------------------------------------------------
  alpha Z        PSCENC =       190.05445405
  Ewald energy   TEWEN  =     66568.58895233
  -Hartree energ DENC   =    -82324.57319203
  -exchange      EXHF   =         0.00000000
  -V(xc)+E(xc)   XCENC  =       545.39014460
  PAW double counting   =     14738.47991854   -16008.58160551
  entropy T*S    EENTRO =         0.00039482
  eigenvalues    EBANDS =      -449.74682700
  atomic energy  EATOM  =     16691.49168240
  Solvation  Ediel_sol  =         0.00000000
  ---------------------------------------------------
  free energy    TOTEN  =       -48.89607781 eV

  energy without entropy =      -48.89647263  energy(sigma->0) =      -48.89620942


--------------------------------------------------------------------------------------------------------




----------------------------------------- Iteration    1(   4)  ---------------------------------------


     EDDAV:  cpu time    3.3680: real time    3.3777
       DOS:  cpu time    0.0006: real time    0.0006
    --------------------------------------------
      LOOP:  cpu time    3.3696: real time    3.3808

 eigenvalue-minimisations  :  2760
 total energy-change (2. order) :-0.1469566E+01  (-0.1468645E+01)
 number of electron     132.0000000 magnetization 
 augmentation part      132.0000000 magnetization 

 Free energy of the ion-electron system (eV)
  ---------------------------------------------------
  alpha Z        PSCENC =       190.05445405
  Ewald energy   TEWEN  =     66568.58895233
  -Hartree energ DENC   =    -82324.57319203
  -exchange      EXHF   =         0.00000000
  -V(xc)+E(xc)   XCENC  =       545.39014460
  PAW double counting   =     14738.47991854   -16008.58160551
  entropy T*S    EENTRO =         0.00033747
  eigenvalues    EBANDS =      -451.21633609
  atomic energy  EATOM  =     16691.49168240
  Solvation  Ediel_sol  =         0.00000000
  ---------------------------------------------------
  free energy    TOTEN  =       -50.36564425 eV

  energy without entropy =      -50.36598172  energy(sigma->0) =      -50.36575674


--------------------------------------------------------------------------------------------------------




----------------------------------------- Iteration    1(   5)  ---------------------------------------


     EDDAV:  cpu time    3.5205: real time    3.5207
       DOS:  cpu time    0.0006: real time    0.0006
    CHARGE:  cpu time    0.0926: real time    0.0926
    MIXING:  cpu time    0.0014: real time    0.0015
    --------------------------------------------
      LOOP:  cpu time    3.6165: real time    3.6182

 eigenvalue-minimisations  :  3120
 total energy-change (2. order) :-0.3771248E-01  (-0.3771105E-01)
 number of electron     131.9999616 magnetization 
 augmentation part       78.1463139 magnetization 

 Broyden mixing:
  rms(total) = 0.25467E+01    rms(broyden)= 0.25466E+01
  rms(prec ) = 0.26745E+01
  weight for this iteration     100.00

 Free energy of the ion-electron system (eV)
  ---------------------------------------------------
  alpha Z        PSCENC =       190.05445405
  Ewald energy   TEWEN  =     66568.58895233
  -Hartree energ DENC   =    -82324.57319203
  -exchange      EXHF   =         0.00000000
  -V(xc)+E(xc)   XCENC  =       545.39014460
  PAW double counting   =     14738.47991854   -16008.58160551
  entropy T*S    EENTRO =         0.00033542
  eigenvalues    EBANDS =      -451.25404653
  atomic energy  EATOM  =     16691.49168240
  Solvation  Ediel_sol  =         0.00000000
  ---------------------------------------------------
  free energy    TOTEN  =       -50.40335674 eV

  energy without entropy =      -50.40369215  energy(sigma->0) =      -50.40346854


--------------------------------------------------------------------------------------------------------




----------------------------------------- Iteration    1(   6)  ---------------------------------------


    POTLOK:  cpu time    0.0244: real time    0.0244
    SETDIJ:  cpu time    0.0031: real time    0.0031
     EDDAV:  cpu time    2.9394: real time    2.9397
       DOS:  cpu time    0.0008: real time    0.0008
    CHARGE:  cpu time    0.0859: real time    0.0859
    MIXING:  cpu time    0.0015: real time    0.0015
    --------------------------------------------
      LOOP:  cpu time    3.0564: real time    3.0584

 eigenvalue-minimisations  :  2784
 total energy-change (2. order) : 0.3961314E+01  (-0.1050288E+02)
 number of electron     131.9999579 magnetization 
 augmentation part       88.3423006 magnetization 

 Broyden mixing:
  rms(total) = 0.15194E+01    rms(broyden)= 0.15193E+01
  rms(prec ) = 0.15924E+01
  weight for this iteration     100.00

 eigenvalues of (default mixing * dielectric matrix)
  average eigenvalue GAMMA=   0.6279
  0.6279

 Free energy of the ion-electron system (eV)
  ---------------------------------------------------
  alpha Z        PSCENC =       190.05445405
  Ewald energy   TEWEN  =     66568.58895233
  -Hartree energ DENC   =    -81985.12930086
  -exchange      EXHF   =         0.00000000
  -V(xc)+E(xc)   XCENC  =       529.20836652
  PAW double counting   =     14857.28753843   -16061.52467584
  entropy T*S    EENTRO =        -0.01198805
  eigenvalues    EBANDS =      -836.40707123
  atomic energy  EATOM  =     16691.49168240
  Solvation  Ediel_sol  =         0.00000000
  ---------------------------------------------------
  free energy    TOTEN  =       -46.44204225 eV

  energy without entropy =      -46.43005420  energy(sigma->0) =      -46.43804624


--------------------------------------------------------------------------------------------------------




----------------------------------------- Iteration    1(   7)  ---------------------------------------


    POTLOK:  cpu time    0.0254: real time    0.0254
    SETDIJ:  cpu time    0.0038: real time    0.0038
     EDDAV:  cpu time    2.8410: real time    2.8413
       DOS:  cpu time    0.0007: real time    0.0007
    CHARGE:  cpu time    0.1015: real time    0.1015
    MIXING:  cpu time    0.0012: real time    0.0012
    --------------------------------------------
      LOOP:  cpu time    2.9749: real time    2.9768

 eigenvalue-minimisations  :  2832
 total energy-change (2. order) : 0.5395805E+01  (-0.2183941E+01)
 number of electron     131.9999599 magnetization 
 augmentation part       84.6175651 magnetization 

 Broyden mixing:
  rms(total) = 0.14996E+00    rms(broyden)= 0.14990E+00
  rms(prec ) = 0.17062E+00
  weight for this iteration     100.00

 eigenvalues of (default mixing * dielectric matrix)
  average eigenvalue GAMMA=   0.8347
  1.0320  0.6374

 Free energy of the ion-electron system (eV)
  ---------------------------------------------------
  alpha Z        PSCENC =       190.05445405
  Ewald energy   TEWEN  =     66568.58895233
  -Hartree energ DENC   =    -82132.14697817
  -exchange      EXHF   =         0.00000000
  -V(xc)+E(xc)   XCENC  =       534.84798936
  PAW double counting   =     15149.28977899   -16409.48412656
  entropy T*S    EENTRO =        -0.00332645
  eigenvalues    EBANDS =      -633.68466298
  atomic energy  EATOM  =     16691.49168240
  Solvation  Ediel_sol  =         0.00000000
  ---------------------------------------------------
  free energy    TOTEN  =       -41.04623704 eV

  energy without entropy =      -41.04291060  energy(sigma->0) =      -41.04512823


--------------------------------------------------------------------------------------------------------




----------------------------------------- Iteration    1(   8)  ---------------------------------------


    POTLOK:  cpu time    0.0252: real time    0.0253
    SETDIJ:  cpu time    0.0032: real time    0.0032
     EDDAV:  cpu time    3.0722: real time    3.0794
       DOS:  cpu time    0.0007: real time    0.0007
    CHARGE:  cpu time    0.0996: real time    0.0996
    MIXING:  cpu time    0.0011: real time    0.0011
    --------------------------------------------
      LOOP:  cpu time    3.2032: real time    3.2122

 eigenvalue-minimisations  :  3144
 total energy-change (2. order) :-0.1200904E-01  (-0.1557284E+00)
 number of electron     131.9999590 magnetization 
 augmentation part       84.0215947 magnetization 

 Broyden mixing:
  rms(total) = 0.25987E+00    rms(broyden)= 0.25985E+00
  rms(prec ) = 0.27970E+00
  weight for this iteration     100.00

 eigenvalues of (default mixing * dielectric matrix)
  average eigenvalue GAMMA=   0.9407
  1.8234  0.5964  0.4023

 Free energy of the ion-electron system (eV)
  ---------------------------------------------------
  alpha Z        PSCENC =       190.05445405
  Ewald energy   TEWEN  =     66568.58895233
  -Hartree energ DENC   =    -82154.40033876
  -exchange      EXHF   =         0.00000000
  -V(xc)+E(xc)   XCENC  =       534.85558120
  PAW double counting   =     15379.07835444   -16656.97672594
  entropy T*S    EENTRO =        -0.02555641
  eigenvalues    EBANDS =      -593.72464938
  atomic energy  EATOM  =     16691.49168240
  Solvation  Ediel_sol  =         0.00000000
  ---------------------------------------------------
  free energy    TOTEN  =       -41.05824608 eV

  energy without entropy =      -41.03268967  energy(sigma->0) =      -41.04972728


--------------------------------------------------------------------------------------------------------




----------------------------------------- Iteration    1(   9)  ---------------------------------------


    POTLOK:  cpu time    0.0230: real time    0.0230
    SETDIJ:  cpu time    0.0033: real time    0.0033
     EDDAV:  cpu time    2.7747: real time    2.7748
       DOS:  cpu time    0.0007: real time    0.0007
    CHARGE:  cpu time    0.0969: real time    0.0969
    MIXING:  cpu time    0.0012: real time    0.0012
    --------------------------------------------
      LOOP:  cpu time    2.9011: real time    2.9028

 eigenvalue-minimisations  :  2784
 total energy-change (2. order) : 0.6218553E-01  (-0.5349631E-01)
 number of electron     131.9999599 magnetization 
 augmentation part       83.9593718 magnetization 

 Broyden mixing:
  rms(total) = 0.17089E+00    rms(broyden)= 0.17088E+00
  rms(prec ) = 0.17994E+00
  weight for this iteration     100.00

 eigenvalues of (default mixing * dielectric matrix)
  average eigenvalue GAMMA=   1.0465
  2.2711  0.8532  0.7200  0.3415

 Free energy of the ion-electron system (eV)
  ---------------------------------------------------
  alpha Z        PSCENC =       190.05445405
  Ewald energy   TEWEN  =     66568.58895233
  -Hartree energ DENC   =    -82153.37905975
  -exchange      EXHF   =         0.00000000
  -V(xc)+E(xc)   XCENC  =       534.48499124
  PAW double counting   =     15516.00570845   -16803.11744983
  entropy T*S    EENTRO =        -0.01933276
  eigenvalues    EBANDS =      -585.10600667
  atomic energy  EATOM  =     16691.49168240
  Solvation  Ediel_sol  =         0.00000000
  ---------------------------------------------------
  free energy    TOTEN  =       -40.99606055 eV

  energy without entropy =      -40.97672779  energy(sigma->0) =      -40.98961630


--------------------------------------------------------------------------------------------------------




----------------------------------------- Iteration    1(  10)  ---------------------------------------


    POTLOK:  cpu time    0.0223: real time    0.0223
    SETDIJ:  cpu time    0.0031: real time    0.0031
     EDDAV:  cpu time    2.7669: real time    2.7671
       DOS:  cpu time    0.0006: real time    0.0006
    CHARGE:  cpu time    0.0975: real time    0.0975
    MIXING:  cpu time    0.0014: real time    0.0014
    --------------------------------------------
      LOOP:  cpu time    2.8929: real time    2.8949

 eigenvalue-minimisations  :  2688
 total energy-change (2. order) : 0.4123221E-01  (-0.2026967E-01)
 number of electron     131.9999598 magnetization 
 augmentation part       84.3962180 magnetization 

 Broyden mixing:
  rms(total) = 0.34896E-01    rms(broyden)= 0.34879E-01
  rms(prec ) = 0.39869E-01
  weight for this iteration     100.00

 eigenvalues of (default mixing * dielectric matrix)
  average eigenvalue GAMMA=   1.1591
  1.9315  1.9315  0.8619  0.7206  0.3501

 Free energy of the ion-electron system (eV)
  ---------------------------------------------------
  alpha Z        PSCENC =       190.05445405
  Ewald energy   TEWEN  =     66568.58895233
  -Hartree energ DENC   =    -82139.23344798
  -exchange      EXHF   =         0.00000000
  -V(xc)+E(xc)   XCENC  =       533.53652770
  PAW double counting   =     15591.18871825   -16880.42308352
  entropy T*S    EENTRO =        -0.01429874
  eigenvalues    EBANDS =      -596.14433282
  atomic energy  EATOM  =     16691.49168240
  Solvation  Ediel_sol  =         0.00000000
  ---------------------------------------------------
  free energy    TOTEN  =       -40.95482834 eV

  energy without entropy =      -40.94052960  energy(sigma->0) =      -40.95006210


--------------------------------------------------------------------------------------------------------




----------------------------------------- Iteration    1(  11)  ---------------------------------------


    POTLOK:  cpu time    0.0234: real time    0.0234
    SETDIJ:  cpu time    0.0030: real time    0.0030
     EDDAV:  cpu time    2.9193: real time    2.9196
       DOS:  cpu time    0.0007: real time    0.0007
    CHARGE:  cpu time    0.0979: real time    0.0979
    MIXING:  cpu time    0.0014: real time    0.0014
    --------------------------------------------
      LOOP:  cpu time    3.0469: real time    3.0486

 eigenvalue-minimisations  :  2952
 total energy-change (2. order) : 0.4345068E-02  (-0.1703300E-02)
 number of electron     131.9999597 magnetization 
 augmentation part       84.3102867 magnetization 

 Broyden mixing:
  rms(total) = 0.12536E-01    rms(broyden)= 0.12534E-01
  rms(prec ) = 0.15533E-01
  weight for this iteration     100.00

 eigenvalues of (default mixing * dielectric matrix)
  average eigenvalue GAMMA=   1.2775
  2.3642  2.3642  1.0510  0.7667  0.7667  0.3521

 Free energy of the ion-electron system (eV)
  ---------------------------------------------------
  alpha Z        PSCENC =       190.05445405
  Ewald energy   TEWEN  =     66568.58895233
  -Hartree energ DENC   =    -82147.67749559
  -exchange      EXHF   =         0.00000000
  -V(xc)+E(xc)   XCENC  =       533.64618388
  PAW double counting   =     15601.30847177   -16892.22182669
  entropy T*S    EENTRO =        -0.01764940
  eigenvalues    EBANDS =      -586.12325602
  atomic energy  EATOM  =     16691.49168240
  Solvation  Ediel_sol  =         0.00000000
  ---------------------------------------------------
  free energy    TOTEN  =       -40.95048328 eV

  energy without entropy =      -40.93283387  energy(sigma->0) =      -40.94460014


--------------------------------------------------------------------------------------------------------




----------------------------------------- Iteration    1(  12)  ---------------------------------------


    POTLOK:  cpu time    0.0228: real time    0.0228
    SETDIJ:  cpu time    0.0030: real time    0.0030
     EDDAV:  cpu time    2.9596: real time    2.9618
       DOS:  cpu time    0.0007: real time    0.0007
    CHARGE:  cpu time    0.1082: real time    0.1094
    MIXING:  cpu time    0.0022: real time    0.0022
    --------------------------------------------
      LOOP:  cpu time    3.0979: real time    3.1031

 eigenvalue-minimisations  :  2856
 total energy-change (2. order) : 0.1347567E-02  (-0.4649256E-03)
 number of electron     131.9999597 magnetization 
 augmentation part       84.3105347 magnetization 

 Broyden mixing:
  rms(total) = 0.49427E-02    rms(broyden)= 0.49419E-02
  rms(prec ) = 0.74079E-02
  weight for this iteration     100.00

 eigenvalues of (default mixing * dielectric matrix)
  average eigenvalue GAMMA=   1.2911
  2.3485  2.1009  1.4595  1.2377  0.7923  0.7471  0.3519

 Free energy of the ion-electron system (eV)
  ---------------------------------------------------
  alpha Z        PSCENC =       190.05445405
  Ewald energy   TEWEN  =     66568.58895233
  -Hartree energ DENC   =    -82154.58212467
  -exchange      EXHF   =         0.00000000
  -V(xc)+E(xc)   XCENC  =       533.62964724
  PAW double counting   =     15600.38006669   -16891.54586272
  entropy T*S    EENTRO =        -0.01752835
  eigenvalues    EBANDS =      -578.94842266
  atomic energy  EATOM  =     16691.49168240
  Solvation  Ediel_sol  =         0.00000000
  ---------------------------------------------------
  free energy    TOTEN  =       -40.94913571 eV

  energy without entropy =      -40.93160736  energy(sigma->0) =      -40.94329293


--------------------------------------------------------------------------------------------------------




----------------------------------------- Iteration    1(  13)  ---------------------------------------


    POTLOK:  cpu time    0.0247: real time    0.0255
    SETDIJ:  cpu time    0.0030: real time    0.0030
     EDDAV:  cpu time    2.8862: real time    2.8864
       DOS:  cpu time    0.0007: real time    0.0007
    CHARGE:  cpu time    0.0954: real time    0.0954
    MIXING:  cpu time    0.0013: real time    0.0013
    --------------------------------------------
      LOOP:  cpu time    3.0125: real time    3.0151

 eigenvalue-minimisations  :  2928
 total energy-change (2. order) :-0.2329726E-03  (-0.2567875E-03)
 number of electron     131.9999597 magnetization 
 augmentation part       84.3575792 magnetization 

 Broyden mixing:
  rms(total) = 0.17002E-01    rms(broyden)= 0.17001E-01
  rms(prec ) = 0.18442E-01
  weight for this iteration     100.00

 eigenvalues of (default mixing * dielectric matrix)
  average eigenvalue GAMMA=   1.5268
  3.1972  3.1972  1.6528  0.3519  1.3590  0.7284  0.8637  0.8637

 Free energy of the ion-electron system (eV)
  ---------------------------------------------------
  alpha Z        PSCENC =       190.05445405
  Ewald energy   TEWEN  =     66568.58895233
  -Hartree energ DENC   =    -82157.26289050
  -exchange      EXHF   =         0.00000000
  -V(xc)+E(xc)   XCENC  =       533.56659835
  PAW double counting   =     15597.12606121   -16887.73201112
  entropy T*S    EENTRO =        -0.01671545
  eigenvalues    EBANDS =      -576.76549993
  atomic energy  EATOM  =     16691.49168240
  Solvation  Ediel_sol  =         0.00000000
  ---------------------------------------------------
  free energy    TOTEN  =       -40.94936868 eV

  energy without entropy =      -40.93265323  energy(sigma->0) =      -40.94379686


--------------------------------------------------------------------------------------------------------




----------------------------------------- Iteration    1(  14)  ---------------------------------------


    POTLOK:  cpu time    0.0229: real time    0.0230
    SETDIJ:  cpu time    0.0031: real time    0.0031
     EDDAV:  cpu time    2.8085: real time    2.8165
       DOS:  cpu time    0.0007: real time    0.0007
    CHARGE:  cpu time    0.0963: real time    0.0965
    MIXING:  cpu time    0.0014: real time    0.0014
    --------------------------------------------
      LOOP:  cpu time    2.9342: real time    2.9439

 eigenvalue-minimisations  :  2832
 total energy-change (2. order) : 0.2735734E-03  (-0.2581179E-03)
 number of electron     131.9999597 magnetization 
 augmentation part       84.3117367 magnetization 

 Broyden mixing:
  rms(total) = 0.41696E-02    rms(broyden)= 0.41682E-02
  rms(prec ) = 0.46716E-02
  weight for this iteration     100.00

 eigenvalues of (default mixing * dielectric matrix)
  average eigenvalue GAMMA=   1.5394
  2.9815  2.9815  1.7909  1.7909  0.3519  1.4459  0.7262  0.8930  0.8930

 Free energy of the ion-electron system (eV)
  ---------------------------------------------------
  alpha Z        PSCENC =       190.05445405
  Ewald energy   TEWEN  =     66568.58895233
  -Hartree energ DENC   =    -82165.14383403
  -exchange      EXHF   =         0.00000000
  -V(xc)+E(xc)   XCENC  =       533.67612198
  PAW double counting   =     15587.19192306   -16877.59705583
  entropy T*S    EENTRO =        -0.01779487
  eigenvalues    EBANDS =      -569.19354419
  atomic energy  EATOM  =     16691.49168240
  Solvation  Ediel_sol  =         0.00000000
  ---------------------------------------------------
  free energy    TOTEN  =       -40.94909511 eV

  energy without entropy =      -40.93130024  energy(sigma->0) =      -40.94316349


--------------------------------------------------------------------------------------------------------




----------------------------------------- Iteration    1(  15)  ---------------------------------------


    POTLOK:  cpu time    0.0229: real time    0.0230
    SETDIJ:  cpu time    0.0030: real time    0.0031
     EDDAV:  cpu time    2.1265: real time    2.1322
       DOS:  cpu time    0.0007: real time    0.0007
    CHARGE:  cpu time    0.0963: real time    0.0965
    MIXING:  cpu time    0.0016: real time    0.0016
    --------------------------------------------
      LOOP:  cpu time    2.2523: real time    2.2600

 eigenvalue-minimisations  :  1968
 total energy-change (2. order) :-0.3194709E-03  (-0.1678640E-04)
 number of electron     131.9999597 magnetization 
 augmentation part       84.3147350 magnetization 

 Broyden mixing:
  rms(total) = 0.16278E-02    rms(broyden)= 0.16278E-02
  rms(prec ) = 0.19916E-02
  weight for this iteration     100.00

 eigenvalues of (default mixing * dielectric matrix)
  average eigenvalue GAMMA=   1.7484
  5.1570  2.8574  2.7098  1.6193  0.3519  1.3493  0.7266  0.8950  0.8950  0.9228

 Free energy of the ion-electron system (eV)
  ---------------------------------------------------
  alpha Z        PSCENC =       190.05445405
  Ewald energy   TEWEN  =     66568.58895233
  -Hartree energ DENC   =    -82165.40469187
  -exchange      EXHF   =         0.00000000
  -V(xc)+E(xc)   XCENC  =       533.65691856
  PAW double counting   =     15590.74157005   -16881.37302574
  entropy T*S    EENTRO =        -0.01768348
  eigenvalues    EBANDS =      -568.68759087
  atomic energy  EATOM  =     16691.49168240
  Solvation  Ediel_sol  =         0.00000000
  ---------------------------------------------------
  free energy    TOTEN  =       -40.94941458 eV

  energy without entropy =      -40.93173110  energy(sigma->0) =      -40.94352009


--------------------------------------------------------------------------------------------------------




----------------------------------------- Iteration    1(  16)  ---------------------------------------


    POTLOK:  cpu time    0.0231: real time    0.0232
    SETDIJ:  cpu time    0.0030: real time    0.0030
     EDDAV:  cpu time    2.0025: real time    2.0085
       DOS:  cpu time    0.0007: real time    0.0007
    CHARGE:  cpu time    0.0954: real time    0.0956
    MIXING:  cpu time    0.0019: real time    0.0019
    --------------------------------------------
      LOOP:  cpu time    2.1280: real time    2.1361

 eigenvalue-minimisations  :  1800
 total energy-change (2. order) :-0.5026265E-03  (-0.7520541E-05)
 number of electron     131.9999597 magnetization 
 augmentation part       84.3206594 magnetization 

 Broyden mixing:
  rms(total) = 0.11730E-02    rms(broyden)= 0.11729E-02
  rms(prec ) = 0.13419E-02
  weight for this iteration     100.00

 eigenvalues of (default mixing * dielectric matrix)
  average eigenvalue GAMMA=   1.8373
  5.6926  3.2693  2.4892  1.8653  1.8653  0.3519  0.7266  0.8786  0.8786  1.0962
  1.0962

 Free energy of the ion-electron system (eV)
  ---------------------------------------------------
  alpha Z        PSCENC =       190.05445405
  Ewald energy   TEWEN  =     66568.58895233
  -Hartree energ DENC   =    -82165.98442221
  -exchange      EXHF   =         0.00000000
  -V(xc)+E(xc)   XCENC  =       533.64591853
  PAW double counting   =     15591.85040717   -16882.51281081
  entropy T*S    EENTRO =        -0.01758484
  eigenvalues    EBANDS =      -568.06651383
  atomic energy  EATOM  =     16691.49168240
  Solvation  Ediel_sol  =         0.00000000
  ---------------------------------------------------
  free energy    TOTEN  =       -40.94991721 eV

  energy without entropy =      -40.93233236  energy(sigma->0) =      -40.94405559


--------------------------------------------------------------------------------------------------------




----------------------------------------- Iteration    1(  17)  ---------------------------------------


    POTLOK:  cpu time    0.0228: real time    0.0229
    SETDIJ:  cpu time    0.0028: real time    0.0028
     EDDAV:  cpu time    2.2409: real time    2.2471
       DOS:  cpu time    0.0007: real time    0.0007
    CHARGE:  cpu time    0.1029: real time    0.1030
    MIXING:  cpu time    0.0018: real time    0.0018
    --------------------------------------------
      LOOP:  cpu time    2.3731: real time    2.3812

 eigenvalue-minimisations  :  2088
 total energy-change (2. order) :-0.2292880E-03  (-0.3128351E-05)
 number of electron     131.9999597 magnetization 
 augmentation part       84.3174075 magnetization 

 Broyden mixing:
  rms(total) = 0.95775E-03    rms(broyden)= 0.95772E-03
  rms(prec ) = 0.10375E-02
  weight for this iteration     100.00

 eigenvalues of (default mixing * dielectric matrix)
  average eigenvalue GAMMA=   1.9415
  6.4839  3.9022  2.6119  2.6119  1.4936  1.4936  0.3519  0.7265  0.9664  0.9664
  0.8448  0.8448

 Free energy of the ion-electron system (eV)
  ---------------------------------------------------
  alpha Z        PSCENC =       190.05445405
  Ewald energy   TEWEN  =     66568.58895233
  -Hartree energ DENC   =    -82166.74657493
  -exchange      EXHF   =         0.00000000
  -V(xc)+E(xc)   XCENC  =       533.65162093
  PAW double counting   =     15591.58825980   -16882.23773016
  entropy T*S    EENTRO =        -0.01764659
  eigenvalues    EBANDS =      -567.32316433
  atomic energy  EATOM  =     16691.49168240
  Solvation  Ediel_sol  =         0.00000000
  ---------------------------------------------------
  free energy    TOTEN  =       -40.95014649 eV

  energy without entropy =      -40.93249991  energy(sigma->0) =      -40.94426430


--------------------------------------------------------------------------------------------------------




----------------------------------------- Iteration    1(  18)  ---------------------------------------


    POTLOK:  cpu time    0.0240: real time    0.0240
    SETDIJ:  cpu time    0.0030: real time    0.0031
     EDDAV:  cpu time    2.0751: real time    2.0811
       DOS:  cpu time    0.0007: real time    0.0007
    CHARGE:  cpu time    0.0957: real time    0.0959
    MIXING:  cpu time    0.0018: real time    0.0018
    --------------------------------------------
      LOOP:  cpu time    2.2015: real time    2.2097

 eigenvalue-minimisations  :  1824
 total energy-change (2. order) :-0.1538567E-03  (-0.1854874E-05)
 number of electron     131.9999597 magnetization 
 augmentation part       84.3183913 magnetization 

 Broyden mixing:
  rms(total) = 0.21181E-03    rms(broyden)= 0.21167E-03
  rms(prec ) = 0.23877E-03
  weight for this iteration     100.00

 eigenvalues of (default mixing * dielectric matrix)
  average eigenvalue GAMMA=   1.9431
  6.7324  4.3918  2.5327  2.5327  1.6062  1.6062  0.3519  1.2049  1.0178  0.8890
  0.8890  0.7270  0.7787

 Free energy of the ion-electron system (eV)
  ---------------------------------------------------
  alpha Z        PSCENC =       190.05445405
  Ewald energy   TEWEN  =     66568.58895233
  -Hartree energ DENC   =    -82166.85936140
  -exchange      EXHF   =         0.00000000
  -V(xc)+E(xc)   XCENC  =       533.65154755
  PAW double counting   =     15591.09119617   -16881.70429659
  entropy T*S    EENTRO =        -0.01762650
  eigenvalues    EBANDS =      -567.24684836
  atomic energy  EATOM  =     16691.49168240
  Solvation  Ediel_sol  =         0.00000000
  ---------------------------------------------------
  free energy    TOTEN  =       -40.95030035 eV

  energy without entropy =      -40.93267385  energy(sigma->0) =      -40.94442485


--------------------------------------------------------------------------------------------------------




----------------------------------------- Iteration    1(  19)  ---------------------------------------


    POTLOK:  cpu time    0.0229: real time    0.0230
    SETDIJ:  cpu time    0.0029: real time    0.0029
     EDDAV:  cpu time    2.1292: real time    2.1352
       DOS:  cpu time    0.0007: real time    0.0007
    --------------------------------------------
      LOOP:  cpu time    2.1568: real time    2.1645

 eigenvalue-minimisations  :  1920
 total energy-change (2. order) :-0.4053421E-04  (-0.9981386E-06)
 number of electron     131.9999597 magnetization 
 augmentation part       84.3183913 magnetization 

 Free energy of the ion-electron system (eV)
  ---------------------------------------------------
  alpha Z        PSCENC =       190.05445405
  Ewald energy   TEWEN  =     66568.58895233
  -Hartree energ DENC   =    -82166.82664246
  -exchange      EXHF   =         0.00000000
  -V(xc)+E(xc)   XCENC  =       533.65056501
  PAW double counting   =     15591.21936284   -16881.83924516
  entropy T*S    EENTRO =        -0.01762311
  eigenvalues    EBANDS =      -567.27184679
  atomic energy  EATOM  =     16691.49168240
  Solvation  Ediel_sol  =         0.00000000
  ---------------------------------------------------
  free energy    TOTEN  =       -40.95034089 eV

  energy without entropy =      -40.93271778  energy(sigma->0) =      -40.94446652


--------------------------------------------------------------------------------------------------------




 average (electrostatic) potential at core
  the test charge radii are     0.9430
  (the norm of the test charge is              1.0000)
       1 -72.5381       2 -72.5381       3 -72.5381       4 -72.5381       5 -72.7498
       6 -72.7498       7 -72.7498       8 -72.7498       9 -72.5386      10 -72.5386
      11 -72.5386      12 -72.5386
 
 
 
 E-fermi :  -1.5082     XC(G=0):  -4.0657     alpha+bet : -3.4335


 k-point     1 :       0.0000    0.0000    0.0000
  band No.  band energies     occupation 
      1     -10.0808      2.00000
      2      -8.1095      2.00000
      3      -6.6006      2.00000
      4      -6.1784      2.00000
      5      -6.1783      2.00000
      6      -6.1783      2.00000
      7      -5.9911      2.00000
      8      -5.9911      2.00000
      9      -5.9911      2.00000
     10      -5.6049      2.00000
     11      -5.6049      2.00000
     12      -5.6049      2.00000
     13      -5.5592      2.00000
     14      -5.5592      2.00000
     15      -5.5592      2.00000
     16      -4.9075      2.00000
     17      -4.9075      2.00000
     18      -4.9075      2.00000
     19      -4.5074      2.00000
     20      -4.5074      2.00000
     21      -4.5074      2.00000
     22      -4.4393      2.00000
     23      -4.4142      2.00000
     24      -4.4142      2.00000
     25      -4.3772      2.00000
     26      -4.2719      2.00000
     27      -4.2719      2.00000
     28      -4.2645      2.00000
     29      -4.2645      2.00000
     30      -4.2645      2.00000
     31      -4.1422      2.00000
     32      -4.1422      2.00000
     33      -4.0331      2.00000
     34      -4.0331      2.00000
     35      -4.0331      2.00000
     36      -3.6066      2.00000
     37      -3.6066      2.00000
     38      -3.5843      2.00000
     39      -3.5843      2.00000
     40      -3.5842      2.00000
     41      -3.5825      2.00000
     42      -3.5825      2.00000
     43      -3.5825      2.00000
     44      -3.3433      2.00000
     45      -3.3433      2.00000
     46      -3.1570      2.00000
     47      -3.1570      2.00000
     48      -3.1570      2.00000
     49      -3.1191      2.00000
     50      -3.1191      2.00000
     51      -3.1191      2.00000
     52      -3.0969      2.00000
     53      -3.0969      2.00000
     54      -3.0618      2.00000
     55      -3.0618      2.00000
     56      -3.0618      2.00000
     57      -3.0138      2.00000
     58      -2.9056      2.00000
     59      -2.9056      2.00000
     60      -2.9056      2.00000
     61      -2.8877      2.00000
     62      -2.8876      2.00000
     63      -2.8876      2.00000
     64      -1.5334      1.41199
     65      -1.4814      0.56381
     66      -1.4814      0.56381
     67      -1.4814      0.56340
     68      -0.3851     -0.00000
     69      -0.3851     -0.00000
     70      -0.3850     -0.00000
     71       0.0494     -0.00000
     72       0.0494     -0.00000
     73       0.0494     -0.00000
     74       2.6668      0.00000
     75       2.9048      0.00000
     76       2.9048      0.00000
     77       2.9048      0.00000
     78       3.0306      0.00000
     79       3.3560      0.00000
     80       4.0604      0.00000
     81       4.0604      0.00000
     82       4.0604      0.00000
     83       4.3074      0.00000
     84       4.7650      0.00000
     85       4.9002      0.00000
     86       4.9002      0.00000
     87       4.9002      0.00000
     88       6.5000      0.00000
     89       6.5693      0.00000
     90       7.5393      0.00000
     91       7.5393      0.00000
     92       7.5393      0.00000
     93       7.8310      0.00000
     94       7.8311      0.00000
     95       7.8311      0.00000
     96       8.9991      0.00000

 k-point     2 :       0.1111    0.0000    0.0000
  band No.  band energies     occupation 
      1      -9.9837      2.00000
      2      -8.0179      2.00000
      3      -6.5282      2.00000
      4      -6.2682      2.00000
      5      -6.1569      2.00000
      6      -6.1569      2.00000
      7      -5.9914      2.00000
      8      -5.9584      2.00000
      9      -5.9584      2.00000
     10      -5.6128      2.00000
     11      -5.5877      2.00000
     12      -5.5877      2.00000
     13      -5.5026      2.00000
     14      -5.5026      2.00000
     15      -5.5006      2.00000
     16      -4.9043      2.00000
     17      -4.9043      2.00000
     18      -4.8987      2.00000
     19      -4.4937      2.00000
     20      -4.4931      2.00000
     21      -4.4904      2.00000
     22      -4.4903      2.00000
     23      -4.4426      2.00000
     24      -4.3989      2.00000
     25      -4.3816      2.00000
     26      -4.3119      2.00000
     27      -4.3119      2.00000
     28      -4.2540      2.00000
     29      -4.2485      2.00000
     30      -4.2402      2.00000
     31      -4.1553      2.00000
     32      -4.1088      2.00000
     33      -4.0786      2.00000
     34      -4.0518      2.00000
     35      -4.0518      2.00000
     36      -3.6603      2.00000
     37      -3.6603      2.00000
     38      -3.6263      2.00000
     39      -3.6250      2.00000
     40      -3.6178      2.00000
     41      -3.5836      2.00000
     42      -3.5728      2.00000
     43      -3.5728      2.00000
     44      -3.4865      2.00000
     45      -3.3428      2.00000
     46      -3.2145      2.00000
     47      -3.1953      2.00000
     48      -3.1953      2.00000
     49      -3.1741      2.00000
     50      -3.1635      2.00000
     51      -3.1488      2.00000
     52      -3.1487      2.00000
     53      -3.1148      2.00000
     54      -3.1148      2.00000
     55      -3.0958      2.00000
     56      -3.0859      2.00000
     57      -3.0009      2.00000
     58      -3.0009      2.00000
     59      -2.9482      2.00000
     60      -2.9481      2.00000
     61      -2.9424      2.00000
     62      -2.9258      2.00000
     63      -2.8016      2.00000
     64      -2.1470      2.00000
     65      -1.5109      1.04493
     66      -1.5108      1.04458
     67      -1.2981     -0.01138
     68      -1.0548     -0.00000
     69      -0.4681     -0.00000
     70      -0.4680     -0.00000
     71       0.4602     -0.00000
     72       0.4603     -0.00000
     73       0.7401     -0.00000
     74       2.7520      0.00000
     75       3.0749      0.00000
     76       3.0749      0.00000
     77       3.1263      0.00000
     78       3.1546      0.00000
     79       3.4452      0.00000
     80       3.9295      0.00000
     81       3.9295      0.00000
     82       3.9765      0.00000
     83       4.4020      0.00000
     84       4.8489      0.00000
     85       5.2408      0.00000
     86       5.2408      0.00000
     87       5.3561      0.00000
     88       6.5925      0.00000
     89       6.6545      0.00000
     90       6.9906      0.00000
     91       7.1532      0.00000
     92       7.1532      0.00000
     93       8.3417      0.00000
     94       8.4751      0.00000
     95       8.4751      0.00000
     96       9.0514      0.00000

 k-point     3 :       0.2222    0.0000    0.0000
  band No.  band energies     occupation 
      1      -9.6958      2.00000
      2      -7.7499      2.00000
      3      -6.5806      2.00000
      4      -6.3217      2.00000
      5      -6.0956      2.00000
      6      -6.0956      2.00000
      7      -6.0074      2.00000
      8      -5.8665      2.00000
      9      -5.8665      2.00000
     10      -5.5816      2.00000
     11      -5.5206      2.00000
     12      -5.5206      2.00000
     13      -5.3876      2.00000
     14      -5.3611      2.00000
     15      -5.3611      2.00000
     16      -4.9011      2.00000
     17      -4.9011      2.00000
     18      -4.8748      2.00000
     19      -4.6312      2.00000
     20      -4.5008      2.00000
     21      -4.4705      2.00000
     22      -4.4705      2.00000
     23      -4.4653      2.00000
     24      -4.4479      2.00000
     25      -4.4150      2.00000
     26      -4.4150      2.00000
     27      -4.2892      2.00000
     28      -4.2325      2.00000
     29      -4.2244      2.00000
     30      -4.1872      2.00000
     31      -4.1860      2.00000
     32      -4.1722      2.00000
     33      -4.1128      2.00000
     34      -4.1128      2.00000
     35      -4.0115      2.00000
     36      -3.7936      2.00000
     37      -3.7936      2.00000
     38      -3.7589      2.00000
     39      -3.7548      2.00000
     40      -3.6394      2.00000
     41      -3.6206      2.00000
     42      -3.6206      2.00000
     43      -3.5994      2.00000
     44      -3.5884      2.00000
     45      -3.4677      2.00000
     46      -3.4677      2.00000
     47      -3.3788      2.00000
     48      -3.3449      2.00000
     49      -3.3350      2.00000
     50      -3.2664      2.00000
     51      -3.2663      2.00000
     52      -3.2470      2.00000
     53      -3.2038      2.00000
     54      -3.2037      2.00000
     55      -3.1383      2.00000
     56      -3.1034      2.00000
     57      -3.1034      2.00000
     58      -3.0927      2.00000
     59      -3.0565      2.00000
     60      -3.0069      2.00000
     61      -3.0014      2.00000
     62      -3.0014      2.00000
     63      -2.9669      2.00000
     64      -2.4347      2.00000
     65      -2.0411      2.00000
     66      -1.5488      1.62787
     67      -1.5488      1.62770
     68      -0.7332     -0.00000
     69      -0.4673     -0.00000
     70      -0.4673     -0.00000
     71       0.6527     -0.00000
     72       1.2062     -0.00000
     73       1.2062     -0.00000
     74       3.0071      0.00000
     75       3.3277      0.00000
     76       3.3277      0.00000
     77       3.4131      0.00000
     78       3.7136      0.00000
     79       3.7827      0.00000
     80       4.1818      0.00000
     81       4.1818      0.00000
     82       4.3246      0.00000
     83       4.6855      0.00000
     84       5.1017      0.00000
     85       5.6500      0.00000
     86       5.6544      0.00000
     87       5.6544      0.00000
     88       6.8699      0.00000
     89       6.9116      0.00000
     90       7.1042      0.00000
     91       7.2109      0.00000
     92       7.2109      0.00000
     93       7.6714      0.00000
     94       7.8636      0.00000
     95       8.4310      0.00000
     96       8.5870      0.00000

 k-point     4 :       0.3333   -0.0000    0.0000
  band No.  band energies     occupation 
      1      -9.2287      2.00000
      2      -7.3308      2.00000
      3      -7.1530      2.00000
      4      -6.0966      2.00000
      5      -6.0190      2.00000
      6      -6.0089      2.00000
      7      -6.0089      2.00000
      8      -5.7403      2.00000
      9      -5.7403      2.00000
     10      -5.5252      2.00000
     11      -5.4107      2.00000
     12      -5.4107      2.00000
     13      -5.2441      2.00000
     14      -5.1827      2.00000
     15      -5.1827      2.00000
     16      -4.8929      2.00000
     17      -4.8929      2.00000
     18      -4.8537      2.00000
     19      -4.7835      2.00000
     20      -4.6445      2.00000
     21      -4.6445      2.00000
     22      -4.6437      2.00000
     23      -4.4807      2.00000
     24      -4.4726      2.00000
     25      -4.3509      2.00000
     26      -4.3509      2.00000
     27      -4.2944      2.00000
     28      -4.2331      2.00000
     29      -4.2115      2.00000
     30      -4.2115      2.00000
     31      -4.1817      2.00000
     32      -4.1746      2.00000
     33      -4.1658      2.00000
     34      -4.0958      2.00000
     35      -3.9609      2.00000
     36      -3.9578      2.00000
     37      -3.9578      2.00000
     38      -3.9007      2.00000
     39      -3.8595      2.00000
     40      -3.8492      2.00000
     41      -3.8492      2.00000
     42      -3.7459      2.00000
     43      -3.7338      2.00000
     44      -3.6787      2.00000
     45      -3.6787      2.00000
     46      -3.6368      2.00000
     47      -3.6292      2.00000
     48      -3.4302      2.00000
     49      -3.4302      2.00000
     50      -3.3980      2.00000
     51      -3.3612      2.00000
     52      -3.3588      2.00000
     53      -3.3523      2.00000
     54      -3.3106      2.00000
     55      -3.3106      2.00000
     56      -3.2518      2.00000
     57      -3.2186      2.00000
     58      -3.1163      2.00000
     59      -3.1163      2.00000
     60      -3.0880      2.00000
     61      -3.0594      2.00000
     62      -3.0083      2.00000
     63      -3.0083      2.00000
     64      -2.7465      2.00000
     65      -1.9998      2.00000
     66      -1.5533      1.68376
     67      -1.5533      1.68368
     68      -0.4317     -0.00000
     69      -0.4317     -0.00000
     70      -0.1234     -0.00000
     71       0.0152     -0.00000
     72       1.8369      0.00000
     73       1.8369      0.00000
     74       2.9834      0.00000
     75       3.4314      0.00000
     76       3.7264      0.00000
     77       3.7264      0.00000
     78       3.8901      0.00000
     79       4.1628      0.00000
     80       4.9825      0.00000
     81       4.9825      0.00000
     82       5.1574      0.00000
     83       5.4515      0.00000
     84       5.5266      0.00000
     85       5.7997      0.00000
     86       5.7997      0.00000
     87       6.0485      0.00000
     88       6.4907      0.00000
     89       6.6376      0.00000
     90       7.3311      0.00000
     91       7.3432      0.00000
     92       7.6153      0.00000
     93       7.7121      0.00000
     94       7.8266      0.00000
     95       7.8267      0.00000
     96       8.0462      0.00000

 k-point     5 :       0.4444    0.0000    0.0000
  band No.  band energies     occupation 
      1      -8.6069      2.00000
      2      -7.8813      2.00000
      3      -6.8236      2.00000
      4      -6.3624      2.00000
      5      -5.9373      2.00000
      6      -5.9372      2.00000
      7      -5.7058      2.00000
      8      -5.6380      2.00000
      9      -5.6380      2.00000
     10      -5.5258      2.00000
     11      -5.2921      2.00000
     12      -5.2921      2.00000
     13      -5.1167      2.00000
     14      -5.1167      2.00000
     15      -5.0847      2.00000
     16      -4.9326      2.00000
     17      -4.8598      2.00000
     18      -4.8071      2.00000
     19      -4.8071      2.00000
     20      -4.7946      2.00000
     21      -4.7773      2.00000
     22      -4.7773      2.00000
     23      -4.4870      2.00000
     24      -4.4533      2.00000
     25      -4.3723      2.00000
     26      -4.3304      2.00000
     27      -4.3304      2.00000
     28      -4.2416      2.00000
     29      -4.2416      2.00000
     30      -4.2303      2.00000
     31      -4.1904      2.00000
     32      -4.1903      2.00000
     33      -4.1832      2.00000
     34      -4.1378      2.00000
     35      -4.1320      2.00000
     36      -4.1173      2.00000
     37      -4.1032      2.00000
     38      -4.0791      2.00000
     39      -4.0791      2.00000
     40      -4.0210      2.00000
     41      -3.9368      2.00000
     42      -3.7601      2.00000
     43      -3.7559      2.00000
     44      -3.6855      2.00000
     45      -3.6855      2.00000
     46      -3.6674      2.00000
     47      -3.6410      2.00000
     48      -3.5694      2.00000
     49      -3.5650      2.00000
     50      -3.5650      2.00000
     51      -3.4682      2.00000
     52      -3.4420      2.00000
     53      -3.3615      2.00000
     54      -3.3615      2.00000
     55      -3.3586      2.00000
     56      -3.3330      2.00000
     57      -3.2462      2.00000
     58      -3.1172      2.00000
     59      -3.1172      2.00000
     60      -3.0825      2.00000
     61      -3.0754      2.00000
     62      -3.0697      2.00000
     63      -3.0054      2.00000
     64      -3.0054      2.00000
     65      -1.5459      1.59029
     66      -1.5459      1.59026
     67      -1.4878      0.66207
     68      -0.8694     -0.00000
     69      -0.4102     -0.00000
     70      -0.4102     -0.00000
     71       0.8967     -0.00000
     72       1.8936      0.00000
     73       2.0690      0.00000
     74       2.0690      0.00000
     75       4.0236      0.00000
     76       4.5554      0.00000
     77       4.6880      0.00000
     78       4.6880      0.00000
     79       4.7754      0.00000
     80       4.7949      0.00000
     81       5.3635      0.00000
     82       5.3635      0.00000
     83       5.4037      0.00000
     84       5.6088      0.00000
     85       5.8159      0.00000
     86       6.1257      0.00000
     87       6.2523      0.00000
     88       6.2523      0.00000
     89       6.6483      0.00000
     90       6.6483      0.00000
     91       6.6492      0.00000
     92       6.8788      0.00000
     93       7.8587      0.00000
     94       7.8587      0.00000
     95       7.9461      0.00000
     96       7.9720      0.00000

 k-point     6 :       0.2222    0.1111    0.0000
  band No.  band energies     occupation 
      1      -9.7911      2.00000
      2      -7.8379      2.00000
      3      -6.3884      2.00000
      4      -6.3444      2.00000
      5      -6.3444      2.00000
      6      -6.0156      2.00000
      7      -5.9616      2.00000
      8      -5.9616      2.00000
      9      -5.8665      2.00000
     10      -5.5760      2.00000
     11      -5.5760      2.00000
     12      -5.5267      2.00000
     13      -5.4154      2.00000
     14      -5.4154      2.00000
     15      -5.4028      2.00000
     16      -4.9042      2.00000
     17      -4.8905      2.00000
     18      -4.8905      2.00000
     19      -4.5915      2.00000
     20      -4.4693      2.00000
     21      -4.4693      2.00000
     22      -4.4575      2.00000
     23      -4.4568      2.00000
     24      -4.4562      2.00000
     25      -4.4338      2.00000
     26      -4.3182      2.00000
     27      -4.3084      2.00000
     28      -4.3084      2.00000
     29      -4.2241      2.00000
     30      -4.2122      2.00000
     31      -4.1695      2.00000
     32      -4.1184      2.00000
     33      -4.1184      2.00000
     34      -4.0827      2.00000
     35      -4.0412      2.00000
     36      -3.7705      2.00000
     37      -3.7243      2.00000
     38      -3.7243      2.00000
     39      -3.7125      2.00000
     40      -3.6407      2.00000
     41      -3.6054      2.00000
     42      -3.5952      2.00000
     43      -3.5952      2.00000
     44      -3.5472      2.00000
     45      -3.4262      2.00000
     46      -3.3797      2.00000
     47      -3.3171      2.00000
     48      -3.3171      2.00000
     49      -3.2720      2.00000
     50      -3.2353      2.00000
     51      -3.2353      2.00000
     52      -3.2190      2.00000
     53      -3.1656      2.00000
     54      -3.1656      2.00000
     55      -3.1307      2.00000
     56      -3.1296      2.00000
     57      -3.1085      2.00000
     58      -3.0501      2.00000
     59      -3.0501      2.00000
     60      -3.0082      2.00000
     61      -3.0082      2.00000
     62      -3.0044      2.00000
     63      -2.5388      2.00000
     64      -2.3800      2.00000
     65      -2.3800      2.00000
     66      -1.3856     -0.07092
     67      -1.3856     -0.07092
     68      -0.9062     -0.00000
     69      -0.8054     -0.00000
     70       0.0531     -0.00000
     71       0.5853     -0.00000
[...]
     82       5.4404      0.00000
     83       5.7231      0.00000
     84       5.7231      0.00000
     85       5.7843      0.00000
     86       6.2488      0.00000
     87       6.2833      0.00000
     88       6.2833      0.00000
     89       6.7666      0.00000
     90       6.7666      0.00000
     91       6.9084      0.00000
     92       6.9084      0.00000
     93       7.6044      0.00000
     94       7.6081      0.00000
     95       7.6241      0.00000
     96       7.8771      0.00000

 k-point    11 :      -0.4444    0.2222    0.0000
  band No.  band energies     occupation 
      1      -8.3467      2.00000
      2      -7.6390      2.00000
      3      -7.0129      2.00000
      4      -6.6146      2.00000
      5      -6.1886      2.00000
      6      -5.9033      2.00000
      7      -5.5453      2.00000
      8      -5.4842      2.00000
      9      -5.4248      2.00000
     10      -5.3721      2.00000
     11      -5.2452      2.00000
     12      -5.2364      2.00000
     13      -5.1874      2.00000
     14      -5.0806      2.00000
     15      -4.9862      2.00000
     16      -4.9690      2.00000
     17      -4.9665      2.00000
     18      -4.9555      2.00000
     19      -4.8635      2.00000
     20      -4.8127      2.00000
     21      -4.6435      2.00000
     22      -4.6320      2.00000
     23      -4.5981      2.00000
     24      -4.5413      2.00000
     25      -4.5042      2.00000
     26      -4.4484      2.00000
     27      -4.4377      2.00000
     28      -4.4339      2.00000
     29      -4.4017      2.00000
     30      -4.3867      2.00000
     31      -4.2996      2.00000
     32      -4.2188      2.00000
     33      -4.1659      2.00000
     34      -4.1594      2.00000
     35      -4.1573      2.00000
     36      -4.1442      2.00000
     37      -4.0766      2.00000
     38      -4.0489      2.00000
     39      -3.9980      2.00000
     40      -3.9679      2.00000
     41      -3.9018      2.00000
     42      -3.7724      2.00000
     43      -3.6974      2.00000
     44      -3.6853      2.00000
     45      -3.6852      2.00000
     46      -3.6163      2.00000
     47      -3.6156      2.00000
     48      -3.5687      2.00000
     49      -3.5543      2.00000
     50      -3.4764      2.00000
     51      -3.4642      2.00000
     52      -3.4098      2.00000
     53      -3.3674      2.00000
     54      -3.2777      2.00000
     55      -3.2567      2.00000
     56      -3.1925      2.00000
     57      -3.1801      2.00000
     58      -3.1624      2.00000
     59      -3.1596      2.00000
     60      -3.1292      2.00000
     61      -3.1118      2.00000
     62      -3.1108      2.00000
     63      -3.0792      2.00000
     64      -2.8324      2.00000
     65      -2.8139      2.00000
     66      -2.2857      2.00000
     67      -1.2530     -0.00183
     68      -0.6060     -0.00000
     69       0.1113     -0.00000
     70       0.7501     -0.00000
     71       1.2505      0.00000
     72       2.0035      0.00000
     73       2.2219      0.00000
     74       2.5110      0.00000
     75       3.1343      0.00000
     76       3.8922      0.00000
     77       4.2806      0.00000
     78       4.3060      0.00000
     79       4.8407      0.00000
     80       5.0377      0.00000
     81       5.0681      0.00000
     82       5.1929      0.00000
     83       5.6887      0.00000
     84       5.7855      0.00000
     85       5.8849      0.00000
     86       6.0987      0.00000
     87       6.1116      0.00000
     88       6.3878      0.00000
     89       6.5229      0.00000
     90       6.6978      0.00000
     91       6.8413      0.00000
     92       6.9324      0.00000
     93       7.1484      0.00000
     94       7.4245      0.00000
     95       7.8150      0.00000
     96       8.0254      0.00000

 k-point    12 :      -0.3333    0.3333    0.0000
  band No.  band energies     occupation 
      1      -7.7044      2.00000
      2      -7.7044      2.00000
      3      -7.7044      2.00000
      4      -6.1964      2.00000
      5      -6.1964      2.00000
      6      -6.1963      2.00000
      7      -5.3773      2.00000
      8      -5.3059      2.00000
      9      -5.3056      2.00000
     10      -5.2949      2.00000
     11      -5.2949      2.00000
     12      -5.2949      2.00000
     13      -5.1101      2.00000
     14      -5.1100      2.00000
     15      -5.0615      2.00000
     16      -5.0615      2.00000
     17      -5.0615      2.00000
     18      -4.8146      2.00000
     19      -4.8146      2.00000
     20      -4.8146      2.00000
     21      -4.6671      2.00000
     22      -4.6671      2.00000
     23      -4.6671      2.00000
     24      -4.5413      2.00000
     25      -4.5315      2.00000
     26      -4.5315      2.00000
     27      -4.5315      2.00000
     28      -4.4860      2.00000
     29      -4.4860      2.00000
     30      -4.4860      2.00000
     31      -4.2694      2.00000
     32      -4.2689      2.00000
     33      -4.2298      2.00000
     34      -4.2014      2.00000
     35      -4.0720      2.00000
     36      -4.0720      2.00000
     37      -4.0720      2.00000
     38      -4.0532      2.00000
     39      -4.0532      2.00000
     40      -4.0532      2.00000
     41      -3.7944      2.00000
     42      -3.7944      2.00000
     43      -3.7944      2.00000
     44      -3.6251      2.00000
     45      -3.6248      2.00000
     46      -3.5877      2.00000
     47      -3.5877      2.00000
     48      -3.5877      2.00000
     49      -3.5171      2.00000
     50      -3.5171      2.00000
     51      -3.5171      2.00000
     52      -3.2712      2.00000
     53      -3.2712      2.00000
     54      -3.2712      2.00000
     55      -3.2173      2.00000
     56      -3.2170      2.00000
     57      -3.1726      2.00000
     58      -3.1726      2.00000
     59      -3.1726      2.00000
     60      -3.1639      2.00000
     61      -3.1394      2.00000
     62      -3.1394      2.00000
     63      -3.1394      2.00000
     64      -2.8236      2.00000
     65      -2.8236      2.00000
     66      -2.8236      2.00000
     67      -0.6582     -0.00000
     68      -0.6582     -0.00000
     69      -0.6582     -0.00000
     70       2.1247      0.00000
     71       2.1247      0.00000
     72       2.1247      0.00000
     73       2.1273      0.00000
     74       2.1274      0.00000
     75       2.5035      0.00000
     76       3.1620      0.00000
     77       4.5118      0.00000
     78       4.5120      0.00000
     79       4.9606      0.00000
     80       4.9606      0.00000
     81       4.9606      0.00000
     82       5.5969      0.00000
     83       5.5969      0.00000
     84       5.5969      0.00000
     85       5.7965      0.00000
     86       5.7965      0.00000
     87       5.7965      0.00000
     88       6.5053      0.00000
     89       6.5056      0.00000
     90       6.8470      0.00000
     91       6.8470      0.00000
     92       6.8470      0.00000
     93       7.0795      0.00000
     94       7.0795      0.00000
     95       7.0795      0.00000
     96       7.7551      0.00000


--------------------------------------------------------------------------------------------------------


 soft charge-density along one line, spin component           1
         0         1         2         3         4         5         6         7         8         9
 total charge-density along one line
 
 pseudopotential strength for first ion, spin component:           1
 -9.344   0.000   0.000  -0.005   0.000   0.145  -0.000  -0.000
  0.000  -9.302   0.000   0.000  -0.005  -0.000   0.112  -0.000
  0.000   0.000  -9.295   0.000   0.000  -0.000  -0.000   0.106
 -0.005   0.000   0.000  -9.302   0.000   0.004  -0.000  -0.000
  0.000  -0.005   0.000   0.000  -9.344  -0.000   0.004  -0.000
  0.145  -0.000  -0.000   0.004  -0.000   6.886   0.000   0.000
 -0.000   0.112  -0.000  -0.000   0.004   0.000   6.910   0.000
 -0.000  -0.000   0.106  -0.000  -0.000   0.000   0.000   6.915
  0.004  -0.000  -0.000   0.112  -0.000  -0.003  -0.000   0.000
 -0.000   0.004  -0.000  -0.000   0.145   0.000  -0.003   0.000
  0.000  -0.000  -0.008  -0.000   0.000   0.000  -0.000   0.003
  0.000  -0.000  -0.015  -0.000   0.000   0.000  -0.000   0.006
  0.000  -0.009   0.000  -0.000   0.000  -0.000   0.010   0.000
 -0.000   0.000  -0.009   0.000  -0.000  -0.000   0.000   0.009
  0.000  -0.000   0.000  -0.009   0.000  -0.000  -0.000   0.000
  0.000  -0.011  -0.000   0.000   0.000  -0.000   0.012   0.000
  0.000   0.000  -0.010   0.000   0.000  -0.000   0.000   0.011
  0.000   0.000  -0.000  -0.011   0.000  -0.000  -0.000   0.000
 total augmentation occupancy for first ion, spin component:           1
  1.908   0.000  -0.000  -0.006  -0.000  -0.016  -0.000   0.000   0.005   0.000   0.000  -0.000  -0.000  -0.000   0.008   0.000
  0.000   1.928  -0.000   0.000  -0.006  -0.000  -0.031   0.000  -0.000   0.005  -0.000   0.000   0.010  -0.000   0.000  -0.010
 -0.000  -0.000   1.928   0.000   0.000   0.000   0.000  -0.027  -0.000  -0.000  -0.001   0.012   0.000   0.051  -0.000  -0.000
 -0.006   0.000   0.000   1.928  -0.000   0.005  -0.000  -0.000  -0.031   0.000  -0.000  -0.000   0.000  -0.000   0.010  -0.000
 -0.000  -0.006   0.000  -0.000   1.908   0.000   0.005  -0.000   0.000  -0.016  -0.000   0.000   0.008   0.000   0.000  -0.001
 -0.016  -0.000   0.000   0.005   0.000   0.014  -0.000  -0.000   0.000  -0.000   0.000  -0.000  -0.000  -0.000   0.002   0.000
 -0.000  -0.031   0.000  -0.000   0.005  -0.000   0.010   0.000   0.000   0.000  -0.000  -0.000   0.017   0.000   0.000  -0.001
  0.000   0.000  -0.027  -0.000  -0.000  -0.000   0.000   0.013  -0.000   0.000  -0.040   0.002   0.000   0.023  -0.000  -0.000
  0.005  -0.000  -0.000  -0.031   0.000   0.000   0.000  -0.000   0.010   0.000   0.000  -0.000   0.000  -0.000   0.017  -0.000
  0.000   0.005  -0.000   0.000  -0.016   0.000   0.000   0.000   0.000   0.014  -0.000   0.000   0.002   0.000   0.000  -0.000
  0.000  -0.000  -0.001  -0.000  -0.000   0.000   0.000  -0.040   0.000  -0.000   1.691  -0.136  -0.000   0.135  -0.000  -0.000
 -0.000   0.000   0.012   0.000   0.000  -0.000   0.000   0.002  -0.000   0.000  -0.136   0.016  -0.000  -0.023  -0.000   0.000
 -0.000   0.010   0.000   0.000   0.008  -0.000   0.017   0.000   0.000   0.002   0.000   0.000   0.204  -0.000   0.000  -0.013
 -0.000  -0.000   0.051  -0.000   0.000  -0.000   0.000   0.023   0.000   0.000   0.135  -0.023  -0.000   0.126   0.000   0.000
  0.008   0.000  -0.000   0.010   0.000   0.002   0.000  -0.000   0.017   0.000  -0.000   0.000   0.000  -0.000   0.204  -0.000
  0.000  -0.010  -0.000  -0.000  -0.001   0.000  -0.001  -0.000  -0.000  -0.000  -0.000  -0.000  -0.013   0.000  -0.000   0.001
  0.000  -0.000  -0.014   0.000  -0.000   0.000   0.000  -0.001   0.000  -0.000  -0.019   0.002   0.000  -0.009   0.000   0.000
 -0.001  -0.000   0.000  -0.010  -0.000  -0.000  -0.000   0.000  -0.001  -0.000   0.000  -0.000  -0.000   0.000  -0.013   0.000


------------------------ aborting loop because EDIFF is reached ----------------------------------------


 


 total charge     
 
# of ion     s       p       d       tot
----------------------------------------
  1        0.447   0.286   9.188   9.922
  2        0.447   0.286   9.188   9.922
  3        0.447   0.286   9.188   9.922
  4        0.447   0.286   9.188   9.922
  5        0.443   0.369   9.184   9.996
  6        0.443   0.369   9.184   9.996
  7        0.443   0.369   9.184   9.996
  8        0.443   0.369   9.184   9.996
  9        0.447   0.286   9.188   9.922
 10        0.447   0.286   9.188   9.922
 11        0.447   0.286   9.188   9.922
 12        0.447   0.286   9.188   9.922
------------------------------------------------
tot        5.351   3.768 110.242 119.361
 
    CHARGE:  cpu time    0.1719: real time    0.1719
    FORLOC:  cpu time    0.0041: real time    0.0041
    FORNL :  cpu time    1.4305: real time    1.4306
    STRESS:  cpu time    2.2061: real time    2.2063
    FORCOR:  cpu time    0.0228: real time    0.0228
    FORHAR:  cpu time    0.0073: real time    0.0073
    MIXING:  cpu time    0.0019: real time    0.0019
    OFIELD:  cpu time    0.0001: real time    0.0001

  FORCE on cell =-STRESS in cart. coord.  units (eV):
  Direction    XX          YY          ZZ          XY          YZ          ZX
  --------------------------------------------------------------------------------------
  Alpha Z   190.05445   190.05445   190.05445
  Ewald   75295.23962 75295.23961-84021.90108     0.00000     0.00000     0.00000
  Hartree 79384.25086 79384.25086-76601.26383     0.00000     0.00000     0.00000
  E(xc)    -769.92850  -769.92831  -772.01680    -0.00017     0.00000     0.00000
  Local  ************************159251.01924     0.00607    -0.00002    -0.00004
  n-local  -256.53035  -271.05764  -269.36536    -7.03678     0.30160    -0.28814
  augment  1132.41021  1132.41689  1139.69240    -0.00579     0.00003     0.00004
  Kinetic  1070.74195  1072.87294  1083.16420     1.97310    -0.59850     1.02879
  Fock        0.00000     0.00000     0.00000     0.00000     0.00000     0.00000
  -------------------------------------------------------------------------------------
  Total      -4.20405    -4.20405    -0.61677    -0.00000    -0.00000    -0.00000
  in kB     -12.15575   -12.15575    -1.78335    -0.00000    -0.00000    -0.00000
  external pressure =       -8.70 kB  Pullay stress =        0.00 kB


 VOLUME and BASIS-vectors are now :
 -----------------------------------------------------------------------------
  energy-cutoff  :      400.00
  volume of cell :      554.11
      direct lattice vectors                 reciprocal lattice vectors
     5.142080510  0.000000000  0.000000000     0.194473812 -0.112279508  0.000000000
     2.571040260  4.453172350  0.000000000     0.000000000  0.224559016  0.000000000
     0.000000000  0.000000000 24.198491160     0.000000000  0.000000000  0.041324891

  length of vectors
     5.142080510  5.142080513 24.198491160     0.224559016  0.224559016  0.041324891


 FORCES acting on ions
    electron-ion (+dipol)            ewald-force                    non-local-force                 convergence-correction
 -----------------------------------------------------------------------------------------------
   0.271E-07 0.420E-07 0.283E+04   -.112E-05 -.681E-06 -.283E+04   0.347E-17 -.954E-17 -.211E+01   0.121E-08 0.700E-09 -.163E-01
   0.271E-07 0.420E-07 0.283E+04   -.112E-05 -.681E-06 -.283E+04   -.651E-17 0.173E-17 -.211E+01   0.121E-08 0.700E-09 -.163E-01
   0.271E-07 0.420E-07 0.283E+04   -.112E-05 -.681E-06 -.283E+04   -.390E-17 -.260E-17 -.211E+01   0.121E-08 0.700E-09 -.163E-01
   0.271E-07 0.420E-07 0.283E+04   -.112E-05 -.681E-06 -.283E+04   0.130E-17 -.607E-17 -.211E+01   0.121E-08 0.700E-09 -.163E-01
   -.615E-05 -.355E-05 -.163E-02   0.176E-05 0.102E-05 0.568E-13   0.275E-20 0.847E-21 -.610E-19   -.152E-09 -.875E-10 0.270E-04
   -.615E-05 -.355E-05 -.163E-02   0.176E-05 0.102E-05 0.284E-12   -.169E-20 0.106E-20 0.440E-19   -.152E-09 -.875E-10 0.270E-04
   -.615E-05 -.355E-05 -.163E-02   0.176E-05 0.102E-05 0.000E+00   -.424E-21 0.106E-20 -.339E-20   -.152E-09 -.876E-10 0.270E-04
   -.615E-05 -.355E-05 -.163E-02   0.176E-05 0.102E-05 -.114E-12   0.180E-20 -.424E-21 0.813E-19   -.152E-09 -.875E-10 0.270E-04
   0.400E-05 0.228E-05 -.283E+04   -.642E-06 -.338E-06 0.283E+04   0.434E-18 -.607E-17 0.211E+01   -.861E-09 -.498E-09 0.164E-01
   0.400E-05 0.228E-05 -.283E+04   -.642E-06 -.338E-06 0.283E+04   0.434E-18 0.304E-17 0.211E+01   -.861E-09 -.498E-09 0.164E-01
   0.400E-05 0.228E-05 -.283E+04   -.642E-06 -.338E-06 0.283E+04   -.434E-18 0.737E-17 0.211E+01   -.861E-09 -.498E-09 0.164E-01
   0.400E-05 0.228E-05 -.283E+04   -.642E-06 -.338E-06 0.283E+04   0.304E-17 0.260E-17 0.211E+01   -.861E-09 -.498E-09 0.164E-01
 -----------------------------------------------------------------------------------------------
   -.848E-05 -.490E-05 -.113E-01   0.134E-13 -.195E-13 0.000E+00   -.217E-17 -.954E-17 0.222E-14   0.790E-09 0.456E-09 0.263E-03
 
 
 POSITION                                       TOTAL-FORCE (eV/Angst)
 -----------------------------------------------------------------------------------
      1.28552      0.74220     10.03493         0.000000     -0.000000     -0.000809
      3.85656      0.74220     10.03493         0.000000      0.000000     -0.000809
      2.57104      2.96878     10.03493         0.000000     -0.000000     -0.000809
      5.14208      2.96878     10.03493         0.000000      0.000000     -0.000809
      5.14208      1.48439     12.09925        -0.000000      0.000000      0.000000
      2.57104      1.48439     12.09925        -0.000000      0.000000      0.000000
      6.42760      3.71098     12.09925         0.000000     -0.000000      0.000000
      3.85656      3.71098     12.09925         0.000000      0.000000      0.000000
      0.00000      0.00000     14.16356        -0.000000     -0.000000      0.000809
      2.57104      0.00000     14.16356        -0.000000      0.000000      0.000809
      1.28552      2.22659     14.16356        -0.000000      0.000000      0.000809
      3.85656      2.22659     14.16356        -0.000000     -0.000000      0.000809
 -----------------------------------------------------------------------------------
    total drift:                               -0.000008     -0.000005     -0.011035


--------------------------------------------------------------------------------------------------------



  FREE ENERGIE OF THE ION-ELECTRON SYSTEM (eV)
  ---------------------------------------------------
  free  energy   TOTEN  =       -40.95034089 eV

  energy  without entropy=      -40.93271778  energy(sigma->0) =      -40.94446652
 


--------------------------------------------------------------------------------------------------------


    POTLOK:  cpu time    0.0269: real time    0.0269


--------------------------------------------------------------------------------------------------------


     LOOP+:  cpu time   58.2881: real time   58.4831
    4ORBIT:  cpu time    0.0000: real time    0.0000
 


 total charge     
 
# of ion     s       p       d       tot
----------------------------------------
  1        0.447   0.286   9.188   9.922
  2        0.447   0.286   9.188   9.922
  3        0.447   0.286   9.188   9.922
  4        0.447   0.286   9.188   9.922
  5        0.443   0.369   9.184   9.996
  6        0.443   0.369   9.184   9.996
  7        0.443   0.369   9.184   9.996
  8        0.443   0.369   9.184   9.996
  9        0.447   0.286   9.188   9.922
 10        0.447   0.286   9.188   9.922
 11        0.447   0.286   9.188   9.922
 12        0.447   0.286   9.188   9.922
------------------------------------------------
tot        5.351   3.768 110.242 119.361
 

 total amount of memory used by VASP on root node    65043. kBytes
========================================================================

   base      :      30000. kBytes
   nonl-proj :      19491. kBytes
   fftplans  :       1683. kBytes
   grid      :       5721. kBytes
   one-center:        186. kBytes
   wavefun   :       7962. kBytes
 
  
  
 General timing and accounting informations for this job:
 ========================================================
  
                  Total CPU time used (sec):       60.413
                            User time (sec):       58.909
                          System time (sec):        1.504
                         Elapsed time (sec):       62.315
  
                   Maximum memory used (kb):       85312.
                   Average memory used (kb):           0.
  
                          Minor page faults:       135698
                          Major page faults:          118
                 Voluntary context switches:         2443
