PROCAR new format
# of k-points:   12         # of bands:  96         # of ions:  12

 k-point    1 :    0.00000000 0.00000000 0.00000000     weight = 0.01234568

band   1 # energy  -10.08076176 # occ.  2.00000000
 
ion      s      p      d    tot
  1  0.030  0.003  0.000  0.033
  2  0.030  0.003  0.000  0.033
  3  0.030  0.003  0.000  0.033
  4  0.030  0.003  0.000  0.033
  5  0.078  0.000  0.000  0.078
  6  0.078  0.000  0.000  0.078
  7  0.078  0.000  0.000  0.078
  8  0.078  0.000  0.000  0.078
  9  0.030  0.003  0.000  0.033
 10  0.030  0.003  0.000  0.033
 11  0.030  0.003  0.000  0.033
 12  0.030  0.003  0.000  0.033
tot  0.555  0.023  0.002  0.581
 
band   2 # energy   -8.10946832 # occ.  2.00000000
 
ion      s      p      d    tot
  1  0.057  0.000  0.008  0.065
  2  0.057  0.000  0.008  0.065
  3  0.057  0.000  0.008  0.065
  4  0.057  0.000  0.008  0.065
  5  0.000  0.015  0.000  0.015
  6  0.000  0.015  0.000  0.015
  7  0.000  0.015  0.000  0.015
  8  0.000  0.015  0.000  0.015
  9  0.057  0.000  0.008  0.065
 10  0.057  0.000  0.008  0.065
 11  0.057  0.000  0.008  0.065
 12  0.057  0.000  0.008  0.065
tot  0.457  0.062  0.063  0.582
 
band   3 # energy   -6.60058769 # occ.  2.00000000
 
ion      s      p      d    tot
  1  0.017  0.002  0.031  0.049
  2  0.017  0.002  0.031  0.049
  3  0.017  0.002  0.031  0.049
  4  0.017  0.002  0.031  0.049
  5  0.022  0.000  0.070  0.091
  6  0.022  0.000  0.070  0.091
  7  0.022  0.000  0.070  0.091
  8  0.022  0.000  0.070  0.091
  9  0.017  0.002  0.031  0.049
 10  0.017  0.002  0.031  0.049
 11  0.017  0.002  0.031  0.049
 12  0.017  0.002  0.031  0.049
tot  0.220  0.012  0.524  0.756
 
band   4 # energy   -6.17836299 # occ.  2.00000000
 
ion      s      p      d    tot
  1  0.002  0.003  0.027  0.032
  2  0.002  0.003  0.027  0.032
  3  0.002  0.003  0.027  0.032
  4  0.002  0.003  0.027  0.032
  5  0.023  0.000  0.121  0.144
  6  0.023  0.000  0.121  0.144
  7  0.023  0.000  0.121  0.144
  8  0.023  0.000  0.121  0.144
  9  0.002  0.003  0.027  0.032
 10  0.002  0.003  0.027  0.032
 11  0.002  0.003  0.027  0.032
 12  0.002  0.003  0.027  0.032
tot  0.113  0.021  0.695  0.828
 
band   5 # energy   -6.17834896 # occ.  2.00000000
 
ion      s      p      d    tot
  1  0.004  0.002  0.020  0.026
  2  0.001  0.003  0.033  0.037
  3  0.001  0.003  0.033  0.037
  4  0.004  0.002  0.020  0.026
  5  0.006  0.000  0.161  0.168
  6  0.040  0.000  0.080  0.120
  7  0.040  0.000  0.080  0.120
  8  0.006  0.000  0.161  0.168
  9  0.004  0.002  0.020  0.026
 10  0.001  0.003  0.033  0.037
 11  0.001  0.003  0.033  0.037
 12  0.004  0.002  0.020  0.026
tot  0.113  0.021  0.695  0.828
 
band   6 # energy   -6.17834896 # occ.  2.00000000
 
ion      s      p      d    tot
  1  0.001  0.003  0.033  0.037
  2  0.004  0.002  0.020  0.026
  3  0.004  0.002  0.020  0.026
  4  0.001  0.003  0.033  0.037
  5  0.040  0.000  0.080  0.120
  6  0.006  0.000  0.161  0.168
  7  0.006  0.000  0.161  0.168
  8  0.040  0.000  0.080  0.120
  9  0.001  0.003  0.033  0.037
 10  0.004  0.002  0.020  0.026
 11  0.004  0.002  0.020  0.026
 12  0.001  0.003  0.033  0.037
tot  0.113  0.021  0.695  0.828
 
band   7 # energy   -5.99114353 # occ.  2.00000000
 
ion      s      p      d    tot
  1  0.007  0.001  0.046  0.054
  2  0.007  0.001  0.046  0.054
  3  0.007  0.001  0.046  0.054
  4  0.007  0.001  0.046  0.054
  5  0.000  0.000  0.104  0.104
  6  0.000  0.000  0.104  0.104
  7  0.000  0.000  0.104  0.104
  8  0.000  0.000  0.104  0.104
  9  0.007  0.001  0.046  0.054
 10  0.007  0.001  0.046  0.054
 11  0.007  0.001  0.046  0.054
 12  0.007  0.001  0.046  0.054
tot  0.054  0.009  0.781  0.845
 
band   8 # energy   -5.99113589 # occ.  2.00000000
 
ion      s      p      d    tot
  1  0.007  0.001  0.046  0.054
  2  0.007  0.001  0.046  0.054
  3  0.007  0.001  0.046  0.054
  4  0.007  0.001  0.046  0.054
  5  0.000  0.000  0.103  0.103
  6  0.000  0.000  0.104  0.104
  7  0.000  0.000  0.104  0.104
  8  0.000  0.000  0.103  0.103
  9  0.007  0.001  0.046  0.054
 10  0.007  0.001  0.046  0.054
 11  0.007  0.001  0.046  0.054
 12  0.007  0.001  0.046  0.054
tot  0.054  0.009  0.781  0.845
 
band   9 # energy   -5.99113589 # occ.  2.00000000
 
ion      s      p      d    tot
  1  0.007  0.001  0.046  0.054
  2  0.007  0.001  0.046  0.054
  3  0.007  0.001  0.046  0.054
  4  0.007  0.001  0.046  0.054
  5  0.000  0.000  0.104  0.104
  6  0.000  0.000  0.103  0.103
  7  0.000  0.000  0.103  0.103
  8  0.000  0.000  0.104  0.104
  9  0.007  0.001  0.046  0.054
 10  0.007  0.001  0.046  0.054
 11  0.007  0.001  0.046  0.054
 12  0.007  0.001  0.046  0.054
tot  0.054  0.009  0.781  0.845
 
band  10 # energy   -5.60488003 # occ.  2.00000000
 
ion      s      p      d    tot
  1  0.000  0.001  0.054  0.056
  2  0.000  0.001  0.054  0.056
  3  0.000  0.001  0.054  0.056
  4  0.000  0.001  0.054  0.056
  5  0.000  0.000  0.114  0.115
  6  0.000  0.000  0.114  0.114
  7  0.000  0.000  0.114  0.114
  8  0.000  0.000  0.114  0.115
  9  0.000  0.001  0.055  0.056
 10  0.000  0.001  0.055  0.056
 11  0.000  0.001  0.055  0.056
 12  0.000  0.001  0.055  0.056
tot  0.002  0.010  0.892  0.905
 
band  11 # energy   -5.60488002 # occ.  2.00000000
 
ion      s      p      d    tot
  1  0.000  0.001  0.054  0.056
  2  0.000  0.001  0.054  0.056
  3  0.000  0.001  0.054  0.056
  4  0.000  0.001  0.054  0.056
  5  0.000  0.000  0.114  0.114
  6  0.000  0.000  0.114  0.115
  7  0.000  0.000  0.114  0.115
  8  0.000  0.000  0.114  0.114
  9  0.000  0.001  0.055  0.056
 10  0.000  0.001  0.055  0.056
 11  0.000  0.001  0.055  0.056
 12  0.000  0.001  0.055  0.056
tot  0.002  0.010  0.892  0.905
 
band  12 # energy   -5.60487784 # occ.  2.00000000
 
ion      s      p      d    tot
  1  0.000  0.001  0.054  0.056
  2  0.000  0.001  0.054  0.056
  3  0.000  0.001  0.054  0.056
  4  0.000  0.001  0.054  0.056
  5  0.000  0.000  0.114  0.115
  6  0.000  0.000  0.114  0.115
  7  0.000  0.000  0.114  0.115
  8  0.000  0.000  0.114  0.115
  9  0.000  0.001  0.055  0.056
 10  0.000  0.001  0.055  0.056
 11  0.000  0.001  0.055  0.056
 12  0.000  0.001  0.055  0.056
tot  0.002  0.010  0.892  0.905
 
band  13 # energy   -5.55916365 # occ.  2.00000000
 
ion      s      p      d    tot
  1  0.008  0.000  0.097  0.105
  2  0.008  0.000  0.097  0.105
  3  0.008  0.000  0.097  0.105
  4  0.008  0.000  0.097  0.105
  5  0.000  0.005  0.000  0.005
  6  0.000  0.005  0.000  0.005
  7  0.000  0.005  0.000  0.005
  8  0.000  0.005  0.000  0.005
  9  0.008  0.000  0.096  0.104
 10  0.008  0.000  0.096  0.104
 11  0.008  0.000  0.096  0.104
 12  0.008  0.000  0.096  0.104
tot  0.061  0.021  0.774  0.857
 
band  14 # energy   -5.55915269 # occ.  2.00000000
 
ion      s      p      d    tot
  1  0.008  0.000  0.097  0.105
  2  0.008  0.000  0.097  0.105
  3  0.008  0.000  0.097  0.105
  4  0.008  0.000  0.097  0.105
  5  0.000  0.005  0.000  0.005
  6  0.000  0.005  0.000  0.005
  7  0.000  0.005  0.000  0.005
  8  0.000  0.005  0.000  0.005
  9  0.008  0.000  0.096  0.104
 10  0.008  0.000  0.096  0.104
 11  0.008  0.000  0.096  0.104
 12  0.008  0.000  0.096  0.104
tot  0.061  0.021  0.774  0.857
 
band  15 # energy   -5.55915268 # occ.  2.00000000
 
ion      s      p      d    tot
  1  0.008  0.000  0.097  0.105
  2  0.008  0.000  0.097  0.105
  3  0.008  0.000  0.097  0.105
  4  0.008  0.000  0.097  0.105
  5  0.000  0.005  0.000  0.005
  6  0.000  0.005  0.000  0.005
  7  0.000  0.005  0.000  0.005
  8  0.000  0.005  0.000  0.005
  9  0.008  0.000  0.096  0.104
 10  0.008  0.000  0.096  0.104
 11  0.008  0.000  0.096  0.104
 12  0.008  0.000  0.096  0.104
tot  0.061  0.021  0.774  0.857
 
band  16 # energy   -4.90753258 # occ.  2.00000000
 
ion      s      p      d    tot
  1  0.000  0.001  0.103  0.104
  2  0.000  0.001  0.103  0.104
  3  0.000  0.001  0.103  0.104
  4  0.000  0.001  0.103  0.104
  5  0.000  0.011  0.000  0.011
  6  0.000  0.011  0.000  0.011
  7  0.000  0.011  0.000  0.011
  8  0.000  0.011  0.000  0.011
  9  0.000  0.001  0.103  0.104
 10  0.000  0.001  0.103  0.104
 11  0.000  0.001  0.103  0.104
 12  0.000  0.001  0.103  0.104
tot  0.001  0.052  0.821  0.873
 
band  17 # energy   -4.90753258 # occ.  2.00000000
 
ion      s      p      d    tot
  1  0.000  0.001  0.103  0.104
  2  0.000  0.001  0.103  0.104
  3  0.000  0.001  0.103  0.104
  4  0.000  0.001  0.103  0.104
  5  0.000  0.011  0.000  0.011
  6  0.000  0.011  0.000  0.011
  7  0.000  0.011  0.000  0.011
  8  0.000  0.011  0.000  0.011
  9  0.000  0.001  0.103  0.104
 10  0.000  0.001  0.103  0.104
 11  0.000  0.001  0.103  0.104
 12  0.000  0.001  0.103  0.104
tot  0.001  0.052  0.821  0.873
 
band  18 # energy   -4.90752905 # occ.  2.00000000
 
ion      s      p      d    tot
  1  0.000  0.001  0.103  0.104
  2  0.000  0.001  0.103  0.104
  3  0.000  0.001  0.103  0.104
  4  0.000  0.001  0.103  0.104
  5  0.000  0.011  0.000  0.011
  6  0.000  0.011  0.000  0.011
  7  0.000  0.011  0.000  0.011
  8  0.000  0.011  0.000  0.011
  9  0.000  0.001  0.103  0.104
 10  0.000  0.001  0.103  0.104
 11  0.000  0.001  0.103  0.104
 12  0.000  0.001  0.103  0.104
tot  0.001  0.052  0.821  0.873
 
band  19 # energy   -4.50744856 # occ.  2.00000000
 
ion      s      p      d    tot
  1  0.000  0.000  0.061  0.062
  2  0.000  0.000  0.061  0.062
  3  0.000  0.000  0.061  0.062
  4  0.000  0.000  0.061  0.062
  5  0.000  0.000  0.113  0.114
  6  0.000  0.000  0.113  0.114
  7  0.000  0.000  0.113  0.114
  8  0.000  0.000  0.113  0.114
  9  0.000  0.000  0.061  0.062
 10  0.000  0.000  0.061  0.062
 11  0.000  0.000  0.061  0.062
 12  0.000  0.000  0.061  0.062
tot  0.001  0.002  0.945  0.948
 
band  20 # energy   -4.50744856 # occ.  2.00000000
 
ion      s      p      d    tot
  1  0.000  0.000  0.061  0.062
  2  0.000  0.000  0.061  0.062
  3  0.000  0.000  0.061  0.062
  4  0.000  0.000  0.061  0.062
  5  0.000  0.000  0.113  0.114
  6  0.000  0.000  0.113  0.114
  7  0.000  0.000  0.113  0.114
  8  0.000  0.000  0.113  0.114
  9  0.000  0.000  0.061  0.062
 10  0.000  0.000  0.061  0.062
 11  0.000  0.000  0.061  0.062
 12  0.000  0.000  0.061  0.062
tot  0.001  0.002  0.945  0.948
 
band  21 # energy   -4.50744365 # occ.  2.00000000
 
ion      s      p      d    tot
  1  0.000  0.000  0.061  0.062
  2  0.000  0.000  0.061  0.062
  3  0.000  0.000  0.061  0.062
  4  0.000  0.000  0.061  0.062
  5  0.000  0.000  0.113  0.114
  6  0.000  0.000  0.113  0.114
  7  0.000  0.000  0.113  0.114
  8  0.000  0.000  0.113  0.114
  9  0.000  0.000  0.061  0.062
 10  0.000  0.000  0.061  0.062
 11  0.000  0.000  0.061  0.062
 12  0.000  0.000  0.061  0.062
tot  0.001  0.002  0.945  0.948
 
band  22 # energy   -4.43934609 # occ.  2.00000000
 
ion      s      p      d    tot
  1  0.000  0.001  0.052  0.053
  2  0.000  0.001  0.052  0.053
  3  0.000  0.001  0.052  0.053
  4  0.000  0.001  0.052  0.053
  5  0.001  0.000  0.131  0.132
  6  0.001  0.000  0.131  0.132
  7  0.001  0.000  0.131  0.132
  8  0.001  0.000  0.131  0.132
  9  0.000  0.001  0.053  0.054
 10  0.000  0.001  0.053  0.054
 11  0.000  0.001  0.053  0.054
 12  0.000  0.001  0.053  0.054
tot  0.004  0.009  0.941  0.954
 
band  23 # energy   -4.41420461 # occ.  2.00000000
 
ion      s      p      d    tot
  1  0.000  0.000  0.014  0.014
  2  0.000  0.000  0.014  0.014
  3  0.000  0.000  0.014  0.014
  4  0.000  0.000  0.014  0.014
  5  0.000  0.000  0.213  0.213
  6  0.000  0.000  0.213  0.213
  7  0.000  0.000  0.213  0.213
  8  0.000  0.000  0.213  0.213
  9  0.000  0.000  0.014  0.014
 10  0.000  0.000  0.014  0.014
 11  0.000  0.000  0.014  0.014
 12  0.000  0.000  0.014  0.014
tot  0.000  0.000  0.962  0.962
 
band  24 # energy   -4.41420084 # occ.  2.00000000
 
ion      s      p      d    tot
  1  0.000  0.000  0.014  0.014
  2  0.000  0.000  0.014  0.014
  3  0.000  0.000  0.014  0.014
  4  0.000  0.000  0.014  0.014
  5  0.000  0.000  0.213  0.213
  6  0.000  0.000  0.213  0.213
  7  0.000  0.000  0.213  0.213
  8  0.000  0.000  0.213  0.213
  9  0.000  0.000  0.014  0.014
 10  0.000  0.000  0.014  0.014
 11  0.000  0.000  0.014  0.014
 12  0.000  0.000  0.014  0.014
tot  0.000  0.000  0.962  0.962
 
band  25 # energy   -4.37718970 # occ.  2.00000000
 
ion      s      p      d    tot
  1  0.002  0.001  0.106  0.109
  2  0.002  0.001  0.106  0.109
  3  0.002  0.001  0.106  0.109
  4  0.002  0.001  0.106  0.109
  5  0.000  0.008  0.000  0.008
  6  0.000  0.008  0.000  0.008
  7  0.000  0.008  0.000  0.008
  8  0.000  0.008  0.000  0.008
  9  0.002  0.001  0.106  0.108
 10  0.002  0.001  0.106  0.108
 11  0.002  0.001  0.106  0.108
 12  0.002  0.001  0.106  0.108
tot  0.014  0.037  0.849  0.900
 
band  26 # energy   -4.27191998 # occ.  2.00000000
 
ion      s      p      d    tot
  1  0.000  0.000  0.093  0.093
  2  0.000  0.000  0.093  0.093
  3  0.000  0.000  0.093  0.093
  4  0.000  0.000  0.093  0.093
  5  0.000  0.000  0.054  0.054
  6  0.000  0.000  0.054  0.054
  7  0.000  0.000  0.054  0.054
  8  0.000  0.000  0.054  0.054
  9  0.000  0.000  0.094  0.094
 10  0.000  0.000  0.094  0.094
 11  0.000  0.000  0.094  0.094
 12  0.000  0.000  0.094  0.094
tot  0.000  0.000  0.965  0.965
 
band  27 # energy   -4.27191713 # occ.  2.00000000
 
ion      s      p      d    tot
  1  0.000  0.000  0.093  0.093
  2  0.000  0.000  0.093  0.093
  3  0.000  0.000  0.093  0.093
  4  0.000  0.000  0.093  0.093
  5  0.000  0.000  0.054  0.054
  6  0.000  0.000  0.054  0.054
  7  0.000  0.000  0.054  0.054
  8  0.000  0.000  0.054  0.054
  9  0.000  0.000  0.094  0.094
 10  0.000  0.000  0.094  0.094
 11  0.000  0.000  0.094  0.094
 12  0.000  0.000  0.094  0.094
tot  0.000  0.000  0.965  0.965
 
band  28 # energy   -4.26445817 # occ.  2.00000000
 
ion      s      p      d    tot
  1  0.000  0.000  0.044  0.045
  2  0.000  0.000  0.044  0.045
  3  0.000  0.000  0.044  0.045
  4  0.000  0.000  0.044  0.045
  5  0.000  0.000  0.151  0.151
  6  0.000  0.000  0.152  0.152
  7  0.000  0.000  0.152  0.152
  8  0.000  0.000  0.151  0.151
  9  0.000  0.000  0.044  0.045
 10  0.000  0.000  0.044  0.045
 11  0.000  0.000  0.044  0.045
 12  0.000  0.000  0.044  0.045
tot  0.000  0.002  0.961  0.963
 
band  29 # energy   -4.26445817 # occ.  2.00000000
 
ion      s      p      d    tot
  1  0.000  0.000  0.044  0.045
  2  0.000  0.000  0.044  0.045
  3  0.000  0.000  0.044  0.045
  4  0.000  0.000  0.044  0.045
  5  0.000  0.000  0.152  0.152
  6  0.000  0.000  0.151  0.151
  7  0.000  0.000  0.151  0.151
  8  0.000  0.000  0.152  0.152
  9  0.000  0.000  0.044  0.045
 10  0.000  0.000  0.044  0.045
 11  0.000  0.000  0.044  0.045
 12  0.000  0.000  0.044  0.045
tot  0.000  0.002  0.961  0.963
 
band  30 # energy   -4.26445582 # occ.  2.00000000
 
ion      s      p      d    tot
  1  0.000  0.000  0.044  0.045
  2  0.000  0.000  0.044  0.045
  3  0.000  0.000  0.044  0.045
  4  0.000  0.000  0.044  0.045
  5  0.000  0.000  0.152  0.152
  6  0.000  0.000  0.152  0.152
  7  0.000  0.000  0.152  0.152
  8  0.000  0.000  0.152  0.152
  9  0.000  0.000  0.044  0.045
 10  0.000  0.000  0.044  0.045
 11  0.000  0.000  0.044  0.045
 12  0.000  0.000  0.044  0.045
tot  0.000  0.002  0.961  0.963
 
band  31 # energy   -4.14220189 # occ.  2.00000000
 
ion      s      p      d    tot
  1  0.000  0.000  0.121  0.121
  2  0.000  0.000  0.121  0.121
  3  0.000  0.000  0.121  0.121
  4  0.000  0.000  0.121  0.121
  5  0.000  0.000  0.000  0.000
  6  0.000  0.000  0.000  0.000
  7  0.000  0.000  0.000  0.000
  8  0.000  0.000  0.000  0.000
  9  0.000  0.000  0.120  0.120
 10  0.000  0.000  0.120  0.120
 11  0.000  0.000  0.120  0.120
 12  0.000  0.000  0.120  0.120
tot  0.000  0.000  0.966  0.967
 
band  32 # energy   -4.14219683 # occ.  2.00000000
 
ion      s      p      d    tot
  1  0.000  0.000  0.121  0.121
  2  0.000  0.000  0.121  0.121
  3  0.000  0.000  0.121  0.121
  4  0.000  0.000  0.121  0.121
  5  0.000  0.000  0.000  0.000
  6  0.000  0.000  0.000  0.000
  7  0.000  0.000  0.000  0.000
  8  0.000  0.000  0.000  0.000
  9  0.000  0.000  0.120  0.120
 10  0.000  0.000  0.120  0.120
 11  0.000  0.000  0.120  0.120
 12  0.000  0.000  0.120  0.120
tot  0.000  0.000  0.966  0.967
 
band  33 # energy   -4.03311162 # occ.  2.00000000
 
ion      s      p      d    tot
  1  0.003  0.001  0.102  0.106
  2  0.003  0.001  0.102  0.106
  3  0.003  0.001  0.102  0.106
  4  0.003  0.001  0.102  0.106
  5  0.000  0.014  0.000  0.014
  6  0.000  0.014  0.000  0.014
  7  0.000  0.014  0.000  0.014
  8  0.000  0.014  0.000  0.014
  9  0.003  0.001  0.102  0.106
 10  0.003  0.001  0.102  0.106
 11  0.003  0.001  0.102  0.106
 12  0.003  0.001  0.102  0.106
tot  0.024  0.062  0.816  0.902
 
band  34 # energy   -4.03311162 # occ.  2.00000000
 
ion      s      p      d    tot
  1  0.003  0.001  0.102  0.106
  2  0.003  0.001  0.102  0.106
  3  0.003  0.001  0.102  0.106
  4  0.003  0.001  0.102  0.106
  5  0.000  0.014  0.000  0.014
  6  0.000  0.014  0.000  0.014
  7  0.000  0.014  0.000  0.014
  8  0.000  0.014  0.000  0.014
  9  0.003  0.001  0.102  0.106
 10  0.003  0.001  0.102  0.106
 11  0.003  0.001  0.102  0.106
 12  0.003  0.001  0.102  0.106
tot  0.024  0.062  0.816  0.902
 
band  35 # energy   -4.03310812 # occ.  2.00000000
 
ion      s      p      d    tot
  1  0.003  0.001  0.102  0.106
  2  0.003  0.001  0.102  0.106
  3  0.003  0.001  0.102  0.106
  4  0.003  0.001  0.102  0.106
  5  0.000  0.014  0.000  0.014
  6  0.000  0.014  0.000  0.014
  7  0.000  0.014  0.000  0.014
  8  0.000  0.014  0.000  0.014
  9  0.003  0.001  0.102  0.106
 10  0.003  0.001  0.102  0.106
 11  0.003  0.001  0.102  0.106
 12  0.003  0.001  0.102  0.106
tot  0.024  0.062  0.816  0.902
 
band  36 # energy   -3.60664008 # occ.  2.00000000
 
ion      s      p      d    tot
  1  0.000  0.000  0.050  0.050
  2  0.000  0.000  0.050  0.050
  3  0.000  0.000  0.050  0.050
  4  0.000  0.000  0.050  0.050
  5  0.000  0.000  0.146  0.146
  6  0.000  0.000  0.146  0.146
  7  0.000  0.000  0.146  0.146
  8  0.000  0.000  0.146  0.146
  9  0.000  0.000  0.050  0.050
 10  0.000  0.000  0.050  0.050
 11  0.000  0.000  0.050  0.050
 12  0.000  0.000  0.050  0.050
tot  0.000  0.000  0.985  0.985
 
band  37 # energy   -3.60663953 # occ.  2.00000000
 
ion      s      p      d    tot
  1  0.000  0.000  0.050  0.050
  2  0.000  0.000  0.050  0.050
  3  0.000  0.000  0.050  0.050
  4  0.000  0.000  0.050  0.050
  5  0.000  0.000  0.146  0.146
  6  0.000  0.000  0.146  0.146
  7  0.000  0.000  0.146  0.146
  8  0.000  0.000  0.146  0.146
  9  0.000  0.000  0.050  0.050
 10  0.000  0.000  0.050  0.050
 11  0.000  0.000  0.050  0.050
 12  0.000  0.000  0.050  0.050
tot  0.000  0.000  0.985  0.985
 
band  38 # energy   -3.58425213 # occ.  2.00000000
 
ion      s      p      d    tot
  1  0.000  0.000  0.121  0.121
  2  0.000  0.000  0.121  0.121
  3  0.000  0.000  0.121  0.121
  4  0.000  0.000  0.121  0.121
  5  0.000  0.001  0.000  0.001
  6  0.000  0.001  0.000  0.001
  7  0.000  0.001  0.000  0.001
  8  0.000  0.001  0.000  0.001
  9  0.000  0.000  0.122  0.122
 10  0.000  0.000  0.122  0.122
 11  0.000  0.000  0.122  0.122
 12  0.000  0.000  0.122  0.122
tot  0.000  0.003  0.972  0.974
 
band  39 # energy   -3.58425212 # occ.  2.00000000
 
ion      s      p      d    tot
  1  0.000  0.000  0.121  0.121
  2  0.000  0.000  0.121  0.121
  3  0.000  0.000  0.121  0.121
  4  0.000  0.000  0.121  0.121
  5  0.000  0.001  0.000  0.001
  6  0.000  0.001  0.000  0.001
  7  0.000  0.001  0.000  0.001
  8  0.000  0.001  0.000  0.001
  9  0.000  0.000  0.122  0.122
 10  0.000  0.000  0.122  0.122
 11  0.000  0.000  0.122  0.122
 12  0.000  0.000  0.122  0.122
tot  0.000  0.003  0.972  0.974
 
band  40 # energy   -3.58424994 # occ.  2.00000000
 
ion      s      p      d    tot
  1  0.000  0.000  0.121  0.121
  2  0.000  0.000  0.121  0.121
  3  0.000  0.000  0.121  0.121
  4  0.000  0.000  0.121  0.121
  5  0.000  0.001  0.000  0.001
  6  0.000  0.001  0.000  0.001
  7  0.000  0.001  0.000  0.001
  8  0.000  0.001  0.000  0.001
  9  0.000  0.000  0.122  0.122
 10  0.000  0.000  0.122  0.122
 11  0.000  0.000  0.122  0.122
 12  0.000  0.000  0.122  0.122
tot  0.000  0.003  0.972  0.974
 
band  41 # energy   -3.58245362 # occ.  2.00000000
 
ion      s      p      d    tot
  1  0.000  0.005  0.052  0.057
  2  0.000  0.005  0.052  0.057
  3  0.000  0.005  0.052  0.057
  4  0.000  0.005  0.052  0.057
  5  0.001  0.000  0.116  0.117
  6  0.001  0.000  0.117  0.118
  7  0.001  0.000  0.117  0.118
  8  0.001  0.000  0.116  0.117
  9  0.000  0.005  0.052  0.057
 10  0.000  0.005  0.052  0.057
 11  0.000  0.005  0.052  0.057
 12  0.000  0.005  0.052  0.057
tot  0.003  0.040  0.883  0.925
 
band  42 # energy   -3.58245362 # occ.  2.00000000
 
ion      s      p      d    tot
  1  0.000  0.005  0.052  0.057
  2  0.000  0.005  0.052  0.057
  3  0.000  0.005  0.052  0.057
  4  0.000  0.005  0.052  0.057
  5  0.001  0.000  0.117  0.118
  6  0.001  0.000  0.116  0.117
  7  0.001  0.000  0.116  0.117
  8  0.001  0.000  0.117  0.118
  9  0.000  0.005  0.052  0.057
 10  0.000  0.005  0.052  0.057
 11  0.000  0.005  0.052  0.057
 12  0.000  0.005  0.052  0.057
tot  0.003  0.040  0.883  0.925
 
band  43 # energy   -3.58245239 # occ.  2.00000000
 
ion      s      p      d    tot
  1  0.000  0.005  0.052  0.057
  2  0.000  0.005  0.052  0.057
  3  0.000  0.005  0.052  0.057
  4  0.000  0.005  0.052  0.057
  5  0.001  0.000  0.117  0.118
  6  0.001  0.000  0.117  0.118
  7  0.001  0.000  0.117  0.118
  8  0.001  0.000  0.117  0.118
  9  0.000  0.005  0.052  0.057
 10  0.000  0.005  0.052  0.057
 11  0.000  0.005  0.052  0.057
 12  0.000  0.005  0.052  0.057
tot  0.003  0.040  0.883  0.925
 
band  44 # energy   -3.34325761 # occ.  2.00000000
 
ion      s      p      d    tot
  1  0.000  0.000  0.123  0.123
  2  0.000  0.000  0.123  0.123
  3  0.000  0.000  0.123  0.123
  4  0.000  0.000  0.123  0.123
  5  0.000  0.000  0.000  0.000
  6  0.000  0.000  0.000  0.000
  7  0.000  0.000  0.000  0.000
  8  0.000  0.000  0.000  0.000
  9  0.000  0.000  0.123  0.123
 10  0.000  0.000  0.123  0.123
 11  0.000  0.000  0.123  0.123
 12  0.000  0.000  0.123  0.123
tot  0.000  0.000  0.984  0.985
 
band  45 # energy   -3.34325548 # occ.  2.00000000
 
ion      s      p      d    tot
  1  0.000  0.000  0.123  0.123
  2  0.000  0.000  0.123  0.123
  3  0.000  0.000  0.123  0.123
  4  0.000  0.000  0.123  0.123
  5  0.000  0.000  0.000  0.000
  6  0.000  0.000  0.000  0.000
  7  0.000  0.000  0.000  0.000
  8  0.000  0.000  0.000  0.000
  9  0.000  0.000  0.123  0.123
 10  0.000  0.000  0.123  0.123
 11  0.000  0.000  0.123  0.123
 12  0.000  0.000  0.123  0.123
tot  0.000  0.000  0.984  0.985
 
band  46 # energy   -3.15703808 # occ.  2.00000000
 
ion      s      p      d    tot
  1  0.000  0.000  0.060  0.060
  2  0.000  0.000  0.060  0.060
  3  0.000  0.000  0.060  0.060
  4  0.000  0.000  0.060  0.060
  5  0.000  0.000  0.127  0.127
  6  0.000  0.000  0.127  0.127
  7  0.000  0.000  0.127  0.127
  8  0.000  0.000  0.127  0.127
  9  0.000  0.000  0.060  0.060
 10  0.000  0.000  0.060  0.060
 11  0.000  0.000  0.060  0.060
 12  0.000  0.000  0.060  0.060
tot  0.000  0.001  0.990  0.990
 
band  47 # energy   -3.15703669 # occ.  2.00000000
 
ion      s      p      d    tot
  1  0.000  0.000  0.060  0.060
  2  0.000  0.000  0.060  0.060
  3  0.000  0.000  0.060  0.060
  4  0.000  0.000  0.060  0.060
  5  0.000  0.000  0.127  0.127
  6  0.000  0.000  0.127  0.127
  7  0.000  0.000  0.127  0.127
  8  0.000  0.000  0.127  0.127
  9  0.000  0.000  0.060  0.060
 10  0.000  0.000  0.060  0.060
 11  0.000  0.000  0.060  0.060
 12  0.000  0.000  0.060  0.060
tot  0.000  0.001  0.990  0.990
 
band  48 # energy   -3.15703669 # occ.  2.00000000
 
ion      s      p      d    tot
  1  0.000  0.000  0.060  0.060
  2  0.000  0.000  0.060  0.060
  3  0.000  0.000  0.060  0.060
  4  0.000  0.000  0.060  0.060
  5  0.000  0.000  0.127  0.127
  6  0.000  0.000  0.127  0.127
  7  0.000  0.000  0.127  0.127
  8  0.000  0.000  0.127  0.127
  9  0.000  0.000  0.060  0.060
 10  0.000  0.000  0.060  0.060
 11  0.000  0.000  0.060  0.060
 12  0.000  0.000  0.060  0.060
tot  0.000  0.001  0.990  0.990
 
band  49 # energy   -3.11909458 # occ.  2.00000000
 
ion      s      p      d    tot
  1  0.000  0.001  0.094  0.095
  2  0.000  0.001  0.094  0.095
  3  0.000  0.001  0.094  0.095
  4  0.000  0.001  0.094  0.095
  5  0.000  0.000  0.055  0.055
  6  0.000  0.000  0.055  0.055
  7  0.000  0.000  0.055  0.055
  8  0.000  0.000  0.055  0.055
  9  0.000  0.001  0.094  0.095
 10  0.000  0.001  0.094  0.095
 11  0.000  0.001  0.094  0.095
 12  0.000  0.001  0.094  0.095
tot  0.003  0.004  0.968  0.976
 
band  50 # energy   -3.11908709 # occ.  2.00000000
 
ion      s      p      d    tot
  1  0.000  0.001  0.094  0.095
  2  0.000  0.001  0.094  0.095
  3  0.000  0.001  0.094  0.095
  4  0.000  0.001  0.094  0.095
  5  0.000  0.000  0.055  0.055
  6  0.000  0.000  0.055  0.055
  7  0.000  0.000  0.055  0.055
  8  0.000  0.000  0.055  0.055
  9  0.000  0.001  0.094  0.095
 10  0.000  0.001  0.094  0.095
 11  0.000  0.001  0.094  0.095
 12  0.000  0.001  0.094  0.095
tot  0.003  0.004  0.968  0.976
 
band  51 # energy   -3.11908708 # occ.  2.00000000
 
ion      s      p      d    tot
  1  0.000  0.001  0.094  0.095
  2  0.000  0.001  0.094  0.095
  3  0.000  0.001  0.094  0.095
  4  0.000  0.001  0.094  0.095
  5  0.000  0.000  0.055  0.055
  6  0.000  0.000  0.055  0.055
  7  0.000  0.000  0.055  0.055
  8  0.000  0.000  0.055  0.055
  9  0.000  0.001  0.094  0.095
 10  0.000  0.001  0.094  0.095
 11  0.000  0.001  0.094  0.095
 12  0.000  0.001  0.094  0.095
tot  0.003  0.004  0.968  0.976
 
band  52 # energy   -3.09691315 # occ.  2.00000000
 
ion      s      p      d    tot
  1  0.000  0.000  0.087  0.087
  2  0.000  0.000  0.087  0.087
  3  0.000  0.000  0.087  0.087
  4  0.000  0.000  0.087  0.087
  5  0.000  0.000  0.075  0.075
  6  0.000  0.000  0.075  0.075
  7  0.000  0.000  0.075  0.075
  8  0.000  0.000  0.075  0.075
  9  0.000  0.000  0.086  0.086
 10  0.000  0.000  0.086  0.086
 11  0.000  0.000  0.086  0.086
 12  0.000  0.000  0.086  0.086
tot  0.000  0.000  0.991  0.991
 
band  53 # energy   -3.09691176 # occ.  2.00000000
 
ion      s      p      d    tot
  1  0.000  0.000  0.087  0.087
  2  0.000  0.000  0.087  0.087
  3  0.000  0.000  0.087  0.087
  4  0.000  0.000  0.087  0.087
  5  0.000  0.000  0.075  0.075
  6  0.000  0.000  0.075  0.075
  7  0.000  0.000  0.075  0.075
  8  0.000  0.000  0.075  0.075
  9  0.000  0.000  0.086  0.086
 10  0.000  0.000  0.086  0.086
 11  0.000  0.000  0.086  0.086
 12  0.000  0.000  0.086  0.086
tot  0.000  0.000  0.991  0.991
 
band  54 # energy   -3.06183291 # occ.  2.00000000
 
ion      s      p      d    tot
  1  0.000  0.000  0.026  0.026
  2  0.000  0.000  0.026  0.026
  3  0.000  0.000  0.026  0.026
  4  0.000  0.000  0.026  0.026
  5  0.000  0.000  0.196  0.196
  6  0.000  0.000  0.196  0.196
  7  0.000  0.000  0.196  0.196
  8  0.000  0.000  0.196  0.196
  9  0.000  0.000  0.026  0.026
 10  0.000  0.000  0.026  0.026
 11  0.000  0.000  0.026  0.026
 12  0.000  0.000  0.026  0.026
tot  0.000  0.000  0.994  0.994
 
band  55 # energy   -3.06182229 # occ.  2.00000000
 
ion      s      p      d    tot
  1  0.000  0.000  0.026  0.026
  2  0.000  0.000  0.026  0.026
  3  0.000  0.000  0.026  0.026
  4  0.000  0.000  0.026  0.026
  5  0.000  0.000  0.196  0.196
  6  0.000  0.000  0.196  0.196
  7  0.000  0.000  0.196  0.196
  8  0.000  0.000  0.196  0.196
  9  0.000  0.000  0.026  0.026
 10  0.000  0.000  0.026  0.026
 11  0.000  0.000  0.026  0.026
 12  0.000  0.000  0.026  0.026
tot  0.000  0.000  0.994  0.994
 
band  56 # energy   -3.06182229 # occ.  2.00000000
 
ion      s      p      d    tot
  1  0.000  0.000  0.026  0.026
  2  0.000  0.000  0.026  0.026
  3  0.000  0.000  0.026  0.026
  4  0.000  0.000  0.026  0.026
  5  0.000  0.000  0.196  0.196
  6  0.000  0.000  0.196  0.196
  7  0.000  0.000  0.196  0.196
  8  0.000  0.000  0.196  0.196
  9  0.000  0.000  0.026  0.026
 10  0.000  0.000  0.026  0.026
 11  0.000  0.000  0.026  0.026
 12  0.000  0.000  0.026  0.026
tot  0.000  0.000  0.994  0.994
 
band  57 # energy   -3.01380392 # occ.  2.00000000
 
ion      s      p      d    tot
  1  0.010  0.012  0.029  0.051
  2  0.010  0.012  0.029  0.051
  3  0.010  0.012  0.029  0.051
  4  0.010  0.012  0.029  0.051
  5  0.011  0.000  0.025  0.036
  6  0.011  0.000  0.025  0.036
  7  0.011  0.000  0.025  0.036
  8  0.011  0.000  0.025  0.036
  9  0.010  0.012  0.029  0.051
 10  0.010  0.012  0.029  0.051
 11  0.010  0.012  0.029  0.051
 12  0.010  0.012  0.029  0.051
tot  0.123  0.099  0.333  0.555
 
band  58 # energy   -2.90564996 # occ.  2.00000000
 
ion      s      p      d    tot
  1  0.000  0.000  0.122  0.122
  2  0.000  0.000  0.122  0.122
  3  0.000  0.000  0.122  0.122
  4  0.000  0.000  0.122  0.122
  5  0.000  0.000  0.000  0.000
  6  0.000  0.000  0.000  0.000
  7  0.000  0.000  0.000  0.000
  8  0.000  0.000  0.000  0.000
  9  0.000  0.000  0.127  0.127
 10  0.000  0.000  0.127  0.127
 11  0.000  0.000  0.127  0.127
 12  0.000  0.000  0.127  0.127
tot  0.000  0.000  0.996  0.996
 
band  59 # energy   -2.90563649 # occ.  2.00000000
 
ion      s      p      d    tot
  1  0.000  0.000  0.121  0.121
  2  0.000  0.000  0.122  0.122
  3  0.000  0.000  0.122  0.122
  4  0.000  0.000  0.121  0.121
  5  0.000  0.000  0.000  0.000
  6  0.000  0.000  0.000  0.000
  7  0.000  0.000  0.000  0.000
  8  0.000  0.000  0.000  0.000
  9  0.000  0.000  0.127  0.127
 10  0.000  0.000  0.128  0.128
 11  0.000  0.000  0.128  0.128
 12  0.000  0.000  0.127  0.127
tot  0.000  0.000  0.996  0.996
 
band  60 # energy   -2.90563649 # occ.  2.00000000
 
ion      s      p      d    tot
  1  0.000  0.000  0.122  0.122
  2  0.000  0.000  0.121  0.121