<?xml version="1.0" encoding="ISO-8859-1"?>
<modeling>
 <generator>
  <i name="program" type="string">vasp </i>
  <i name="version" type="string">5.4.1  </i>
  <i name="subversion" type="string">05Feb16 (build Feb 08 2018 09:21:51) complex                          parallel </i>
  <i name="platform" type="string">LinuxIFC </i>
  <i name="date" type="string">2019 11 21 </i>
  <i name="time" type="string">23:49:11 </i>
 </generator>
 <incar>
  <i type="string" name="PREC">normal</i>
  <i name="ENCUT">    400.00000000</i>
  <i type="int" name="ISMEAR">     1</i>
  <i name="SIGMA">      0.10000000</i>
  <i type="logical" name="LWAVE"> F  </i>
  <i type="logical" name="LCHARG"> F  </i>
  <i type="logical" name="LORBIT"> F  </i>
  <v type="int" name="KPOINT_BSE">    -1     0     0     0</v>
 </incar>
 <kpoints>
  <generation param="Monkhorst-Pack">
   <v type="int" name="divisions">       9        9        1 </v>
   <v name="usershift">      0.00000000       0.00000000       0.00000000 </v>
   <v name="genvec1">      0.11111111       0.00000000       0.00000000 </v>
   <v name="genvec2">      0.00000000       0.11111111       0.00000000 </v>
   <v name="genvec3">      0.00000000       0.00000000       1.00000000 </v>
   <v name="shift">      0.00000000       0.00000000       0.00000000 </v>
  </generation>
  <varray name="kpointlist" >
   <v>       0.00000000       0.00000000       0.00000000 </v>
   <v>       0.11111111       0.00000000       0.00000000 </v>
   <v>       0.22222222       0.00000000       0.00000000 </v>
   <v>       0.33333333      -0.00000000       0.00000000 </v>
   <v>       0.44444444       0.00000000       0.00000000 </v>
   <v>       0.22222222       0.11111111       0.00000000 </v>
   <v>       0.33333333       0.11111111       0.00000000 </v>
   <v>       0.44444444       0.11111111       0.00000000 </v>
   <v>      -0.44444444       0.11111111       0.00000000 </v>
   <v>       0.44444444       0.22222222       0.00000000 </v>
   <v>      -0.44444444       0.22222222       0.00000000 </v>
   <v>      -0.33333333       0.33333333       0.00000000 </v>
  </varray>
  <varray name="weights" >
   <v>       0.01234568 </v>
   <v>       0.07407407 </v>
   <v>       0.07407407 </v>
   <v>       0.07407407 </v>
   <v>       0.07407407 </v>
   <v>       0.07407407 </v>
   <v>       0.14814815 </v>
   <v>       0.14814815 </v>
   <v>       0.07407407 </v>
   <v>       0.07407407 </v>
   <v>       0.14814815 </v>
   <v>       0.02469136 </v>
  </varray>
 </kpoints>
 <parameters>
  <separator name="general" >
   <i type="string" name="SYSTEM">unknown system</i>
   <i type="logical" name="LCOMPAT"> F  </i>
  </separator>
  <separator name="electronic" >
   <i type="string" name="PREC">normal</i>
   <i name="ENMAX">    400.00000000</i>
   <i name="ENAUG">    586.98000000</i>
   <i name="EDIFF">      0.00010000</i>
   <i type="int" name="IALGO">    38</i>
   <i type="int" name="IWAVPR">    10</i>
   <i type="int" name="NBANDS">    96</i>
   <i name="NELECT">    132.00000000</i>
   <i type="int" name="TURBO">     0</i>
   <i type="int" name="IRESTART">     0</i>
   <i type="int" name="NREBOOT">     0</i>
   <i type="int" name="NMIN">     0</i>
   <i name="EREF">      0.00000000</i>
   <separator name="electronic smearing" >
    <i type="int" name="ISMEAR">     1</i>
    <i name="SIGMA">      0.10000000</i>
    <i name="KSPACING">      0.50000000</i>
    <i type="logical" name="KGAMMA"> T  </i>
   </separator>
   <separator name="electronic projectors" >
    <i type="logical" name="LREAL"> F  </i>
    <v name="ROPT">      0.00000000</v>
    <i type="int" name="LMAXPAW">  -100</i>
    <i type="int" name="LMAXMIX">     2</i>
    <i type="logical" name="NLSPLINE"> F  </i>
   </separator>
   <separator name="electronic startup" >
    <i type="int" name="ISTART">     0</i>
    <i type="int" name="ICHARG">     2</i>
    <i type="int" name="INIWAV">     1</i>
   </separator>
   <separator name="electronic spin" >
    <i type="int" name="ISPIN">     1</i>
    <i type="logical" name="LNONCOLLINEAR"> F  </i>
    <v name="MAGMOM">      1.00000000      1.00000000      1.00000000      1.00000000      1.00000000      1.00000000      1.00000000      1.00000000      1.00000000      1.00000000      1.00000000      1.00000000</v>
    <i name="NUPDOWN">     -1.00000000</i>
    <i type="logical" name="LSORBIT"> F  </i>
    <v name="SAXIS">      0.00000000      0.00000000      1.00000000</v>
    <i type="logical" name="LSPIRAL"> F  </i>
    <v name="QSPIRAL">      0.00000000      0.00000000      0.00000000</v>
    <i type="logical" name="LZEROZ"> F  </i>
   </separator>
   <separator name="electronic exchange-correlation" >
    <i type="logical" name="LASPH"> F  </i>
    <i type="logical" name="LMETAGGA"> F  </i>
   </separator>
   <separator name="electronic convergence" >
    <i type="int" name="NELM">    60</i>
    <i type="int" name="NELMDL">    -5</i>
    <i type="int" name="NELMIN">     2</i>
    <i name="ENINI">    400.00000000</i>
    <separator name="electronic convergence detail" >
     <i type="logical" name="LDIAG"> T  </i>
     <i type="logical" name="LSUBROT"> F  </i>
     <i name="WEIMIN">      0.00000000</i>
     <i name="EBREAK">      0.00000026</i>
     <i name="DEPER">      0.30000000</i>
     <i type="int" name="NRMM">     4</i>
     <i name="TIME">      0.40000000</i>
    </separator>
   </separator>
   <separator name="electronic mixer" >
    <i name="AMIX">      0.40000000</i>
    <i name="BMIX">      1.00000000</i>
    <i name="AMIN">      0.10000000</i>
    <i name="AMIX_MAG">      1.60000000</i>
    <i name="BMIX_MAG">      1.00000000</i>
    <separator name="electronic mixer details" >
     <i type="int" name="IMIX">     4</i>
     <i type="logical" name="MIXFIRST"> F  </i>
     <i type="int" name="MAXMIX">   -45</i>
     <i name="WC">    100.00000000</i>
     <i type="int" name="INIMIX">     1</i>
     <i type="int" name="MIXPRE">     1</i>
     <i type="int" name="MREMOVE">     5</i>
    </separator>
   </separator>
   <separator name="electronic dipolcorrection" >
    <i type="logical" name="LDIPOL"> F  </i>
    <i type="logical" name="LMONO"> F  </i>
    <i type="int" name="IDIPOL">     0</i>
    <i name="EPSILON">      1.00000000</i>
    <v name="DIPOL">   -100.00000000   -100.00000000   -100.00000000</v>
    <i name="EFIELD">      0.00000000</i>
   </separator>
  </separator>
  <separator name="grids" >
   <i type="int" name="NGX">    28</i>
   <i type="int" name="NGY">    28</i>
   <i type="int" name="NGZ">   120</i>
   <i type="int" name="NGXF">    56</i>
   <i type="int" name="NGYF">    56</i>
   <i type="int" name="NGZF">   240</i>
   <i type="logical" name="ADDGRID"> F  </i>
  </separator>
  <separator name="ionic" >
   <i type="int" name="NSW">     0</i>
   <i type="int" name="IBRION">    -1</i>
   <i type="int" name="ISIF">     2</i>
   <i name="PSTRESS">      0.00000000</i>
   <i name="EDIFFG">      0.00100000</i>
   <i type="int" name="NFREE">     0</i>
   <i name="POTIM">      0.50000000</i>
   <i name="SMASS">     -3.00000000</i>
   <i name="SCALEE">      1.00000000</i>
  </separator>
  <separator name="ionic md" >
   <i name="TEBEG">      0.00010000</i>
   <i name="TEEND">      0.00010000</i>
   <i type="int" name="NBLOCK">     1</i>
   <i type="int" name="KBLOCK">     1</i>
   <i type="int" name="NPACO">   256</i>
   <i name="APACO">     16.00000000</i>
  </separator>
  <separator name="symmetry" >
   <i type="int" name="ISYM">     2</i>
   <i name="SYMPREC">      0.00001000</i>
  </separator>
  <separator name="dos" >
   <i type="logical" name="LORBIT"> F  </i>
   <v name="RWIGS">     -1.00000000</v>
   <i type="int" name="NEDOS">   301</i>
   <i name="EMIN">     10.00000000</i>
   <i name="EMAX">    -10.00000000</i>
   <i name="EFERMI">      0.00000000</i>
  </separator>
  <separator name="writing" >
   <i type="int" name="NWRITE">     2</i>
   <i type="logical" name="LWAVE"> F  </i>
   <i type="logical" name="LCHARG"> F  </i>
   <i type="logical" name="LPARD"> F  </i>
   <i type="logical" name="LVTOT"> F  </i>
   <i type="logical" name="LVHAR"> F  </i>
   <i type="logical" name="LELF"> F  </i>
   <i type="logical" name="LOPTICS"> F  </i>
   <v name="STM">      0.00000000      0.00000000      0.00000000      0.00000000      0.00000000      0.00000000      0.00000000</v>
  </separator>
  <separator name="performance" >
   <i type="int" name="NPAR">    24</i>
   <i type="int" name="NSIM">     4</i>
   <i type="int" name="NBLK">    -1</i>
   <i type="logical" name="LPLANE"> T  </i>
   <i type="logical" name="LSCALAPACK"> F  </i>
   <i type="logical" name="LSCAAWARE"> F  </i>
   <i type="logical" name="LSCALU"> F  </i>
   <i type="logical" name="LASYNC"> F  </i>
   <i type="logical" name="LORBITALREAL"> F  </i>
  </separator>
  <separator name="miscellaneous" >
   <i type="int" name="IDIOT">     3</i>
   <i type="logical" name="LMUSIC"> F  </i>
   <v name="POMASS">     63.54600000</v>
   <v name="DARWINR">      0.00000000</v>
   <v name="DARWINV">      1.00000000</v>
   <i type="logical" name="LCORR"> T  </i>
  </separator>
  <i type="logical" name="GGA_COMPAT"> T  </i>
  <i type="logical" name="LBERRY"> F  </i>
  <i type="int" name="ICORELEVEL">     0</i>
  <i type="logical" name="LDAU"> F  </i>
  <i type="int" name="I_CONSTRAINED_M">     0</i>
  <separator name="electronic exchange-correlation" >
   <i type="string" name="GGA">--</i>
   <i type="int" name="VOSKOWN">     0</i>
   <i type="logical" name="LHFCALC"> F  </i>
   <i type="string" name="PRECFOCK"></i>
   <i type="logical" name="LSYMGRAD"> F  </i>
   <i type="logical" name="LHFONE"> F  </i>
   <i type="logical" name="LRHFCALC"> F  </i>
   <i type="logical" name="LTHOMAS"> F  </i>
   <i type="logical" name="LMODELHF"> F  </i>
   <i name="ENCUT4O">     -1.00000000</i>
   <i type="int" name="EXXOEP">     0</i>
   <i type="int" name="FOURORBIT">     0</i>
   <i name="AEXX">      0.00000000</i>
   <i name="HFALPHA">      0.00000000</i>
   <i name="MCALPHA">      0.00000000</i>
   <i name="ALDAX">      1.00000000</i>
   <i name="AGGAX">      1.00000000</i>
   <i name="ALDAC">      1.00000000</i>
   <i name="AGGAC">      1.00000000</i>
   <i type="int" name="NKREDX">     1</i>
   <i type="int" name="NKREDY">     1</i>
   <i type="int" name="NKREDZ">     1</i>
   <i type="logical" name="SHIFTRED"> F  </i>
   <i type="logical" name="ODDONLY"> F  </i>
   <i type="logical" name="EVENONLY"> F  </i>
   <i type="int" name="LMAXFOCK">     0</i>
   <i type="int" name="NMAXFOCKAE">     0</i>
   <i type="logical" name="LFOCKAEDFT"> F  </i>
   <i name="HFSCREEN">      0.00000000</i>
   <i name="HFSCREENC">      0.00000000</i>
   <i type="int" name="NBANDSGWLOW">     0</i>
  </separator>
  <separator name="vdW DFT" >
   <i type="logical" name="LUSE_VDW"> F  </i>
   <i name="Zab_VDW">     -0.84910000</i>
   <i name="PARAM1">      0.12340000</i>
   <i name="PARAM2">      1.00000000</i>
   <i name="PARAM3">      0.00000000</i>
  </separator>
  <separator name="model GW" >
   <i type="int" name="MODEL_GW">     0</i>
   <i name="MODEL_EPS0">     27.70554309</i>
   <i name="MODEL_ALPHA">      1.00000000</i>
  </separator>
  <separator name="linear response parameters" >
   <i type="logical" name="LEPSILON"> F  </i>
   <i type="logical" name="LRPA"> F  </i>
   <i type="logical" name="LNABLA"> F  </i>
   <i type="logical" name="LVEL"> F  </i>
   <i type="int" name="KINTER">     0</i>
   <i name="CSHIFT">      0.10000000</i>
   <i name="OMEGAMAX">     -1.00000000</i>
   <i name="DEG_THRESHOLD">      0.00200000</i>
  </separator>
  <separator name="orbital magnetization" >
   <i type="logical" name="NUCIND"> F  </i>
   <v name="MAGPOS">      0.00000000      0.00000000      0.00000000</v>
   <i type="logical" name="LNICSALL"> T  </i>
   <i type="logical" name="ORBITALMAG"> F  </i>
   <i type="logical" name="LMAGBLOCH"> F  </i>
   <i type="logical" name="LCHIMAG"> F  </i>
   <i type="logical" name="LGAUGE"> T  </i>
   <i type="int" name="MAGATOM">     0</i>
   <v name="MAGDIPOL">      0.00000000      0.00000000      0.00000000</v>
   <v name="AVECCONST">      0.00000000      0.00000000      0.00000000</v>
  </separator>
  <separator name="response functions" >
   <i type="logical" name="LADDER"> F  </i>
   <i type="logical" name="LFXC"> F  </i>
   <i type="logical" name="LHARTREE"> T  </i>
   <i type="int" name="IBSE">     0</i>
   <v type="int" name="KPOINT">    -1     0     0     0</v>
   <i type="logical" name="LTCTE"> F  </i>
   <i type="logical" name="LTETE"> F  </i>
   <i type="logical" name="LTRIPLET"> F  </i>
   <i type="logical" name="LFXCEPS"> F  </i>
   <i type="logical" name="LFXHEG"> F  </i>
   <i type="int" name="NATURALO">     0</i>
   <i type="logical" name="L2ORDER"> F  </i>
   <i type="logical" name="LUSEW"> F  </i>
   <i name="ENCUTGW">     -2.00000000</i>
   <i name="ENCUTGWSOFT">     -2.00000000</i>
   <i name="ENCUTLF">     -1.00000000</i>
   <i type="int" name="LMAXMP2">    -1</i>
   <i name="SCISSOR">      0.00000000</i>
   <i type="int" name="NOMEGA">     0</i>
   <i type="int" name="NOMEGAR">     0</i>
   <i type="int" name="NBANDSGW">    -1</i>
   <i type="int" name="NBANDSO">    -1</i>
   <i type="int" name="NBANDSV">    -1</i>
   <i type="int" name="NELM">     1</i>
   <i type="int" name="NELMHF">     1</i>
   <i type="int" name="DIM">     3</i>
   <i type="int" name="ANTIRES">     0</i>
   <i name="OMEGAMAX">    -30.00000000</i>
   <i name="OMEGAMIN">    -30.00000000</i>
   <i name="OMEGATL">   -200.00000000</i>
   <i type="int" name="OMEGAGRID">     0</i>
   <i name="CSHIFT">     -0.10000000</i>
   <i type="logical" name="SELFENERGY"> F  </i>
   <i type="logical" name="LSPECTRAL"> F  </i>
   <i type="logical" name="LSPECTRALGW"> F  </i>
   <i type="logical" name="LSINGLES"> F  </i>
   <i type="logical" name="LFERMIGW"> F  </i>
   <i type="logical" name="ODDONLYGW"> F  </i>
   <i type="logical" name="EVENONLYGW"> F  </i>
   <i type="int" name="NKREDLFX">     1</i>
   <i type="int" name="NKREDLFY">     1</i>
   <i type="int" name="NKREDLFZ">     1</i>
   <i type="int" name="MAXMEM">  1800</i>
   <i type="int" name="TELESCOPE">     0</i>
   <i type="int" name="TAUPAR">     1</i>
   <i type="int" name="OMEGAPAR">    -1</i>
   <i name="LAMBDA">      1.00000000</i>
  </separator>
  <separator name="External order field" >
   <i name="OFIELD_KAPPA">      0.00000000</i>
   <v name="OFIELD_K">      0.00000000      0.00000000      0.00000000</v>
   <i name="OFIELD_Q6_NEAR">      0.00000000</i>
   <i name="OFIELD_Q6_FAR">      0.00000000</i>
   <i name="OFIELD_A">      0.00000000</i>
  </separator>
 </parameters>
 <atominfo>
  <atoms>      12 </atoms>
  <types>       1 </types>
  <array name="atoms" >
   <dimension dim="1">ion</dimension>
   <field type="string">element</field>
   <field type="int">atomtype</field>
   <set>
    <rc><c>Cu</c><c>   1</c></rc>
    <rc><c>Cu</c><c>   1</c></rc>
    <rc><c>Cu</c><c>   1</c></rc>
    <rc><c>Cu</c><c>   1</c></rc>
    <rc><c>Cu</c><c>   1</c></rc>
    <rc><c>Cu</c><c>   1</c></rc>
    <rc><c>Cu</c><c>   1</c></rc>
    <rc><c>Cu</c><c>   1</c></rc>
    <rc><c>Cu</c><c>   1</c></rc>
    <rc><c>Cu</c><c>   1</c></rc>
    <rc><c>Cu</c><c>   1</c></rc>
    <rc><c>Cu</c><c>   1</c></rc>
   </set>
  </array>
  <array name="atomtypes" >
   <dimension dim="1">type</dimension>
   <field type="int">atomspertype</field>
   <field type="string">element</field>
   <field>mass</field>
   <field>valence</field>
   <field type="string">pseudopotential</field>
   <set>
    <rc><c>  12</c><c>Cu</c><c>     63.54600000</c><c>     11.00000000</c><c>  PAW_PBE Cu 22Jun2005                  </c></rc>
   </set>
  </array>
 </atominfo>
 <structure name="initialpos" >
  <crystal>
   <varray name="basis" >
    <v>       5.14208051       0.00000000       0.00000000 </v>
    <v>       2.57104026       4.45317235       0.00000000 </v>
    <v>       0.00000000       0.00000000      24.19849116 </v>
   </varray>
   <i name="volume">    554.11086184 </i>
   <varray name="rec_basis" >
    <v>       0.19447381      -0.11227951       0.00000000 </v>
    <v>       0.00000000       0.22455902       0.00000000 </v>
    <v>       0.00000000       0.00000000       0.04132489 </v>
   </varray>
  </crystal>
  <varray name="positions" >
   <v>       0.16666667       0.16666667       0.41469244 </v>
   <v>       0.66666667       0.16666667       0.41469244 </v>
   <v>       0.16666667       0.66666667       0.41469244 </v>
   <v>       0.66666667       0.66666667       0.41469244 </v>
   <v>       0.83333333       0.33333333       0.50000000 </v>
   <v>       0.33333333       0.33333333       0.50000000 </v>
   <v>       0.83333333       0.83333333       0.50000000 </v>
   <v>       0.33333333       0.83333333       0.50000000 </v>
   <v>       0.00000000       0.00000000       0.58530756 </v>
   <v>       0.50000000       0.00000000       0.58530756 </v>
   <v>       0.00000000       0.50000000       0.58530756 </v>
   <v>       0.50000000       0.50000000       0.58530756 </v>
  </varray>
 </structure>
 <calculation>
  <scstep>
   <time name="dav">    2.80    2.85</time>
   <time name="total">    2.85    2.92</time>
   <energy>
    <i name="alphaZ">    190.05445405 </i>
    <i name="ewald">  66568.58895233 </i>
    <i name="hartreedc"> -82324.57319203 </i>
    <i name="XCdc">    545.39014460 </i>
    <i name="pawpsdc">  14738.47991854 </i>
    <i name="pawaedc"> -16008.58160551 </i>
    <i name="eentropy">     -0.00403730 </i>
    <i name="bandstr">    589.89014213 </i>
    <i name="atom">  16691.49168240 </i>
    <i name="e_fr_energy">    990.73645919 </i>
    <i name="e_wo_entrp">    990.74049650 </i>
    <i name="e_0_energy">    990.73780496 </i>
   </energy>
  </scstep>
  <scstep>
   <time name="dav">    2.81    2.82</time>
   <time name="total">    2.82    2.82</time>
   <energy>
    <i name="e_fr_energy">      9.58969003 </i>
    <i name="e_wo_entrp">      9.58198754 </i>
    <i name="e_0_energy">      9.58712253 </i>
   </energy>
  </scstep>
  <scstep>
   <time name="dav">    3.50    3.50</time>
   <time name="total">    3.50    3.50</time>
   <energy>
    <i name="e_fr_energy">    -48.89607781 </i>
    <i name="e_wo_entrp">    -48.89647263 </i>
    <i name="e_0_energy">    -48.89620942 </i>
   </energy>
  </scstep>
  <scstep>
   <time name="dav">    3.37    3.38</time>
   <time name="total">    3.37    3.38</time>
   <energy>
    <i name="e_fr_energy">    -50.36564425 </i>
    <i name="e_wo_entrp">    -50.36598172 </i>
    <i name="e_0_energy">    -50.36575674 </i>
   </energy>
  </scstep>
  <scstep>
   <time name="dav">    3.52    3.52</time>
   <time name="total">    3.62    3.62</time>
   <energy>
    <i name="e_fr_energy">    -50.40335674 </i>
    <i name="e_wo_entrp">    -50.40369215 </i>
    <i name="e_0_energy">    -50.40346854 </i>
   </energy>
  </scstep>
  <scstep>
   <time name="dav">    2.94    2.94</time>
   <time name="total">    3.06    3.06</time>
   <energy>
    <i name="e_fr_energy">    -46.44204225 </i>
    <i name="e_wo_entrp">    -46.43005420 </i>
    <i name="e_0_energy">    -46.43804624 </i>
   </energy>
  </scstep>
  <scstep>
   <time name="dav">    2.84    2.84</time>
   <time name="total">    2.97    2.98</time>
   <energy>
    <i name="e_fr_energy">    -41.04623704 </i>
    <i name="e_wo_entrp">    -41.04291060 </i>
    <i name="e_0_energy">    -41.04512823 </i>
   </energy>
  </scstep>
  <scstep>
   <time name="dav">    3.07    3.08</time>
   <time name="total">    3.20    3.21</time>
   <energy>
    <i name="e_fr_energy">    -41.05824608 </i>
    <i name="e_wo_entrp">    -41.03268967 </i>
    <i name="e_0_energy">    -41.04972728 </i>
   </energy>
  </scstep>
  <scstep>
   <time name="dav">    2.77    2.77</time>
   <time name="total">    2.90    2.90</time>
   <energy>
    <i name="e_fr_energy">    -40.99606055 </i>
    <i name="e_wo_entrp">    -40.97672779 </i>
    <i name="e_0_energy">    -40.98961630 </i>
   </energy>
  </scstep>
  <scstep>
   <time name="dav">    2.77    2.77</time>
   <time name="total">    2.89    2.89</time>
   <energy>
    <i name="e_fr_energy">    -40.95482834 </i>
    <i name="e_wo_entrp">    -40.94052960 </i>
    <i name="e_0_energy">    -40.95006210 </i>
   </energy>
  </scstep>
  <scstep>
   <time name="dav">    2.92    2.92</time>
   <time name="total">    3.05    3.05</time>
   <energy>
    <i name="e_fr_energy">    -40.95048328 </i>
    <i name="e_wo_entrp">    -40.93283387 </i>
    <i name="e_0_energy">    -40.94460014 </i>
   </energy>
  </scstep>
  <scstep>
   <time name="dav">    2.96    2.96</time>
   <time name="total">    3.10    3.10</time>
   <energy>
    <i name="e_fr_energy">    -40.94913571 </i>
    <i name="e_wo_entrp">    -40.93160736 </i>
    <i name="e_0_energy">    -40.94329293 </i>
   </energy>
  </scstep>
  <scstep>
   <time name="dav">    2.89    2.89</time>
   <time name="total">    3.01    3.02</time>
   <energy>
    <i name="e_fr_energy">    -40.94936868 </i>
    <i name="e_wo_entrp">    -40.93265323 </i>
    <i name="e_0_energy">    -40.94379686 </i>
   </energy>
  </scstep>
  <scstep>
   <time name="dav">    2.81    2.82</time>
   <time name="total">    2.93    2.94</time>
   <energy>
    <i name="e_fr_energy">    -40.94909511 </i>
    <i name="e_wo_entrp">    -40.93130024 </i>
    <i name="e_0_energy">    -40.94316349 </i>
   </energy>
  </scstep>
  <scstep>
   <time name="dav">    2.13    2.13</time>
   <time name="total">    2.25    2.26</time>
   <energy>
    <i name="e_fr_energy">    -40.94941458 </i>
    <i name="e_wo_entrp">    -40.93173110 </i>
    <i name="e_0_energy">    -40.94352009 </i>
   </energy>
  </scstep>
  <scstep>
   <time name="dav">    2.00    2.01</time>
   <time name="total">    2.13    2.14</time>
   <energy>
    <i name="e_fr_energy">    -40.94991721 </i>
    <i name="e_wo_entrp">    -40.93233236 </i>
    <i name="e_0_energy">    -40.94405559 </i>
   </energy>
  </scstep>
  <scstep>
   <time name="dav">    2.24    2.25</time>
   <time name="total">    2.37    2.38</time>
   <energy>
    <i name="e_fr_energy">    -40.95014649 </i>
    <i name="e_wo_entrp">    -40.93249991 </i>
    <i name="e_0_energy">    -40.94426430 </i>
   </energy>
  </scstep>
  <scstep>
   <time name="dav">    2.08    2.08</time>
   <time name="total">    2.20    2.21</time>
   <energy>
    <i name="e_fr_energy">    -40.95030035 </i>
    <i name="e_wo_entrp">    -40.93267385 </i>
    <i name="e_0_energy">    -40.94442485 </i>
   </energy>
  </scstep>
  <scstep>
   <time name="dav">    2.13    2.14</time>
   <time name="total">    2.16    2.16</time>
   <energy>
    <i name="alphaZ">    190.05445405 </i>
    <i name="ewald">  66568.58895233 </i>
    <i name="hartreedc"> -82166.82664246 </i>
    <i name="XCdc">    533.65056501 </i>
    <i name="pawpsdc">  15591.21936284 </i>
    <i name="pawaedc"> -16881.83924516 </i>
    <i name="eentropy">     -0.01762311 </i>
    <i name="bandstr">   -567.27184679 </i>
    <i name="atom">  16691.49168240 </i>
    <i name="e_fr_energy">    -40.95034089 </i>
    <i name="e_wo_entrp">    -40.93271778 </i>
    <i name="e_0_energy">    -40.94446652 </i>
   </energy>
  </scstep>
  <structure>
   <crystal>
    <varray name="basis" >
     <v>       5.14208051       0.00000000       0.00000000 </v>
     <v>       2.57104026       4.45317235       0.00000000 </v>
     <v>       0.00000000       0.00000000      24.19849116 </v>
    </varray>
    <i name="volume">    554.11086184 </i>
    <varray name="rec_basis" >
     <v>       0.19447381      -0.11227951       0.00000000 </v>
     <v>       0.00000000       0.22455902       0.00000000 </v>
     <v>       0.00000000       0.00000000       0.04132489 </v>
    </varray>
   </crystal>
   <varray name="positions" >
    <v>       0.16666667       0.16666667       0.41469244 </v>
    <v>       0.66666667       0.16666667       0.41469244 </v>
    <v>       0.16666667       0.66666667       0.41469244 </v>
    <v>       0.66666667       0.66666667       0.41469244 </v>
    <v>       0.83333333       0.33333333       0.50000000 </v>
    <v>       0.33333333       0.33333333       0.50000000 </v>
    <v>       0.83333333       0.83333333       0.50000000 </v>
    <v>       0.33333333       0.83333333       0.50000000 </v>
    <v>       0.00000000       0.00000000       0.58530756 </v>
    <v>       0.50000000       0.00000000       0.58530756 </v>
    <v>       0.00000000       0.50000000       0.58530756 </v>
    <v>       0.50000000       0.50000000       0.58530756 </v>
   </varray>
  </structure>
  <varray name="forces" >
   <v>       0.00000000      -0.00000000      -0.00080861 </v>
   <v>       0.00000000       0.00000000      -0.00080861 </v>
   <v>       0.00000000      -0.00000000      -0.00080861 </v>
   <v>       0.00000000       0.00000000      -0.00080861 </v>
   <v>      -0.00000000       0.00000000       0.00000000 </v>
   <v>      -0.00000000       0.00000000       0.00000000 </v>
   <v>       0.00000000      -0.00000000       0.00000000 </v>
   <v>       0.00000000       0.00000000       0.00000000 </v>
   <v>      -0.00000000      -0.00000000       0.00080861 </v>
   <v>      -0.00000000       0.00000000       0.00080861 </v>
   <v>      -0.00000000       0.00000000       0.00080861 </v>
   <v>      -0.00000000      -0.00000000       0.00080861 </v>
  </varray>
  <varray name="stress" >
   <v>     -12.15575043      -0.00000001      -0.00000000 </v>
   <v>      -0.00000001     -12.15575043       0.00000000 </v>
   <v>      -0.00000000      -0.00000000      -1.78334655 </v>
  </varray>
  <energy>
   <i name="e_fr_energy">    -40.95034089 </i>
   <i name="e_wo_entrp">    -40.94446652 </i>
   <i name="e_0_energy">     -0.01762311 </i>
  </energy>
  <time name="totalsc">   58.29   58.48</time>
  <eigenvalues>
   <array>
    <dimension dim="1">band</dimension>
    <dimension dim="2">kpoint</dimension>
    <dimension dim="3">spin</dimension>
    <field>eigene</field>
    <field>occ</field>
    <set>
     <set comment="spin 1">
      <set comment="kpoint 1">
       <r>  -10.0808    1.0000 </r>
       <r>   -8.1095    1.0000 </r>
       <r>   -6.6006    1.0000 </r>
       <r>   -6.1784    1.0000 </r>
       <r>   -6.1783    1.0000 </r>
       <r>   -6.1783    1.0000 </r>
       <r>   -5.9911    1.0000 </r>
       <r>   -5.9911    1.0000 </r>
       <r>   -5.9911    1.0000 </r>
       <r>   -5.6049    1.0000 </r>
       <r>   -5.6049    1.0000 </r>
       <r>   -5.6049    1.0000 </r>
       <r>   -5.5592    1.0000 </r>
       <r>   -5.5592    1.0000 </r>
       <r>   -5.5592    1.0000 </r>
       <r>   -4.9075    1.0000 </r>
       <r>   -4.9075    1.0000 </r>
       <r>   -4.9075    1.0000 </r>
       <r>   -4.5074    1.0000 </r>
       <r>   -4.5074    1.0000 </r>
       <r>   -4.5074    1.0000 </r>
       <r>   -4.4393    1.0000 </r>
       <r>   -4.4142    1.0000 </r>
       <r>   -4.4142    1.0000 </r>
       <r>   -4.3772    1.0000 </r>
       <r>   -4.2719    1.0000 </r>
       <r>   -4.2719    1.0000 </r>
       <r>   -4.2645    1.0000 </r>
       <r>   -4.2645    1.0000 </r>
       <r>   -4.2645    1.0000 </r>
       <r>   -4.1422    1.0000 </r>
       <r>   -4.1422    1.0000 </r>
       <r>   -4.0331    1.0000 </r>
       <r>   -4.0331    1.0000 </r>
       <r>   -4.0331    1.0000 </r>
       <r>   -3.6066    1.0000 </r>
       <r>   -3.6066    1.0000 </r>
       <r>   -3.5843    1.0000 </r>
       <r>   -3.5843    1.0000 </r>
       <r>   -3.5842    1.0000 </r>
       <r>   -3.5825    1.0000 </r>
       <r>   -3.5825    1.0000 </r>
       <r>   -3.5825    1.0000 </r>
       <r>   -3.3433    1.0000 </r>
       <r>   -3.3433    1.0000 </r>
       <r>   -3.1570    1.0000 </r>
       <r>   -3.1570    1.0000 </r>
       <r>   -3.1570    1.0000 </r>
       <r>   -3.1191    1.0000 </r>
       <r>   -3.1191    1.0000 </r>
       <r>   -3.1191    1.0000 </r>
       <r>   -3.0969    1.0000 </r>
       <r>   -3.0969    1.0000 </r>
       <r>   -3.0618    1.0000 </r>
       <r>   -3.0618    1.0000 </r>
       <r>   -3.0618    1.0000 </r>
       <r>   -3.0138    1.0000 </r>
       <r>   -2.9056    1.0000 </r>
       <r>   -2.9056    1.0000 </r>
       <r>   -2.9056    1.0000 </r>
       <r>   -2.8877    1.0000 </r>
       <r>   -2.8876    1.0000 </r>
       <r>   -2.8876    1.0000 </r>
       <r>   -1.5334    0.7060 </r>
       <r>   -1.4814    0.2819 </r>
       <r>   -1.4814    0.2819 </r>
       <r>   -1.4814    0.2817 </r>
       <r>   -0.3851   -0.0000 </r>
       <r>   -0.3851   -0.0000 </r>
       <r>   -0.3850   -0.0000 </r>
       <r>    0.0494   -0.0000 </r>
       <r>    0.0494   -0.0000 </r>
       <r>    0.0494   -0.0000 </r>
       <r>    2.6668    0.0000 </r>
       <r>    2.9048    0.0000 </r>
       <r>    2.9048    0.0000 </r>
       <r>    2.9048    0.0000 </r>
       <r>    3.0306    0.0000 </r>
       <r>    3.3560    0.0000 </r>
       <r>    4.0604    0.0000 </r>
       <r>    4.0604    0.0000 </r>
       <r>    4.0604    0.0000 </r>
       <r>    4.3074    0.0000 </r>
       <r>    4.7650    0.0000 </r>
       <r>    4.9002    0.0000 </r>
       <r>    4.9002    0.0000 </r>
       <r>    4.9002    0.0000 </r>
       <r>    6.5000    0.0000 </r>
       <r>    6.5693    0.0000 </r>
       <r>    7.5393    0.0000 </r>
       <r>    7.5393    0.0000 </r>
       <r>    7.5393    0.0000 </r>
       <r>    7.8310    0.0000 </r>
       <r>    7.8311    0.0000 </r>
       <r>    7.8311    0.0000 </r>
       <r>    8.9991    0.0000 </r>
      </set>
      <set comment="kpoint 2">
       <r>   -9.9837    1.0000 </r>
       <r>   -8.0179    1.0000 </r>
       <r>   -6.5282    1.0000 </r>
       <r>   -6.2682    1.0000 </r>
       <r>   -6.1569    1.0000 </r>
       <r>   -6.1569    1.0000 </r>
       <r>   -5.9914    1.0000 </r>
       <r>   -5.9584    1.0000 </r>
       <r>   -5.9584    1.0000 </r>
       <r>   -5.6128    1.0000 </r>
       <r>   -5.5877    1.0000 </r>
       <r>   -5.5877    1.0000 </r>
       <r>   -5.5026    1.0000 </r>
       <r>   -5.5026    1.0000 </r>
       <r>   -5.5006    1.0000 </r>
       <r>   -4.9043    1.0000 </r>
       <r>   -4.9043    1.0000 </r>
       <r>   -4.8987    1.0000 </r>
       <r>   -4.4937    1.0000 </r>
       <r>   -4.4931    1.0000 </r>
       <r>   -4.4904    1.0000 </r>
       <r>   -4.4903    1.0000 </r>
       <r>   -4.4426    1.0000 </r>
       <r>   -4.3989    1.0000 </r>
       <r>   -4.3816    1.0000 </r>
       <r>   -4.3119    1.0000 </r>
       <r>   -4.3119    1.0000 </r>
       <r>   -4.2540    1.0000 </r>
       <r>   -4.2485    1.0000 </r>
       <r>   -4.2402    1.0000 </r>
       <r>   -4.1553    1.0000 </r>
       <r>   -4.1088    1.0000 </r>
       <r>   -4.0786    1.0000 </r>
       <r>   -4.0518    1.0000 </r>
       <r>   -4.0518    1.0000 </r>
       <r>   -3.6603    1.0000 </r>
       <r>   -3.6603    1.0000 </r>
       <r>   -3.6263    1.0000 </r>
       <r>   -3.6250    1.0000 </r>
       <r>   -3.6178    1.0000 </r>
       <r>   -3.5836    1.0000 </r>
       <r>   -3.5728    1.0000 </r>
       <r>   -3.5728    1.0000 </r>
       <r>   -3.4865    1.0000 </r>
       <r>   -3.3428    1.0000 </r>
       <r>   -3.2145    1.0000 </r>
       <r>   -3.1953    1.0000 </r>
       <r>   -3.1953    1.0000 </r>
       <r>   -3.1741    1.0000 </r>
       <r>   -3.1635    1.0000 </r>
       <r>   -3.1488    1.0000 </r>
       <r>   -3.1487    1.0000 </r>
       <r>   -3.1148    1.0000 </r>
       <r>   -3.1148    1.0000 </r>
       <r>   -3.0958    1.0000 </r>
       <r>   -3.0859    1.0000 </r>
       <r>   -3.0009    1.0000 </r>
       <r>   -3.0009    1.0000 </r>
       <r>   -2.9482    1.0000 </r>
       <r>   -2.9481    1.0000 </r>
       <r>   -2.9424    1.0000 </r>
       <r>   -2.9258    1.0000 </r>
       <r>   -2.8016    1.0000 </r>
       <r>   -2.1470    1.0000 </r>
       <r>   -1.5109    0.5225 </r>
       <r>   -1.5108    0.5223 </r>
       <r>   -1.2981   -0.0057 </r>
       <r>   -1.0548   -0.0000 </r>
       <r>   -0.4681   -0.0000 </r>
       <r>   -0.4680   -0.0000 </r>
       <r>    0.4602   -0.0000 </r>
       <r>    0.4603   -0.0000 </r>
       <r>    0.7401   -0.0000 </r>
       <r>    2.7520    0.0000 </r>
       <r>    3.0749    0.0000 </r>
       <r>    3.0749    0.0000 </r>
       <r>    3.1263    0.0000 </r>
       <r>    3.1546    0.0000 </r>
       <r>    3.4452    0.0000 </r>
       <r>    3.9295    0.0000 </r>
       <r>    3.9295    0.0000 </r>
       <r>    3.9765    0.0000 </r>
       <r>    4.4020    0.0000 </r>
       <r>    4.8489    0.0000 </r>
       <r>    5.2408    0.0000 </r>
       <r>    5.2408    0.0000 </r>
       <r>    5.3561    0.0000 </r>
       <r>    6.5925    0.0000 </r>
       <r>    6.6545    0.0000 </r>
       <r>    6.9906    0.0000 </r>
       <r>    7.1532    0.0000 </r>
       <r>    7.1532    0.0000 </r>
       <r>    8.3417    0.0000 </r>
       <r>    8.4751    0.0000 </r>
       <r>    8.4751    0.0000 </r>
       <r>    9.0514    0.0000 </r>
      </set>
      <set comment="kpoint 3">
       <r>   -9.6958    1.0000 </r>
       <r>   -7.7499    1.0000 </r>
       <r>   -6.5806    1.0000 </r>
       <r>   -6.3217    1.0000 </r>
       <r>   -6.0956    1.0000 </r>
       <r>   -6.0956    1.0000 </r>
       <r>   -6.0074    1.0000 </r>
       <r>   -5.8665    1.0000 </r>
       <r>   -5.8665    1.0000 </r>
       <r>   -5.5816    1.0000 </r>
       <r>   -5.5206    1.0000 </r>
       <r>   -5.5206    1.0000 </r>
       <r>   -5.3876    1.0000 </r>
       <r>   -5.3611    1.0000 </r>
       <r>   -5.3611    1.0000 </r>
       <r>   -4.9011    1.0000 </r>
       <r>   -4.9011    1.0000 </r>
       <r>   -4.8748    1.0000 </r>
       <r>   -4.6312    1.0000 </r>
       <r>   -4.5008    1.0000 </r>
       <r>   -4.4705    1.0000 </r>
       <r>   -4.4705    1.0000 </r>
       <r>   -4.4653    1.0000 </r>
       <r>   -4.4479    1.0000 </r>
       <r>   -4.4150    1.0000 </r>
       <r>   -4.4150    1.0000 </r>
       <r>   -4.2892    1.0000 </r>
       <r>   -4.2325    1.0000 </r>
       <r>   -4.2244    1.0000 </r>
       <r>   -4.1872    1.0000 </r>
       <r>   -4.1860    1.0000 </r>
       <r>   -4.1722    1.0000 </r>
       <r>   -4.1128    1.0000 </r>
       <r>   -4.1128    1.0000 </r>
       <r>   -4.0115    1.0000 </r>
       <r>   -3.7936    1.0000 </r>
       <r>   -3.7936    1.0000 </r>
       <r>   -3.7589    1.0000 </r>
       <r>   -3.7548    1.0000 </r>
       <r>   -3.6394    1.0000 </r>
       <r>   -3.6206    1.0000 </r>
       <r>   -3.6206    1.0000 </r>
       <r>   -3.5994    1.0000 </r>
       <r>   -3.5884    1.0000 </r>
       <r>   -3.4677    1.0000 </r>
       <r>   -3.4677    1.0000 </r>
       <r>   -3.3788    1.0000 </r>
       <r>   -3.3449    1.0000 </r>
       <r>   -3.3350    1.0000 </r>
       <r>   -3.2664    1.0000 </r>
       <r>   -3.2663    1.0000 </r>
       <r>   -3.2470    1.0000 </r>
       <r>   -3.2038    1.0000 </r>
       <r>   -3.2037    1.0000 </r>
       <r>   -3.1383    1.0000 </r>
       <r>   -3.1034    1.0000 </r>
       <r>   -3.1034    1.0000 </r>
       <r>   -3.0927    1.0000 </r>
       <r>   -3.0565    1.0000 </r>
       <r>   -3.0069    1.0000 </r>
       <r>   -3.0014    1.0000 </r>
       <r>   -3.0014    1.0000 </r>
       <r>   -2.9669    1.0000 </r>
       <r>   -2.4347    1.0000 </r>
       <r>   -2.0411    1.0000 </r>
       <r>   -1.5488    0.8139 </r>
       <r>   -1.5488    0.8139 </r>
       <r>   -0.7332   -0.0000 </r>
       <r>   -0.4673   -0.0000 </r>
       <r>   -0.4673   -0.0000 </r>
       <r>    0.6527   -0.0000 </r>
       <r>    1.2062   -0.0000 </r>
       <r>    1.2062   -0.0000 </r>
       <r>    3.0071    0.0000 </r>
       <r>    3.3277    0.0000 </r>
       <r>    3.3277    0.0000 </r>
       <r>    3.4131    0.0000 </r>
       <r>    3.7136    0.0000 </r>
       <r>    3.7827    0.0000 </r>
       <r>    4.1818    0.0000 </r>
       <r>    4.1818    0.0000 </r>
       <r>    4.3246    0.0000 </r>
       <r>    4.6855    0.0000 </r>
       <r>    5.1017    0.0000 </r>
       <r>    5.6500    0.0000 </r>
       <r>    5.6544    0.0000 </r>
       <r>    5.6544    0.0000 </r>
       <r>    6.8699    0.0000 </r>
       <r>    6.9116    0.0000 </r>
       <r>    7.1042    0.0000 </r>
       <r>    7.2109    0.0000 </r>
       <r>    7.2109    0.0000 </r>
       <r>    7.6714    0.0000 </r>
       <r>    7.8636    0.0000 </r>
       <r>    8.4310    0.0000 </r>
       <r>    8.5870    0.0000 </r>
      </set>
      <set comment="kpoint 4">
       <r>   -9.2287    1.0000 </r>
       <r>   -7.3308    1.0000 </r>
       <r>   -7.1530    1.0000 </r>
       <r>   -6.0966    1.0000 </r>
       <r>   -6.0190    1.0000 </r>
       <r>   -6.0089    1.0000 </r>
       <r>   -6.0089    1.0000 </r>
       <r>   -5.7403    1.0000 </r>
       <r>   -5.7403    1.0000 </r>
       <r>   -5.5252    1.0000 </r>
       <r>   -5.4107    1.0000 </r>
       <r>   -5.4107    1.0000 </r>
       <r>   -5.2441    1.0000 </r>
       <r>   -5.1827    1.0000 </r>
       <r>   -5.1827    1.0000 </r>
       <r>   -4.8929    1.0000 </r>
       <r>   -4.8929    1.0000 </r>
       <r>   -4.8537    1.0000 </r>
       <r>   -4.7835    1.0000 </r>
       <r>   -4.6445    1.0000 </r>
       <r>   -4.6445    1.0000 </r>
       <r>   -4.6437    1.0000 </r>
       <r>   -4.4807    1.0000 </r>
       <r>   -4.4726    1.0000 </r>
       <r>   -4.3509    1.0000 </r>
       <r>   -4.3509    1.0000 </r>
       <r>   -4.2944    1.0000 </r>
       <r>   -4.2331    1.0000 </r>
       <r>   -4.2115    1.0000 </r>
       <r>   -4.2115    1.0000 </r>
       <r>   -4.1817    1.0000 </r>
       <r>   -4.1746    1.0000 </r>
       <r>   -4.1658    1.0000 </r>
       <r>   -4.0958    1.0000 </r>
       <r>   -3.9609    1.0000 </r>
       <r>   -3.9578    1.0000 </r>
       <r>   -3.9578    1.0000 </r>
       <r>   -3.9007    1.0000 </r>
       <r>   -3.8595    1.0000 </r>
       <r>   -3.8492    1.0000 </r>
       <r>   -3.8492    1.0000 </r>
       <r>   -3.7459    1.0000 </r>
       <r>   -3.7338    1.0000 </r>
       <r>   -3.6787    1.0000 </r>
       <r>   -3.6787    1.0000 </r>
       <r>   -3.6368    1.0000 </r>
       <r>   -3.6292    1.0000 </r>
       <r>   -3.4302    1.0000 </r>
       <r>   -3.4302    1.0000 </r>
       <r>   -3.3980    1.0000 </r>
       <r>   -3.3612    1.0000 </r>
       <r>   -3.3588    1.0000 </r>
       <r>   -3.3523    1.0000 </r>
       <r>   -3.3106    1.0000 </r>
       <r>   -3.3106    1.0000 </r>
       <r>   -3.2518    1.0000 </r>
       <r>   -3.2186    1.0000 </r>
       <r>   -3.1163    1.0000 </r>
       <r>   -3.1163    1.0000 </r>
       <r>   -3.0880    1.0000 </r>
       <r>   -3.0594    1.0000 </r>
       <r>   -3.0083    1.0000 </r>
       <r>   -3.0083    1.0000 </r>
       <r>   -2.7465    1.0000 </r>
       <r>   -1.9998    1.0000 </r>
       <r>   -1.5533    0.8419 </r>
       <r>   -1.5533    0.8418 </r>
       <r>   -0.4317   -0.0000 </r>
       <r>   -0.4317   -0.0000 </r>
       <r>   -0.1234   -0.0000 </r>
       <r>    0.0152   -0.0000 </r>
       <r>    1.8369    0.0000 </r>
       <r>    1.8369    0.0000 </r>
       <r>    2.9834    0.0000 </r>
       <r>    3.4314    0.0000 </r>
       <r>    3.7264    0.0000 </r>
       <r>    3.7264    0.0000 </r>
       <r>    3.8901    0.0000 </r>
       <r>    4.1628    0.0000 </r>
       <r>    4.9825    0.0000 </r>
       <r>    4.9825    0.0000 </r>
       <r>    5.1574    0.0000 </r>
       <r>    5.4515    0.0000 </r>
       <r>    5.5266    0.0000 </r>
       <r>    5.7997    0.0000 </r>
       <r>    5.7997    0.0000 </r>
       <r>    6.0485    0.0000 </r>
       <r>    6.4907    0.0000 </r>
       <r>    6.6376    0.0000 </r>
       <r>    7.3311    0.0000 </r>
       <r>    7.3432    0.0000 </r>
       <r>    7.6153    0.0000 </r>
       <r>    7.7121    0.0000 </r>
       <r>    7.8266    0.0000 </r>
       <r>    7.8267    0.0000 </r>
       <r>    8.0462    0.0000 </r>
      </set>
      <set comment="kpoint 5">
       <r>   -8.6069    1.0000 </r>
       <r>   -7.8813    1.0000 </r>
       <r>   -6.8236    1.0000 </r>
       <r>   -6.3624    1.0000 </r>
       <r>   -5.9373    1.0000 </r>
       <r>   -5.9372    1.0000 </r>
       <r>   -5.7058    1.0000 </r>
       <r>   -5.6380    1.0000 </r>
       <r>   -5.6380    1.0000 </r>
       <r>   -5.5258    1.0000 </r>
       <r>   -5.2921    1.0000 </r>
       <r>   -5.2921    1.0000 </r>
       <r>   -5.1167    1.0000 </r>
       <r>   -5.1167    1.0000 </r>
       <r>   -5.0847    1.0000 </r>
       <r>   -4.9326    1.0000 </r>
       <r>   -4.8598    1.0000 </r>
       <r>   -4.8071    1.0000 </r>
       <r>   -4.8071    1.0000 </r>
       <r>   -4.7946    1.0000 </r>
       <r>   -4.7773    1.0000 </r>
       <r>   -4.7773    1.0000 </r>
       <r>   -4.4870    1.0000 </r>
       <r>   -4.4533    1.0000 </r>
       <r>   -4.3723    1.0000 </r>
       <r>   -4.3304    1.0000 </r>
       <r>   -4.3304    1.0000 </r>
       <r>   -4.2416    1.0000 </r>
       <r>   -4.2416    1.0000 </r>
       <r>   -4.2303    1.0000 </r>
       <r>   -4.1904    1.0000 </r>
       <r>   -4.1903    1.0000 </r>
       <r>   -4.1832    1.0000 </r>
       <r>   -4.1378    1.0000 </r>
       <r>   -4.1320    1.0000 </r>
       <r>   -4.1173    1.0000 </r>
       <r>   -4.1032    1.0000 </r>
       <r>   -4.0791    1.0000 </r>
       <r>   -4.0791    1.0000 </r>
       <r>   -4.0210    1.0000 </r>
       <r>   -3.9368    1.0000 </r>
       <r>   -3.7601    1.0000 </r>
       <r>   -3.7559    1.0000 </r>
       <r>   -3.6855    1.0000 </r>
       <r>   -3.6855    1.0000 </r>
       <r>   -3.6674    1.0000 </r>
       <r>   -3.6410    1.0000 </r>
       <r>   -3.5694    1.0000 </r>
       <r>   -3.5650    1.0000 </r>
       <r>   -3.5650    1.0000 </r>
       <r>   -3.4682    1.0000 </r>
       <r>   -3.4420    1.0000 </r>
       <r>   -3.3615    1.0000 </r>
       <r>   -3.3615    1.0000 </r>
       <r>   -3.3586    1.0000 </r>
       <r>   -3.3330    1.0000 </r>
       <r>   -3.2462    1.0000 </r>
       <r>   -3.1172    1.0000 </r>
       <r>   -3.1172    1.0000 </r>
       <r>   -3.0825    1.0000 </r>
       <r>   -3.0754    1.0000 </r>
       <r>   -3.0697    1.0000 </r>
       <r>   -3.0054    1.0000 </r>
       <r>   -3.0054    1.0000 </r>
       <r>   -1.5459    0.7951 </r>
       <r>   -1.5459    0.7951 </r>
       <r>   -1.4878    0.3310 </r>
       <r>   -0.8694   -0.0000 </r>
       <r>   -0.4102   -0.0000 </r>
       <r>   -0.4102   -0.0000 </r>
       <r>    0.8967   -0.0000 </r>
       <r>    1.8936    0.0000 </r>
       <r>    2.0690    0.0000 </r>
       <r>    2.0690    0.0000 </r>
       <r>    4.0236    0.0000 </r>
       <r>    4.5554    0.0000 </r>
       <r>    4.6880    0.0000 </r>
       <r>    4.6880    0.0000 </r>
       <r>    4.7754    0.0000 </r>
       <r>    4.7949    0.0000 </r>
       <r>    5.3635    0.0000 </r>
       <r>    5.3635    0.0000 </r>
       <r>    5.4037    0.0000 </r>
       <r>    5.6088    0.0000 </r>
       <r>    5.8159    0.0000 </r>
       <r>    6.1257    0.0000 </r>
       <r>    6.2523    0.0000 </r>
       <r>    6.2523    0.0000 </r>
       <r>    6.6483    0.0000 </r>
       <r>    6.6483    0.0000 </r>
       <r>    6.6492    0.0000 </r>
       <r>    6.8788    0.0000 </r>
       <r>    7.8587    0.0000 </r>
       <r>    7.8587    0.0000 </r>
       <r>    7.9461    0.0000 </r>
       <r>    7.9720    0.0000 </r>
      </set>
      <set comment="kpoint 6">
       <r>   -9.7911    1.0000 </r>
       <r>   -7.8379    1.0000 </r>
       <r>   -6.3884    1.0000 </r>
       <r>   -6.3444    1.0000 </r>
       <r>   -6.3444    1.0000 </r>
       <r>   -6.0156    1.0000 </r>
       <r>   -5.9616    1.0000 </r>
       <r>   -5.9616    1.0000 </r>
       <r>   -5.8665    1.0000 </r>
       <r>   -5.5760    1.0000 </r>
       <r>   -5.5760    1.0000 </r>
       <r>   -5.5267    1.0000 </r>
       <r>   -5.4154    1.0000 </r>
       <r>   -5.4154    1.0000 </r>
       <r>   -5.4028    1.0000 </r>
       <r>   -4.9042    1.0000 </r>
       <r>   -4.8905    1.0000 </r>
       <r>   -4.8905    1.0000 </r>
       <r>   -4.5915    1.0000 </r>
       <r>   -4.4693    1.0000 </r>
       <r>   -4.4693    1.0000 </r>
       <r>   -4.4575    1.0000 </r>
       <r>   -4.4568    1.0000 </r>
       <r>   -4.4562    1.0000 </r>
       <r>   -4.4338    1.0000 </r>
       <r>   -4.3182    1.0000 </r>
       <r>   -4.3084    1.0000 </r>
       <r>   -4.3084    1.0000 </r>
       <r>   -4.2241    1.0000 </r>
       <r>   -4.2122    1.0000 </r>
       <r>   -4.1695    1.0000 </r>
       <r>   -4.1184    1.0000 </r>
       <r>   -4.1184    1.0000 </r>
       <r>   -4.0827    1.0000 </r>
       <r>   -4.0412    1.0000 </r>
       <r>   -3.7705    1.0000 </r>
       <r>   -3.7243    1.0000 </r>
       <r>   -3.7243    1.0000 </r>
       <r>   -3.7125    1.0000 </r>
       <r>   -3.6407    1.0000 </r>
       <r>   -3.6054    1.0000 </r>
       <r>   -3.5952    1.0000 </r>
       <r>   -3.5952    1.0000 </r>
       <r>   -3.5472    1.0000 </r>
       <r>   -3.4262    1.0000 </r>
       <r>   -3.3797    1.0000 </r>
       <r>   -3.3171    1.0000 </r>
       <r>   -3.3171    1.0000 </r>
       <r>   -3.2720    1.0000 </r>
       <r>   -3.2353    1.0000 </r>
       <r>   -3.2353    1.0000 </r>
       <r>   -3.2190    1.0000 </r>
       <r>   -3.1656    1.0000 </r>
       <r>   -3.1656    1.0000 </r>
       <r>   -3.1307    1.0000 </r>
       <r>   -3.1296    1.0000 </r>
       <r>   -3.1085    1.0000 </r>
       <r>   -3.0501    1.0000 </r>
       <r>   -3.0501    1.0000 </r>
       <r>   -3.0082    1.0000 </r>
       <r>   -3.0082    1.0000 </r>
       <r>   -3.0044    1.0000 </r>
       <r>   -2.5388    1.0000 </r>
       <r>   -2.3800    1.0000 </r>
       <r>   -2.3800    1.0000 </r>
       <r>   -1.3856   -0.0355 </r>
       <r>   -1.3856   -0.0355 </r>
       <r>   -0.9062   -0.0000 </r>
       <r>   -0.8054   -0.0000 </r>
       <r>    0.0531   -0.0000 </r>
       <r>    0.5853   -0.0000 </r>
       <r>    0.9867   -0.0000 </r>
       <r>    0.9867   -0.0000 </r>
       <r>    2.9221    0.0000 </r>
       <r>    3.0489    0.0000 </r>
       <r>    3.3175    0.0000 </r>
       <r>    3.3857    0.0000 </r>
       <r>    3.3857    0.0000 </r>
       <r>    3.6241    0.0000 </r>
       <r>    4.3082    0.0000 </r>
       <r>    4.4639    0.0000 </r>
       <r>    4.4639    0.0000 </r>
       <r>    4.5911    0.0000 </r>
       <r>    5.0173    0.0000 </r>
       <r>    5.1393    0.0000 </r>
       <r>    5.2804    0.0000 </r>
       <r>    5.2804    0.0000 </r>
       <r>    6.7775    0.0000 </r>
       <r>    6.8257    0.0000 </r>
       <r>    7.5644    0.0000 </r>
       <r>    7.5644    0.0000 </r>
       <r>    7.7870    0.0000 </r>
       <r>    7.7871    0.0000 </r>
       <r>    7.8194    0.0000 </r>
       <r>    8.0548    0.0000 </r>
       <r>    8.4396    0.0000 </r>
      </set>
      <set comment="kpoint 7">
       <r>   -9.4132    1.0000 </r>
       <r>   -7.4929    1.0000 </r>
       <r>   -6.7837    1.0000 </r>
       <r>   -6.3859    1.0000 </r>
       <r>   -6.1310    1.0000 </r>
       <r>   -6.0006    1.0000 </r>
       <r>   -5.8785    1.0000 </r>
       <r>   -5.8542    1.0000 </r>
       <r>   -5.7300    1.0000 </r>
       <r>   -5.5229    1.0000 </r>
       <r>   -5.4792    1.0000 </r>
       <r>   -5.4356    1.0000 </r>
       <r>   -5.2882    1.0000 </r>
       <r>   -5.2612    1.0000 </r>
       <r>   -5.2395    1.0000 </r>
       <r>   -4.8997    1.0000 </r>
       <r>   -4.8946    1.0000 </r>
       <r>   -4.8714    1.0000 </r>
       <r>   -4.7268    1.0000 </r>
       <r>   -4.5998    1.0000 </r>
       <r>   -4.5755    1.0000 </r>
       <r>   -4.5264    1.0000 </r>
       <r>   -4.4912    1.0000 </r>
       <r>   -4.4794    1.0000 </r>
       <r>   -4.3971    1.0000 </r>
       <r>   -4.3571    1.0000 </r>
       <r>   -4.2955    1.0000 </r>
       <r>   -4.2611    1.0000 </r>
       <r>   -4.2272    1.0000 </r>
       <r>   -4.1878    1.0000 </r>
       <r>   -4.1833    1.0000 </r>
       <r>   -4.1771    1.0000 </r>
       <r>   -4.1557    1.0000 </r>
       <r>   -4.1208    1.0000 </r>
       <r>   -3.9135    1.0000 </r>
       <r>   -3.9102    1.0000 </r>
       <r>   -3.8821    1.0000 </r>
       <r>   -3.8798    1.0000 </r>
       <r>   -3.8302    1.0000 </r>
       <r>   -3.7283    1.0000 </r>
       <r>   -3.7185    1.0000 </r>
       <r>   -3.6881    1.0000 </r>
       <r>   -3.6734    1.0000 </r>
       <r>   -3.6595    1.0000 </r>
       <r>   -3.6319    1.0000 </r>
       <r>   -3.6054    1.0000 </r>
       <r>   -3.5893    1.0000 </r>
       <r>   -3.4789    1.0000 </r>
       <r>   -3.4120    1.0000 </r>
       <r>   -3.3810    1.0000 </r>
       <r>   -3.3370    1.0000 </r>
       <r>   -3.2802    1.0000 </r>
       <r>   -3.2774    1.0000 </r>
       <r>   -3.2699    1.0000 </r>
       <r>   -3.2231    1.0000 </r>
       <r>   -3.1498    1.0000 </r>
       <r>   -3.1412    1.0000 </r>
       <r>   -3.1125    1.0000 </r>
       <r>   -3.1051    1.0000 </r>
       <r>   -3.0835    1.0000 </r>
       <r>   -3.0377    1.0000 </r>
       <r>   -3.0367    1.0000 </r>
       <r>   -2.9272    1.0000 </r>
       <r>   -2.3601    1.0000 </r>
       <r>   -2.2865    1.0000 </r>
       <r>   -2.1590    1.0000 </r>
       <r>   -1.4723    0.2164 </r>
       <r>   -0.5298   -0.0000 </r>
       <r>   -0.2659   -0.0000 </r>
       <r>    0.3721   -0.0000 </r>
       <r>    0.5123   -0.0000 </r>
       <r>    1.0548   -0.0000 </r>
       <r>    1.2957    0.0000 </r>
       <r>    3.2619    0.0000 </r>
       <r>    3.4355    0.0000 </r>
       <r>    3.6067    0.0000 </r>
       <r>    3.6995    0.0000 </r>
       <r>    3.9829    0.0000 </r>
       <r>    4.0204    0.0000 </r>
       <r>    4.3534    0.0000 </r>
       <r>    4.5895    0.0000 </r>
       <r>    4.8953    0.0000 </r>
       <r>    4.9688    0.0000 </r>
       <r>    5.3564    0.0000 </r>
       <r>    5.7564    0.0000 </r>
       <r>    5.8954    0.0000 </r>
       <r>    6.1814    0.0000 </r>
       <r>    6.9409    0.0000 </r>
       <r>    7.1290    0.0000 </r>
       <r>    7.1470    0.0000 </r>
       <r>    7.1704    0.0000 </r>
       <r>    7.3485    0.0000 </r>
       <r>    7.3854    0.0000 </r>
       <r>    7.6132    0.0000 </r>
       <r>    7.7237    0.0000 </r>
       <r>    7.9526    0.0000 </r>
      </set>
      <set comment="kpoint 8">
       <r>   -8.8671    1.0000 </r>
       <r>   -7.4490    1.0000 </r>
       <r>   -7.0235    1.0000 </r>
       <r>   -6.4009    1.0000 </r>
       <r>   -6.1587    1.0000 </r>
       <r>   -5.8116    1.0000 </r>
       <r>   -5.7772    1.0000 </r>
       <r>   -5.6974    1.0000 </r>
       <r>   -5.5879    1.0000 </r>
       <r>   -5.4725    1.0000 </r>
       <r>   -5.3416    1.0000 </r>
       <r>   -5.3286    1.0000 </r>
       <r>   -5.1374    1.0000 </r>
       <r>   -5.1374    1.0000 </r>
       <r>   -5.1024    1.0000 </r>
       <r>   -4.8874    1.0000 </r>
       <r>   -4.8805    1.0000 </r>
       <r>   -4.8668    1.0000 </r>
       <r>   -4.8497    1.0000 </r>
       <r>   -4.7598    1.0000 </r>
       <r>   -4.7329    1.0000 </r>
       <r>   -4.6767    1.0000 </r>
       <r>   -4.5143    1.0000 </r>
       <r>   -4.5095    1.0000 </r>
       <r>   -4.3530    1.0000 </r>
       <r>   -4.3511    1.0000 </r>
       <r>   -4.3234    1.0000 </r>
       <r>   -4.2553    1.0000 </r>
       <r>   -4.2517    1.0000 </r>
       <r>   -4.2476    1.0000 </r>
       <r>   -4.2264    1.0000 </r>
       <r>   -4.2136    1.0000 </r>
       <r>   -4.1603    1.0000 </r>
       <r>   -4.0950    1.0000 </r>
       <r>   -4.0640    1.0000 </r>
       <r>   -4.0629    1.0000 </r>
       <r>   -4.0198    1.0000 </r>
       <r>   -4.0124    1.0000 </r>
       <r>   -4.0003    1.0000 </r>
       <r>   -4.0002    1.0000 </r>
       <r>   -3.9156    1.0000 </r>
       <r>   -3.7840    1.0000 </r>
       <r>   -3.7250    1.0000 </r>
       <r>   -3.7073    1.0000 </r>
       <r>   -3.6883    1.0000 </r>
       <r>   -3.6632    1.0000 </r>
       <r>   -3.5811    1.0000 </r>
       <r>   -3.5711    1.0000 </r>
       <r>   -3.5698    1.0000 </r>
       <r>   -3.4818    1.0000 </r>
       <r>   -3.4183    1.0000 </r>
       <r>   -3.4058    1.0000 </r>
       <r>   -3.3562    1.0000 </r>
       <r>   -3.2980    1.0000 </r>
       <r>   -3.2866    1.0000 </r>
       <r>   -3.2414    1.0000 </r>
       <r>   -3.2135    1.0000 </r>
       <r>   -3.1512    1.0000 </r>
       <r>   -3.1143    1.0000 </r>
       <r>   -3.1034    1.0000 </r>
       <r>   -3.0904    1.0000 </r>
       <r>   -3.0408    1.0000 </r>
       <r>   -3.0368    1.0000 </r>
       <r>   -2.8421    1.0000 </r>
       <r>   -2.3156    1.0000 </r>
       <r>   -1.6951    1.0119 </r>
       <r>   -1.4712    0.2093 </r>
       <r>   -0.5133   -0.0000 </r>
       <r>   -0.4379   -0.0000 </r>
       <r>    0.5363   -0.0000 </r>
       <r>    0.7772   -0.0000 </r>
       <r>    1.0389   -0.0000 </r>
       <r>    2.3591    0.0000 </r>
       <r>    2.5113    0.0000 </r>
       <r>    3.7707    0.0000 </r>
       <r>    3.8913    0.0000 </r>
       <r>    4.2133    0.0000 </r>
       <r>    4.2709    0.0000 </r>
       <r>    4.5239    0.0000 </r>
       <r>    4.7792    0.0000 </r>
       <r>    5.2569    0.0000 </r>
       <r>    5.3447    0.0000 </r>
       <r>    5.5344    0.0000 </r>
       <r>    5.8512    0.0000 </r>
       <r>    5.8694    0.0000 </r>
       <r>    5.9557    0.0000 </r>
       <r>    6.1440    0.0000 </r>
       <r>    6.6100    0.0000 </r>
       <r>    6.7037    0.0000 </r>
       <r>    6.9343    0.0000 </r>
       <r>    7.2801    0.0000 </r>
       <r>    7.4199    0.0000 </r>
       <r>    7.5413    0.0000 </r>
       <r>    7.5846    0.0000 </r>
       <r>    7.6776    0.0000 </r>
       <r>    7.6942    0.0000 </r>
      </set>
      <set comment="kpoint 9">
       <r>   -8.1882    1.0000 </r>
       <r>   -8.1882    1.0000 </r>
       <r>   -6.5248    1.0000 </r>
       <r>   -6.5248    1.0000 </r>
       <r>   -6.4035    1.0000 </r>
       <r>   -5.7276    1.0000 </r>
       <r>   -5.6170    1.0000 </r>
       <r>   -5.5470    1.0000 </r>
       <r>   -5.5470    1.0000 </r>
       <r>   -5.5257    1.0000 </r>
       <r>   -5.2610    1.0000 </r>
       <r>   -5.2275    1.0000 </r>
       <r>   -5.1388    1.0000 </r>
       <r>   -5.1282    1.0000 </r>
       <r>   -4.9916    1.0000 </r>
       <r>   -4.9916    1.0000 </r>
       <r>   -4.9145    1.0000 </r>
       <r>   -4.8705    1.0000 </r>
       <r>   -4.8705    1.0000 </r>
       <r>   -4.7658    1.0000 </r>
       <r>   -4.7323    1.0000 </r>
       <r>   -4.6909    1.0000 </r>
       <r>   -4.4765    1.0000 </r>
       <r>   -4.4765    1.0000 </r>
       <r>   -4.4558    1.0000 </r>
       <r>   -4.3892    1.0000 </r>
       <r>   -4.3872    1.0000 </r>
       <r>   -4.3872    1.0000 </r>
       <r>   -4.2886    1.0000 </r>
       <r>   -4.2802    1.0000 </r>
       <r>   -4.2802    1.0000 </r>
       <r>   -4.2353    1.0000 </r>
       <r>   -4.1764    1.0000 </r>
       <r>   -4.1535    1.0000 </r>
       <r>   -4.1391    1.0000 </r>
       <r>   -4.1275    1.0000 </r>
       <r>   -4.1090    1.0000 </r>
       <r>   -4.1090    1.0000 </r>
       <r>   -4.0177    1.0000 </r>
       <r>   -4.0177    1.0000 </r>
       <r>   -3.8402    1.0000 </r>
       <r>   -3.8402    1.0000 </r>
       <r>   -3.7077    1.0000 </r>
       <r>   -3.7077    1.0000 </r>
       <r>   -3.6827    1.0000 </r>
       <r>   -3.6495    1.0000 </r>
       <r>   -3.6331    1.0000 </r>
       <r>   -3.5763    1.0000 </r>
       <r>   -3.5247    1.0000 </r>
       <r>   -3.5247    1.0000 </r>
       <r>   -3.4769    1.0000 </r>
       <r>   -3.4769    1.0000 </r>
       <r>   -3.3920    1.0000 </r>
       <r>   -3.3475    1.0000 </r>
       <r>   -3.3475    1.0000 </r>
       <r>   -3.3228    1.0000 </r>
       <r>   -3.1503    1.0000 </r>
       <r>   -3.1503    1.0000 </r>
       <r>   -3.1494    1.0000 </r>
       <r>   -3.1159    1.0000 </r>
       <r>   -3.0695    1.0000 </r>
       <r>   -3.0695    1.0000 </r>
       <r>   -3.0403    1.0000 </r>
       <r>   -3.0346    1.0000 </r>
       <r>   -2.2979    1.0000 </r>
       <r>   -1.4644    0.1660 </r>
       <r>   -1.1311   -0.0000 </r>
       <r>   -1.1311   -0.0000 </r>
       <r>   -0.5171   -0.0000 </r>
       <r>    0.8341   -0.0000 </r>
       <r>    1.0261   -0.0000 </r>
       <r>    1.4679    0.0000 </r>
       <r>    1.4679    0.0000 </r>
       <r>    3.1048    0.0000 </r>
       <r>    4.1727    0.0000 </r>
       <r>    4.1800    0.0000 </r>
       <r>    4.4461    0.0000 </r>
       <r>    4.4461    0.0000 </r>
       <r>    4.6649    0.0000 </r>
       <r>    5.0288    0.0000 </r>
       <r>    5.0288    0.0000 </r>
       <r>    5.2483    0.0000 </r>
       <r>    5.2483    0.0000 </r>
       <r>    5.8080    0.0000 </r>
       <r>    6.2841    0.0000 </r>
       <r>    6.2841    0.0000 </r>
       <r>    6.3874    0.0000 </r>
       <r>    6.4313    0.0000 </r>
       <r>    6.5545    0.0000 </r>
       <r>    6.5545    0.0000 </r>
       <r>    6.7198    0.0000 </r>
       <r>    6.8409    0.0000 </r>
       <r>    7.0936    0.0000 </r>
       <r>    7.6181    0.0000 </r>
       <r>    7.7328    0.0000 </r>
       <r>    8.3564    0.0000 </r>
      </set>
      <set comment="kpoint 10">
       <r>   -8.9552    1.0000 </r>
       <r>   -7.0932    1.0000 </r>
       <r>   -6.9334    1.0000 </r>
       <r>   -6.9334    1.0000 </r>
       <r>   -5.9530    1.0000 </r>
       <r>   -5.9530    1.0000 </r>
       <r>   -5.8484    1.0000 </r>
       <r>   -5.6449    1.0000 </r>
       <r>   -5.5596    1.0000 </r>
       <r>   -5.4045    1.0000 </r>
       <r>   -5.4045    1.0000 </r>
       <r>   -5.3348    1.0000 </r>
       <r>   -5.1564    1.0000 </r>
       <r>   -5.1271    1.0000 </r>
       <r>   -5.1271    1.0000 </r>
       <r>   -4.9135    1.0000 </r>
       <r>   -4.9135    1.0000 </r>
       <r>   -4.8644    1.0000 </r>
       <r>   -4.8445    1.0000 </r>
       <r>   -4.7371    1.0000 </r>
       <r>   -4.6767    1.0000 </r>
       <r>   -4.5749    1.0000 </r>
       <r>   -4.5749    1.0000 </r>
       <r>   -4.5749    1.0000 </r>
       <r>   -4.3515    1.0000 </r>
       <r>   -4.3271    1.0000 </r>
       <r>   -4.3271    1.0000 </r>
       <r>   -4.3237    1.0000 </r>
       <r>   -4.3093    1.0000 </r>
       <r>   -4.2422    1.0000 </r>
       <r>   -4.2422    1.0000 </r>
       <r>   -4.1987    1.0000 </r>
       <r>   -4.0951    1.0000 </r>
       <r>   -4.0951    1.0000 </r>
       <r>   -4.0918    1.0000 </r>
       <r>   -4.0481    1.0000 </r>
       <r>   -4.0439    1.0000 </r>
       <r>   -3.9665    1.0000 </r>
       <r>   -3.9665    1.0000 </r>
       <r>   -3.9374    1.0000 </r>
       <r>   -3.8549    1.0000 </r>
       <r>   -3.7963    1.0000 </r>
       <r>   -3.7349    1.0000 </r>
       <r>   -3.7114    1.0000 </r>
       <r>   -3.6552    1.0000 </r>
       <r>   -3.6552    1.0000 </r>
       <r>   -3.5747    1.0000 </r>
       <r>   -3.5747    1.0000 </r>
       <r>   -3.5496    1.0000 </r>
       <r>   -3.4920    1.0000 </r>
       <r>   -3.4419    1.0000 </r>
       <r>   -3.3482    1.0000 </r>
       <r>   -3.3482    1.0000 </r>
       <r>   -3.2194    1.0000 </r>
       <r>   -3.1970    1.0000 </r>
       <r>   -3.1909    1.0000 </r>
       <r>   -3.1584    1.0000 </r>
       <r>   -3.1584    1.0000 </r>
       <r>   -3.1436    1.0000 </r>
       <r>   -3.1034    1.0000 </r>
       <r>   -3.1034    1.0000 </r>
       <r>   -3.0862    1.0000 </r>
       <r>   -2.8542    1.0000 </r>
       <r>   -2.8541    1.0000 </r>
       <r>   -2.3031    1.0000 </r>
       <r>   -2.3031    1.0000 </r>
       <r>   -1.7630    1.0009 </r>
       <r>    0.1942   -0.0000 </r>
       <r>    0.1942   -0.0000 </r>
       <r>    0.4124   -0.0000 </r>
       <r>    0.5112   -0.0000 </r>
       <r>    1.0673   -0.0000 </r>
       <r>    1.8496    0.0000 </r>
       <r>    3.2991    0.0000 </r>
       <r>    3.2991    0.0000 </r>
       <r>    3.5420    0.0000 </r>
       <r>    3.6864    0.0000 </r>
       <r>    4.1759    0.0000 </r>
       <r>    4.4337    0.0000 </r>
       <r>    5.0583    0.0000 </r>
       <r>    5.4030    0.0000 </r>
       <r>    5.4404    0.0000 </r>
       <r>    5.7231    0.0000 </r>
       <r>    5.7231    0.0000 </r>
       <r>    5.7843    0.0000 </r>
       <r>    6.2488    0.0000 </r>
       <r>    6.2833    0.0000 </r>
       <r>    6.2833    0.0000 </r>
       <r>    6.7666    0.0000 </r>
       <r>    6.7666    0.0000 </r>
       <r>    6.9084    0.0000 </r>
       <r>    6.9084    0.0000 </r>
       <r>    7.6044    0.0000 </r>
       <r>    7.6081    0.0000 </r>
       <r>    7.6241    0.0000 </r>
       <r>    7.8771    0.0000 </r>
      </set>
      <set comment="kpoint 11">
       <r>   -8.3467    1.0000 </r>
       <r>   -7.6390    1.0000 </r>
       <r>   -7.0129    1.0000 </r>
       <r>   -6.6146    1.0000 </r>
       <r>   -6.1886    1.0000 </r>
       <r>   -5.9033    1.0000 </r>
       <r>   -5.5453    1.0000 </r>
       <r>   -5.4842    1.0000 </r>
       <r>   -5.4248    1.0000 </r>
       <r>   -5.3721    1.0000 </r>
       <r>   -5.2452    1.0000 </r>
       <r>   -5.2364    1.0000 </r>
       <r>   -5.1874    1.0000 </r>
       <r>   -5.0806    1.0000 </r>
       <r>   -4.9862    1.0000 </r>
       <r>   -4.9690    1.0000 </r>
       <r>   -4.9665    1.0000 </r>
       <r>   -4.9555    1.0000 </r>
       <r>   -4.8635    1.0000 </r>
       <r>   -4.8127    1.0000 </r>
       <r>   -4.6435    1.0000 </r>
       <r>   -4.6320    1.0000 </r>
       <r>   -4.5981    1.0000 </r>
       <r>   -4.5413    1.0000 </r>
       <r>   -4.5042    1.0000 </r>
       <r>   -4.4484    1.0000 </r>
       <r>   -4.4377    1.0000 </r>
       <r>   -4.4339    1.0000 </r>
       <r>   -4.4017    1.0000 </r>
       <r>   -4.3867    1.0000 </r>
       <r>   -4.2996    1.0000 </r>
       <r>   -4.2188    1.0000 </r>
       <r>   -4.1659    1.0000 </r>
       <r>   -4.1594    1.0000 </r>
       <r>   -4.1573    1.0000 </r>
       <r>   -4.1442    1.0000 </r>
       <r>   -4.0766    1.0000 </r>
       <r>   -4.0489    1.0000 </r>
       <r>   -3.9980    1.0000 </r>
       <r>   -3.9679    1.0000 </r>
       <r>   -3.9018    1.0000 </r>
       <r>   -3.7724    1.0000 </r>
       <r>   -3.6974    1.0000 </r>
       <r>   -3.6853    1.0000 </r>
       <r>   -3.6852    1.0000 </r>
       <r>   -3.6163    1.0000 </r>
       <r>   -3.6156    1.0000 </r>
       <r>   -3.5687    1.0000 </r>
       <r>   -3.5543    1.0000 </r>
       <r>   -3.4764    1.0000 </r>
       <r>   -3.4642    1.0000 </r>
       <r>   -3.4098    1.0000 </r>
       <r>   -3.3674    1.0000 </r>
       <r>   -3.2777    1.0000 </r>
       <r>   -3.2567    1.0000 </r>
       <r>   -3.1925    1.0000 </r>
       <r>   -3.1801    1.0000 </r>
       <r>   -3.1624    1.0000 </r>
       <r>   -3.1596    1.0000 </r>
       <r>   -3.1292    1.0000 </r>
       <r>   -3.1118    1.0000 </r>
       <r>   -3.1108    1.0000 </r>
       <r>   -3.0792    1.0000 </r>
       <r>   -2.8324    1.0000 </r>
       <r>   -2.8139    1.0000 </r>
       <r>   -2.2857    1.0000 </r>
       <r>   -1.2530   -0.0009 </r>
       <r>   -0.6060   -0.0000 </r>
       <r>    0.1113   -0.0000 </r>
       <r>    0.7501   -0.0000 </r>
       <r>    1.2505    0.0000 </r>
       <r>    2.0035    0.0000 </r>
       <r>    2.2219    0.0000 </r>
       <r>    2.5110    0.0000 </r>
       <r>    3.1343    0.0000 </r>
       <r>    3.8922    0.0000 </r>
       <r>    4.2806    0.0000 </r>
       <r>    4.3060    0.0000 </r>
       <r>    4.8407    0.0000 </r>
       <r>    5.0377    0.0000 </r>
       <r>    5.0681    0.0000 </r>
       <r>    5.1929    0.0000 </r>
       <r>    5.6887    0.0000 </r>
       <r>    5.7855    0.0000 </r>
       <r>    5.8849    0.0000 </r>
       <r>    6.0987    0.0000 </r>
       <r>    6.1116    0.0000 </r>
       <r>    6.3878    0.0000 </r>
       <r>    6.5229    0.0000 </r>
       <r>    6.6978    0.0000 </r>
       <r>    6.8413    0.0000 </r>
       <r>    6.9324    0.0000 </r>
       <r>    7.1484    0.0000 </r>
       <r>    7.4245    0.0000 </r>
       <r>    7.8150    0.0000 </r>
       <r>    8.0254    0.0000 </r>
      </set>
      <set comment="kpoint 12">
       <r>   -7.7044    1.0000 </r>
       <r>   -7.7044    1.0000 </r>
       <r>   -7.7044    1.0000 </r>
       <r>   -6.1964    1.0000 </r>
       <r>   -6.1964    1.0000 </r>
       <r>   -6.1963    1.0000 </r>
       <r>   -5.3773    1.0000 </r>
       <r>   -5.3059    1.0000 </r>
       <r>   -5.3056    1.0000 </r>
       <r>   -5.2949    1.0000 </r>
       <r>   -5.2949    1.0000 </r>
       <r>   -5.2949    1.0000 </r>
       <r>   -5.1101    1.0000 </r>
       <r>   -5.1100    1.0000 </r>
       <r>   -5.0615    1.0000 </r>
       <r>   -5.0615    1.0000 </r>
       <r>   -5.0615    1.0000 </r>
       <r>   -4.8146    1.0000 </r>
       <r>   -4.8146    1.0000 </r>
       <r>   -4.8146    1.0000 </r>
       <r>   -4.6671    1.0000 </r>
       <r>   -4.6671    1.0000 </r>
       <r>   -4.6671    1.0000 </r>
       <r>   -4.5413    1.0000 </r>
       <r>   -4.5315    1.0000 </r>
       <r>   -4.5315    1.0000 </r>
       <r>   -4.5315    1.0000 </r>
       <r>   -4.4860    1.0000 </r>
       <r>   -4.4860    1.0000 </r>
       <r>   -4.4860    1.0000 </r>
       <r>   -4.2694    1.0000 </r>
       <r>   -4.2689    1.0000 </r>
       <r>   -4.2298    1.0000 </r>
       <r>   -4.2014    1.0000 </r>
       <r>   -4.0720    1.0000 </r>
       <r>   -4.0720    1.0000 </r>
       <r>   -4.0720    1.0000 </r>
       <r>   -4.0532    1.0000 </r>
       <r>   -4.0532    1.0000 </r>
       <r>   -4.0532    1.0000 </r>
       <r>   -3.7944    1.0000 </r>
       <r>   -3.7944    1.0000 </r>
       <r>   -3.7944    1.0000 </r>
       <r>   -3.6251    1.0000 </r>
       <r>   -3.6248    1.0000 </r>
       <r>   -3.5877    1.0000 </r>
       <r>   -3.5877    1.0000 </r>
       <r>   -3.5877    1.0000 </r>
       <r>   -3.5171    1.0000 </r>
       <r>   -3.5171    1.0000 </r>
       <r>   -3.5171    1.0000 </r>
       <r>   -3.2712    1.0000 </r>
       <r>   -3.2712    1.0000 </r>
       <r>   -3.2712    1.0000 </r>
       <r>   -3.2173    1.0000 </r>
       <r>   -3.2170    1.0000 </r>
       <r>   -3.1726    1.0000 </r>
       <r>   -3.1726    1.0000 </r>
       <r>   -3.1726    1.0000 </r>
       <r>   -3.1639    1.0000 </r>
       <r>   -3.1394    1.0000 </r>
       <r>   -3.1394    1.0000 </r>
       <r>   -3.1394    1.0000 </r>
       <r>   -2.8236    1.0000 </r>
       <r>   -2.8236    1.0000 </r>
       <r>   -2.8236    1.0000 </r>
       <r>   -0.6582   -0.0000 </r>
       <r>   -0.6582   -0.0000 </r>
       <r>   -0.6582   -0.0000 </r>
       <r>    2.1247    0.0000 </r>
       <r>    2.1247    0.0000 </r>
       <r>    2.1247    0.0000 </r>
       <r>    2.1273    0.0000 </r>
       <r>    2.1274    0.0000 </r>
       <r>    2.5035    0.0000 </r>
       <r>    3.1620    0.0000 </r>
       <r>    4.5118    0.0000 </r>
       <r>    4.5120    0.0000 </r>
       <r>    4.9606    0.0000 </r>
       <r>    4.9606    0.0000 </r>
       <r>    4.9606    0.0000 </r>
       <r>    5.5969    0.0000 </r>
       <r>    5.5969    0.0000 </r>
       <r>    5.5969    0.0000 </r>
       <r>    5.7965    0.0000 </r>
       <r>    5.7965    0.0000 </r>
       <r>    5.7965    0.0000 </r>
       <r>    6.5053    0.0000 </r>
       <r>    6.5056    0.0000 </r>
       <r>    6.8470    0.0000 </r>
       <r>    6.8470    0.0000 </r>
       <r>    6.8470    0.0000 </r>
       <r>    7.0795    0.0000 </r>
       <r>    7.0795    0.0000 </r>
       <r>    7.0795    0.0000 </r>
       <r>    7.7551    0.0000 </r>
      </set>
     </set>
    </set>
   </array>
  </eigenvalues>
  <separator name="orbital magnetization" >
   <v name="MAGDIPOLOUT">      0.00000000      0.00000000      0.00000000</v>
  </separator>
  <dos>
   <i name="efermi">     -1.50820750 </i>
   <total>
    <array>
     <dimension dim="1">gridpoints</dimension>
     <dimension dim="2">spin</dimension>
     <field>energy</field>
     <field>total</field>
     <field>integrated</field>
     <set>
      <set comment="spin 1">
       <r>   -11.0808     0.0000     0.0000 </r>
       <r>   -11.0103     0.0000     0.0000 </r>
       <r>   -10.9399    -0.0000    -0.0000 </r>
       <r>   -10.8694    -0.0000    -0.0000 </r>
       <r>   -10.7990    -0.0000    -0.0000 </r>
       <r>   -10.7286    -0.0000    -0.0000 </r>
       <r>   -10.6581    -0.0000    -0.0000 </r>
       <r>   -10.5877    -0.0000    -0.0000 </r>
       <r>   -10.5172    -0.0000    -0.0000 </r>
       <r>   -10.4468    -0.0000    -0.0000 </r>
       <r>   -10.3764    -0.0000    -0.0000 </r>
       <r>   -10.3059    -0.0012    -0.0001 </r>
       <r>   -10.2355    -0.0100    -0.0008 </r>
       <r>   -10.1650    -0.0181    -0.0021 </r>
       <r>   -10.0946     0.0943     0.0046 </r>
       <r>   -10.0242     0.6392     0.0496 </r>
       <r>    -9.9537     1.1701     0.1320 </r>
       <r>    -9.8833     0.5802     0.1729 </r>
       <r>    -9.8128     0.6395     0.2179 </r>
       <r>    -9.7424     1.4922     0.3230 </r>
       <r>    -9.6720     1.5046     0.4290 </r>
       <r>    -9.6015     0.5825     0.4701 </r>
       <r>    -9.5311    -0.1155     0.4619 </r>
       <r>    -9.4606     0.7091     0.5119 </r>
       <r>    -9.3902     2.2454     0.6700 </r>
       <r>    -9.3197     1.3976     0.7685 </r>
       <r>    -9.2493     0.7383     0.8205 </r>
       <r>    -9.1789     1.0478     0.8943 </r>
       <r>    -9.1084     0.2862     0.9145 </r>
       <r>    -9.0380    -0.0600     0.9102 </r>
       <r>    -8.9675     0.7743     0.9648 </r>
       <r>    -8.8971     2.2755     1.1251 </r>
       <r>    -8.8267     2.5862     1.3072 </r>
       <r>    -8.7562     0.8185     1.3649 </r>
       <r>    -8.6858    -0.0107     1.3641 </r>
       <r>    -8.6153     0.8183     1.4218 </r>
       <r>    -8.5449     1.0131     1.4931 </r>
       <r>    -8.4745     0.1084     1.5008 </r>
       <r>    -8.4040     0.4612     1.5333 </r>
       <r>    -8.3336     2.0566     1.6781 </r>
       <r>    -8.2631     1.8487     1.8084 </r>
       <r>    -8.1927     1.9348     1.9447 </r>
       <r>    -8.1223     2.0429     2.0886 </r>
       <r>    -8.0518     1.0379     2.1617 </r>
       <r>    -7.9814     1.0290     2.2342 </r>
       <r>    -7.9109     1.1499     2.3152 </r>
       <r>    -7.8405     2.0070     2.4565 </r>
       <r>    -7.7701     2.2248     2.6132 </r>
       <r>    -7.6996     2.7160     2.8046 </r>
       <r>    -7.6292     3.1390     3.0257 </r>
       <r>    -7.5587     2.0508     3.1701 </r>
       <r>    -7.4883     3.0225     3.3830 </r>
       <r>    -7.4179     4.1047     3.6722 </r>
       <r>    -7.3474     2.1242     3.8218 </r>
       <r>    -7.2770     0.8821     3.8839 </r>
       <r>    -7.2065     0.3916     3.9115 </r>
       <r>    -7.1361     1.2612     4.0004 </r>
       <r>    -7.0657     3.3090     4.2335 </r>
       <r>    -6.9952     5.6191     4.6293 </r>
       <r>    -6.9248     4.6839     4.9592 </r>
       <r>    -6.8543     2.6201     5.1438 </r>
       <r>    -6.7839     3.0157     5.3562 </r>
       <r>    -6.7134     2.1423     5.5071 </r>
       <r>    -6.6430     1.6050     5.6202 </r>
       <r>    -6.5726     4.3916     5.9295 </r>
       <r>    -6.5021     4.9279     6.2766 </r>
       <r>    -6.4317     5.1890     6.6421 </r>
       <r>    -6.3612     9.6905     7.3247 </r>
       <r>    -6.2908     7.8414     7.8771 </r>
       <r>    -6.2204     5.0519     8.2330 </r>
       <r>    -6.1499    10.0553     8.9413 </r>
       <r>    -6.0795    11.1485     9.7266 </r>
       <r>    -6.0090    12.8160    10.6293 </r>
       <r>    -5.9386    18.6234    11.9412 </r>
       <r>    -5.8682    17.6072    13.1814 </r>
       <r>    -5.7977    13.4003    14.1254 </r>
       <r>    -5.7273    11.2473    14.9176 </r>
       <r>    -5.6568    11.4925    15.7272 </r>
       <r>    -5.5864    18.3098    17.0169 </r>
       <r>    -5.5160    28.7685    19.0434 </r>
       <r>    -5.4455    28.0553    21.0196 </r>
       <r>    -5.3751    23.7134    22.6900 </r>
       <r>    -5.3046    22.0256    24.2415 </r>
       <r>    -5.2342    21.9151    25.7852 </r>
       <r>    -5.1638    21.5599    27.3039 </r>
       <r>    -5.0933    20.7601    28.7663 </r>
       <r>    -5.0229    13.2362    29.6986 </r>
       <r>    -4.9524    19.0818    31.0428 </r>
       <r>    -4.8820    42.2258    34.0172 </r>
       <r>    -4.8116    42.2245    36.9915 </r>
       <r>    -4.7411    24.1116    38.6899 </r>
       <r>    -4.6707    18.5953    39.9998 </r>
       <r>    -4.6002    21.6385    41.5240 </r>
       <r>    -4.5298    31.6585    43.7540 </r>
       <r>    -4.4594    49.8596    47.2662 </r>
       <r>    -4.3889    50.8329    50.8469 </r>
       <r>    -4.3185    46.6146    54.1304 </r>
       <r>    -4.2480    57.6213    58.1893 </r>
       <r>    -4.1776    71.2752    63.2100 </r>
       <r>    -4.1071    68.9273    68.0653 </r>
       <r>    -4.0367    54.8805    71.9311 </r>
       <r>    -3.9663    39.0696    74.6831 </r>
       <r>    -3.8958    28.4251    76.6854 </r>
       <r>    -3.8254    23.9552    78.3728 </r>
       <r>    -3.7549    31.0755    80.5618 </r>
       <r>    -3.6845    55.2934    84.4567 </r>
       <r>    -3.6141    71.3888    89.4854 </r>
       <r>    -3.5436    59.8951    93.7044 </r>
       <r>    -3.4732    37.9827    96.3800 </r>
       <r>    -3.4027    37.5517    99.0251 </r>
       <r>    -3.3323    46.9432   102.3318 </r>
       <r>    -3.2619    49.3212   105.8060 </r>
       <r>    -3.1914    57.6655   109.8680 </r>
       <r>    -3.1210    80.7561   115.5565 </r>
       <r>    -3.0505    80.0991   121.1988 </r>
       <r>    -2.9801    45.9000   124.4320 </r>
       <r>    -2.9097    18.2210   125.7155 </r>
       <r>    -2.8392    11.9743   126.5589 </r>
       <r>    -2.7688    10.2921   127.2839 </r>
       <r>    -2.6983     3.1600   127.5065 </r>
       <r>    -2.6279    -0.1595   127.4953 </r>
       <r>    -2.5575     0.3720   127.5215 </r>
       <r>    -2.4870     1.0335   127.5943 </r>
       <r>    -2.4166     2.6199   127.7788 </r>
       <r>    -2.3461     8.5402   128.3804 </r>
       <r>    -2.2757    12.6305   129.2701 </r>
       <r>    -2.2053     7.3020   129.7845 </r>
       <r>    -2.1348     3.3855   130.0229 </r>
       <r>    -2.0644     2.6747   130.2114 </r>
       <r>    -1.9939     2.1935   130.3659 </r>
       <r>    -1.9235     1.1037   130.4436 </r>
       <r>    -1.8531    -0.0284   130.4416 </r>
       <r>    -1.7826     0.6992   130.4909 </r>
       <r>    -1.7122     2.3475   130.6562 </r>
       <r>    -1.6417     2.2906   130.8176 </r>
       <r>    -1.5713     5.2763   131.1892 </r>
       <r>    -1.5008    13.0547   132.1088 </r>
       <r>    -1.4304    12.1488   132.9646 </r>
       <r>    -1.3600     5.0867   133.3229 </r>
       <r>    -1.2895     2.7811   133.5188 </r>
       <r>    -1.2191     3.0522   133.7338 </r>
       <r>    -1.1486     2.6130   133.9179 </r>
       <r>    -1.0782     2.7626   134.1125 </r>
       <r>    -1.0078     1.6160   134.2263 </r>
       <r>    -0.9373     0.9462   134.2929 </r>
       <r>    -0.8669     2.2325   134.4502 </r>
       <r>    -0.7964     2.5594   134.6305 </r>
       <r>    -0.7260     1.9865   134.7704 </r>
       <r>    -0.6556     2.1913   134.9248 </r>
       <r>    -0.5851     3.7971   135.1922 </r>
       <r>    -0.5147     8.3777   135.7824 </r>
       <r>    -0.4442    13.6648   136.7449 </r>
       <r>    -0.3738    10.2227   137.4650 </r>
       <r>    -0.3034     3.1110   137.6842 </r>
       <r>    -0.2329     1.8406   137.8138 </r>
       <r>    -0.1625     1.3849   137.9114 </r>
       <r>    -0.0920     0.9655   137.9794 </r>
       <r>    -0.0216     1.0772   138.0553 </r>
       <r>     0.0488     2.8802   138.2581 </r>
       <r>     0.1193     4.3333   138.5634 </r>
       <r>     0.1897     3.7718   138.8291 </r>
       <r>     0.2602     1.9220   138.9644 </r>
       <r>     0.3306     0.9926   139.0344 </r>
       <r>     0.4010     3.2764   139.2652 </r>
       <r>     0.4715     6.1229   139.6965 </r>
       <r>     0.5419     7.7950   140.2455 </r>
       <r>     0.6124     4.9869   140.5968 </r>
       <r>     0.6828     2.4118   140.7667 </r>
       <r>     0.7532     4.8214   141.1063 </r>
       <r>     0.8237     5.7570   141.5119 </r>
       <r>     0.8941     2.7963   141.7088 </r>
       <r>     0.9646     2.8604   141.9103 </r>
       <r>     1.0350     7.1749   142.4157 </r>
       <r>     1.1055     6.7994   142.8947 </r>
       <r>     1.1759     2.8146   143.0929 </r>
       <r>     1.2463     4.5325   143.4122 </r>
       <r>     1.3168     5.0265   143.7663 </r>
       <r>     1.3872     1.8561   143.8970 </r>
       <r>     1.4577     1.5741   144.0079 </r>
       <r>     1.5281     2.0201   144.1502 </r>
       <r>     1.5985     0.4563   144.1823 </r>
       <r>     1.6690    -0.2213   144.1668 </r>
       <r>     1.7394    -0.1314   144.1575 </r>
       <r>     1.8099     1.7566   144.2812 </r>
       <r>     1.8803     4.1464   144.5733 </r>
       <r>     1.9507     3.0081   144.7852 </r>
       <r>     2.0212     3.0688   145.0014 </r>
       <r>     2.0916     4.4558   145.3152 </r>
       <r>     2.1621     3.8343   145.5853 </r>
       <r>     2.2325     2.8159   145.7837 </r>
       <r>     2.3029     2.0587   145.9287 </r>
       <r>     2.3734     2.0371   146.0722 </r>
       <r>     2.4438     2.2759   146.2325 </r>
       <r>     2.5143     4.4411   146.5454 </r>
       <r>     2.5847     3.9072   146.8206 </r>
       <r>     2.6551     0.6354   146.8653 </r>
       <r>     2.7256     0.5602   146.9048 </r>
       <r>     2.7960     1.0468   146.9785 </r>
       <r>     2.8665     0.7679   147.0326 </r>
       <r>     2.9369     1.9181   147.1677 </r>
       <r>     3.0073     3.8444   147.4385 </r>
       <r>     3.0778     6.6332   147.9058 </r>
       <r>     3.1482     8.0068   148.4698 </r>
       <r>     3.2187     5.0542   148.8258 </r>
       <r>     3.2891     5.5916   149.2197 </r>
       <r>     3.3595     8.7737   149.8377 </r>
       <r>     3.4300     9.0302   150.4738 </r>
       <r>     3.5004     5.7349   150.8778 </r>
       <r>     3.5709     2.8134   151.0760 </r>
       <r>     3.6413     4.7169   151.4082 </r>
       <r>     3.7118     8.1109   151.9795 </r>
       <r>     3.7822     8.2113   152.5580 </r>
       <r>     3.8526     5.7271   152.9614 </r>
       <r>     3.9231     8.3433   153.5491 </r>
       <r>     3.9935     9.7646   154.2369 </r>
       <r>     4.0640     6.3363   154.6832 </r>
       <r>     4.1344     4.1971   154.9789 </r>
       <r>     4.2048     8.7692   155.5966 </r>
       <r>     4.2753    11.6420   156.4167 </r>
       <r>     4.3457    10.9517   157.1881 </r>
       <r>     4.4162     8.1877   157.7648 </r>
       <r>     4.4866     8.0578   158.3324 </r>
       <r>     4.5570     7.9264   158.8908 </r>
       <r>     4.6275     6.6506   159.3593 </r>
       <r>     4.6979     5.8314   159.7700 </r>
       <r>     4.7684     6.3576   160.2179 </r>
       <r>     4.8388     7.6038   160.7535 </r>
       <r>     4.9092     7.3699   161.2726 </r>
       <r>     4.9797     9.2469   161.9240 </r>
       <r>     5.0501    12.4447   162.8006 </r>
       <r>     5.1206     9.4647   163.4673 </r>
       <r>     5.1910     7.0160   163.9615 </r>
       <r>     5.2614    10.3606   164.6913 </r>
[...]
        <r>  0.0011  0.0006  0.0477 </r>
        <r>  0.0011  0.0006  0.0477 </r>
        <r>  0.0004  0.0008  0.0963 </r>
        <r>  0.0004  0.0008  0.0963 </r>
        <r>  0.0004  0.0008  0.0963 </r>
        <r>  0.0004  0.0008  0.0963 </r>
       </set>
       <set comment="band 63">
        <r>  0.0004  0.0009  0.0967 </r>
        <r>  0.0004  0.0009  0.0967 </r>
        <r>  0.0004  0.0009  0.0967 </r>
        <r>  0.0004  0.0009  0.0967 </r>
        <r>  0.0011  0.0006  0.0477 </r>
        <r>  0.0011  0.0006  0.0477 </r>
        <r>  0.0011  0.0006  0.0477 </r>
        <r>  0.0011  0.0006  0.0477 </r>
        <r>  0.0004  0.0008  0.0963 </r>
        <r>  0.0004  0.0008  0.0963 </r>
        <r>  0.0004  0.0008  0.0963 </r>
        <r>  0.0004  0.0008  0.0963 </r>
       </set>
       <set comment="band 64">
        <r>  0.0108  0.0049  0.0547 </r>
        <r>  0.0108  0.0049  0.0547 </r>
        <r>  0.0108  0.0049  0.0547 </r>
        <r>  0.0108  0.0049  0.0547 </r>
        <r>  0.0000  0.0026  0.0714 </r>
        <r>  0.0000  0.0026  0.0714 </r>
        <r>  0.0000  0.0026  0.0714 </r>
        <r>  0.0000  0.0026  0.0714 </r>
        <r>  0.0108  0.0049  0.0546 </r>
        <r>  0.0108  0.0049  0.0546 </r>
        <r>  0.0108  0.0049  0.0546 </r>
        <r>  0.0108  0.0049  0.0546 </r>
       </set>
       <set comment="band 65">
        <r>  0.0107  0.0050  0.0548 </r>
        <r>  0.0110  0.0049  0.0546 </r>
        <r>  0.0110  0.0049  0.0546 </r>
        <r>  0.0107  0.0050  0.0548 </r>
        <r>  0.0000  0.0026  0.0717 </r>
        <r>  0.0000  0.0026  0.0711 </r>
        <r>  0.0000  0.0026  0.0711 </r>
        <r>  0.0000  0.0026  0.0717 </r>
        <r>  0.0109  0.0049  0.0544 </r>
        <r>  0.0108  0.0050  0.0549 </r>
        <r>  0.0108  0.0050  0.0549 </r>
        <r>  0.0109  0.0049  0.0544 </r>
       </set>
       <set comment="band 66">
        <r>  0.0110  0.0049  0.0546 </r>
        <r>  0.0107  0.0050  0.0548 </r>
        <r>  0.0107  0.0050  0.0548 </r>
        <r>  0.0110  0.0049  0.0546 </r>
        <r>  0.0000  0.0026  0.0711 </r>
        <r>  0.0000  0.0026  0.0717 </r>
        <r>  0.0000  0.0026  0.0717 </r>
        <r>  0.0000  0.0026  0.0711 </r>
        <r>  0.0108  0.0050  0.0549 </r>
        <r>  0.0109  0.0049  0.0544 </r>
        <r>  0.0109  0.0049  0.0544 </r>
        <r>  0.0108  0.0050  0.0549 </r>
       </set>
       <set comment="band 67">
        <r>  0.0121  0.0135  0.0277 </r>
        <r>  0.0121  0.0135  0.0277 </r>
        <r>  0.0121  0.0135  0.0277 </r>
        <r>  0.0121  0.0135  0.0277 </r>
        <r>  0.0198  0.0084  0.0198 </r>
        <r>  0.0198  0.0084  0.0198 </r>
        <r>  0.0198  0.0084  0.0198 </r>
        <r>  0.0198  0.0084  0.0198 </r>
        <r>  0.0121  0.0135  0.0277 </r>
        <r>  0.0121  0.0135  0.0277 </r>
        <r>  0.0121  0.0135  0.0277 </r>
        <r>  0.0121  0.0135  0.0277 </r>
       </set>
       <set comment="band 68">
        <r>  0.0121  0.0135  0.0277 </r>
        <r>  0.0121  0.0135  0.0277 </r>
        <r>  0.0121  0.0135  0.0277 </r>
        <r>  0.0121  0.0135  0.0277 </r>
        <r>  0.0198  0.0084  0.0198 </r>
        <r>  0.0197  0.0084  0.0198 </r>
        <r>  0.0197  0.0084  0.0198 </r>
        <r>  0.0198  0.0084  0.0198 </r>
        <r>  0.0121  0.0135  0.0277 </r>
        <r>  0.0121  0.0135  0.0277 </r>
        <r>  0.0121  0.0135  0.0277 </r>
        <r>  0.0121  0.0135  0.0277 </r>
       </set>
       <set comment="band 69">
        <r>  0.0121  0.0135  0.0277 </r>
        <r>  0.0121  0.0135  0.0277 </r>
        <r>  0.0121  0.0135  0.0277 </r>
        <r>  0.0121  0.0135  0.0277 </r>
        <r>  0.0197  0.0084  0.0198 </r>
        <r>  0.0198  0.0084  0.0198 </r>
        <r>  0.0198  0.0084  0.0198 </r>
        <r>  0.0197  0.0084  0.0198 </r>
        <r>  0.0121  0.0135  0.0277 </r>
        <r>  0.0121  0.0135  0.0277 </r>
        <r>  0.0121  0.0135  0.0277 </r>
        <r>  0.0121  0.0135  0.0277 </r>
       </set>
       <set comment="band 70">
        <r>  0.0000  0.0215  0.0133 </r>
        <r>  0.0000  0.0227  0.0130 </r>
        <r>  0.0000  0.0227  0.0130 </r>
        <r>  0.0000  0.0215  0.0133 </r>
        <r>  0.0000  0.0207  0.0142 </r>
        <r>  0.0000  0.0217  0.0138 </r>
        <r>  0.0000  0.0217  0.0138 </r>
        <r>  0.0000  0.0207  0.0142 </r>
        <r>  0.0000  0.0221  0.0130 </r>
        <r>  0.0000  0.0220  0.0132 </r>
        <r>  0.0000  0.0220  0.0132 </r>
        <r>  0.0000  0.0221  0.0130 </r>
       </set>
       <set comment="band 71">
        <r>  0.0000  0.0227  0.0130 </r>
        <r>  0.0000  0.0215  0.0133 </r>
        <r>  0.0000  0.0215  0.0133 </r>
        <r>  0.0000  0.0227  0.0130 </r>
        <r>  0.0000  0.0217  0.0138 </r>
        <r>  0.0000  0.0207  0.0142 </r>
        <r>  0.0000  0.0207  0.0142 </r>
        <r>  0.0000  0.0217  0.0138 </r>
        <r>  0.0000  0.0220  0.0132 </r>
        <r>  0.0000  0.0221  0.0130 </r>
        <r>  0.0000  0.0221  0.0130 </r>
        <r>  0.0000  0.0220  0.0132 </r>
       </set>
       <set comment="band 72">
        <r>  0.0000  0.0221  0.0131 </r>
        <r>  0.0000  0.0221  0.0131 </r>
        <r>  0.0000  0.0221  0.0131 </r>
        <r>  0.0000  0.0221  0.0131 </r>
        <r>  0.0000  0.0212  0.0140 </r>
        <r>  0.0000  0.0212  0.0140 </r>
        <r>  0.0000  0.0212  0.0140 </r>
        <r>  0.0000  0.0212  0.0140 </r>
        <r>  0.0000  0.0221  0.0131 </r>
        <r>  0.0000  0.0221  0.0131 </r>
        <r>  0.0000  0.0221  0.0131 </r>
        <r>  0.0000  0.0221  0.0131 </r>
       </set>
       <set comment="band 73">
        <r>  0.0207  0.0052  0.0074 </r>
        <r>  0.0207  0.0052  0.0074 </r>
        <r>  0.0207  0.0052  0.0074 </r>
        <r>  0.0207  0.0052  0.0074 </r>
        <r>  0.0000  0.0508  0.0377 </r>
        <r>  0.0000  0.0508  0.0377 </r>
        <r>  0.0000  0.0508  0.0377 </r>
        <r>  0.0000  0.0508  0.0377 </r>
        <r>  0.0000  0.0251  0.0231 </r>
        <r>  0.0000  0.0251  0.0231 </r>
        <r>  0.0000  0.0251  0.0231 </r>
        <r>  0.0000  0.0251  0.0231 </r>
       </set>
       <set comment="band 74">
        <r>  0.0000  0.0251  0.0231 </r>
        <r>  0.0000  0.0251  0.0231 </r>
        <r>  0.0000  0.0251  0.0231 </r>
        <r>  0.0000  0.0251  0.0231 </r>
        <r>  0.0000  0.0508  0.0377 </r>
        <r>  0.0000  0.0508  0.0377 </r>
        <r>  0.0000  0.0508  0.0377 </r>
        <r>  0.0000  0.0508  0.0377 </r>
        <r>  0.0207  0.0052  0.0074 </r>
        <r>  0.0207  0.0052  0.0074 </r>
        <r>  0.0207  0.0052  0.0074 </r>
        <r>  0.0207  0.0052  0.0074 </r>
       </set>
       <set comment="band 75">
        <r>  0.0000  0.0281  0.0224 </r>
        <r>  0.0000  0.0281  0.0224 </r>
        <r>  0.0000  0.0281  0.0224 </r>
        <r>  0.0000  0.0281  0.0224 </r>
        <r>  0.0596  0.0000  0.0152 </r>
        <r>  0.0596  0.0000  0.0152 </r>
        <r>  0.0596  0.0000  0.0152 </r>
        <r>  0.0596  0.0000  0.0152 </r>
        <r>  0.0000  0.0281  0.0225 </r>
        <r>  0.0000  0.0281  0.0225 </r>
        <r>  0.0000  0.0281  0.0225 </r>
        <r>  0.0000  0.0281  0.0225 </r>
       </set>
       <set comment="band 76">
        <r>  0.0000  0.0413  0.0263 </r>
        <r>  0.0000  0.0413  0.0263 </r>
        <r>  0.0000  0.0413  0.0263 </r>
        <r>  0.0000  0.0413  0.0263 </r>
        <r>  0.0000  0.0249  0.0000 </r>
        <r>  0.0000  0.0249  0.0000 </r>
        <r>  0.0000  0.0249  0.0000 </r>
        <r>  0.0000  0.0249  0.0000 </r>
        <r>  0.0000  0.0413  0.0263 </r>
        <r>  0.0000  0.0413  0.0263 </r>
        <r>  0.0000  0.0413  0.0263 </r>
        <r>  0.0000  0.0413  0.0263 </r>
       </set>
       <set comment="band 77">
        <r>  0.0505  0.0018  0.0052 </r>
        <r>  0.0505  0.0018  0.0052 </r>
        <r>  0.0505  0.0018  0.0052 </r>
        <r>  0.0505  0.0018  0.0052 </r>
        <r>  0.0000  0.0059  0.0194 </r>
        <r>  0.0000  0.0059  0.0194 </r>
        <r>  0.0000  0.0059  0.0194 </r>
        <r>  0.0000  0.0059  0.0194 </r>
        <r>  0.0008  0.0517  0.0242 </r>
        <r>  0.0008  0.0517  0.0242 </r>
        <r>  0.0008  0.0517  0.0242 </r>
        <r>  0.0008  0.0517  0.0242 </r>
       </set>
       <set comment="band 78">
        <r>  0.0008  0.0517  0.0243 </r>
        <r>  0.0008  0.0517  0.0243 </r>
        <r>  0.0008  0.0517  0.0243 </r>
        <r>  0.0008  0.0517  0.0243 </r>
        <r>  0.0000  0.0059  0.0194 </r>
        <r>  0.0000  0.0059  0.0194 </r>
        <r>  0.0000  0.0059  0.0194 </r>
        <r>  0.0000  0.0059  0.0194 </r>
        <r>  0.0505  0.0018  0.0052 </r>
        <r>  0.0505  0.0018  0.0052 </r>
        <r>  0.0505  0.0018  0.0052 </r>
        <r>  0.0505  0.0018  0.0052 </r>
       </set>
       <set comment="band 79">
        <r>  0.0036  0.0031  0.0039 </r>
        <r>  0.0036  0.0031  0.0039 </r>
        <r>  0.0036  0.0031  0.0039 </r>
        <r>  0.0036  0.0031  0.0039 </r>
        <r>  0.0042  0.0028  0.0039 </r>
        <r>  0.0042  0.0028  0.0039 </r>
        <r>  0.0042  0.0028  0.0039 </r>
        <r>  0.0042  0.0028  0.0039 </r>
        <r>  0.0036  0.0031  0.0039 </r>
        <r>  0.0036  0.0031  0.0039 </r>
        <r>  0.0036  0.0031  0.0039 </r>
        <r>  0.0036  0.0031  0.0039 </r>
       </set>
       <set comment="band 80">
        <r>  0.0042  0.0030  0.0044 </r>
        <r>  0.0031  0.0033  0.0034 </r>
        <r>  0.0031  0.0033  0.0034 </r>
        <r>  0.0042  0.0030  0.0044 </r>
        <r>  0.0019  0.0036  0.0018 </r>
        <r>  0.0065  0.0021  0.0059 </r>
        <r>  0.0066  0.0020  0.0059 </r>
        <r>  0.0019  0.0036  0.0018 </r>
        <r>  0.0011  0.0037  0.0014 </r>
        <r>  0.0062  0.0026  0.0063 </r>
        <r>  0.0062  0.0026  0.0063 </r>
        <r>  0.0011  0.0037  0.0014 </r>
       </set>
       <set comment="band 81">
        <r>  0.0031  0.0033  0.0034 </r>
        <r>  0.0042  0.0030  0.0044 </r>
        <r>  0.0042  0.0030  0.0044 </r>
        <r>  0.0031  0.0033  0.0034 </r>
        <r>  0.0065  0.0021  0.0059 </r>
        <r>  0.0019  0.0036  0.0018 </r>
        <r>  0.0019  0.0036  0.0018 </r>
        <r>  0.0066  0.0020  0.0059 </r>
        <r>  0.0062  0.0026  0.0063 </r>
        <r>  0.0011  0.0037  0.0014 </r>
        <r>  0.0011  0.0037  0.0014 </r>
        <r>  0.0062  0.0026  0.0063 </r>
       </set>
       <set comment="band 82">
        <r>  0.0004  0.0026  0.0011 </r>
        <r>  0.0004  0.0027  0.0011 </r>
        <r>  0.0007  0.0038  0.0013 </r>
        <r>  0.0005  0.0031  0.0013 </r>
        <r>  0.0000  0.0012  0.0012 </r>
        <r>  0.0000  0.0007  0.0013 </r>
        <r>  0.0000  0.0061  0.0005 </r>
        <r>  0.0000  0.0050  0.0007 </r>
        <r>  0.0009  0.0049  0.0013 </r>
        <r>  0.0007  0.0038  0.0013 </r>
        <r>  0.0003  0.0021  0.0011 </r>
        <r>  0.0002  0.0014  0.0010 </r>
       </set>
       <set comment="band 83">
        <r>  0.0004  0.0021  0.0012 </r>
        <r>  0.0009  0.0047  0.0013 </r>
        <r>  0.0006  0.0037  0.0011 </r>
        <r>  0.0002  0.0016  0.0010 </r>
        <r>  0.0000  0.0041  0.0008 </r>
        <r>  0.0000  0.0069  0.0004 </r>
        <r>  0.0000  0.0013  0.0012 </r>
        <r>  0.0000  0.0007  0.0013 </r>
        <r>  0.0002  0.0018  0.0010 </r>
        <r>  0.0003  0.0018  0.0011 </r>
        <r>  0.0006  0.0032  0.0013 </r>
        <r>  0.0010  0.0054  0.0013 </r>
       </set>
       <set comment="band 84">
        <r>  0.0008  0.0044  0.0012 </r>
        <r>  0.0002  0.0017  0.0011 </r>
        <r>  0.0002  0.0016  0.0011 </r>
        <r>  0.0008  0.0045  0.0012 </r>
        <r>  0.0000  0.0044  0.0008 </r>
        <r>  0.0000  0.0022  0.0011 </r>
        <r>  0.0000  0.0024  0.0010 </r>
        <r>  0.0000  0.0040  0.0008 </r>
        <r>  0.0004  0.0024  0.0012 </r>
        <r>  0.0006  0.0036  0.0011 </r>
        <r>  0.0007  0.0038  0.0011 </r>
        <r>  0.0004  0.0023  0.0012 </r>
       </set>
       <set comment="band 85">
        <r>  0.0008  0.0011  0.0011 </r>
        <r>  0.0008  0.0011  0.0011 </r>
        <r>  0.0008  0.0011  0.0011 </r>
        <r>  0.0008  0.0011  0.0011 </r>
        <r>  0.0011  0.0009  0.0012 </r>
        <r>  0.0011  0.0009  0.0012 </r>
        <r>  0.0011  0.0009  0.0012 </r>
        <r>  0.0011  0.0009  0.0012 </r>
        <r>  0.0008  0.0011  0.0011 </r>
        <r>  0.0008  0.0011  0.0011 </r>
        <r>  0.0008  0.0011  0.0011 </r>
        <r>  0.0008  0.0011  0.0011 </r>
       </set>
       <set comment="band 86">
        <r>  0.0010  0.0011  0.0013 </r>
        <r>  0.0006  0.0011  0.0009 </r>
        <r>  0.0006  0.0011  0.0009 </r>
        <r>  0.0010  0.0011  0.0013 </r>
        <r>  0.0004  0.0011  0.0005 </r>
        <r>  0.0017  0.0006  0.0018 </r>
        <r>  0.0017  0.0006  0.0018 </r>
        <r>  0.0004  0.0011  0.0005 </r>
        <r>  0.0001  0.0011  0.0003 </r>
        <r>  0.0015  0.0011  0.0018 </r>
        <r>  0.0015  0.0011  0.0018 </r>
        <r>  0.0001  0.0011  0.0003 </r>
       </set>
       <set comment="band 87">
        <r>  0.0006  0.0011  0.0009 </r>
        <r>  0.0010  0.0011  0.0013 </r>
        <r>  0.0010  0.0011  0.0013 </r>
        <r>  0.0006  0.0011  0.0009 </r>
        <r>  0.0017  0.0006  0.0018 </r>
        <r>  0.0004  0.0011  0.0005 </r>
        <r>  0.0004  0.0011  0.0005 </r>
        <r>  0.0017  0.0006  0.0018 </r>
        <r>  0.0015  0.0011  0.0018 </r>
        <r>  0.0001  0.0011  0.0003 </r>
        <r>  0.0001  0.0011  0.0003 </r>
        <r>  0.0015  0.0011  0.0018 </r>
       </set>
       <set comment="band 88">
        <r>  0.0000  0.0103  0.0067 </r>
        <r>  0.0000  0.0103  0.0067 </r>
        <r>  0.0000  0.0103  0.0067 </r>
        <r>  0.0000  0.0103  0.0067 </r>
        <r>  0.0000  0.0199  0.0070 </r>
        <r>  0.0000  0.0199  0.0070 </r>
        <r>  0.0000  0.0199  0.0070 </r>
        <r>  0.0000  0.0199  0.0070 </r>
        <r>  0.0578  0.0288  0.0013 </r>
        <r>  0.0578  0.0288  0.0013 </r>
        <r>  0.0578  0.0288  0.0013 </r>
        <r>  0.0578  0.0288  0.0013 </r>
       </set>
       <set comment="band 89">
        <r>  0.0578  0.0287  0.0013 </r>
        <r>  0.0578  0.0287  0.0013 </r>
        <r>  0.0578  0.0287  0.0013 </r>
        <r>  0.0578  0.0287  0.0013 </r>
        <r>  0.0000  0.0199  0.0070 </r>
        <r>  0.0000  0.0199  0.0070 </r>
        <r>  0.0000  0.0199  0.0070 </r>
        <r>  0.0000  0.0199  0.0070 </r>
        <r>  0.0000  0.0103  0.0067 </r>
        <r>  0.0000  0.0103  0.0067 </r>
        <r>  0.0000  0.0103  0.0067 </r>
        <r>  0.0000  0.0103  0.0067 </r>
       </set>
       <set comment="band 90">
        <r>  0.0007  0.0031  0.0014 </r>
        <r>  0.0007  0.0031  0.0014 </r>
        <r>  0.0007  0.0031  0.0014 </r>
        <r>  0.0007  0.0031  0.0014 </r>
        <r>  0.0000  0.0037  0.0009 </r>
        <r>  0.0000  0.0038  0.0009 </r>
        <r>  0.0000  0.0037  0.0009 </r>
        <r>  0.0000  0.0038  0.0009 </r>
        <r>  0.0007  0.0031  0.0014 </r>
        <r>  0.0007  0.0031  0.0014 </r>
        <r>  0.0007  0.0031  0.0014 </r>
        <r>  0.0007  0.0031  0.0014 </r>
       </set>
       <set comment="band 91">
        <r>  0.0013  0.0051  0.0020 </r>
        <r>  0.0000  0.0011  0.0008 </r>
        <r>  0.0000  0.0011  0.0008 </r>
        <r>  0.0013  0.0051  0.0020 </r>
        <r>  0.0000  0.0050  0.0007 </r>
        <r>  0.0000  0.0024  0.0011 </r>
        <r>  0.0000  0.0025  0.0011 </r>
        <r>  0.0000  0.0050  0.0007 </r>
        <r>  0.0002  0.0016  0.0011 </r>
        <r>  0.0011  0.0045  0.0017 </r>
        <r>  0.0011  0.0045  0.0017 </r>
        <r>  0.0002  0.0016  0.0011 </r>
       </set>
       <set comment="band 92">
        <r>  0.0000  0.0011  0.0008 </r>
        <r>  0.0013  0.0051  0.0020 </r>
        <r>  0.0013  0.0051  0.0020 </r>
        <r>  0.0000  0.0011  0.0008 </r>
        <r>  0.0000  0.0025  0.0011 </r>
        <r>  0.0000  0.0050  0.0007 </r>
        <r>  0.0000  0.0050  0.0007 </r>
        <r>  0.0000  0.0024  0.0011 </r>
        <r>  0.0011  0.0045  0.0017 </r>
        <r>  0.0002  0.0016  0.0011 </r>
        <r>  0.0002  0.0016  0.0011 </r>
        <r>  0.0011  0.0045  0.0017 </r>
       </set>
       <set comment="band 93">
        <r>  0.0014  0.0046  0.0031 </r>
        <r>  0.0013  0.0045  0.0030 </r>
        <r>  0.0014  0.0046  0.0031 </r>
        <r>  0.0013  0.0045  0.0030 </r>
        <r>  0.0024  0.0031  0.0038 </r>
        <r>  0.0025  0.0031  0.0039 </r>
        <r>  0.0025  0.0031  0.0039 </r>
        <r>  0.0025  0.0031  0.0040 </r>
        <r>  0.0014  0.0046  0.0031 </r>
        <r>  0.0014  0.0045  0.0031 </r>
        <r>  0.0013  0.0045  0.0030 </r>
        <r>  0.0013  0.0045  0.0030 </r>
       </set>
       <set comment="band 94">
        <r>  0.0017  0.0048  0.0036 </r>
        <r>  0.0010  0.0043  0.0025 </r>
        <r>  0.0010  0.0043  0.0025 </r>
        <r>  0.0017  0.0048  0.0036 </r>
        <r>  0.0009  0.0041  0.0014 </r>
        <r>  0.0040  0.0021  0.0063 </r>
        <r>  0.0041  0.0021  0.0064 </r>
        <r>  0.0009  0.0041  0.0014 </r>
        <r>  0.0001  0.0030  0.0010 </r>
        <r>  0.0026  0.0060  0.0051 </r>
        <r>  0.0026  0.0060  0.0051 </r>
        <r>  0.0001  0.0030  0.0010 </r>
       </set>
       <set comment="band 95">
        <r>  0.0010  0.0043  0.0025 </r>
        <r>  0.0017  0.0048  0.0036 </r>
        <r>  0.0017  0.0048  0.0036 </r>
        <r>  0.0010  0.0043  0.0025 </r>
        <r>  0.0041  0.0021  0.0064 </r>
        <r>  0.0009  0.0041  0.0015 </r>
        <r>  0.0008  0.0041  0.0014 </r>
        <r>  0.0040  0.0021  0.0063 </r>
        <r>  0.0026  0.0060  0.0051 </r>
        <r>  0.0001  0.0030  0.0010 </r>
        <r>  0.0001  0.0031  0.0010 </r>
        <r>  0.0026  0.0061  0.0052 </r>
       </set>
       <set comment="band 96">
        <r>  0.0000  0.0135  0.0174 </r>
        <r>  0.0000  0.0135  0.0174 </r>
        <r>  0.0000  0.0135  0.0174 </r>
        <r>  0.0000  0.0135  0.0174 </r>
        <r>  0.0744  0.0000  0.0003 </r>
        <r>  0.0744  0.0000  0.0003 </r>
        <r>  0.0744  0.0000  0.0003 </r>
        <r>  0.0744  0.0000  0.0003 </r>
        <r>  0.0000  0.0135  0.0174 </r>
        <r>  0.0000  0.0135  0.0174 </r>
        <r>  0.0000  0.0135  0.0174 </r>
        <r>  0.0000  0.0135  0.0174 </r>
       </set>
      </set>
     </set>
    </set>
   </array>
  </projected>
 </calculation>
 <structure name="finalpos" >
  <crystal>
   <varray name="basis" >
    <v>       5.14208051       0.00000000       0.00000000 </v>
    <v>       2.57104026       4.45317235       0.00000000 </v>
    <v>       0.00000000       0.00000000      24.19849116 </v>
   </varray>
   <i name="volume">    554.11086184 </i>
   <varray name="rec_basis" >
    <v>       0.19447381      -0.11227951       0.00000000 </v>
    <v>       0.00000000       0.22455902       0.00000000 </v>
    <v>       0.00000000       0.00000000       0.04132489 </v>
   </varray>
  </crystal>
  <varray name="positions" >
   <v>       0.16666667       0.16666667       0.41469244 </v>
   <v>       0.66666667       0.16666667       0.41469244 </v>
   <v>       0.16666667       0.66666667       0.41469244 </v>
   <v>       0.66666667       0.66666667       0.41469244 </v>
   <v>       0.83333333       0.33333333       0.50000000 </v>
   <v>       0.33333333       0.33333333       0.50000000 </v>
   <v>       0.83333333       0.83333333       0.50000000 </v>
   <v>       0.33333333       0.83333333       0.50000000 </v>
   <v>       0.00000000       0.00000000       0.58530756 </v>
   <v>       0.50000000       0.00000000       0.58530756 </v>
   <v>       0.00000000       0.50000000       0.58530756 </v>
   <v>       0.50000000       0.50000000       0.58530756 </v>
  </varray>
 </structure>
</modeling>
