unknown system                          
           1
     5.142081    0.000000    0.000000
     2.571040    4.453172    0.000000
     0.000000    0.000000   24.198491
   Cu
  12
Direct configuration=     1
   0.16666667  0.16666667  0.41469244
   0.66666667  0.16666667  0.41469244
   0.16666667  0.66666667  0.41469244
   0.66666667  0.66666667  0.41469244
   0.83333333  0.33333333  0.50000000
   0.33333333  0.33333333  0.50000000
   0.83333333  0.83333333  0.50000000
   0.33333333  0.83333333  0.50000000
   0.00000000  0.00000000  0.58530756
   0.50000000  0.00000000  0.58530756
   0.00000000  0.50000000  0.58530756
   0.50000000  0.50000000  0.58530756
