----- GAMESS execution script 'rungms' -----
This job is running on host crcfe02.crc.nd.edu
under operating system Linux at Thu Dec 12 13:17:56 EST 2019
Available scratch disk space (Kbyte units) at beginning of the job is
Filesystem      1K-blocks  Used  Available Use% Mounted on
AFS            2147483647     0 2147483647   0% /afs
GAMESS temporary binary files will be written to /afs/crc.nd.edu/user/c/cdrisko
GAMESS supplementary output files will be written to /afs/crc.nd.edu/user/c/cdrisko/scr
Copying input file acetaldehyde.inp to your run's scratch directory...

 Distributed Data Interface kickoff program.
 Initiating 1 compute processes on 1 nodes to run the following command:
 /afs/crc.nd.edu/x86_64_linux/g/gamess/nov-2017/gamess/gamess.00.x acetaldehyde 

          ******************************************************
          *         GAMESS VERSION = 11 NOV 2017 (R3)         *
          *             FROM IOWA STATE UNIVERSITY             *
          * M.W.SCHMIDT, K.K.BALDRIDGE, J.A.BOATZ, S.T.ELBERT, *
          *   M.S.GORDON, J.H.JENSEN, S.KOSEKI, N.MATSUNAGA,   *
          *          K.A.NGUYEN, S.J.SU, T.L.WINDUS,           *
          *       TOGETHER WITH M.DUPUIS, J.A.MONTGOMERY       *
          *         J.COMPUT.CHEM.  14, 1347-1363(1993)        *
          **************** 64 BIT INTEL VERSION ****************

  SINCE 1993, STUDENTS AND POSTDOCS WORKING AT IOWA STATE UNIVERSITY
  AND ALSO IN THEIR VARIOUS JOBS AFTER LEAVING ISU HAVE MADE IMPORTANT
  CONTRIBUTIONS TO THE CODE:
     IVANA ADAMOVIC, CHRISTINE AIKENS, YURI ALEXEEV, POOJA ARORA,
     ANDREY ASADCHEV, ROB BELL, PRADIPTA BANDYOPADHYAY, JONATHAN BENTZ,
     BRETT BODE, KURT BRORSEN, CALEB CARLIN, GALINA CHABAN, WEI CHEN,
     CHEOL HO CHOI, PAUL DAY, ALBERT DEFUSCO, NUWAN DESILVA, TIM DUDLEY,
     DMITRI FEDOROV, ALEX FINDLATER, GRAHAM FLETCHER, MARK FREITAG,
     KURT GLAESEMANN, ANASTASIA GUININA,
     DAN KEMP, GRANT MERRILL, NORIYUKI MINEZAWA, JONATHAN MULLIN,
     TAKESHI NAGATA, SEAN NEDD, HEATHER NETZLOFF, BOSILJKA NJEGIC, RYAN OLSON,
     MIKE PAK, BUU PHAM,
     SPENCER PRUITT, LUKE ROSKOP, JIM SHOEMAKER, LYUDMILA SLIPCHENKO,
     TONY SMITH, SAROM SOK LEANG, JIE SONG, TETSUYA TAKETSUGU, SIMON WEBB,
     PENG XU, SOOHAENG YOO, FEDERICO ZAHARIEV

  ADDITIONAL CODE HAS BEEN PROVIDED BY COLLABORATORS IN OTHER GROUPS:
     IOWA STATE UNIVERSITY:
          JOE IVANIC, AARON WEST, LAIMUTIS BYTAUTAS, KLAUS RUEDENBERG
     UNIVERSITY OF TOKYO: KIMIHIKO HIRAO, TAKAHITO NAKAJIMA,
          TAKAO TSUNEDA, MUNEAKI KAMIYA, SUSUMU YANAGISAWA,
          KIYOSHI YAGI, MAHITO CHIBA, SEIKEN TOKURA, NAOAKI KAWAKAMI
     UNIVERSITY OF AARHUS: FRANK JENSEN
     UNIVERSITY OF IOWA: VISVALDAS KAIRYS, HUI LI
     NATIONAL INST. OF STANDARDS AND TECHNOLOGY: WALT STEVENS, DAVID GARMER
     UNIVERSITY OF PISA: BENEDETTA MENNUCCI, JACOPO TOMASI
     UNIVERSITY OF MEMPHIS: HENRY KURTZ, PRAKASHAN KORAMBATH
     UNIVERSITY OF ALBERTA: TOBY ZENG, MARIUSZ KLOBUKOWSKI
     UNIVERSITY OF NEW ENGLAND: MARK SPACKMAN
     MIE UNIVERSITY: HIROAKI UMEDA
     NAT. INST. OF ADVANCED INDUSTRIAL SCIENCE AND TECHNOLOGY: KAZUO KITAURA
     MICHIGAN STATE UNIVERSITY:
          KAROL KOWALSKI, MARTA WLOCH, JEFFREY GOUR, JESSE LUTZ,
          WEI LI, PIOTR PIECUCH
     UNIVERSITY OF SILESIA: MONIKA MUSIAL, STANISLAW KUCHARSKI
     FACULTES UNIVERSITAIRES NOTRE-DAME DE LA PAIX:
          OLIVIER QUINET, BENOIT CHAMPAGNE
     UNIVERSITY OF CALIFORNIA - SANTA BARBARA: BERNARD KIRTMAN
     INSTITUTE FOR MOLECULAR SCIENCE:
          KAZUYA ISHIMURA, MICHIO KATOUDA, AND SHIGERU NAGASE
     UNIVERSITY OF NOTRE DAME: ANNA POMOGAEVA, DAN CHIPMAN
     KYUSHU UNIVERSITY:
          HARUYUKI NAKANO,
          FENG LONG GU, JACEK KORCHOWIEC, MARCIN MAKOWSKI, AND YURIKO AOKI,
          HIROTOSHI MORI AND EISAKU MIYOSHI
     PENNSYLVANIA STATE UNIVERSITY:
          TZVETELIN IORDANOV, CHET SWALINA, JONATHAN SKONE,
          SHARON HAMMES-SCHIFFER
     WASEDA UNIVERSITY:
          MASATO KOBAYASHI, TOMOKO AKAMA, TSUGUKI TOUMA,
          TAKESHI YOSHIKAWA, YASUHIRO IKABATA, JUNJI SEINO,
          YUYA NAKAJIMA, HIROMI NAKAI
     NANJING UNIVERSITY: SHUHUA LI
     UNIVERSITY OF NEBRASKA:
          PEIFENG SU, DEJUN SI, NANDUN THELLAMUREGE, YALI WANG, HUI LI
     UNIVERSITY OF ZURICH: ROBERTO PEVERATI, KIM BALDRIDGE
     N. COPERNICUS UNIVERSITY AND JACKSON STATE UNIVERSITY:
          MARIA BARYSZ
     UNIVERSITY OF COPENHAGEN: Jimmy Kromann, CASPER STEINMANN
     TOKYO INSTITUTE OF TECHNOLOGY: HIROYA NAKATA
     NAGOYA UNIVERSITY: YOSHIO NISHIMOTO, STEPHAN IRLE
     MOSCOW STATE UNIVERSITY: VLADIMIR MIRONOV

 EXECUTION OF GAMESS BEGUN Thu Dec 12 13:17:57 2019

            ECHO OF THE FIRST FEW INPUT CARDS -
 INPUT CARD> $CONTRL SCFTYP=RHF DFTTYP=B3LYP RUNTYP=ENERGY                                  
 INPUT CARD>       ISPHER=1 MULT=1 COORD=ZMT NZVAR=15 $END                                  
 INPUT CARD> $BASIS GBASIS=N31 NGAUSS=6 NDFUNC=1 $END                                       
 INPUT CARD> $STATPT IFREEZ(1)=9 $END                                                       
 INPUT CARD> $DATA                                                                          
 INPUT CARD>Title Single Point Energy Calculation of Acetaldehyde                           
 INPUT CARD>C1                                                                              
 INPUT CARD>C                                                                               
 INPUT CARD>C      1   1.5086892                                                            
 INPUT CARD>O      2   1.2107245  1  124.7161                                               
 INPUT CARD>H      2   1.1145804  1  114.7739  3  180.0000  0                               
 INPUT CARD>H      1   1.0926781  2  110.5176  3  20.      0                                
 INPUT CARD>H      1   1.0983769  2  109.8265  3  121.4889  0                               
 INPUT CARD>H      1   1.0983769  2  109.8265  3 -121.4889  0                               
 INPUT CARD> $END                                                                           
    1000000 WORDS OF MEMORY AVAILABLE

     BASIS OPTIONS
     -------------
     GBASIS=N31          IGAUSS=       6      POLAR=POPN31  
     NDFUNC=       1     NFFUNC=       0     DIFFSP=       F
     NPFUNC=       0      DIFFS=       F     BASNAM=        


     RUN TITLE
     ---------
 Title Single Point Energy Calculation of Acetaldehyde                           

 THE POINT GROUP OF THE MOLECULE IS C1      
 THE ORDER OF THE PRINCIPAL AXIS IS     0

 YOUR FULLY SUBSTITUTED Z-MATRIX IS
 C   
 C      1   1.5086892
 O      2   1.2107245  1  124.7161
 H      2   1.1145804  1  114.7739  3  180.0000  0
 H      1   1.0926781  2  110.5176  3   20.0000  0
 H      1   1.0983769  2  109.8265  3  121.4889  0
 H      1   1.0983769  2  109.8265  3 -121.4889  0

 THE MOMENTS OF INERTIA ARE (AMU-ANGSTROM**2)
 IXX=     8.864   IYY=    50.342   IZZ=    55.908

 ATOM      ATOMIC                      COORDINATES (BOHR)
           CHARGE         X                   Y                   Z
 C           6.0    -2.3868664999        0.3126221517        0.0614786789
 C           6.0     0.2407764922       -0.7882292317       -0.0474797130
 O           8.0     2.1712015243        0.4374784868        0.0284019336
 H           1.0     0.3124018405       -2.8870557207       -0.2090122459
 H           1.0    -2.3551456327        2.3131675199       -0.4488819081
 H           1.0    -3.4468645470       -0.2258813809       -1.6398924384
 H           1.0    -3.4157997247       -0.4803574868        1.6803441166

          INTERNUCLEAR DISTANCES (ANGS.)
          ------------------------------

                1 C          2 C          3 O          4 H          5 H     

   1 C       0.0000000    1.5086892 *  2.4129941 *  2.2198436 *  1.0926781 *
   2 C       1.5086892 *  0.0000000    1.2107245 *  1.1145804 *  2.1507392 *
   3 O       2.4129941 *  1.2107245 *  0.0000000    2.0194911 *  2.6050267 *
   4 H       2.2198436 *  1.1145804 *  2.0194911 *  0.0000000    3.0953779  
   5 H       1.0926781 *  2.1507392 *  2.6050267 *  3.0953779    0.0000000  
   6 H       1.0983769 *  2.1463151 *  3.1210656    2.5522231 *  1.5925620 *
   7 H       1.0983769 *  2.1463151 *  3.1210656    2.5522231 *  1.9416098 *

                6 H          7 H     

   1 C       1.0983769 *  1.0983769 *
   2 C       2.1463151 *  2.1463151 *
   3 O       3.1210656    3.1210656  
   4 H       2.5522231 *  2.5522231 *
   5 H       1.5925620 *  1.9416098 *
   6 H       0.0000000    1.7622233 *
   7 H       1.7622233 *  0.0000000  

  * ... LESS THAN  3.000


     ATOMIC BASIS SET
     ----------------
 THE CONTRACTED PRIMITIVE FUNCTIONS HAVE BEEN UNNORMALIZED
 THE CONTRACTED BASIS FUNCTIONS ARE NOW NORMALIZED TO UNITY

  SHELL TYPE  PRIMITIVE        EXPONENT          CONTRACTION COEFFICIENT(S)

 C         

      1   S       1          3047.5248800    0.001834737132
      1   S       2           457.3695180    0.014037322813
      1   S       3           103.9486850    0.068842622264
      1   S       4            29.2101553    0.232184443216
      1   S       5             9.2866630    0.467941348435
      1   S       6             3.1639270    0.362311985337

      2   L       7             7.8682723   -0.119332419775    0.068999066591
      2   L       8             1.8812885   -0.160854151696    0.316423960957
      2   L       9             0.5442493    1.143456437840    0.744308290898

      3   L      10             0.1687145    1.000000000000    1.000000000000

      4   D      11             0.8000000    1.000000000000

 C         

      5   S      12          3047.5248800    0.001834737132
      5   S      13           457.3695180    0.014037322813
      5   S      14           103.9486850    0.068842622264
      5   S      15            29.2101553    0.232184443216
      5   S      16             9.2866630    0.467941348435
      5   S      17             3.1639270    0.362311985337

      6   L      18             7.8682723   -0.119332419775    0.068999066591
      6   L      19             1.8812885   -0.160854151696    0.316423960957
      6   L      20             0.5442493    1.143456437840    0.744308290898

      7   L      21             0.1687145    1.000000000000    1.000000000000

      8   D      22             0.8000000    1.000000000000

 O         

      9   S      23          5484.6716600    0.001831074430
      9   S      24           825.2349460    0.013950172200
      9   S      25           188.0469580    0.068445078098
      9   S      26            52.9645000    0.232714335992
      9   S      27            16.8975704    0.470192897984
      9   S      28             5.7996353    0.358520852987

     10   L      29            15.5396162   -0.110777549525    0.070874268231
     10   L      30             3.5999336   -0.148026262701    0.339752839147
     10   L      31             1.0137618    1.130767015354    0.727158577316

     11   L      32             0.2700058    1.000000000000    1.000000000000

     12   D      33             0.8000000    1.000000000000

 H         

     13   S      34            18.7311370    0.033494604338
     13   S      35             2.8253944    0.234726953484
     13   S      36             0.6401217    0.813757326146

     14   S      37             0.1612778    1.000000000000

 H         

     15   S      38            18.7311370    0.033494604338
     15   S      39             2.8253944    0.234726953484
     15   S      40             0.6401217    0.813757326146

     16   S      41             0.1612778    1.000000000000

 H         

     17   S      42            18.7311370    0.033494604338
     17   S      43             2.8253944    0.234726953484
     17   S      44             0.6401217    0.813757326146

     18   S      45             0.1612778    1.000000000000

 H         

     19   S      46            18.7311370    0.033494604338
     19   S      47             2.8253944    0.234726953484
     19   S      48             0.6401217    0.813757326146

     20   S      49             0.1612778    1.000000000000

 TOTAL NUMBER OF BASIS SET SHELLS             =   20
 NUMBER OF CARTESIAN GAUSSIAN BASIS FUNCTIONS =   53
 NOTE: THIS RUN WILL RESTRICT THE MO VARIATION SPACE TO SPHERICAL HARMONICS.
 THE NUMBER OF ORBITALS KEPT IN THE VARIATIONAL SPACE WILL BE PRINTED LATER.
 NUMBER OF ELECTRONS                          =   24
 CHARGE OF MOLECULE                           =    0
 SPIN MULTIPLICITY                            =    1
 NUMBER OF OCCUPIED ORBITALS (ALPHA)          =   12
 NUMBER OF OCCUPIED ORBITALS (BETA )          =   12
 TOTAL NUMBER OF ATOMS                        =    7
 THE NUCLEAR REPULSION ENERGY IS       69.4591766857

     LEBEDEV GRID-BASED DFT OPTIONS
     ------------------------------
     DFTTYP=B3LYP   
     NRAD  =      96     NLEB  =     302
     NRAD0 =      24     NLEB0 =     110
     SWOFF =    5.00E-03 (PURE SCF -> DFT)
     SWITCH=    3.00E-04 (COARSE -> TIGHT GRID)
     THRESH=    0.00E+00 GTHRE=    1.00E+00

 GRIMME'S EMPIRICAL DISPERSION CORRECTION= F

     $CONTRL OPTIONS
     ---------------
 SCFTYP=RHF          RUNTYP=ENERGY       EXETYP=RUN     
 MPLEVL=       0     CITYP =NONE         CCTYP =NONE         VBTYP =NONE    
 DFTTYP=B3LYP        TDDFT =NONE    
 MULT  =       1     ICHARG=       0     NZVAR =      15     COORD =ZMT     
 PP    =NONE         RELWFN=NONE         LOCAL =NONE         NUMGRD=       F
 ISPHER=       1     NOSYM =       0     MAXIT =      30     UNITS =ANGS    
 PLTORB=       F     MOLPLT=       F     AIMPAC=       F     FRIEND=        
 NPRINT=       7     IREST =       0     GEOM  =INPUT   
 NORMF =       0     NORMP =       0     ITOL  =      20     ICUT  =       9
 INTTYP=BEST         GRDTYP=BEST         QMTTOL= 1.0E-06

     $SYSTEM OPTIONS
     ---------------
  REPLICATED MEMORY=     1000000 WORDS (ON EVERY NODE).
 DISTRIBUTED MEMDDI=           0 MILLION WORDS IN AGGREGATE,
 MEMDDI DISTRIBUTED OVER   1 PROCESSORS IS           0 WORDS/PROCESSOR.
 TOTAL MEMORY REQUESTED ON EACH PROCESSOR=     1000000 WORDS.
 TIMLIM=      525600.00 MINUTES, OR     365.0 DAYS.
 PARALL= F  BALTYP=  DLB     KDIAG=    0  COREFL= F
 MXSEQ2=     300 MXSEQ3=     150  mem10=         0

          ----------------
          PROPERTIES INPUT
          ----------------

     MOMENTS            FIELD           POTENTIAL          DENSITY
 IEMOM =       1   IEFLD =       0   IEPOT =       0   IEDEN =       0
 WHERE =COMASS     WHERE =NUCLEI     WHERE =NUCLEI     WHERE =NUCLEI  
 OUTPUT=BOTH       OUTPUT=BOTH       OUTPUT=BOTH       OUTPUT=BOTH    
 IEMINT=       0   IEFINT=       0                     IEDINT=       0
                                                       MORB  =       0
          EXTRAPOLATION IN EFFECT
          DIIS IN EFFECT
 ORBITAL PRINTING OPTION: NPREO=     1    53     2     1

     -------------------------------
     INTEGRAL TRANSFORMATION OPTIONS
     -------------------------------
     NWORD  =            0
     CUTOFF = 1.0E-09     MPTRAN =       0
     DIRTRF =       F     AOINTS =DUP     

          ----------------------
          INTEGRAL INPUT OPTIONS
          ----------------------
 NOPK  =       1 NORDER=       0 SCHWRZ=       T

   --- ENCODED Z MATRIX ---
 COORD  TYPE   I   J   K   L   M   N
    1      1    2   1
    2      1    3   2
    3      2    3   2   1
    4      1    4   2
    5      2    4   2   1
    6      3    4   2   1   3
    7      1    5   1
    8      2    5   1   2
    9      3    5   1   2   3
   10      1    6   1
   11      2    6   1   2
   12      3    6   1   2   3
   13      1    7   1
   14      2    7   1   2
   15      3    7   1   2   3

 THE DETERMINANT OF THE G MATRIX IS 10**(    -8)


                     --------------------
                     INTERNAL COORDINATES
                     --------------------

                 - - ATOMS - -         COORDINATE      COORDINATE
 NO.   TYPE    I  J  K  L  M  N        (BOHR,RAD)       (ANG,DEG)
 ----------------------------------------------------------------
   1 STRETCH   2  1                     2.8510092       1.5086892
   2 STRETCH   3  2                     2.2879376       1.2107245
   3 BEND      3  2  1                  2.1767066     124.7161000
   4 STRETCH   4  2                     2.1062515       1.1145804
   5 BEND      4  2  1                  2.0031825     114.7739000
   6 TORSION   4  2  1  3               3.1415927     180.0000000
   7 STRETCH   5  1                     2.0648622       1.0926781
   8 BEND      5  1  2                  1.9288960     110.5176000
   9 TORSION   5  1  2  3               0.3490659      20.0000000
  10 STRETCH   6  1                     2.0756314       1.0983769
  11 BEND      6  1  2                  1.9168340     109.8265000
  12 TORSION   6  1  2  3               2.1203813     121.4889000
  13 STRETCH   7  1                     2.0756314       1.0983769
  14 BEND      7  1  2                  1.9168340     109.8265000
  15 TORSION   7  1  2  3              -2.1203813    -121.4889000

     ------------------------------------------
     THE POINT GROUP IS C1 , NAXIS= 0, ORDER= 1
     ------------------------------------------

 -- VARIATIONAL SPACE WILL BE RESTRICTED TO PURE SPHERICAL HARMONICS ONLY --
 AFTER EXCLUDING CONTAMINANT COMBINATIONS FROM THE CARTESIAN GAUSSIAN BASIS
 SET, THE NUMBER OF SPHERICAL HARMONICS KEPT IN THE VARIATION SPACE IS   50

     DIMENSIONS OF THE SYMMETRY SUBSPACES ARE
 A   =   50

 ..... DONE SETTING UP THE RUN .....
 STEP CPU TIME =     0.01 TOTAL CPU TIME =          0.0 (      0.0 MIN)
 TOTAL WALL CLOCK TIME=          0.0 SECONDS, CPU UTILIZATION IS    50.00%

          ********************
          1 ELECTRON INTEGRALS
          ********************
 ...... END OF ONE-ELECTRON INTEGRALS ......
 STEP CPU TIME =     0.00 TOTAL CPU TIME =          0.0 (      0.0 MIN)
 TOTAL WALL CLOCK TIME=          0.0 SECONDS, CPU UTILIZATION IS    50.00%

          -------------
          GUESS OPTIONS
          -------------
          GUESS =HUCKEL            NORB  =       0          NORDER=       0
          MIX   =       F          PRTMO =       F          PUNMO =       F
          TOLZ  = 1.0E-08          TOLE  = 1.0E-05
          SYMDEN=       F          PURIFY=       F

 INITIAL GUESS ORBITALS GENERATED BY HUCKEL   ROUTINE.
 HUCKEL GUESS REQUIRES     27154 WORDS.

 STATISTICS FOR GENERATION OF SYMMETRY ORBITAL -Q- MATRIX
 NUMBER OF CARTESIAN ATOMIC ORBITALS=         53
 NUMBER OF SPHERICAL CONTAMINANTS DROPPED=     3
 NUMBER OF LINEARLY DEPENDENT MOS DROPPED=     0
 TOTAL NUMBER OF MOS IN VARIATION SPACE=      50

 SYMMETRIES FOR INITIAL GUESS ORBITALS FOLLOW.   BOTH SET(S).
    12 ORBITALS ARE OCCUPIED (    3 CORE ORBITALS).
     4=A        5=A        6=A        7=A        8=A        9=A       10=A   
    11=A       12=A       13=A       14=A       15=A       16=A       17=A   
    18=A       19=A       20=A       21=A       22=A   
 ...... END OF INITIAL ORBITAL SELECTION ......
 STEP CPU TIME =     0.00 TOTAL CPU TIME =          0.0 (      0.0 MIN)
 TOTAL WALL CLOCK TIME=          0.0 SECONDS, CPU UTILIZATION IS    33.33%

                    ----------------------
                    AO INTEGRAL TECHNOLOGY
                    ----------------------
     S,P,L SHELL ROTATED AXIS INTEGRALS, REPROGRAMMED BY
        KAZUYA ISHIMURA (IMS) AND JOSE SIERRA (SYNSTAR).
     S,P,D,L SHELL ROTATED AXIS INTEGRALS PROGRAMMED BY
        KAZUYA ISHIMURA (INSTITUTE FOR MOLECULAR SCIENCE).
     S,P,D,F,G SHELL TO TOTAL QUARTET ANGULAR MOMENTUM SUM 5,
        ERIC PROGRAM BY GRAHAM FLETCHER (ELORET AND NASA ADVANCED
        SUPERCOMPUTING DIVISION, AMES RESEARCH CENTER).
     S,P,D,F,G,L SHELL GENERAL RYS QUADRATURE PROGRAMMED BY
        MICHEL DUPUIS (PACIFIC NORTHWEST NATIONAL LABORATORY).

          --------------------
          2 ELECTRON INTEGRALS
          --------------------

 THE -PK- OPTION IS OFF, THE INTEGRALS ARE NOT IN SUPERMATRIX FORM.
 STORING   15000 INTEGRALS/RECORD ON DISK, USING 12 BYTES/INTEGRAL.
 TWO ELECTRON INTEGRAL EVALUATION REQUIRES   90606 WORDS OF MEMORY.
 SCHWARZ INEQUALITY OVERHEAD:      1430 INTEGRALS, T=        0.00
 II,JST,KST,LST =  1  1  1  1 NREC =         1 INTLOC =    1
 II,JST,KST,LST =  2  1  1  1 NREC =         1 INTLOC =    2
 II,JST,KST,LST =  3  1  1  1 NREC =         1 INTLOC =   34
 II,JST,KST,LST =  4  1  1  1 NREC =         1 INTLOC =  214
 II,JST,KST,LST =  5  1  1  1 NREC =         1 INTLOC = 1189
 II,JST,KST,LST =  6  1  1  1 NREC =         1 INTLOC = 3227
 II,JST,KST,LST =  7  1  1  1 NREC =         2 INTLOC =  973
 II,JST,KST,LST =  8  1  1  1 NREC =         3 INTLOC = 8228
 II,JST,KST,LST =  9  1  1  1 NREC =         7 INTLOC = 6154
 II,JST,KST,LST = 10  1  1  1 NREC =         8 INTLOC = 3442
 II,JST,KST,LST = 11  1  1  1 NREC =        13 INTLOC =  775
 II,JST,KST,LST = 12  1  1  1 NREC =        19 INTLOC =14438
 II,JST,KST,LST = 13  1  1  1 NREC =        34 INTLOC = 9641
 II,JST,KST,LST = 14  1  1  1 NREC =        37 INTLOC =12545
 II,JST,KST,LST = 15  1  1  1 NREC =        41 INTLOC = 4080
 II,JST,KST,LST = 16  1  1  1 NREC =        44 INTLOC =13003
 II,JST,KST,LST = 17  1  1  1 NREC =        48 INTLOC =11401
 II,JST,KST,LST = 18  1  1  1 NREC =        52 INTLOC =10676
 II,JST,KST,LST = 19  1  1  1 NREC =        57 INTLOC = 1427
 II,JST,KST,LST = 20  1  1  1 NREC =        61 INTLOC = 8103
 SCHWARZ INEQUALITY TEST SKIPPED         776 INTEGRAL BLOCKS.
 TOTAL NUMBER OF NONZERO TWO-ELECTRON INTEGRALS =              981840
         66 INTEGRAL RECORDS WERE STORED ON DISK FILE  8.
  ...... END OF TWO-ELECTRON INTEGRALS .....
 STEP CPU TIME =     0.09 TOTAL CPU TIME =          0.1 (      0.0 MIN)
 TOTAL WALL CLOCK TIME=          0.1 SECONDS, CPU UTILIZATION IS    83.33%

          --------------------------
             R-B3LYP SCF CALCULATION
          --------------------------

     NUCLEAR ENERGY =        69.4591766857
     MAXIT =   30     NPUNCH=    2
     EXTRAP=T  DAMP=F  SHIFT=F  RSTRCT=F  DIIS=T  DEM=F  SOSCF=F
         DENSITY MATRIX CONVERGENCE THRESHOLD=  1.00E-05
     COARSE -> FINE DFT GRID SWITCH THRESHOLD=  3.00E-04 (SWITCH IN $DFT)
                   HF -> DFT SWITCH THRESHOLD=  5.00E-03 (SWOFF IN $DFT)
     MEMORY REQUIRED FOR RHF ITERS=    307426 WORDS.

 DFT CODE IS SWITCHING FROM THE FINE GRID NRAD= 96,  NLEB=  302
                      TO THE COARSE GRID NRAD0= 24, NLEB0=  110

     EXCHANGE FUNCTIONAL   =B88&HFX   
     CORRELATION FUNCTIONAL=LYP88&VWN5
     DFT THRESHOLD         =.197E-07
     GRID CHANGE THRESHOLD =.300E-03
 FOR AN EULER-MACLAURIN QUADRATURE USING  96 RADIAL POINTS:
 SMALLEST GAUSSIAN PRIMITIVE EXPONENT=        0.1612777588 OF TYPE -S-
 ON ATOM NUMBER   4 HAS RADIAL NORMALIZATION=  1.000000
  LARGEST GAUSSIAN PRIMITIVE EXPONENT=     5484.6716600000 OF TYPE -S-
 ON ATOM NUMBER   3 HAS RADIAL NORMALIZATION=  1.000000
 DFT IS SWITCHED OFF, PERFORMING PURE SCF UNTIL SWOFF THRESHOLD IS REACHED.

 ITER EX DEM     TOTAL ENERGY        E CHANGE  DENSITY CHANGE    DIIS ERROR
   1  0  0     -152.4484397635  -152.4484397635   0.250418712   0.512233860
          * * *   INITIATING DIIS PROCEDURE   * * *
   2  1  0     -152.8434794037    -0.3950396402   0.148910477   0.108520633
   3  2  0     -152.8746634979    -0.0311840942   0.074184781   0.110963711
   4  3  0     -152.9008061135    -0.0261426156   0.009257061   0.007220573
   5  4  0     -152.9013821488    -0.0005760353   0.004409969   0.003531198
 CONVERGED TO SWOFF, SO DFT CALCULATION IS NOW SWITCHED ON.
          * * *   INITIATING DIIS PROCEDURE   * * *
   6  5  0     -153.7145540500    -0.8131719012   0.090303773   0.052267620
   7  6  0     -153.7247321581    -0.0101781080   0.055473205   0.029158810
   8  7  0     -153.7227600415     0.0019721166   0.042646247   0.038231737
   9  8  0     -153.7282775600    -0.0055175185   0.008446424   0.010824026
  10  9  0     -153.7285188204    -0.0002412604   0.000711881   0.000588260
  11 10  0     -153.7285211839    -0.0000023635   0.000254513   0.000197426
 DFT CODE IS SWITCHING BACK TO THE FINE GRID
          * * *   INITIATING DIIS PROCEDURE   * * *
  12 11  0     -153.7278340132     0.0006871707   0.002238667   0.001737615
  13 12  0     -153.7278421434    -0.0000081301   0.000693952   0.000219822
  14 13  0     -153.7278418468     0.0000002966   0.000409625   0.000424497
  15 14  0     -153.7278423916    -0.0000005449   0.000065029   0.000057661
  16 15  0     -153.7278423989    -0.0000000073   0.000016666   0.000019011
  17 16  0     -153.7278423996    -0.0000000007   0.000004115   0.000004935
  18 17  0     -153.7278423997    -0.0000000001   0.000000507   0.000000429

          -----------------
          DENSITY CONVERGED
          -----------------
     TIME TO FORM FOCK OPERATORS=       5.2 SECONDS (       0.3 SEC/ITER)
     TIME TO SOLVE SCF EQUATIONS=       0.0 SECONDS (       0.0 SEC/ITER)

 FINAL R-B3LYP ENERGY IS     -153.7278423997 AFTER  18 ITERATIONS
 DFT EXCHANGE + CORRELATION ENERGY =       -16.8233887003
 TOTAL ELECTRON NUMBER             =        24.0000710729

          ------------
          EIGENVECTORS
          ------------

                      1          2          3          4          5
                  -19.1427   -10.2723   -10.1868    -1.0419    -0.7519
                     A          A          A          A          A   
    1  C  1  S    0.000025   0.000971   0.995261  -0.017880  -0.181556
    2  C  1  S   -0.000120  -0.000857   0.037344   0.033318   0.348332
    3  C  1  X   -0.000253  -0.000941   0.000119   0.025510   0.027373
    4  C  1  Y    0.000191   0.000393  -0.000243  -0.004133  -0.029498
    5  C  1  Z   -0.000052  -0.000003  -0.000388  -0.001257  -0.023432
    6  C  1  S   -0.000740   0.004916  -0.032846   0.019951   0.316396
    7  C  1  X   -0.001376   0.002675  -0.001606   0.006022  -0.000028
    8  C  1  Y   -0.002433  -0.002132   0.000822   0.008621  -0.006509
    9  C  1  Z    0.000435   0.000032   0.002213  -0.001813  -0.013504
   10  C  1 XX   -0.000369  -0.000996   0.000010   0.004943  -0.001392
   11  C  1 YY    0.000287   0.000315   0.000022  -0.002341  -0.000210
   12  C  1 ZZ    0.000082   0.000681  -0.000032  -0.002602   0.001602
   13  C  1 XY   -0.000212   0.000691  -0.000051  -0.001564  -0.000959
   14  C  1 XZ   -0.000037   0.000062  -0.000088  -0.000263   0.000410
   15  C  1 YZ    0.000055  -0.000064  -0.000098  -0.000451  -0.005714
   16  C  2  S    0.000227   0.995143  -0.000924  -0.117414  -0.078613
   17  C  2  S    0.000035   0.035739  -0.001241   0.224198   0.158403
   18  C  2  X   -0.000041   0.001728   0.000514   0.154376  -0.181088
   19  C  2  Y   -0.000224   0.001347  -0.000377   0.101647  -0.009976
   20  C  2  Z   -0.000016   0.000092  -0.000037   0.006239  -0.001219
   21  C  2  S    0.009333  -0.015827   0.007677   0.083287   0.116029
   22  C  2  X    0.005262   0.005768  -0.004064  -0.013101  -0.038888
   23  C  2  Y    0.005707   0.002699   0.002432  -0.018540  -0.014742
   24  C  2  Z    0.000237   0.000104  -0.000272  -0.000895   0.000685
   25  C  2 XX   -0.000522   0.001315  -0.000901   0.016147   0.003435
   26  C  2 YY    0.000266  -0.000113   0.000476  -0.000723   0.001443
   27  C  2 ZZ    0.000255  -0.001202   0.000425  -0.015424  -0.004878
   28  C  2 XY   -0.000807   0.001303   0.000730   0.022806  -0.013711
   29  C  2 XZ   -0.000033   0.000078   0.000144   0.001323  -0.001096
   30  C  2 YZ   -0.000008   0.000080  -0.000045   0.001055   0.000464
   31  O  3  S    0.995120  -0.000046  -0.000008  -0.194439   0.052877
   32  O  3  S    0.029525   0.000486  -0.000312   0.428731  -0.122790
   33  O  3  X   -0.001956   0.000955   0.000135  -0.138757  -0.016014
   34  O  3  Y   -0.001205   0.000555   0.000020  -0.086928   0.015598
   35  O  3  Z   -0.000090   0.000028  -0.000041  -0.005537   0.000669
   36  O  3  S   -0.019881  -0.006018   0.000154   0.376372  -0.118721
   37  O  3  X    0.005221   0.003727   0.000181  -0.041992  -0.014576
   38  O  3  Y    0.002820   0.002761  -0.000602  -0.024257   0.001529
   39  O  3  Z    0.000224   0.000199   0.000148  -0.001860  -0.000672
   40  O  3 XX   -0.000198  -0.001092  -0.000060   0.005945   0.003379
   41  O  3 YY    0.000119  -0.000033   0.000279  -0.002834  -0.001656
   42  O  3 ZZ    0.000079   0.001125  -0.000219  -0.003111  -0.001723
   43  O  3 XY   -0.000123  -0.001531   0.000085   0.010144   0.000219
   44  O  3 XZ   -0.000014  -0.000096  -0.000018   0.000765   0.000078
   45  O  3 YZ   -0.000001  -0.000089   0.000031  -0.000070   0.000056
   46  H  4  S   -0.000191  -0.000976  -0.000357   0.027989   0.052226
   47  H  4  S    0.001308   0.004949   0.000858  -0.011368   0.008560
   48  H  5  S    0.000150  -0.000269  -0.000500   0.007285   0.108352
   49  H  5  S    0.001270   0.000831   0.005633  -0.003065   0.020543
   50  H  6  S    0.000043  -0.000412  -0.000289   0.005445   0.120176
   51  H  6  S   -0.000414   0.000708   0.006193  -0.000975   0.023729
   52  H  7  S   -0.000085  -0.000462  -0.000746   0.005476   0.112141
   53  H  7  S   -0.000802   0.000615   0.004978   0.000864   0.027211

                      6          7          8          9         10
                   -0.5787    -0.4732    -0.4566    -0.4254    -0.3846
                     A          A          A          A          A   
    1  C  1  S    0.068533   0.014626  -0.008510  -0.008378  -0.005440
    2  C  1  S   -0.134750  -0.027078   0.019527   0.018359   0.011547
    3  C  1  X    0.136386   0.272372   0.091434  -0.189798   0.100078
    4  C  1  Y   -0.117614   0.127800  -0.165932   0.110113   0.317186
    5  C  1  Z    0.033407  -0.085353   0.334170   0.122881   0.048204
    6  C  1  S   -0.164287  -0.035820   0.013987   0.017997   0.020485
    7  C  1  X    0.043798   0.118952   0.038194  -0.093737   0.046886
    8  C  1  Y   -0.034791   0.077558  -0.076689   0.074131   0.155283
    9  C  1  Z    0.015668  -0.041866   0.155556   0.052669   0.027472
   10  C  1 XX    0.008779   0.009117   0.008921  -0.004432  -0.008119
   11  C  1 YY   -0.002732   0.002744  -0.007470   0.001087   0.019431
   12  C  1 ZZ   -0.006047  -0.011861  -0.001451   0.003345  -0.011312
   13  C  1 XY   -0.010922  -0.005768  -0.000077   0.008790  -0.006405
   14  C  1 XZ   -0.002705   0.001044  -0.011796  -0.001629   0.002458
   15  C  1 YZ    0.004847   0.001796  -0.008405  -0.008090  -0.009531
   16  C  2  S   -0.135076  -0.045221   0.000687  -0.009614   0.003010
   17  C  2  S    0.284255   0.105628  -0.002134   0.031415  -0.012112
   18  C  2  X   -0.040146  -0.079469  -0.139699   0.348128  -0.036649
   19  C  2  Y   -0.214899   0.304733   0.132345   0.062045  -0.170485
   20  C  2  Z   -0.006454  -0.015348   0.181734   0.089535   0.194851
   21  C  2  S    0.266562   0.063479  -0.003137  -0.017328   0.029617
   22  C  2  X   -0.041598  -0.050163  -0.044581   0.067780   0.020580
   23  C  2  Y   -0.087428   0.075410   0.049476  -0.013791  -0.053609
   24  C  2  Z   -0.004146  -0.012164   0.085840   0.047999   0.118619
   25  C  2 XX   -0.008736  -0.003212   0.001936   0.007432  -0.010179
   26  C  2 YY    0.013326   0.002441  -0.004495  -0.005513   0.010111
   27  C  2 ZZ   -0.004590   0.000771   0.002559  -0.001919   0.000068
   28  C  2 XY   -0.004392  -0.000275   0.001835   0.008693  -0.014425
   29  C  2 XZ   -0.001049   0.000810  -0.002597   0.001321   0.010522
   30  C  2 YZ    0.002030  -0.001477   0.006046   0.002975   0.008867
   31  O  3  S    0.069229   0.051421  -0.010826   0.065835  -0.013624
   32  O  3  S   -0.163067  -0.119172   0.023720  -0.143415   0.027616
   33  O  3  X   -0.063331  -0.288885  -0.029703  -0.305313   0.190890
   34  O  3  Y   -0.121581   0.064694   0.124900  -0.326640   0.008807
   35  O  3  Z   -0.003761  -0.022178   0.148328   0.064560   0.273914
   36  O  3  S   -0.193627  -0.179962   0.045739  -0.278791   0.057784
   37  O  3  X   -0.040231  -0.158497  -0.019535  -0.156981   0.109127
   38  O  3  Y   -0.063611   0.038430   0.066133  -0.176907   0.006236
   39  O  3  Z   -0.001671  -0.011969   0.082521   0.037446   0.168243
   40  O  3 XX   -0.000092   0.019250   0.006572   0.005161  -0.008633
   41  O  3 YY    0.005262  -0.012755  -0.007173   0.005240   0.006767
   42  O  3 ZZ   -0.005169  -0.006495   0.000602  -0.010401   0.001866
   43  O  3 XY    0.009682   0.001038  -0.004935   0.017321  -0.002602
   44  O  3 XZ    0.000193   0.001972  -0.009971  -0.004188  -0.015485
   45  O  3 YZ    0.000638   0.000566  -0.006098  -0.001905  -0.009312
   46  H  4  S    0.209524  -0.112597  -0.083013  -0.025375   0.098175
   47  H  4  S    0.098781  -0.100920  -0.062387  -0.035634   0.093473
   48  H  5  S   -0.114556   0.066032  -0.124965   0.058224   0.211686
   49  H  5  S   -0.056932   0.034262  -0.073777   0.023216   0.181852
   50  H  6  S   -0.086584  -0.075794  -0.156567  -0.010882  -0.118172
   51  H  6  S   -0.037831  -0.054479  -0.117023  -0.012651  -0.111453
   52  H  7  S   -0.058163  -0.161604   0.176791   0.110937  -0.079276
   53  H  7  S   -0.026576  -0.105540   0.126532   0.091657  -0.064791

                     11         12         13         14         15
                   -0.3554    -0.2510    -0.0183     0.1072     0.1283
                     A          A          A          A          A   
    1  C  1  S    0.009294   0.037539   0.002427  -0.130655  -0.052385
    2  C  1  S   -0.022194  -0.070401   0.002839   0.148115   0.071867
    3  C  1  X   -0.042013  -0.219558   0.000414  -0.215355   0.124411
    4  C  1  Y   -0.172690   0.072022  -0.005116   0.022740   0.188761
    5  C  1  Z   -0.246624   0.011014  -0.019310   0.025158   0.144257
    6  C  1  S   -0.019243  -0.290516  -0.049129   2.169890   0.756590
    7  C  1  X   -0.017118  -0.165961  -0.012088  -0.569495   0.371304
    8  C  1  Y   -0.082905   0.051810  -0.040530   0.117523   0.374970
    9  C  1  Z   -0.125942   0.027050   0.056346   0.001767   0.392915
   10  C  1 XX    0.003903  -0.003948   0.000438   0.006077   0.006678
   11  C  1 YY   -0.010474   0.002981   0.000698  -0.000462  -0.015837
   12  C  1 ZZ    0.006570   0.000967  -0.001136  -0.005615   0.009159
   13  C  1 XY    0.000715   0.005734  -0.003276  -0.006695   0.011191
   14  C  1 XZ    0.019502   0.000928   0.032643   0.003924   0.005789
   15  C  1 YZ    0.011463  -0.000342  -0.006142   0.002406   0.009835
   16  C  2  S   -0.002309   0.001548  -0.000593  -0.020718   0.075537
   17  C  2  S    0.007856  -0.016567   0.000842   0.088267  -0.114242
   18  C  2  X   -0.004162   0.085988   0.002252  -0.007855   0.052563
   19  C  2  Y    0.049175  -0.120336  -0.037873  -0.106257   0.246291
   20  C  2  Z    0.225245  -0.008484   0.508736  -0.020923  -0.014206
   21  C  2  S   -0.016237   0.035216   0.013088   0.138721  -1.102378
   22  C  2  X   -0.018840  -0.066304   0.000274   0.012153   0.299886
   23  C  2  Y    0.002827   0.041497  -0.035656  -0.306351   0.575432
   24  C  2  Z    0.137807   0.002445   0.555925  -0.034077  -0.080503
   25  C  2 XX    0.004970  -0.038831   0.000138   0.000853  -0.005914
   26  C  2 YY   -0.006646   0.040763   0.001965   0.005198   0.006575
   27  C  2 ZZ    0.001675  -0.001932  -0.002104  -0.006050  -0.000662
   28  C  2 XY    0.005311   0.019033   0.001953  -0.002037  -0.014870
   29  C  2 XZ    0.026458   0.001799  -0.023822  -0.001655  -0.005006
   30  C  2 YZ    0.009743   0.003289  -0.017321   0.004374   0.010132
   31  O  3  S    0.001495   0.000578  -0.000071  -0.009014   0.006474
   32  O  3  S   -0.002729  -0.003384   0.000615   0.018430  -0.003179
   33  O  3  X   -0.071969  -0.311318  -0.004776  -0.041194   0.022928
   34  O  3  Y   -0.019655   0.486245   0.030554   0.067400  -0.036289
   35  O  3  Z    0.404691   0.037030  -0.428424   0.001469   0.001890
   36  O  3  S    0.000452   0.008688  -0.002259   0.122594  -0.164825
   37  O  3  X   -0.045290  -0.221225  -0.003199  -0.098097   0.081625
   38  O  3  Y   -0.015455   0.344122   0.032282   0.063732  -0.072217
   39  O  3  Z    0.262071   0.026352  -0.447714   0.008747   0.031368
   40  O  3 XX    0.003713   0.014062  -0.000179   0.004616   0.002822
   41  O  3 YY   -0.001497  -0.013740   0.000164  -0.002593  -0.000665
   42  O  3 ZZ   -0.002217  -0.000322   0.000014  -0.002023  -0.002157
   43  O  3 XY    0.002265  -0.007933   0.000033   0.004930  -0.004754
   44  O  3 XZ   -0.020521  -0.000614  -0.000524  -0.000198  -0.002911
   45  O  3 YZ   -0.013421  -0.001218  -0.000676   0.001394   0.003064
   46  H  4  S   -0.044166   0.178239  -0.002613   0.029263   0.086200
   47  H  4  S   -0.046255   0.290660  -0.005676  -0.437206   1.343724
   48  H  5  S   -0.102412   0.019932   0.004104  -0.038388  -0.108393
   49  H  5  S   -0.113527   0.091275   0.058004  -0.875339  -1.051834
   50  H  6  S    0.192998   0.027886   0.099500  -0.015798   0.084836
   51  H  6  S    0.198633   0.065724   0.226960  -1.057901   0.745728
   52  H  7  S   -0.102772   0.035418  -0.101196  -0.062043  -0.034814
   53  H  7  S   -0.106145   0.063948  -0.235083  -1.276878  -0.325985

                     16         17         18         19         20
                    0.1435     0.1674     0.2584     0.2854     0.5224
                     A          A          A          A          A   
    1  C  1  S    0.052167  -0.000107  -0.073786  -0.023311   0.009293
    2  C  1  S   -0.042973  -0.019919   0.029345   0.047598  -0.027023
    3  C  1  X   -0.020982   0.024094   0.130911   0.183720  -0.252190
    4  C  1  Y    0.156040   0.263208  -0.118410   0.157779   0.391123
    5  C  1  Z    0.255478  -0.298868   0.025165   0.026040   0.357326
    6  C  1  S   -0.900148   0.213732   1.683641  -0.081555   0.016601
    7  C  1  X   -0.111286   0.213916   1.679423   0.702801   0.211665
    8  C  1  Y    0.645837   1.065735  -0.646971   0.642748  -0.571085
    9  C  1  Z    0.829038  -1.115222   0.013116   0.035110  -0.579869
   10  C  1 XX    0.008935   0.005767  -0.032173  -0.036110  -0.004636
   11  C  1 YY   -0.014647  -0.015239   0.003452   0.033454   0.023483
   12  C  1 ZZ    0.005712   0.009471   0.028721   0.002655  -0.018847
   13  C  1 XY   -0.010705  -0.001937   0.027050  -0.006554   0.007302
   14  C  1 XZ    0.005089   0.000289  -0.000602   0.000650  -0.033347
   15  C  1 YZ    0.011981  -0.004934  -0.006744  -0.000807  -0.058204
   16  C  2  S   -0.091887  -0.040084   0.052733   0.060761  -0.029120
   17  C  2  S    0.105268   0.052369  -0.105306  -0.034900   0.008944
   18  C  2  X   -0.042707   0.005750   0.390286   0.031166   0.009716
   19  C  2  Y   -0.150718  -0.032206  -0.311363  -0.247753   0.018985
   20  C  2  Z   -0.062689   0.039272  -0.021584  -0.032392   0.703331
   21  C  2  S    1.591640   0.645768  -0.945653  -1.749455   0.036008
   22  C  2  X   -0.144806   0.106635   1.797063  -1.449905   0.078824
   23  C  2  Y   -0.352765  -0.251027  -0.765004  -1.452364   0.201468
   24  C  2  Z   -0.255972   0.299120  -0.100000  -0.100904  -0.632382
   25  C  2 XX   -0.012407  -0.016341  -0.000630  -0.001961  -0.039870
   26  C  2 YY    0.000145   0.006817   0.001338   0.010422  -0.002666
   27  C  2 ZZ    0.012262   0.009524  -0.000707  -0.008461   0.042536
   28  C  2 XY   -0.008192  -0.015227  -0.007834  -0.000696   0.022406
   29  C  2 XZ   -0.006740   0.006602  -0.001890  -0.002151   0.008084
   30  C  2 YZ    0.012025  -0.011681   0.001318   0.004722  -0.002145
   31  O  3  S    0.020043   0.016372   0.028004  -0.098733   0.011281
   32  O  3  S   -0.044323  -0.033754  -0.042188   0.142250  -0.034696
   33  O  3  X    0.079824   0.059817  -0.068286  -0.150214   0.033483
   34  O  3  Y    0.072812   0.078849   0.134280  -0.058779   0.016209
   35  O  3  Z    0.027845  -0.038009   0.013399  -0.008095   0.048670
   36  O  3  S   -0.216481  -0.190851  -0.579720   2.019664  -0.139097
   37  O  3  X    0.124444   0.092671  -0.043327  -0.796594   0.098150
   38  O  3  Y    0.138946   0.121884   0.436070  -0.394593   0.001622
   39  O  3  Z    0.083191  -0.090495   0.039365  -0.019515   0.034990
   40  O  3 XX   -0.004864   0.000689  -0.012462   0.023654   0.004195
   41  O  3 YY   -0.001887  -0.003813   0.010562   0.002559  -0.005280
   42  O  3 ZZ    0.006751   0.003124   0.001901  -0.026213   0.001086
   43  O  3 XY   -0.000940  -0.000906  -0.012105   0.041127   0.010990
   44  O  3 XZ   -0.003488   0.003833  -0.001338   0.002120  -0.035736
   45  O  3 YZ    0.002505  -0.001936   0.000671   0.003862  -0.032293
   46  H  4  S   -0.053129  -0.001645   0.006690   0.067289  -0.109245
   47  H  4  S   -1.165518  -0.454338  -0.797294  -0.596457   0.066522
   48  H  5  S   -0.093292  -0.061288   0.022706   0.102828   0.219774
   49  H  5  S   -0.376406  -1.507483   0.125988  -0.644431  -0.092782
   50  H  6  S    0.081225   0.017621   0.088821   0.003632  -0.265173
   51  H  6  S    1.435040  -0.542005   0.190218   0.536681  -0.046776
   52  H  7  S   -0.043147   0.061306   0.098294  -0.008139   0.249455
   53  H  7  S   -0.342956   1.615182   0.021639   0.400959   0.011774

                     21         22         23         24         25
                    0.5458     0.5756     0.6332     0.6725     0.7129
                     A          A          A          A          A   
    1  C  1  S    0.019368  -0.009267  -0.013783   0.020627  -0.013366
    2  C  1  S   -0.231022   0.157086  -0.090807  -0.131164   0.041180
    3  C  1  X   -0.724514   0.501620   0.137424  -0.333642   0.094474
    4  C  1  Y    0.392516   0.261398   0.331130  -0.123966   0.256149
    5  C  1  Z    0.029785   0.385064  -0.554609   0.038343   0.095597
    6  C  1  S   -0.055293   0.267529   0.261157   1.111822  -0.592668
    7  C  1  X    0.819901  -0.716467  -0.416997   1.358332  -0.953855
    8  C  1  Y   -0.592561  -0.723041  -1.054905   0.374171  -0.625119
    9  C  1  Z    0.028786  -0.817040   1.523443  -0.118959  -0.265202
   10  C  1 XX   -0.026136   0.010689  -0.035310   0.021298  -0.009591
   11  C  1 YY    0.021128   0.049387   0.090936  -0.003711   0.009619
   12  C  1 ZZ    0.005008  -0.060075  -0.055627  -0.017587  -0.000028
   13  C  1 XY    0.015409  -0.016537  -0.026423  -0.089335   0.031965
   14  C  1 XZ    0.006513  -0.032891   0.050039  -0.009517  -0.005630
   15  C  1 YZ   -0.001538  -0.048599   0.054432  -0.004926   0.005658
   16  C  2  S   -0.044590   0.005054  -0.001554   0.042240   0.038626
   17  C  2  S   -0.135500   0.090588  -0.320526  -0.187082  -0.383487
   18  C  2  X    0.063343  -0.069580   0.014057  -0.988636  -0.208044
   19  C  2  Y    0.105859   0.103217  -0.058419   0.092480  -0.904129
   20  C  2  Z   -0.531270  -0.478701   0.200167   0.016534  -0.090937
   21  C  2  S   -0.113992   0.353917   0.717859  -0.995940   0.562233
   22  C  2  X   -0.251752   0.751584   0.472571   1.455971  -0.145028
   23  C  2  Y    0.025098   0.047250   0.170926  -1.398151   2.368435
   24  C  2  Z    0.625843   0.830688  -0.707608  -0.092545   0.284009
   25  C  2 XX   -0.081547   0.044344   0.043456   0.034139   0.067331
   26  C  2 YY   -0.007501  -0.015600  -0.075903  -0.008462   0.001084
   27  C  2 ZZ    0.089048  -0.028744   0.032448  -0.025676  -0.068415
   28  C  2 XY    0.054412  -0.011014   0.051798   0.104100   0.087332
   29  C  2 XZ   -0.001514  -0.004380  -0.011611   0.007352   0.010732
   30  C  2 YZ   -0.017515  -0.023363   0.028626   0.000322  -0.004359
   31  O  3  S    0.014507   0.009688   0.014777  -0.044251  -0.011446
   32  O  3  S   -0.095522   0.029538  -0.036641   0.162798   0.077057
   33  O  3  X    0.117459  -0.141915  -0.163951  -0.284425  -0.166506
   34  O  3  Y   -0.066651   0.161271   0.081678  -0.017911  -0.353262
   35  O  3  Z   -0.040738  -0.022838   0.041280  -0.006651  -0.022755
   36  O  3  S    0.111976  -0.543255  -0.463612   0.157588  -0.664316
   37  O  3  X    0.057505   0.155111   0.182192  -0.448604   0.144380
   38  O  3  Y   -0.044371   0.144270   0.116931  -0.059975  -0.109726
   39  O  3  Z   -0.061676  -0.103836   0.127829  -0.000769  -0.033112
   40  O  3 XX    0.015555  -0.020366  -0.044106  -0.018383  -0.113961
   41  O  3 YY   -0.020253   0.006775   0.010114  -0.024338   0.038595
   42  O  3 ZZ    0.004698   0.013592   0.033991   0.042721   0.075366
   43  O  3 XY    0.005579  -0.001036  -0.010605  -0.106784  -0.081776
   44  O  3 XZ    0.032287   0.036981  -0.025871  -0.007529   0.000630
   45  O  3 YZ    0.017967   0.007880   0.010558  -0.005351  -0.006708
   46  H  4  S   -0.166400  -0.156104  -0.456947  -0.066487   0.068093
   47  H  4  S    0.079466   0.015113   0.126455  -0.679078   1.192447
   48  H  5  S    0.150746   0.276859   0.206186   0.066063  -0.167269
   49  H  5  S    0.159085   0.019682   0.443524  -0.355351   0.253207
   50  H  6  S    0.078205  -0.317204  -0.052228   0.051359  -0.089891
   51  H  6  S    0.114020  -0.155843   0.256953   0.400923  -0.390967
   52  H  7  S   -0.014931   0.020410  -0.491978   0.089560  -0.066506
   53  H  7  S   -0.094432  -0.121661  -0.611341   0.435020  -0.163747

                     26         27         28         29         30
                    0.7734     0.8301     0.8599     0.9021     0.9389
                     A          A          A          A          A   
    1  C  1  S   -0.033382   0.021815  -0.013263   0.013289   0.045218
    2  C  1  S    0.116267  -0.090674   0.077107   0.215901  -1.194198
    3  C  1  X   -0.166963  -0.042476   0.044443  -0.221692   0.304125
    4  C  1  Y   -0.621948  -0.273617   0.145671  -0.359786  -0.312217
    5  C  1  Z    0.297788  -0.712020  -0.075556   0.215861   0.232944
    6  C  1  S   -0.711226  -0.079986  -0.464944  -0.355021   1.978590
    7  C  1  X   -0.252032  -0.070363  -0.408671   0.539093  -0.802049
    8  C  1  Y    1.933282   0.314896  -0.172612   0.345568   0.315609
    9  C  1  Z   -0.943604   1.135852   0.151249  -0.225076  -0.280438
   10  C  1 XX   -0.093107  -0.025818  -0.028010  -0.020545  -0.081673
   11  C  1 YY    0.047243   0.063569   0.011112   0.105812   0.097793
   12  C  1 ZZ    0.045864  -0.037750   0.016898  -0.085267  -0.016120
   13  C  1 XY   -0.050737   0.020812   0.036787  -0.055161   0.081949
   14  C  1 XZ   -0.034188  -0.148290  -0.011029   0.074184   0.085456
   15  C  1 YZ   -0.004050  -0.098170  -0.005172  -0.001557  -0.036409
   16  C  2  S   -0.003180  -0.002481   0.050829   0.021749  -0.014527
   17  C  2  S   -0.939746   0.156214  -0.963611   1.038428  -0.530644
   18  C  2  X    0.317293   0.017466   0.134901   0.047320   0.020444
   19  C  2  Y   -0.043980  -0.120758   0.538410  -0.095107  -0.039693
   20  C  2  Z   -0.015971  -0.053494   0.034082   0.006187   0.012132
   21  C  2  S    2.087538  -0.047900   2.833319  -0.995572   0.815282
   22  C  2  X   -1.170118  -0.108668  -0.011296   0.414603  -0.239322
   23  C  2  Y   -0.433367   0.556306  -0.581889   0.709649   0.393401
   24  C  2  Z    0.249371  -0.030568  -0.052046   0.013192  -0.007101
   25  C  2 XX    0.066064   0.016856   0.000931   0.103019  -0.073975
   26  C  2 YY   -0.134169  -0.003493   0.102580  -0.017069   0.021184
   27  C  2 ZZ    0.068105  -0.013363  -0.103511  -0.085950   0.052791
   28  C  2 XY    0.045544   0.013923   0.098540   0.112116   0.024837
   29  C  2 XZ    0.022133   0.050486   0.013069  -0.039637  -0.050651
   30  C  2 YZ   -0.042608  -0.019095   0.013640   0.037403   0.036051
   31  O  3  S   -0.000550   0.007269   0.027486   0.046644  -0.006028
   32  O  3  S   -0.014158  -0.021613  -0.096835  -0.197945   0.016787
   33  O  3  X   -0.075550   0.006004  -0.316294  -0.370577   0.153789
   34  O  3  Y    0.030073  -0.051676  -0.311098  -0.275812   0.013681
   35  O  3  Z   -0.047443  -0.215246  -0.029064   0.079298   0.074597
   36  O  3  S    0.159906  -0.134810  -0.558804  -0.359674  -0.110799
   37  O  3  X    0.109402   0.118293   0.692048   0.879115  -0.174103
   38  O  3  Y    0.011619   0.006764   0.524679   0.505908  -0.172348
   39  O  3  Z   -0.016030   0.202839   0.041128  -0.052531  -0.072037
   40  O  3 XX   -0.046485  -0.006206   0.002660   0.001939   0.002574
   41  O  3 YY    0.012557  -0.001612  -0.053059   0.008071  -0.037416
   42  O  3 ZZ    0.033927   0.007819   0.050398  -0.010010   0.034842
   43  O  3 XY   -0.005454  -0.001814  -0.069117  -0.001111  -0.019459
   44  O  3 XZ    0.007095  -0.016374  -0.005603   0.000018  -0.003104
   45  O  3 YZ   -0.015417   0.006856  -0.008718   0.011660   0.008070
   46  H  4  S   -0.511505   0.052068   0.721502   0.031696   0.168036
   47  H  4  S   -0.077174   0.381521  -1.698335   0.721468  -0.068617
   48  H  5  S   -0.049323   0.413208  -0.067019   0.506789   0.753737
   49  H  5  S   -1.271946  -0.663032   0.236604  -0.682798  -1.278546
   50  H  6  S   -0.374783  -0.619343  -0.143666   0.075730   0.474731
   51  H  6  S    0.091859   1.431437   0.034513   0.296976  -1.028596
   52  H  7  S   -0.227625   0.607055  -0.035476  -0.372437   0.072333
   53  H  7  S    0.847759  -1.145921  -0.212301   0.909696  -0.489977

                     31         32         33         34         35
                    0.9405     0.9956     1.0842     1.2281     1.4688
                     A          A          A          A          A   
    1  C  1  S   -0.034141  -0.008646  -0.014458  -0.097922  -0.048734
    2  C  1  S    0.547930  -0.128787  -0.137934  -1.877956  -0.790775
    3  C  1  X   -0.288557  -0.018127  -0.107614  -0.065352  -0.074387
    4  C  1  Y   -0.203538   0.017440  -0.052353   0.029567   0.033285
    5  C  1  Z    0.023100   0.176562  -0.014657   0.094037  -0.079113
    6  C  1  S   -0.738220   0.466855  -0.500050   5.788356   2.352411
    7  C  1  X    0.448392   0.136489  -0.341415   1.118708   0.406019
    8  C  1  Y   -0.267262  -0.252110  -0.046271  -0.346714   0.022383
    9  C  1  Z    0.078367  -0.150850  -0.001208  -0.564870  -0.360403
   10  C  1 XX    0.078117   0.015639  -0.016101   0.050652   0.078030
   11  C  1 YY    0.102702   0.018757  -0.006505   0.040326  -0.099951
   12  C  1 ZZ   -0.180818  -0.034397   0.022607  -0.090977   0.021921
   13  C  1 XY    0.042843   0.009754   0.052851   0.001758  -0.097301
   14  C  1 XZ    0.042447   0.038100  -0.006869  -0.179649   0.242368
   15  C  1 YZ   -0.001636   0.066749   0.008225   0.195460  -0.393538
   16  C  2  S    0.001073   0.003909  -0.000011   0.034727   0.016254
   17  C  2  S   -0.120191   0.111170   0.019448   0.559146   0.090656
   18  C  2  X   -0.094693  -0.020058   0.135533  -0.025714   0.042391
   19  C  2  Y    0.023816   0.001556  -0.266939   0.046939  -0.007301
   20  C  2  Z   -0.002841   0.122697  -0.024389  -0.008639   0.080427
   21  C  2  S   -0.530586  -0.439503  -0.115096  -3.004230  -0.858573
   22  C  2  X    0.427131   0.264225  -0.877232   1.537656   0.498542
   23  C  2  Y    0.154526   0.027258   1.560789  -1.217525  -0.445647
   24  C  2  Z   -0.010176  -0.604014   0.146245   0.143185  -0.025906
   25  C  2 XX   -0.058205  -0.012091  -0.135146   0.007461   0.038769
   26  C  2 YY    0.081969   0.023735   0.148849   0.115874   0.056801
   27  C  2 ZZ   -0.023764  -0.011643  -0.013702  -0.123336  -0.095570
   28  C  2 XY   -0.111329  -0.002516   0.055477  -0.026090  -0.001401
   29  C  2 XZ   -0.035259  -0.060175   0.015226   0.205855  -0.542594
   30  C  2 YZ    0.031810   0.020037   0.008009  -0.090273  -0.034689
   31  O  3  S   -0.021436   0.001431   0.002059   0.003926  -0.004715
   32  O  3  S    0.123887  -0.016832  -0.034892  -0.116349   0.085700
   33  O  3  X    0.427712   0.019741  -0.428449   0.044466  -0.025701
   34  O  3  Y    0.091934   0.070419   0.694559  -0.091822  -0.021271
   35  O  3  Z    0.114508  -0.902070   0.065766   0.042307   0.096797
   36  O  3  S   -0.068188  -0.001532   0.013646   0.415576  -0.035433
   37  O  3  X   -0.666304  -0.040358   0.785325  -0.330369  -0.028096
   38  O  3  Y   -0.252680  -0.087975  -1.300015   0.325594   0.112898
   39  O  3  Z   -0.129065   1.245647  -0.124920  -0.159214   0.080710
   40  O  3 XX    0.020432   0.010599   0.090846   0.056199   0.026051
   41  O  3 YY   -0.012492  -0.003230  -0.091198   0.100531   0.082907
   42  O  3 ZZ   -0.007941  -0.007368   0.000352  -0.156730  -0.108959
   43  O  3 XY   -0.003447  -0.003778  -0.054875  -0.017692  -0.038079
   44  O  3 XZ   -0.002652   0.029081  -0.005930  -0.025875   0.222131
   45  O  3 YZ    0.007860   0.026595  -0.011030  -0.068578   0.281385
   46  H  4  S    0.490917   0.080442   0.223387   0.023167  -0.038703
   47  H  4  S   -0.311240  -0.036818   0.743072  -0.332781  -0.141042
   48  H  5  S    0.288169   0.024599  -0.061034  -0.393701  -0.323973
   49  H  5  S   -0.074109   0.080692   0.056181  -0.700009  -0.345954
   50  H  6  S   -0.482517   0.086975  -0.118416  -0.487938  -0.369262
   51  H  6  S    0.749535  -0.368616  -0.033658  -0.662537  -0.264016
   52  H  7  S   -0.653281  -0.250825  -0.094434  -0.361035  -0.030196
   53  H  7  S    0.788668   0.333978  -0.052271  -0.385293  -0.196543

                     36         37         38         39         40
                    1.5413     1.6133     1.7020     1.7949     1.8128
                     A          A          A          A          A   
    1  C  1  S   -0.019381   0.010711  -0.046782   0.021270   0.010635
    2  C  1  S   -0.321688   0.102303  -0.404232  -0.234012  -0.253032
    3  C  1  X   -0.044336  -0.007296   0.084136  -0.205012  -0.174632
    4  C  1  Y    0.017246  -0.012114   0.067350   0.081741  -0.009593
    5  C  1  Z    0.029701   0.010797  -0.005831  -0.039633   0.048858
    6  C  1  S    0.905233  -0.486851   1.861916  -0.325033   0.073627
    7  C  1  X    0.134504   0.101410   0.295225  -0.139751   0.231391
    8  C  1  Y    0.016405   0.507983  -0.685110  -0.324206   0.212316
    9  C  1  Z   -0.472601  -0.039970  -0.146330   0.399446  -0.170847
   10  C  1 XX    0.058605  -0.061504  -0.439956   0.205654   0.336034
   11  C  1 YY   -0.094667   0.005429   0.053189  -0.202374  -0.117715
   12  C  1 ZZ    0.036061   0.056075   0.386767  -0.003280  -0.218318
   13  C  1 XY   -0.056291  -0.220674  -0.486125  -0.199164   0.229164
   14  C  1 XZ    0.161104  -0.004875  -0.010435   0.184709  -0.188757
   15  C  1 YZ   -0.130186  -0.023466  -0.015117  -0.271756   0.220860
   16  C  2  S    0.006810  -0.015754   0.026642   0.008534   0.014616
   17  C  2  S    0.002169  -0.118218   0.503096  -0.216913  -0.070224
   18  C  2  X    0.028189  -0.070586  -0.006871   0.076022  -0.062268
   19  C  2  Y    0.008040  -0.007051   0.047706   0.040722   0.065373
   20  C  2  Z   -0.172164  -0.002051   0.002634  -0.055044   0.056665
   21  C  2  S   -0.217124  -1.789231  -1.634208   0.541386  -0.463094
   22  C  2  X    0.193548  -1.597144   1.090391  -0.260896  -0.550791
   23  C  2  Y   -0.142700  -1.029928   0.531181   0.853166  -0.096384
   24  C  2  Z    0.227435  -0.046203   0.071049  -0.142979   0.109265
   25  C  2 XX    0.034166  -0.011117   0.028334   0.277136   0.123673
   26  C  2 YY   -0.070685   0.051271  -0.305436  -0.242237  -0.241616
   27  C  2 ZZ    0.036519  -0.040154   0.277102  -0.034899   0.117943
   28  C  2 XY   -0.026995  -0.267598   0.240227  -0.208861  -0.205261
   29  C  2 XZ    0.013947  -0.029383  -0.017111   0.141141  -0.090364
   30  C  2 YZ    0.714847   0.023043  -0.020988  -0.026683  -0.075030
   31  O  3  S   -0.003493   0.034755   0.011772  -0.005628  -0.007371
   32  O  3  S    0.086460  -1.623637  -0.006829   0.241253  -0.126914
   33  O  3  X   -0.024345   0.091919   0.151939  -0.144597  -0.190859
   34  O  3  Y    0.001840   0.096254   0.073026   0.137434   0.081444
   35  O  3  Z   -0.067669   0.008876   0.010226  -0.048704   0.049730
   36  O  3  S   -0.124526   3.824383  -0.437098  -0.579647   0.697245
   37  O  3  X    0.031648  -1.094836  -0.064769   0.367020   0.003388
   38  O  3  Y    0.064411  -0.729314   0.013961  -0.195578  -0.278304
   39  O  3  Z   -0.112727  -0.052758  -0.010168   0.079218  -0.084556
   40  O  3 XX    0.000207  -0.125378  -0.102534  -0.281039  -0.445874
   41  O  3 YY    0.061198   0.134010  -0.308961   0.341020   0.015935
   42  O  3 ZZ   -0.061405  -0.008632   0.411495  -0.059981   0.429940
   43  O  3 XY    0.024782  -0.200085   0.205231   0.163233   0.360881
   44  O  3 XZ   -0.474906  -0.020971   0.006569   0.174794  -0.089373
   45  O  3 YZ    0.114905   0.020795  -0.017189  -0.549859   0.407883
   46  H  4  S   -0.019542   0.022626   0.509512   0.350503   0.258717
   47  H  4  S   -0.052869  -0.170221   0.329612   0.180538  -0.044452
   48  H  5  S   -0.126842  -0.001103  -0.161605   0.188826   0.086093
   49  H  5  S   -0.130244  -0.158268   0.093849   0.101400  -0.158904
   50  H  6  S   -0.204232   0.070315  -0.243616   0.087528   0.058693
   51  H  6  S   -0.274946   0.097558  -0.213527   0.052056  -0.041127
   52  H  7  S    0.030226   0.090507  -0.167489  -0.030028   0.045083
   53  H  7  S    0.073161   0.141475  -0.158612  -0.247736   0.101459

                     41         42         43         44         45
                    1.8707     2.0352     2.0673     2.1348     2.2984
                     A          A          A          A          A   
    1  C  1  S    0.055152   0.014964  -0.004726  -0.005680  -0.004679
    2  C  1  S    0.294887   0.003959   0.107101   0.067388  -0.078504
    3  C  1  X   -0.093244  -0.017848   0.035278   0.038945   0.008581
    4  C  1  Y    0.128084   0.058014  -0.027688   0.083339  -0.030715
    5  C  1  Z    0.031531  -0.040869  -0.030383   0.023043  -0.086736
    6  C  1  S   -1.931491  -0.355107  -0.158825  -0.121543   0.291978
    7  C  1  X   -0.742783   0.114108  -0.284091   0.039480   0.103289
    8  C  1  Y   -0.510445   0.515226   0.104333   0.444671   0.039163
    9  C  1  Z    0.251593  -0.621306  -0.335040   0.071692  -0.257408
   10  C  1 XX   -0.145019   0.030917  -0.307551  -0.221977   0.072932
   11  C  1 YY    0.061361   0.519507   0.052979   0.695485  -0.076310
   12  C  1 ZZ    0.083658  -0.550424   0.254572  -0.473509   0.003378
   13  C  1 XY   -0.472227  -0.164936   0.351895   0.183349  -0.125889
   14  C  1 XZ   -0.239631   0.137300   0.072487   0.129165   0.944791
   15  C  1 YZ    0.217698   0.472069   0.326672  -0.481439   0.393096
   16  C  2  S   -0.019888  -0.017920   0.007625  -0.013053   0.013799
   17  C  2  S   -0.385440  -0.223756   0.268178   0.071813   0.030513
   18  C  2  X    0.209627   0.168786  -0.264973  -0.076770   0.025000
   19  C  2  Y   -0.007385   0.006423   0.139800   0.145499  -0.031182
   20  C  2  Z    0.043876   0.008451   0.035667  -0.054637  -0.070970
   21  C  2  S    2.183847   0.592734  -0.363896  -0.100659  -0.228917
   22  C  2  X   -0.114736  -0.165254  -0.199946  -0.157945   0.033351
   23  C  2  Y    1.757979   0.071005   0.259201   0.018407  -0.109461
   24  C  2  Z    0.089480   0.315739   0.222844  -0.157160  -0.027509
   25  C  2 XX    0.357493   0.279816  -0.166491   0.154355  -0.094745
   26  C  2 YY   -0.137744  -0.043834  -0.398006  -0.204503   0.024490
   27  C  2 ZZ   -0.219749  -0.235982   0.564497   0.050147   0.070255
   28  C  2 XY   -0.009469   0.191886   0.052936   0.304340  -0.146825
   29  C  2 XZ    0.049903  -0.257095  -0.166974   0.164263   0.223383
   30  C  2 YZ   -0.124741   0.366598   0.169029  -0.311598  -0.386114
   31  O  3  S    0.005794   0.014143  -0.006881   0.012075  -0.006794
   32  O  3  S    0.493595  -0.108037  -0.010372  -0.234175   0.083082
   33  O  3  X    0.032563   0.145495  -0.119665   0.113437  -0.079275
   34  O  3  Y    0.156938   0.137852  -0.006146   0.158648  -0.062771
   35  O  3  Z    0.021222   0.058915   0.037833  -0.032497  -0.015827
   36  O  3  S   -1.859933  -0.187189   0.271902   0.247331   0.054843
   37  O  3  X    0.665053   0.061597   0.031507  -0.037296  -0.003997
   38  O  3  Y   -0.039257  -0.050533  -0.173540  -0.212517   0.054778
   39  O  3  Z   -0.012063  -0.142417  -0.118661   0.118855   0.051239
   40  O  3 XX    0.093245   0.032485  -0.170901  -0.118927   0.039112
   41  O  3 YY    0.325580  -0.123231   0.562245   0.228392  -0.064994
   42  O  3 ZZ   -0.418825   0.090746  -0.391344  -0.109464   0.025882
   43  O  3 XY   -0.147064   0.052968  -0.111029   0.067886  -0.037662
   44  O  3 XZ   -0.127603   0.284811   0.210225  -0.302790  -0.219516
   45  O  3 YZ    0.400380  -0.215541  -0.027480   0.089739   0.137742
   46  H  4  S    0.286152  -0.021430   0.377794   0.227471  -0.000976
   47  H  4  S    0.404927  -0.019102   0.110655  -0.023712  -0.014751
   48  H  5  S    0.314605  -0.301082  -0.017649  -0.638901   0.096072
   49  H  5  S    0.368364  -0.191111  -0.067528   0.036852  -0.152540
   50  H  6  S    0.306712   0.005506  -0.328523   0.292876  -0.554192
   51  H  6  S   -0.004910  -0.074927  -0.023898  -0.024514   0.119987
   52  H  7  S    0.107153   0.657201   0.061581   0.046335   0.548610
   53  H  7  S   -0.130699   0.174570   0.078834   0.099028  -0.123872

                     46         47         48         49         50
                    2.3541     2.5356     2.5883     2.8576     2.9475
                     A          A          A          A          A   
    1  C  1  S    0.043312   0.041195   0.000306   0.029063  -0.012456
    2  C  1  S    0.321259   0.059020  -0.024595  -0.136501   0.054238
    3  C  1  X   -0.136000  -0.250244  -0.025477  -0.233045   0.091318
    4  C  1  Y    0.012666   0.089601   0.016352   0.143346  -0.055900
    5  C  1  Z   -0.013067   0.002547   0.033214   0.019034  -0.002866
    6  C  1  S   -1.710916  -1.268932  -0.008683  -0.147857   0.143873
    7  C  1  X   -0.898419  -0.733814  -0.032141  -0.186483   0.193754
    8  C  1  Y    0.121264   0.213182   0.070778   0.241252   0.103993
    9  C  1  Z    0.077333  -0.023878  -0.011318  -0.036477  -0.015293
   10  C  1 XX   -0.384989  -0.779274  -0.101220  -0.246498   0.075462
   11  C  1 YY   -0.159816   0.614844   0.152457  -0.034959   0.013740
   12  C  1 ZZ    0.544806   0.164430  -0.051237   0.281457  -0.089202
   13  C  1 XY    0.351427   0.070046  -0.003634   0.518567  -0.175234
   14  C  1 XZ    0.173759  -0.028632   0.139222   0.059712  -0.015572
   15  C  1 YZ    0.090338  -0.024588  -0.191928  -0.032917   0.006079
   16  C  2  S   -0.081225  -0.022364  -0.000098  -0.043228  -0.029721
   17  C  2  S   -0.250911   0.000613   0.022938  -0.297101  -1.334920
   18  C  2  X   -0.212599  -0.228943  -0.024396  -0.350631  -1.072471
   19  C  2  Y    0.146890   0.055801  -0.007652  -0.157356  -0.693816
   20  C  2  Z    0.017870  -0.029611   0.238765  -0.008926  -0.042975
   21  C  2  S    1.817592   1.406996   0.054624   0.150203  -1.753969
   22  C  2  X   -0.510104  -0.682225  -0.062551  -0.327447  -0.690243
   23  C  2  Y    0.861893   0.671640  -0.015806  -0.565487  -0.601315
   24  C  2  Z    0.059868   0.037822   0.246788  -0.025315  -0.033893
   25  C  2 XX    0.368669  -0.111451  -0.010522   0.933877  -0.647771
   26  C  2 YY    0.409297   0.328486  -0.032412  -0.820555   0.191391
   27  C  2 ZZ   -0.777966  -0.217035   0.042934  -0.113322   0.456379
   28  C  2 XY    0.341954  -0.865174  -0.172367  -0.495933  -0.452591
   29  C  2 XZ    0.076176  -0.196321   0.868272  -0.048643  -0.023928
   30  C  2 YZ    0.064364   0.009111   0.445968  -0.055941  -0.017168
   31  O  3  S    0.024978  -0.021562  -0.003212  -0.008761  -0.061892
   32  O  3  S   -0.245239   0.569494   0.065253  -0.327809  -0.695499
   33  O  3  X    0.278399  -0.350460  -0.048828  -0.003907  -0.245629
   34  O  3  Y    0.220627  -0.164806  -0.022492   0.047922  -0.174130
   35  O  3  Z    0.013869  -0.010139  -0.012563   0.005229  -0.010543
   36  O  3  S   -0.442850  -0.632516  -0.023152   0.967069   3.141933
   37  O  3  X    0.171332   0.466437   0.036633  -0.637448  -1.508928
   38  O  3  Y   -0.289018   0.002395   0.038973   0.082076  -1.006940
   39  O  3  Z   -0.032883   0.059333  -0.448633   0.005573  -0.065393
   40  O  3 XX   -0.333582  -0.158695  -0.004020   0.825641   0.697621
   41  O  3 YY    0.291728   0.014686  -0.078979  -0.671469   0.019266
   42  O  3 ZZ    0.041854   0.144010   0.082999  -0.154173  -0.716887
   43  O  3 XY    0.355613   0.111216  -0.050249  -0.089039   1.180538
   44  O  3 XZ    0.044252  -0.105010   0.812217  -0.014748   0.076168
   45  O  3 YZ    0.057938  -0.093138   0.551407  -0.042589   0.054757
   46  H  4  S   -0.188761  -0.227143  -0.023825   0.251859  -0.019708
   47  H  4  S    0.238414   0.289148   0.014522  -0.428496  -0.012073
   48  H  5  S    0.223940  -0.262856  -0.130117  -0.013661  -0.011016
   49  H  5  S    0.039660   0.147777   0.015004  -0.101537  -0.035725
   50  H  6  S   -0.202908   0.083635   0.033027  -0.121003   0.028622
   51  H  6  S    0.126607  -0.107635  -0.011378   0.016168   0.023674
   52  H  7  S   -0.032259   0.045155   0.000881  -0.094887   0.032030
   53  H  7  S   -0.000057  -0.021605  -0.018153   0.045773   0.038052
 ...... END OF RHF CALCULATION ......
 STEP CPU TIME =     5.28 TOTAL CPU TIME =          5.4 (      0.1 MIN)
 TOTAL WALL CLOCK TIME=          5.4 SECONDS, CPU UTILIZATION IS    99.08%

     ---------------------------------------------------------------------
     PROPERTIES FOR THE B3LYP    DFT FUNCTIONAL (RHF  TYPE) DENSITY MATRIX
     ---------------------------------------------------------------------

          -----------------
          ENERGY COMPONENTS
          -----------------

         WAVEFUNCTION NORMALIZATION =       1.0000000000

                ONE ELECTRON ENERGY =    -345.6624248304
                TWO ELECTRON ENERGY =     122.4754057450
           NUCLEAR REPULSION ENERGY =      69.4591766857
                                      ------------------
                       TOTAL ENERGY =    -153.7278423997

 ELECTRON-ELECTRON POTENTIAL ENERGY =     122.4754057450
  NUCLEUS-ELECTRON POTENTIAL ENERGY =    -498.4841726669
   NUCLEUS-NUCLEUS POTENTIAL ENERGY =      69.4591766857
                                      ------------------
             TOTAL POTENTIAL ENERGY =    -306.5495902362
               TOTAL KINETIC ENERGY =     152.8217478365
                 VIRIAL RATIO (V/T) =       2.0059290944

          ---------------------------------------
          MULLIKEN AND LOWDIN POPULATION ANALYSES
          ---------------------------------------

     ATOMIC MULLIKEN POPULATION IN EACH MOLECULAR ORBITAL

                      1          2          3          4          5

                  2.000000   2.000000   2.000000   2.000000   2.000000

    1            -0.000051   0.001187   1.994930   0.022062   1.138100
    2             0.002375   2.000672   0.001828   0.524804   0.423717
    3             1.997637  -0.002819  -0.000002   1.453529   0.083459
    4             0.000033   0.000894   0.000022  -0.000598   0.022506
    5             0.000007   0.000025   0.001086  -0.000242   0.098684
    6            -0.000000   0.000022   0.001205   0.000090   0.122288
    7            -0.000001   0.000019   0.000932   0.000356   0.111247

                      6          7          8          9         10

                  2.000000   2.000000   2.000000   2.000000   2.000000

    1             0.354911   0.573906   0.818971   0.351215   0.584260
    2             0.822077   0.474160   0.371291   0.438909   0.334385
    3             0.268409   0.549839   0.202892   1.082428   0.525064
    4             0.355368   0.116424   0.053253   0.008445   0.073244
    5             0.112916   0.032122   0.113657   0.020964   0.332928
    6             0.059504   0.048342   0.199183   0.000981   0.108365
    7             0.026814   0.205207   0.240752   0.097058   0.041754

                     11         12

                  2.000000   2.000000

    1             0.461295   0.226399
    2             0.273560   0.089766
    3             0.806155   1.384432
    4             0.014366   0.256857
    5             0.086805   0.016152
    6             0.277855   0.011720
    7             0.079965   0.014674

               ----- POPULATIONS IN EACH AO -----
                             MULLIKEN      LOWDIN
              1  C  1  S      1.99668     1.98024
              2  C  1  S      0.67265     0.36523
              3  C  1  X      0.70609     0.63577
              4  C  1  Y      0.72986     0.65764
              5  C  1  Z      0.71196     0.63597
              6  C  1  S      0.64084     0.33440
              7  C  1  X      0.30569     0.41244
              8  C  1  Y      0.36509     0.48335
              9  C  1  Z      0.36643     0.48960
             10  C  1 XX      0.00571     0.14819
             11  C  1 YY      0.00820     0.15578
             12  C  1 ZZ      0.00501     0.15515
             13  C  1 XY      0.00790     0.00927
             14  C  1 XZ      0.00507     0.01540
             15  C  1 YZ      0.00000     0.00796
             16  C  2  S      1.99655     1.97465
             17  C  2  S      0.70947     0.36684
             18  C  2  X      0.74423     0.65036
             19  C  2  Y      0.74863     0.65133
             20  C  2  Z      0.45495     0.40828
             21  C  2  S      0.45106     0.30831
             22  C  2  X      0.10182     0.28194
             23  C  2  Y      0.18722     0.37359
             24  C  2  Z      0.27833     0.32992
             25  C  2 XX      0.00500     0.21579
             26  C  2 YY      0.04058     0.19605
             27  C  2 ZZ      0.02318     0.10521
             28  C  2 XY      0.01287     0.04752
             29  C  2 XZ      0.00365     0.02466
             30  C  2 YZ      0.00000     0.00640
             31  O  3  S      1.99730     1.97770
             32  O  3  S      0.92821     0.72011
             33  O  3  X      0.99949     0.93773
             34  O  3  Y      1.08614     1.03773
             35  O  3  Z      0.77197     0.72094
             36  O  3  S      0.93171     0.46981
             37  O  3  X      0.49963     0.57475
             38  O  3  Y      0.59486     0.65898
             39  O  3  Z      0.51369     0.55084
             40  O  3 XX      0.00229     0.18360
             41  O  3 YY      0.00730     0.17487
             42  O  3 ZZ      0.00725     0.17356
             43  O  3 XY      0.00800     0.01586
             44  O  3 XZ      0.00318     0.01041
             45  O  3 YZ      0.00000     0.00417
             46  H  4  S      0.53469     0.50137
             47  H  4  S      0.36613     0.38873
             48  H  5  S      0.51713     0.47792
             49  H  5  S      0.29798     0.34635
             50  H  6  S      0.51749     0.48122
             51  H  6  S      0.31206     0.34856
             52  H  7  S      0.51537     0.46972
             53  H  7  S      0.30341     0.34784

          ----- MULLIKEN ATOMIC OVERLAP POPULATIONS -----
          (OFF-DIAGONAL ELEMENTS NEED TO BE MULTIPLIED BY 2)

             1           2           3           4           5

    1    5.3788405
    2    0.3075902   4.5423605
    3   -0.0792428   0.6239234   7.8606957
    4   -0.1230692   0.3416404  -0.0619192   0.7300777
    5    0.3476026  -0.0204531   0.0044225   0.0062693   0.5317960
    6    0.3399705  -0.0166434   0.0021804   0.0028132  -0.0473580
    7    0.3554919  -0.0208741   0.0009638   0.0050020  -0.0071758

             6           7

    6    0.5748232
    7   -0.0262313   0.5115994

          TOTAL MULLIKEN AND LOWDIN ATOMIC POPULATIONS
       ATOM         MULL.POP.    CHARGE          LOW.POP.     CHARGE
    1 C             6.527184   -0.527184         6.486379   -0.486379
    2 C             5.757544    0.242456         5.940849    0.059151
    3 O             8.351024   -0.351024         8.211064   -0.211064
    4 H             0.900814    0.099186         0.890105    0.109895
    5 H             0.815104    0.184896         0.824269    0.175731
    6 H             0.829555    0.170445         0.829777    0.170223
    7 H             0.818776    0.181224         0.817558    0.182442

          MULLIKEN SPHERICAL HARMONIC POPULATIONS
       ATOM           S       P       D      F      G      H      I    TOTAL
    1 C             3.31    3.19    0.03   0.00   0.00   0.00   0.00    6.53
    2 C             3.16    2.52    0.09   0.00   0.00   0.00   0.00    5.76
    3 O             3.86    4.47    0.03   0.00   0.00   0.00   0.00    8.35
    4 H             0.90    0.00    0.00   0.00   0.00   0.00   0.00    0.90
    5 H             0.82    0.00    0.00   0.00   0.00   0.00   0.00    0.82
    6 H             0.83    0.00    0.00   0.00   0.00   0.00   0.00    0.83
    7 H             0.82    0.00    0.00   0.00   0.00   0.00   0.00    0.82

          -------------------------------
          BOND ORDER AND VALENCE ANALYSIS     BOND ORDER THRESHOLD=0.050
          -------------------------------

                   BOND                       BOND                       BOND
  ATOM PAIR DIST  ORDER      ATOM PAIR DIST  ORDER      ATOM PAIR DIST  ORDER
    1   2  1.509  0.967        1   5  1.093  0.941        1   6  1.098  0.927
    1   7  1.098  0.931        2   3  1.211  2.025        2   4  1.115  0.885

                       TOTAL       BONDED        FREE
      ATOM            VALENCE     VALENCE     VALENCE
    1 C                 3.768       3.768      -0.000
    2 C                 3.874       3.874       0.000
    3 O                 2.118       2.118       0.000
    4 H                 0.927       0.927       0.000
    5 H                 0.933       0.933      -0.000
    6 H                 0.920       0.920      -0.000
    7 H                 0.936       0.936       0.000

          ---------------------
          ELECTROSTATIC MOMENTS
          ---------------------

 POINT   1           X           Y           Z (BOHR)    CHARGE
                -0.000000    0.000000    0.000000        0.00 (A.U.)
         DX          DY          DZ         /D/  (DEBYE)
    -2.475379   -0.995511   -0.195853    2.675239
 ...... END OF PROPERTY EVALUATION ......
 STEP CPU TIME =     0.00 TOTAL CPU TIME =          5.4 (      0.1 MIN)
 TOTAL WALL CLOCK TIME=          5.4 SECONDS, CPU UTILIZATION IS    99.08%
                580000  WORDS OF DYNAMIC MEMORY USED
 EXECUTION OF GAMESS TERMINATED NORMALLY Thu Dec 12 13:18:02 2019
 DDI: 263640 bytes (0.3 MB / 0 MWords) used by master data server.

 ----------------------------------------
 CPU timing information for all processes
 ========================================
 0: 5.265 + 0.126 = 5.392
 ----------------------------------------
 ddikick.x: exited gracefully.
----- accounting info -----
Files used on the master node crcfe02.crc.nd.edu were:
-rw-r--r-- 1 cdrisko campus      489 Dec 12 13:17 /afs/crc.nd.edu/user/c/cdrisko/acetaldehyde.F05
-rw-r--r-- 1 cdrisko campus    45118 Dec 12 13:18 /afs/crc.nd.edu/user/c/cdrisko/acetaldehyde.F07
-rw-r--r-- 1 cdrisko campus 11881056 Dec 12 13:17 /afs/crc.nd.edu/user/c/cdrisko/acetaldehyde.F08
-rw-r--r-- 1 cdrisko campus  1799600 Dec 12 13:18 /afs/crc.nd.edu/user/c/cdrisko/acetaldehyde.F10
Thu Dec 12 13:18:05 EST 2019
0.305u 0.350s 0:09.10 7.1%	0+0k 0+32io 0pf+0w
