----- GAMESS execution script 'rungms' -----
This job is running on host crcfe01.crc.nd.edu
under operating system Linux at Thu Oct 17 13:07:56 EDT 2019
Available scratch disk space (Kbyte units) at beginning of the job is
Filesystem      1K-blocks  Used  Available Use% Mounted on
AFS            2147483647     0 2147483647   0% /afs
GAMESS temporary binary files will be written to /afs/crc.nd.edu/user/c/cdrisko
GAMESS supplementary output files will be written to /afs/crc.nd.edu/user/c/cdrisko/scr
Copying input file TS_opt.inp to your run's scratch directory...

 Distributed Data Interface kickoff program.
 Initiating 1 compute processes on 1 nodes to run the following command:
 /afs/crc.nd.edu/x86_64_linux/g/gamess/nov-2017/gamess/gamess.00.x TS_opt 

          ******************************************************
          *         GAMESS VERSION = 11 NOV 2017 (R3)         *
          *             FROM IOWA STATE UNIVERSITY             *
          * M.W.SCHMIDT, K.K.BALDRIDGE, J.A.BOATZ, S.T.ELBERT, *
          *   M.S.GORDON, J.H.JENSEN, S.KOSEKI, N.MATSUNAGA,   *
          *          K.A.NGUYEN, S.J.SU, T.L.WINDUS,           *
          *       TOGETHER WITH M.DUPUIS, J.A.MONTGOMERY       *
          *         J.COMPUT.CHEM.  14, 1347-1363(1993)        *
          **************** 64 BIT INTEL VERSION ****************

  SINCE 1993, STUDENTS AND POSTDOCS WORKING AT IOWA STATE UNIVERSITY
  AND ALSO IN THEIR VARIOUS JOBS AFTER LEAVING ISU HAVE MADE IMPORTANT
  CONTRIBUTIONS TO THE CODE:
     IVANA ADAMOVIC, CHRISTINE AIKENS, YURI ALEXEEV, POOJA ARORA,
     ANDREY ASADCHEV, ROB BELL, PRADIPTA BANDYOPADHYAY, JONATHAN BENTZ,
     BRETT BODE, KURT BRORSEN, CALEB CARLIN, GALINA CHABAN, WEI CHEN,
     CHEOL HO CHOI, PAUL DAY, ALBERT DEFUSCO, NUWAN DESILVA, TIM DUDLEY,
     DMITRI FEDOROV, ALEX FINDLATER, GRAHAM FLETCHER, MARK FREITAG,
     KURT GLAESEMANN, ANASTASIA GUININA,
     DAN KEMP, GRANT MERRILL, NORIYUKI MINEZAWA, JONATHAN MULLIN,
     TAKESHI NAGATA, SEAN NEDD, HEATHER NETZLOFF, BOSILJKA NJEGIC, RYAN OLSON,
     MIKE PAK, BUU PHAM,
     SPENCER PRUITT, LUKE ROSKOP, JIM SHOEMAKER, LYUDMILA SLIPCHENKO,
     TONY SMITH, SAROM SOK LEANG, JIE SONG, TETSUYA TAKETSUGU, SIMON WEBB,
     PENG XU, SOOHAENG YOO, FEDERICO ZAHARIEV

  ADDITIONAL CODE HAS BEEN PROVIDED BY COLLABORATORS IN OTHER GROUPS:
     IOWA STATE UNIVERSITY:
          JOE IVANIC, AARON WEST, LAIMUTIS BYTAUTAS, KLAUS RUEDENBERG
     UNIVERSITY OF TOKYO: KIMIHIKO HIRAO, TAKAHITO NAKAJIMA,
          TAKAO TSUNEDA, MUNEAKI KAMIYA, SUSUMU YANAGISAWA,
          KIYOSHI YAGI, MAHITO CHIBA, SEIKEN TOKURA, NAOAKI KAWAKAMI
     UNIVERSITY OF AARHUS: FRANK JENSEN
     UNIVERSITY OF IOWA: VISVALDAS KAIRYS, HUI LI
     NATIONAL INST. OF STANDARDS AND TECHNOLOGY: WALT STEVENS, DAVID GARMER
     UNIVERSITY OF PISA: BENEDETTA MENNUCCI, JACOPO TOMASI
     UNIVERSITY OF MEMPHIS: HENRY KURTZ, PRAKASHAN KORAMBATH
     UNIVERSITY OF ALBERTA: TOBY ZENG, MARIUSZ KLOBUKOWSKI
     UNIVERSITY OF NEW ENGLAND: MARK SPACKMAN
     MIE UNIVERSITY: HIROAKI UMEDA
     NAT. INST. OF ADVANCED INDUSTRIAL SCIENCE AND TECHNOLOGY: KAZUO KITAURA
     MICHIGAN STATE UNIVERSITY:
          KAROL KOWALSKI, MARTA WLOCH, JEFFREY GOUR, JESSE LUTZ,
          WEI LI, PIOTR PIECUCH
     UNIVERSITY OF SILESIA: MONIKA MUSIAL, STANISLAW KUCHARSKI
     FACULTES UNIVERSITAIRES NOTRE-DAME DE LA PAIX:
          OLIVIER QUINET, BENOIT CHAMPAGNE
     UNIVERSITY OF CALIFORNIA - SANTA BARBARA: BERNARD KIRTMAN
     INSTITUTE FOR MOLECULAR SCIENCE:
          KAZUYA ISHIMURA, MICHIO KATOUDA, AND SHIGERU NAGASE
     UNIVERSITY OF NOTRE DAME: ANNA POMOGAEVA, DAN CHIPMAN
     KYUSHU UNIVERSITY:
          HARUYUKI NAKANO,
          FENG LONG GU, JACEK KORCHOWIEC, MARCIN MAKOWSKI, AND YURIKO AOKI,
          HIROTOSHI MORI AND EISAKU MIYOSHI
     PENNSYLVANIA STATE UNIVERSITY:
          TZVETELIN IORDANOV, CHET SWALINA, JONATHAN SKONE,
          SHARON HAMMES-SCHIFFER
     WASEDA UNIVERSITY:
          MASATO KOBAYASHI, TOMOKO AKAMA, TSUGUKI TOUMA,
          TAKESHI YOSHIKAWA, YASUHIRO IKABATA, JUNJI SEINO,
          YUYA NAKAJIMA, HIROMI NAKAI
     NANJING UNIVERSITY: SHUHUA LI
     UNIVERSITY OF NEBRASKA:
          PEIFENG SU, DEJUN SI, NANDUN THELLAMUREGE, YALI WANG, HUI LI
     UNIVERSITY OF ZURICH: ROBERTO PEVERATI, KIM BALDRIDGE
     N. COPERNICUS UNIVERSITY AND JACKSON STATE UNIVERSITY:
          MARIA BARYSZ
     UNIVERSITY OF COPENHAGEN: Jimmy Kromann, CASPER STEINMANN
     TOKYO INSTITUTE OF TECHNOLOGY: HIROYA NAKATA
     NAGOYA UNIVERSITY: YOSHIO NISHIMOTO, STEPHAN IRLE
     MOSCOW STATE UNIVERSITY: VLADIMIR MIRONOV

 EXECUTION OF GAMESS BEGUN Thu Oct 17 13:07:56 2019

            ECHO OF THE FIRST FEW INPUT CARDS -
 INPUT CARD> $CONTRL SCFTYP=RHF RUNTYP=OPTIMIZE DFTTYP=B3LYP                                
 INPUT CARD>       ICHARG=0 MULT=1 COORD=CART $END                                          
 INPUT CARD> $STATPT METHOD=NR OPTTOL=0.0001 HESS=GUESS NSTEP=100 $END                      
 INPUT CARD> $BASIS GBASIS=N31 NGAUSS=6 NDFUNC=1 $END                                       
 INPUT CARD> $DATA                                                                          
 INPUT CARD>Title Transition State Optimization for C2H4O                                   
 INPUT CARD>C1 1                                                                            
 INPUT CARD>C 6 0.00000000 0.00000000 0.00000000                                            
 INPUT CARD>C 6 1.51873190 -0.05482787 0.00000000                                           
 INPUT CARD>O 8 1.70514664 0.76210734 0.00000000                                            
 INPUT CARD>H 1 2.18287289 -0.91912917 0.00000000                                           
 INPUT CARD>H 1 0.56277642 1.36871230 -0.24476387                                           
 INPUT CARD>H 1 -0.38692851 -0.64703008 -0.78723465                                         
 INPUT CARD>H 1 -0.37577739 -0.33814405 0.96568626                                          
 INPUT CARD> $END                                                                           
    1000000 WORDS OF MEMORY AVAILABLE


                    * * * WARNING * * *
 OLD KEYWORD COORD=CART SELECTED, AUTOMATICALLY CHANGED TO COORD=PRINAXIS.
 YOUR MOLECULE'S COORDINATES WILL BE CHANGED TO PRINCIPAL AXES BY
   A) TRANSLATION TO THE CENTER OF MASS, THEN
   B) ROTATION TO HAVE A DIAGONAL MOMENT OF INERTIA TENSOR.

 HOWEVER, NOTHING ELSE IN YOUR INPUT WILL BE ROTATED IN THE SAME WAY,
 SO IF YOU HAVE A $VEC, $VIB, $GRAD, $HESS, EFP PARTICLE COORDINATES,
 OR ANYTHING ELSE THAT DEPENDS ON THE INITIAL ORIENTATION, THAT DATA
 WILL NOT BE USED CORRECTLY IN THIS RUN.

 THE PURPOSE OF COORD=PRINAXIS IS TO BE USED ONCE, ONLY AT THE VERY
 BEGINNING OF A SERIES OF COMPUTATIONS, PERHAPS TO FIND THE SYMMETRY
 UNIQUE ATOMS FROM AN ARBITRARY INITIAL ORIENTATION.

 AFTER THE FIRST RUN, YOU SHOULD USE ONLY COORD=UNIQUE, TO ENSURE THAT
 THE COORDINATES WHICH YOU READ IN ARE THE COORDINATES THAT ARE USED.


     BASIS OPTIONS
     -------------
     GBASIS=N31          IGAUSS=       6      POLAR=POPN31  
     NDFUNC=       1     NFFUNC=       0     DIFFSP=       F
     NPFUNC=       0      DIFFS=       F     BASNAM=        


     RUN TITLE
     ---------
 Title Transition State Optimization for C2H4O                                   

 THE POINT GROUP OF THE MOLECULE IS C1      
 THE ORDER OF THE PRINCIPAL AXIS IS     1

 THE MOMENTS OF INERTIA ARE (AMU-ANGSTROM**2)
 IXX=     9.094   IYY=    32.369   IZZ=    38.218

 ATOM      ATOMIC                      COORDINATES (BOHR)
           CHARGE         X                   Y                   Z
 C           6.0    -2.0823921716        0.2061931418       -0.0056132043
 C           6.0     0.6031436480       -0.8113815299       -0.0061528846
 O           8.0     1.4313466422        0.5379914181        0.0190792409
 H           1.0     1.2688726984       -2.7604602634       -0.0321989595
 H           1.0    -0.2438760221        2.3224026688       -0.4256255139
 H           1.0    -3.1583875048       -0.6949616151       -1.5132390260
 H           1.0    -2.9699539349       -0.1994181237        1.8083589885

          INTERNUCLEAR DISTANCES (ANGS.)
          ------------------------------

                1 C          2 C          3 O          4 H          5 H     

   1 C       0.0000000    1.5197213 *  1.8677079 *  2.3684874 *  1.5000000 *
   2 C       1.5197213 *  0.0000000    0.8379341 *  1.0900000 *  1.7321163 *
   3 O       1.8677079 *  0.8379341 *  0.0000000    1.7477925 *  1.3163923 *
   4 H       2.3684874 *  1.0900000 *  1.7477925 *  0.0000000    2.8140434 *
   5 H       1.5000000 *  1.7321163 *  1.3163923 *  2.8140434 *  0.0000000  
   6 H       1.0900000 *  2.1452234 *  2.6423825 *  2.7014173 *  2.2933450 *
   7 H       1.0900000 *  2.1452234 *  2.5442775 *  2.7958514 *  2.2933450 *

                6 H          7 H     

   1 C       1.0900000 *  1.0900000 *
   2 C       2.1452234 *  2.1452234 *
   3 O       2.6423825 *  2.5442775 *
   4 H       2.7014173 *  2.7958514 *
   5 H       2.2933450 *  2.2933450 *
   6 H       0.0000000    1.7799625 *
   7 H       1.7799625 *  0.0000000  

  * ... LESS THAN  3.000


     ATOMIC BASIS SET
     ----------------
 THE CONTRACTED PRIMITIVE FUNCTIONS HAVE BEEN UNNORMALIZED
 THE CONTRACTED BASIS FUNCTIONS ARE NOW NORMALIZED TO UNITY

  SHELL TYPE  PRIMITIVE        EXPONENT          CONTRACTION COEFFICIENT(S)

 C         

      1   S       1          3047.5248800    0.001834737132
      1   S       2           457.3695180    0.014037322813
      1   S       3           103.9486850    0.068842622264
      1   S       4            29.2101553    0.232184443216
      1   S       5             9.2866630    0.467941348435
      1   S       6             3.1639270    0.362311985337

      2   L       7             7.8682723   -0.119332419775    0.068999066591
      2   L       8             1.8812885   -0.160854151696    0.316423960957
      2   L       9             0.5442493    1.143456437840    0.744308290898

      3   L      10             0.1687145    1.000000000000    1.000000000000

      4   D      11             0.8000000    1.000000000000

 C         

      5   S      12          3047.5248800    0.001834737132
      5   S      13           457.3695180    0.014037322813
      5   S      14           103.9486850    0.068842622264
      5   S      15            29.2101553    0.232184443216
      5   S      16             9.2866630    0.467941348435
      5   S      17             3.1639270    0.362311985337

      6   L      18             7.8682723   -0.119332419775    0.068999066591
      6   L      19             1.8812885   -0.160854151696    0.316423960957
      6   L      20             0.5442493    1.143456437840    0.744308290898

      7   L      21             0.1687145    1.000000000000    1.000000000000

      8   D      22             0.8000000    1.000000000000

 O         

      9   S      23          5484.6716600    0.001831074430
      9   S      24           825.2349460    0.013950172200
      9   S      25           188.0469580    0.068445078098
      9   S      26            52.9645000    0.232714335992
      9   S      27            16.8975704    0.470192897984
      9   S      28             5.7996353    0.358520852987

     10   L      29            15.5396162   -0.110777549525    0.070874268231
     10   L      30             3.5999336   -0.148026262701    0.339752839147
     10   L      31             1.0137618    1.130767015354    0.727158577316

     11   L      32             0.2700058    1.000000000000    1.000000000000

     12   D      33             0.8000000    1.000000000000

 H         

     13   S      34            18.7311370    0.033494604338
     13   S      35             2.8253944    0.234726953484
     13   S      36             0.6401217    0.813757326146

     14   S      37             0.1612778    1.000000000000

 H         

     15   S      38            18.7311370    0.033494604338
     15   S      39             2.8253944    0.234726953484
     15   S      40             0.6401217    0.813757326146

     16   S      41             0.1612778    1.000000000000

 H         

     17   S      42            18.7311370    0.033494604338
     17   S      43             2.8253944    0.234726953484
     17   S      44             0.6401217    0.813757326146

     18   S      45             0.1612778    1.000000000000

 H         

     19   S      46            18.7311370    0.033494604338
     19   S      47             2.8253944    0.234726953484
     19   S      48             0.6401217    0.813757326146

     20   S      49             0.1612778    1.000000000000

 TOTAL NUMBER OF BASIS SET SHELLS             =   20
 NUMBER OF CARTESIAN GAUSSIAN BASIS FUNCTIONS =   53
 NUMBER OF ELECTRONS                          =   24
 CHARGE OF MOLECULE                           =    0
 SPIN MULTIPLICITY                            =    1
 NUMBER OF OCCUPIED ORBITALS (ALPHA)          =   12
 NUMBER OF OCCUPIED ORBITALS (BETA )          =   12
 TOTAL NUMBER OF ATOMS                        =    7
 THE NUCLEAR REPULSION ENERGY IS       83.6737554764

     LEBEDEV GRID-BASED DFT OPTIONS
     ------------------------------
     DFTTYP=B3LYP   
     NRAD  =      96     NLEB  =     302
     NRAD0 =      24     NLEB0 =     110
     SWOFF =    5.00E-03 (PURE SCF -> DFT)
     SWITCH=    3.00E-04 (COARSE -> TIGHT GRID)
     THRESH=    0.00E+00 GTHRE=    1.00E+00

 GRIMME'S EMPIRICAL DISPERSION CORRECTION= F

     $CONTRL OPTIONS
     ---------------
 SCFTYP=RHF          RUNTYP=OPTIMIZE     EXETYP=RUN     
 MPLEVL=       0     CITYP =NONE         CCTYP =NONE         VBTYP =NONE    
 DFTTYP=B3LYP        TDDFT =NONE    
 MULT  =       1     ICHARG=       0     NZVAR =       0     COORD =PRINAXIS
 PP    =NONE         RELWFN=NONE         LOCAL =NONE         NUMGRD=       F
 ISPHER=      -1     NOSYM =       0     MAXIT =      30     UNITS =ANGS    
 PLTORB=       F     MOLPLT=       F     AIMPAC=       F     FRIEND=        
 NPRINT=       7     IREST =       0     GEOM  =INPUT   
 NORMF =       0     NORMP =       0     ITOL  =      20     ICUT  =       9
 INTTYP=BEST         GRDTYP=BEST         QMTTOL= 1.0E-06

     $SYSTEM OPTIONS
     ---------------
  REPLICATED MEMORY=     1000000 WORDS (ON EVERY NODE).
 DISTRIBUTED MEMDDI=           0 MILLION WORDS IN AGGREGATE,
 MEMDDI DISTRIBUTED OVER   1 PROCESSORS IS           0 WORDS/PROCESSOR.
 TOTAL MEMORY REQUESTED ON EACH PROCESSOR=     1000000 WORDS.
 TIMLIM=      525600.00 MINUTES, OR     365.0 DAYS.
 PARALL= F  BALTYP=  DLB     KDIAG=    0  COREFL= F
 MXSEQ2=     300 MXSEQ3=     150  mem10=         0

          ----------------
          PROPERTIES INPUT
          ----------------

     MOMENTS            FIELD           POTENTIAL          DENSITY
 IEMOM =       1   IEFLD =       0   IEPOT =       0   IEDEN =       0
 WHERE =COMASS     WHERE =NUCLEI     WHERE =NUCLEI     WHERE =NUCLEI  
 OUTPUT=BOTH       OUTPUT=BOTH       OUTPUT=BOTH       OUTPUT=BOTH    
 IEMINT=       0   IEFINT=       0                     IEDINT=       0
                                                       MORB  =       0
          EXTRAPOLATION IN EFFECT
          DIIS IN EFFECT
 ORBITAL PRINTING OPTION: NPREO=     1    53     2     1

     -------------------------------
     INTEGRAL TRANSFORMATION OPTIONS
     -------------------------------
     NWORD  =            0
     CUTOFF = 1.0E-09     MPTRAN =       0
     DIRTRF =       F     AOINTS =DUP     

          ----------------------
          INTEGRAL INPUT OPTIONS
          ----------------------
 NOPK  =       1 NORDER=       0 SCHWRZ=       T

     ------------------------------------------
     THE POINT GROUP IS C1 , NAXIS= 1, ORDER= 1
     ------------------------------------------

     DIMENSIONS OF THE SYMMETRY SUBSPACES ARE
 A   =   53

 ..... DONE SETTING UP THE RUN .....
 STEP CPU TIME =     0.02 TOTAL CPU TIME =          0.0 (      0.0 MIN)
 TOTAL WALL CLOCK TIME=          0.0 SECONDS, CPU UTILIZATION IS   100.00%


          -----------------------------
          STATIONARY POINT LOCATION RUN
          -----------------------------

 OBTAINING INITIAL HESSIAN, HESS=GUESS   
 CARTESIAN COORDINATE OPTIMIZATION USING BADGER'S RULE FORCE CONSTANT GUESS

          PARAMETERS CONTROLLING GEOMETRY SEARCH ARE
          METHOD =NR                  UPHESS =POWELL  
          NNEG   =         0          NFRZ   =         0
          NSTEP  =       100          IFOLOW =         1
          HESS   =GUESS               RESTAR =         F
          IHREP  =         0          HSSEND =         F
          NPRT   =         0          NPUN   =         0
          OPTTOL = 1.000E-04          RMIN   = 1.500E-03
          RMAX   = 1.000E-01          RLIM   = 7.000E-02
          DXMAX  = 3.000E-01          PURIFY =         F
          MOVIE  =         F          TRUPD  =         T
          TRMAX  = 5.000E-01          TRMIN  = 5.000E-02
          ITBMAT =         5          STPT   =         F
          STSTEP = 1.000E-02          PROJCT=          T

 BEGINNING GEOMETRY SEARCH POINT NSERCH=   0 ...

 COORDINATES OF ALL ATOMS ARE (ANGS)
   ATOM   CHARGE       X              Y              Z
 ------------------------------------------------------------
 C           6.0  -1.1019545612   0.1091127196  -0.0029703800
 C           6.0   0.3191698965  -0.4293646461  -0.0032559666
 O           8.0   0.7574360788   0.2846928187   0.0100963002
 H           1.0   0.6714585642  -1.4607727688  -0.0170389568
 H           1.0  -0.1290536426   1.2289626559  -0.2252313387
 H           1.0  -1.6713468118  -0.3677578758  -0.8007716652
 H           1.0  -1.5716320536  -0.1055275342   0.9569424352

          ********************
          1 ELECTRON INTEGRALS
          ********************
 ...... END OF ONE-ELECTRON INTEGRALS ......
 STEP CPU TIME =     0.00 TOTAL CPU TIME =          0.0 (      0.0 MIN)
 TOTAL WALL CLOCK TIME=          0.0 SECONDS, CPU UTILIZATION IS    66.67%

          -------------
          GUESS OPTIONS
          -------------
          GUESS =HUCKEL            NORB  =       0          NORDER=       0
          MIX   =       F          PRTMO =       F          PUNMO =       F
          TOLZ  = 1.0E-08          TOLE  = 1.0E-05
          SYMDEN=       F          PURIFY=       F

 INITIAL GUESS ORBITALS GENERATED BY HUCKEL   ROUTINE.
 HUCKEL GUESS REQUIRES     27154 WORDS.

 SYMMETRIES FOR INITIAL GUESS ORBITALS FOLLOW.   BOTH SET(S).
    12 ORBITALS ARE OCCUPIED (    3 CORE ORBITALS).
     4=A        5=A        6=A        7=A        8=A        9=A       10=A   
    11=A       12=A       13=A       14=A       15=A       16=A       17=A   
    18=A       19=A       20=A       21=A       22=A   
 ...... END OF INITIAL ORBITAL SELECTION ......
 STEP CPU TIME =     0.00 TOTAL CPU TIME =          0.0 (      0.0 MIN)
 TOTAL WALL CLOCK TIME=          0.0 SECONDS, CPU UTILIZATION IS    66.67%

                    ----------------------
                    AO INTEGRAL TECHNOLOGY
                    ----------------------
     S,P,L SHELL ROTATED AXIS INTEGRALS, REPROGRAMMED BY
        KAZUYA ISHIMURA (IMS) AND JOSE SIERRA (SYNSTAR).
     S,P,D,L SHELL ROTATED AXIS INTEGRALS PROGRAMMED BY
        KAZUYA ISHIMURA (INSTITUTE FOR MOLECULAR SCIENCE).
     S,P,D,F,G SHELL TO TOTAL QUARTET ANGULAR MOMENTUM SUM 5,
        ERIC PROGRAM BY GRAHAM FLETCHER (ELORET AND NASA ADVANCED
        SUPERCOMPUTING DIVISION, AMES RESEARCH CENTER).
     S,P,D,F,G,L SHELL GENERAL RYS QUADRATURE PROGRAMMED BY
        MICHEL DUPUIS (PACIFIC NORTHWEST NATIONAL LABORATORY).

          --------------------
          2 ELECTRON INTEGRALS
          --------------------

 THE -PK- OPTION IS OFF, THE INTEGRALS ARE NOT IN SUPERMATRIX FORM.
 STORING   15000 INTEGRALS/RECORD ON DISK, USING 12 BYTES/INTEGRAL.
 TWO ELECTRON INTEGRAL EVALUATION REQUIRES   90606 WORDS OF MEMORY.
 SCHWARZ INEQUALITY OVERHEAD:      1431 INTEGRALS, T=        0.00
 II,JST,KST,LST =  1  1  1  1 NREC =         1 INTLOC =    1
 II,JST,KST,LST =  2  1  1  1 NREC =         1 INTLOC =    2
 II,JST,KST,LST =  3  1  1  1 NREC =         1 INTLOC =   34
 II,JST,KST,LST =  4  1  1  1 NREC =         1 INTLOC =  214
 II,JST,KST,LST =  5  1  1  1 NREC =         1 INTLOC = 1189
 II,JST,KST,LST =  6  1  1  1 NREC =         1 INTLOC = 3189
 II,JST,KST,LST =  7  1  1  1 NREC =         2 INTLOC =  879
 II,JST,KST,LST =  8  1  1  1 NREC =         3 INTLOC = 8086
 II,JST,KST,LST =  9  1  1  1 NREC =         7 INTLOC = 5866
 II,JST,KST,LST = 10  1  1  1 NREC =         8 INTLOC = 5104
 II,JST,KST,LST = 11  1  1  1 NREC =        13 INTLOC = 5153
 II,JST,KST,LST = 12  1  1  1 NREC =        20 INTLOC = 4999
 II,JST,KST,LST = 13  1  1  1 NREC =        35 INTLOC = 5679
 II,JST,KST,LST = 14  1  1  1 NREC =        38 INTLOC = 9045
 II,JST,KST,LST = 15  1  1  1 NREC =        42 INTLOC =  906
 II,JST,KST,LST = 16  1  1  1 NREC =        45 INTLOC =11155
 II,JST,KST,LST = 17  1  1  1 NREC =        49 INTLOC = 9955
 II,JST,KST,LST = 18  1  1  1 NREC =        53 INTLOC =11781
 II,JST,KST,LST = 19  1  1  1 NREC =        58 INTLOC = 3061
 II,JST,KST,LST = 20  1  1  1 NREC =        62 INTLOC =12835
 SCHWARZ INEQUALITY TEST SKIPPED         283 INTEGRAL BLOCKS.
 TOTAL NUMBER OF NONZERO TWO-ELECTRON INTEGRALS =             1002220
         67 INTEGRAL RECORDS WERE STORED ON DISK FILE  8.
  ...... END OF TWO-ELECTRON INTEGRALS .....
 STEP CPU TIME =     0.10 TOTAL CPU TIME =          0.1 (      0.0 MIN)
 TOTAL WALL CLOCK TIME=          0.1 SECONDS, CPU UTILIZATION IS    85.71%

          --------------------------
             R-B3LYP SCF CALCULATION
          --------------------------

     NUCLEAR ENERGY =        83.6737554764
     MAXIT =   30     NPUNCH=    2
     EXTRAP=T  DAMP=F  SHIFT=F  RSTRCT=F  DIIS=T  DEM=F  SOSCF=F
         DENSITY MATRIX CONVERGENCE THRESHOLD=  1.00E-05
     COARSE -> FINE DFT GRID SWITCH THRESHOLD=  3.00E-04 (SWITCH IN $DFT)
                   HF -> DFT SWITCH THRESHOLD=  5.00E-03 (SWOFF IN $DFT)
     MEMORY REQUIRED FOR RHF ITERS=    307447 WORDS.

 DFT CODE IS SWITCHING FROM THE FINE GRID NRAD= 96,  NLEB=  302
                      TO THE COARSE GRID NRAD0= 24, NLEB0=  110

     EXCHANGE FUNCTIONAL   =B88&HFX   
     CORRELATION FUNCTIONAL=LYP88&VWN5
     DFT THRESHOLD         =.197E-07
     GRID CHANGE THRESHOLD =.300E-03
 FOR AN EULER-MACLAURIN QUADRATURE USING  96 RADIAL POINTS:
 SMALLEST GAUSSIAN PRIMITIVE EXPONENT=        0.1612777588 OF TYPE -S-
 ON ATOM NUMBER   4 HAS RADIAL NORMALIZATION=  1.000000
  LARGEST GAUSSIAN PRIMITIVE EXPONENT=     5484.6716600000 OF TYPE -S-
 ON ATOM NUMBER   3 HAS RADIAL NORMALIZATION=  1.000000
 DFT IS SWITCHED OFF, PERFORMING PURE SCF UNTIL SWOFF THRESHOLD IS REACHED.

 ITER EX DEM     TOTAL ENERGY        E CHANGE  DENSITY CHANGE    DIIS ERROR
          * * *   INITIATING DIIS PROCEDURE   * * *
   1  0  0     -151.3515184616  -151.3515184616   0.369004371   0.415804833
   2  1  0     -152.0679539448    -0.7164354832   0.198852982   0.140904007
   3  2  0     -152.1459513645    -0.0779974197   0.048072400   0.057287678
   4  3  0     -152.1591291583    -0.0131777939   0.026161465   0.013543829
   5  4  0     -152.1600443551    -0.0009151968   0.013989224   0.003980750
   6  5  0     -152.1602014503    -0.0001570952   0.004807757   0.001505609
 CONVERGED TO SWOFF, SO DFT CALCULATION IS NOW SWITCHED ON.
          * * *   INITIATING DIIS PROCEDURE   * * *
   7  6  0     -152.9767321394    -0.8165306891   0.091514108   0.081733320
   8  7  0     -152.9897862123    -0.0130540729   0.042078305   0.015134555
   9  8  0     -152.9887029261     0.0010832862   0.029417448   0.020364531
  10  9  0     -152.9912505893    -0.0025476633   0.005410436   0.002737627
  11 10  0     -152.9912976824    -0.0000470931   0.000857725   0.000349663
  12 11  0     -152.9912983125    -0.0000006301   0.000148368   0.000108338
 DFT CODE IS SWITCHING BACK TO THE FINE GRID
          * * *   INITIATING DIIS PROCEDURE   * * *
  13 12  0     -152.9926694084    -0.0013710959   0.003362337   0.001336027
  14 13  0     -152.9926816329    -0.0000122244   0.000427937   0.000291065
  15 14  0     -152.9926817515    -0.0000001187   0.000208580   0.000215529
  16 15  0     -152.9926819261    -0.0000001746   0.000112125   0.000058853
  17 16  0     -152.9926819416    -0.0000000155   0.000021615   0.000014639
  18 17  0     -152.9926819433    -0.0000000016   0.000004716   0.000003452
  19 18  0     -152.9926819433    -0.0000000000   0.000002124   0.000000773

          -----------------
          DENSITY CONVERGED
          -----------------
     TIME TO FORM FOCK OPERATORS=       5.2 SECONDS (       0.3 SEC/ITER)
     TIME TO SOLVE SCF EQUATIONS=       0.0 SECONDS (       0.0 SEC/ITER)

 FINAL R-B3LYP ENERGY IS     -152.9926819433 AFTER  19 ITERATIONS
 DFT EXCHANGE + CORRELATION ENERGY =       -17.1802532516
 TOTAL ELECTRON NUMBER             =        24.0000277594

          ------------
          EIGENVECTORS
          ------------

                      1          2          3          4          5
                  -19.1843   -10.2726   -10.1437    -1.3188    -0.7347
                     A          A          A          A          A   
    1  C  1  S    0.000001   0.000771   0.992813  -0.016005   0.133354
    2  C  1  S   -0.000070  -0.000367   0.049856   0.023597  -0.253700
    3  C  1  X   -0.000235   0.000056  -0.000233   0.029994  -0.075440
    4  C  1  Y   -0.000093  -0.000062  -0.000635  -0.001926   0.029349
    5  C  1  Z    0.000037   0.000007   0.000190   0.000336  -0.004660
    6  C  1  S    0.000848   0.001348  -0.014924   0.017549  -0.243629
    7  C  1  X    0.000619   0.000750  -0.000984   0.005123  -0.031190
    8  C  1  Y    0.000350  -0.000011   0.001791   0.009546   0.007055
    9  C  1  Z   -0.000259  -0.000007  -0.000201  -0.001180  -0.000031
   10  C  1 XX   -0.000089   0.000175  -0.009338   0.009500  -0.002151
   11  C  1 YY   -0.000038   0.000003  -0.009533  -0.001304   0.007516
   12  C  1 ZZ   -0.000006  -0.000121  -0.009296  -0.002642   0.000899
   13  C  1 XY   -0.000008  -0.000101   0.000112  -0.002128  -0.005764
   14  C  1 XZ    0.000004  -0.000004  -0.000002  -0.000068   0.000714
   15  C  1 YZ   -0.000002  -0.000004   0.000030  -0.000127  -0.000663
   16  C  2  S   -0.000564   0.991382  -0.000985  -0.188667  -0.000847
   17  C  2  S   -0.005773   0.058943  -0.000375   0.246703  -0.007117
   18  C  2  X   -0.002150   0.005005  -0.000006   0.148563   0.332851
   19  C  2  Y   -0.003458   0.007503  -0.000034   0.256170  -0.066991
   20  C  2  Z   -0.000049   0.000177  -0.000037   0.004531   0.011285
   21  C  2  S   -0.009998   0.002399   0.003816   0.115156   0.039585
   22  C  2  X   -0.001586   0.001533  -0.002372   0.006637   0.028415
   23  C  2  Y   -0.004483   0.002530   0.000178  -0.027858   0.029706
   24  C  2  Z   -0.000015   0.000036   0.000013   0.000335   0.001084
   25  C  2 XX    0.000288  -0.011797  -0.000388  -0.004827   0.012610
   26  C  2 YY   -0.001138  -0.009170  -0.000113   0.025098  -0.010894
   27  C  2 ZZ    0.000988  -0.013220  -0.000146  -0.020544  -0.001085
   28  C  2 XY   -0.001446   0.002618   0.000055   0.031455   0.025739
   29  C  2 XZ   -0.000036   0.000063  -0.000015   0.000475   0.001401
   30  C  2 YZ   -0.000031   0.000090  -0.000023   0.001051   0.001315
   31  O  3  S    0.992225  -0.004915   0.000013  -0.218573  -0.026083
   32  O  3  S    0.028943  -0.000022   0.000053   0.394721   0.055808
   33  O  3  X   -0.002561  -0.001225  -0.000085  -0.140742   0.246987
   34  O  3  Y   -0.004299  -0.001979   0.000028  -0.199856  -0.247771
   35  O  3  Z   -0.000065  -0.000033  -0.000010  -0.005412   0.015551
   36  O  3  S    0.026067  -0.012101   0.000160   0.202503  -0.046514
   37  O  3  X   -0.002710   0.003637   0.000307  -0.008016   0.128263
   38  O  3  Y   -0.003402   0.005784  -0.000604   0.024352  -0.071550
   39  O  3  Z   -0.000146   0.000047   0.000120  -0.002778   0.008652
   40  O  3 XX   -0.009207  -0.000760  -0.000065  -0.001536  -0.023667
   41  O  3 YY   -0.007989   0.000067   0.000111   0.014642   0.021966
   42  O  3 ZZ   -0.010084  -0.000976   0.000013  -0.015692   0.002014
   43  O  3 XY    0.001516   0.000881  -0.000054   0.020229   0.002343
   44  O  3 XZ    0.000046   0.000014  -0.000038   0.001534  -0.002290
   45  O  3 YZ    0.000039   0.000042   0.000008  -0.000076   0.000842
   46  H  4  S   -0.000085  -0.000027  -0.000147   0.017887   0.038057
   47  H  4  S   -0.000417   0.000706  -0.000044  -0.034384   0.029156
   48  H  5  S   -0.000120   0.000527   0.000126   0.030518  -0.103560
   49  H  5  S   -0.000557  -0.001128   0.001315  -0.017013  -0.034328
   50  H  6  S    0.000024  -0.000052  -0.000187   0.003000  -0.071854
   51  H  6  S    0.000029   0.000127   0.002724  -0.002808  -0.017676
   52  H  7  S    0.000056  -0.000060  -0.000224   0.003514  -0.075215
   53  H  7  S    0.000319   0.000031   0.002740  -0.002425  -0.021000

                      6          7          8          9         10
                   -0.6356    -0.6096    -0.5561    -0.4931    -0.3730
                     A          A          A          A          A   
    1  C  1  S    0.099399   0.012596  -0.021431   0.091973   0.002691
    2  C  1  S   -0.186356  -0.024538   0.043436  -0.178059  -0.005915
    3  C  1  X    0.037315   0.009380  -0.058545   0.244509   0.021431
    4  C  1  Y    0.091959   0.013668   0.007744   0.021439   0.067468
    5  C  1  Z   -0.020355   0.069713   0.007557  -0.024311   0.428563
    6  C  1  S   -0.181256  -0.020104   0.048004  -0.199514  -0.003768
    7  C  1  X    0.008732   0.008362  -0.017532   0.087234   0.011533
    8  C  1  Y    0.028304   0.010151  -0.017971   0.010960   0.028074
    9  C  1  Z   -0.009018   0.037431   0.007744  -0.009243   0.187434
   10  C  1 XX    0.000372   0.000580  -0.009954   0.006265  -0.002629
   11  C  1 YY    0.003376  -0.001122   0.002189   0.008187  -0.005222
   12  C  1 ZZ   -0.004767   0.000285   0.003940  -0.013861   0.008039
   13  C  1 XY    0.003947   0.000224   0.003194  -0.013816  -0.003988
   14  C  1 XZ   -0.001103   0.005726   0.000136   0.001237  -0.018797
   15  C  1 YZ   -0.001064  -0.003618   0.000259  -0.002399  -0.019864
   16  C  2  S    0.112107   0.016773   0.081577  -0.081441  -0.002134
   17  C  2  S   -0.212724  -0.034662  -0.094114   0.180437   0.005125
   18  C  2  X   -0.043616  -0.019969  -0.027517  -0.184449   0.013039
   19  C  2  Y    0.239664   0.074475  -0.294424  -0.211605  -0.015387
   20  C  2  Z   -0.065858   0.389408   0.029936   0.013675  -0.039433
   21  C  2  S   -0.208519  -0.041747  -0.037735   0.178422   0.009856
   22  C  2  X    0.016139   0.000380   0.028811  -0.029116   0.012129
   23  C  2  Y    0.027376   0.005342  -0.014074  -0.102658   0.000420
   24  C  2  Z   -0.011931   0.080947   0.009640   0.004309   0.016669
   25  C  2 XX   -0.018562  -0.004076   0.006476  -0.022420  -0.001534
   26  C  2 YY    0.009240   0.001776  -0.013437   0.017522   0.001656
   27  C  2 ZZ    0.003196   0.002055   0.004968  -0.000682   0.000111
   28  C  2 XY    0.009839   0.002217  -0.012790  -0.028982  -0.002701
   29  C  2 XZ   -0.004237   0.023864   0.001535   0.001160  -0.019859
   30  C  2 YZ   -0.007339   0.039951   0.002639   0.001650  -0.006396
   31  O  3  S   -0.061618  -0.008167  -0.074885   0.030074   0.005174
   32  O  3  S    0.120397   0.013876   0.189849  -0.060019  -0.010117
   33  O  3  X   -0.128501  -0.062521   0.387186  -0.122932  -0.004272
   34  O  3  Y    0.219217   0.009945   0.407163   0.163983  -0.000772
   35  O  3  Z   -0.091237   0.510575   0.049294   0.025846  -0.141567
   36  O  3  S    0.222664   0.015053   0.423537   0.021632  -0.026905
   37  O  3  X   -0.068326  -0.024158   0.146080  -0.102930  -0.007274
   38  O  3  Y    0.119590   0.013707   0.154844   0.051860   0.002573
   39  O  3  Z   -0.042473   0.232266   0.021364   0.010513  -0.093042
   40  O  3 XX    0.010148   0.003554  -0.009832   0.007797   0.000752
   41  O  3 YY   -0.014736  -0.002809  -0.007171  -0.006939   0.001099
   42  O  3 ZZ   -0.005500  -0.003750   0.015416   0.003951   0.000482
   43  O  3 XY   -0.001853   0.003968  -0.037723  -0.008756  -0.001427
   44  O  3 XZ    0.005489  -0.022007  -0.001816   0.000103   0.000892
   45  O  3 YZ    0.002478  -0.025170  -0.005175  -0.002468   0.006775
   46  H  4  S   -0.168669  -0.044589   0.060983   0.180881   0.017291
   47  H  4  S   -0.092412  -0.028892   0.063960   0.110512   0.016674
   48  H  5  S    0.066869  -0.014467   0.071734   0.042285   0.004841
   49  H  5  S    0.032042  -0.013033   0.087859   0.025247   0.002799
   50  H  6  S   -0.091128  -0.034937   0.027828  -0.146404  -0.240304
   51  H  6  S   -0.033878  -0.008134   0.017472  -0.085131  -0.215146
   52  H  7  S   -0.095382   0.012568   0.032432  -0.155861   0.239947
   53  H  7  S   -0.033713   0.003495   0.018259  -0.091253   0.217904

                     11         12         13         14         15
                   -0.2692    -0.1928     0.0514     0.1006     0.1477
                     A          A          A          A          A   
    1  C  1  S   -0.029527  -0.079029   0.067658  -0.044534  -0.057189
    2  C  1  S    0.046676   0.133002  -0.118097   0.070072   0.056904
    3  C  1  X   -0.071570   0.374022   0.034210  -0.028898   0.210289
    4  C  1  Y    0.371476   0.102625  -0.308068   0.094593  -0.130659
    5  C  1  Z   -0.057370  -0.025999   0.028659  -0.020373   0.043351
    6  C  1  S    0.145302   0.455747  -0.564887   0.534094   0.728870
    7  C  1  X   -0.013038   0.283159   0.053633  -0.110932   0.484783
    8  C  1  Y    0.263593   0.083296  -0.490408   0.082574  -0.451679
    9  C  1  Z   -0.043564  -0.040560  -0.015468  -0.124866   0.138124
   10  C  1 XX   -0.000800   0.000358  -0.005127   0.003296  -0.006676
   11  C  1 YY    0.000404  -0.000406   0.024588  -0.007946  -0.001816
   12  C  1 ZZ   -0.001077  -0.009276   0.000649  -0.005332  -0.000952
   13  C  1 XY    0.018275  -0.014508   0.010108  -0.001420   0.011978
   14  C  1 XZ   -0.001872  -0.000899   0.005676   0.023199   0.000524
   15  C  1 YZ   -0.000165  -0.002004  -0.008922  -0.006613  -0.000289
   16  C  2  S    0.010610  -0.003049  -0.012470   0.007242   0.117560
   17  C  2  S   -0.051429   0.023495   0.006670  -0.008966  -0.185808
   18  C  2  X    0.253252  -0.119716   0.115550  -0.047346   0.052870
   19  C  2  Y   -0.064717   0.002519  -0.032706   0.013348   0.290206
   20  C  2  Z    0.026931  -0.000311   0.179270   0.395999  -0.016355
   21  C  2  S   -0.151416   0.114202  -0.060793  -0.128401  -1.759611
   22  C  2  X    0.140892  -0.010545   0.055909  -0.009293   0.242639
   23  C  2  Y   -0.042881   0.045668  -0.252213   0.088486   0.838936
   24  C  2  Z    0.009418  -0.000620   0.325194   0.930196  -0.065129
   25  C  2 XX   -0.004956   0.043409   0.009820   0.001313   0.024222
   26  C  2 YY    0.015410  -0.048774  -0.015520   0.007882   0.004412
   27  C  2 ZZ   -0.001199   0.001733   0.000441  -0.002223  -0.009360
   28  C  2 XY   -0.011001   0.002418   0.013411  -0.003849  -0.000130
   29  C  2 XZ    0.004884   0.002340  -0.001235  -0.008519  -0.001217
   30  C  2 YZ    0.001077  -0.000541  -0.008779  -0.025552   0.002572
   31  O  3  S    0.041324   0.029544   0.031927  -0.012937   0.003686
   32  O  3  S   -0.092721  -0.050154  -0.073240   0.022319   0.005285
   33  O  3  X   -0.094270   0.400536   0.013713   0.004362   0.045529
   34  O  3  Y   -0.105738  -0.201290  -0.158791   0.053210  -0.080713
   35  O  3  Z    0.034464   0.012800  -0.118720  -0.390240   0.017586
   36  O  3  S   -0.226739  -0.194203  -0.179048   0.125630  -0.251917
   37  O  3  X   -0.109111   0.329689   0.018051  -0.016476   0.147363
   38  O  3  Y   -0.065912  -0.182926  -0.153506   0.041053  -0.109564
   39  O  3  Z    0.024345   0.009814  -0.211656  -0.670205   0.037081
   40  O  3 XX    0.004277   0.004419  -0.011974   0.005092   0.018898
   41  O  3 YY    0.020839   0.004629   0.026019  -0.008655   0.012281
   42  O  3 ZZ   -0.006545   0.007121  -0.001039  -0.003520  -0.010614
   43  O  3 XY   -0.006533  -0.007050  -0.007800   0.003720  -0.000606
   44  O  3 XZ    0.001026  -0.000636   0.003498   0.004208  -0.000926
   45  O  3 YZ   -0.003714   0.000904  -0.008252  -0.002336   0.001065
   46  H  4  S    0.113930  -0.181231  -0.068546   0.029793   0.055738
   47  H  4  S    0.143103  -0.331390  -0.366552   0.203804   1.801940
   48  H  5  S    0.242020   0.039456   0.248969  -0.065643   0.043977
   49  H  5  S    0.333470   0.037805   1.086475  -0.388929  -0.008876
   50  H  6  S   -0.013467  -0.103539   0.047340   0.045626   0.020198
   51  H  6  S    0.006064  -0.185692   0.163310  -0.174335   0.001436
   52  H  7  S   -0.024415  -0.081412   0.010527  -0.092149   0.012070
   53  H  7  S   -0.006206  -0.138501   0.186363  -0.392703  -0.242585

                     16         17         18         19         20
                    0.1612     0.1896     0.2606     0.3050     0.4765
                     A          A          A          A          A   
    1  C  1  S   -0.102100   0.012620   0.034884   0.050519   0.002024
    2  C  1  S    0.113309  -0.016518  -0.002769  -0.025352   0.015951
    3  C  1  X   -0.229126   0.055525  -0.007008  -0.185206   0.052501
    4  C  1  Y   -0.187404   0.073930   0.088534  -0.029381   0.050147
    5  C  1  Z    0.081306   0.385577  -0.000949   0.068887   0.139719
    6  C  1  S    2.052984  -0.182025  -1.049270  -1.702471   0.076997
    7  C  1  X   -0.566856   0.208875  -0.595738  -1.741919   0.022810
    8  C  1  Y   -0.643078   0.301035   0.387668   0.077279  -0.077504
    9  C  1  Z    0.299500   1.413398   0.023221   0.127868  -0.185903
   10  C  1 XX   -0.000180   0.000520  -0.002477   0.008939   0.008436
   11  C  1 YY   -0.002087   0.001409   0.021842  -0.003496  -0.007100
   12  C  1 ZZ   -0.014561   0.001547  -0.010323  -0.006901   0.008164
   13  C  1 XY    0.007846   0.000170  -0.015541  -0.027591  -0.002950
   14  C  1 XZ   -0.005109   0.014713  -0.004263   0.001650  -0.003955
   15  C  1 YZ   -0.001405   0.001818  -0.004436  -0.003397  -0.026298
   16  C  2  S   -0.011257  -0.008211  -0.027599  -0.017921  -0.005523
   17  C  2  S    0.054777   0.017569  -0.064199   0.094250  -0.028663
   18  C  2  X    0.047806   0.018503  -0.158994  -0.360436  -0.050679
   19  C  2  Y   -0.066154  -0.039273   0.100703   0.256154  -0.037272
   20  C  2  Z   -0.048264  -0.010533   0.013925   0.026870   0.933351
   21  C  2  S   -0.665523   0.027652  -1.907502   3.432316  -0.228354
   22  C  2  X    0.224458  -0.010745  -2.116199  -0.795509   0.149426
   23  C  2  Y   -0.512739  -0.244843  -0.699630   2.637438  -0.058968
   24  C  2  Z   -0.221777  -0.321160  -0.041975  -0.021103  -0.888227
   25  C  2 XX    0.021211  -0.000002  -0.001693  -0.034555   0.008817
   26  C  2 YY    0.012198  -0.001652   0.025972  -0.015852   0.008835
   27  C  2 ZZ   -0.003057  -0.001187  -0.006640   0.009458   0.002691
   28  C  2 XY    0.007022  -0.002158   0.027318   0.007851  -0.006187
   29  C  2 XZ   -0.001758  -0.026251   0.001791  -0.003673  -0.006456
   30  C  2 YZ    0.004588   0.004361  -0.000604   0.001678   0.004965
   31  O  3  S   -0.015828   0.000498  -0.089148   0.083593  -0.005635
   32  O  3  S   -0.019575  -0.016804   0.009600   0.060754   0.007594
   33  O  3  X   -0.044205   0.013512   0.163323  -0.002169   0.006339
   34  O  3  Y   -0.009079  -0.005995  -0.127005  -0.089696   0.038953
   35  O  3  Z    0.066652  -0.050010   0.009180   0.008654   0.059390
   36  O  3  S    0.567968   0.146371   2.431999  -3.089976   0.188737
   37  O  3  X   -0.208699  -0.010047   0.248362   0.825529  -0.105202
   38  O  3  Y   -0.056779  -0.007037  -0.711372   0.138556  -0.074739
   39  O  3  Z    0.121318   0.069565   0.012939   0.027544  -0.245801
   40  O  3 XX   -0.012131  -0.004313  -0.076216   0.051089   0.012629
   41  O  3 YY   -0.001018  -0.002502  -0.027508   0.035037   0.005561
   42  O  3 ZZ   -0.026033  -0.005497  -0.076870   0.110560  -0.007634
   43  O  3 XY    0.006678  -0.004494   0.026698   0.002631   0.007151
   44  O  3 XZ   -0.001576  -0.021261  -0.001377  -0.005607  -0.043889
   45  O  3 YZ   -0.001788   0.004000  -0.000891  -0.001534  -0.088232
   46  H  4  S    0.042837  -0.006489   0.006575  -0.166679   0.017376
   47  H  4  S   -0.343386  -0.269555   0.841424   1.358670  -0.049241
   48  H  5  S    0.066041  -0.002705  -0.020266  -0.137180   0.035505
   49  H  5  S    0.384733  -0.006549   0.551384   0.614276  -0.131851
   50  H  6  S   -0.038243   0.079820  -0.086813  -0.078944  -0.104272
   51  H  6  S   -1.271598   1.732068   0.056316  -0.200323  -0.057528
   52  H  7  S   -0.029558  -0.074304  -0.050112  -0.060446   0.130916
   53  H  7  S   -1.534129  -1.375401   0.051820  -0.452509   0.136855

                     21         22         23         24         25
                    0.5333     0.6055     0.6277     0.6429     0.6798
                     A          A          A          A          A   
    1  C  1  S   -0.028897  -0.007552   0.003814   0.001506  -0.044339
    2  C  1  S   -0.101520   0.031565   0.150400   0.016477   0.393767
    3  C  1  X   -0.683994  -0.033818   0.080398  -0.160835   0.532195
    4  C  1  Y    0.335329  -0.127700  -0.389424  -0.805338   0.298548
    5  C  1  Z    0.044357  -0.725948   0.087904   0.184862   0.035991
    6  C  1  S   -0.171477  -0.178390  -2.143116  -0.291572  -0.946164
    7  C  1  X    0.938474   0.045715  -1.450555   0.929289  -1.160235
    8  C  1  Y   -0.047524   0.309318   0.638911   1.294875  -0.492056
    9  C  1  Z   -0.112355   1.688011  -0.155051  -0.364612  -0.157694
   10  C  1 XX   -0.081413  -0.011253  -0.069259  -0.061767  -0.040093
   11  C  1 YY   -0.005907   0.018385  -0.001177  -0.039639   0.007405
   12  C  1 ZZ    0.041778  -0.013858   0.045726   0.070234   0.045731
   13  C  1 XY    0.006125   0.004090   0.048281  -0.056759   0.001553
   14  C  1 XZ   -0.000988   0.088241   0.000761   0.011090  -0.003568
   15  C  1 YZ    0.000503   0.069896  -0.004198   0.010646  -0.011853
   16  C  2  S    0.011562   0.015113  -0.022844   0.040525   0.066801
   17  C  2  S   -0.141873   0.059738  -0.200746   0.072128   0.070740
   18  C  2  X    0.316050   0.094967   0.606702   0.025533   0.566511
   19  C  2  Y    0.115161   0.035243  -0.443647   0.185517   0.141885
   20  C  2  Z    0.063488   0.256617   0.017966   0.048854   0.014071
   21  C  2  S    1.394182   0.407369   2.039265   0.293153   2.146970
   22  C  2  X   -0.575960  -0.194529  -2.149617  -0.078349  -0.573797
   23  C  2  Y    0.411922   0.046839   3.152312  -0.624645   0.633551
   24  C  2  Z   -0.009635  -0.843356   0.037318   0.049704   0.066943
   25  C  2 XX   -0.190195  -0.006591   0.013052  -0.028448  -0.015244
   26  C  2 YY   -0.051502  -0.010764  -0.023866   0.037366   0.038606
   27  C  2 ZZ    0.015848  -0.010471   0.023415  -0.022626  -0.060736
   28  C  2 XY    0.048195   0.001339  -0.013584  -0.026980  -0.079234
   29  C  2 XZ   -0.000644  -0.064516  -0.002575  -0.007893   0.002037
   30  C  2 YZ   -0.001889  -0.006951   0.000405  -0.008455  -0.002847
   31  O  3  S    0.026357   0.006237   0.023449   0.000939   0.014663
   32  O  3  S    0.063571  -0.015749   0.028364   0.195826   0.002325
   33  O  3  X   -0.100156  -0.021968   0.175768  -0.152182  -0.224515
   34  O  3  Y   -0.061618  -0.050670  -0.018770   0.063375  -0.047165
   35  O  3  Z   -0.012120  -0.124242  -0.000918  -0.057689  -0.008324
   36  O  3  S   -1.164321  -0.255875  -1.402816  -0.454876  -1.295152
   37  O  3  X    0.602268   0.169011   0.091949   0.521233   0.476833
   38  O  3  Y    0.404007   0.185916  -0.071179   0.142914   0.722664
   39  O  3  Z   -0.021696   0.204526  -0.027919   0.031320   0.013712
   40  O  3 XX   -0.073162  -0.022604  -0.077002  -0.004606  -0.084986
   41  O  3 YY    0.012741  -0.012192   0.090908   0.036952  -0.013819
   42  O  3 ZZ    0.094632   0.004142   0.055864   0.079103   0.008332
   43  O  3 XY   -0.048964  -0.003290  -0.040567   0.031404   0.026109
   44  O  3 XZ   -0.004502  -0.095782   0.005713  -0.014225  -0.011402
   45  O  3 YZ   -0.005957  -0.008923  -0.006347   0.001192   0.010016
   46  H  4  S   -0.252189   0.023433   0.008543   0.265989   0.283655
   47  H  4  S    0.185221  -0.029081   1.966915  -0.587360  -0.315802
   48  H  5  S   -0.051219  -0.125014   0.208445  -0.406882  -0.581377
   49  H  5  S   -0.313534   0.078751  -0.782028   0.047141   0.763767
   50  H  6  S    0.036137   0.360979   0.020649   0.102116  -0.182278
   51  H  6  S    0.021522   0.280308  -0.168428   0.369477  -0.302598
   52  H  7  S    0.112695  -0.392042   0.026091   0.196990  -0.048970
   53  H  7  S   -0.022790  -0.271838  -0.105813   0.391389  -0.175244

                     26         27         28         29         30
                    0.7373     0.8206     0.8994     0.9532     0.9597
                     A          A          A          A          A   
    1  C  1  S   -0.040837   0.032996   0.001975  -0.029592   0.023243
    2  C  1  S   -0.332321   0.013545   0.068161   0.532965  -0.846896
    3  C  1  X    0.266236   0.000669  -0.024253  -0.320212   0.474944
    4  C  1  Y   -0.333465  -0.061107   0.106160  -0.076588   0.178099
    5  C  1  Z    0.025132  -0.016958   0.795611   0.253716   0.197079
    6  C  1  S    1.372333  -0.366297  -0.257110  -0.683846   1.925730
    7  C  1  X   -0.269007  -0.084565  -0.056251   0.639935  -0.539957
    8  C  1  Y    0.472125   0.558933  -0.113655  -0.097427  -0.290051
    9  C  1  Z    0.006995  -0.043478  -1.162862  -0.585299  -0.419896
   10  C  1 XX   -0.054990   0.076645   0.026397   0.075554  -0.085668
   11  C  1 YY    0.062103  -0.004085   0.022636   0.081559  -0.070837
   12  C  1 ZZ   -0.097251  -0.001367  -0.037178  -0.081645   0.043131
   13  C  1 XY    0.009665   0.042246   0.038919  -0.036286   0.025823
   14  C  1 XZ   -0.008205  -0.026309   0.174381   0.030627   0.052308
   15  C  1 YZ   -0.023332  -0.003449   0.077038  -0.017064   0.046802
   16  C  2  S    0.028609   0.075453   0.005045   0.010731  -0.010455
   17  C  2  S   -0.711617   0.606178  -0.167577   0.353177   0.183575
   18  C  2  X    0.245396  -0.044453  -0.020041  -0.039921   0.057399
   19  C  2  Y    0.362907   0.362512   0.102472  -0.102857  -0.080170
   20  C  2  Z    0.020045   0.015801  -0.049610   0.148967   0.107194
   21  C  2  S    1.882323   1.781437   0.410647  -1.020459  -0.370537
   22  C  2  X    0.591784  -0.154436  -0.033694   0.422684  -0.018086
   23  C  2  Y   -1.831782   0.020196  -0.095161  -0.037280  -0.219290
   24  C  2  Z   -0.066466   0.010270   0.166969  -0.687224  -0.528666
   25  C  2 XX   -0.024905  -0.026640  -0.021401   0.089187  -0.038039
   26  C  2 YY   -0.156081   0.015648  -0.001540   0.002599  -0.000043
   27  C  2 ZZ   -0.065358  -0.108434  -0.014761  -0.018786   0.026269
   28  C  2 XY    0.020538   0.014452  -0.007465   0.018147   0.014528
   29  C  2 XZ   -0.004808   0.018855  -0.068582  -0.104681  -0.081858
   30  C  2 YZ   -0.002959  -0.001321   0.093855  -0.152769  -0.113412
   31  O  3  S   -0.000394   0.010951  -0.001840  -0.003971  -0.000927
   32  O  3  S    0.023076  -0.309136   0.014967  -0.072173  -0.076671
   33  O  3  X   -0.097510  -0.014568   0.075194   0.000756  -0.131883
   34  O  3  Y    0.064046  -0.486619  -0.033340  -0.056834   0.021776
   35  O  3  Z   -0.002855   0.006543   0.201701  -0.615847  -0.456637
   36  O  3  S    0.268165  -0.484122  -0.034519   0.242084   0.342664
   37  O  3  X   -0.282833   0.651786  -0.054580  -0.137832   0.139583
   38  O  3  Y    0.496919   1.382690   0.020509   0.158284   0.079684
   39  O  3  Z    0.003819  -0.037403  -0.238309   1.173019   0.888227
   40  O  3 XX    0.016579  -0.010321   0.026542   0.003159  -0.040773
   41  O  3 YY   -0.046684  -0.139074  -0.032891   0.010366   0.011432
   42  O  3 ZZ   -0.007315  -0.152616   0.010689  -0.061281  -0.043619
   43  O  3 XY   -0.085559  -0.055226   0.003950   0.011548  -0.021652
   44  O  3 XZ    0.005024   0.029044  -0.007043  -0.032228  -0.025996
   45  O  3 YZ   -0.009065  -0.021556   0.025912  -0.073719  -0.051987
   46  H  4  S   -0.372207   0.434499   0.180027  -0.020613  -0.368365
   47  H  4  S   -1.405896  -0.632047  -0.288432   0.159319   0.243482
   48  H  5  S    0.313570   0.658554   0.012363   0.033737   0.011137
   49  H  5  S   -0.709597  -1.303599  -0.023237  -0.058793  -0.012297
   50  H  6  S   -0.357244   0.098034   0.653859  -0.430356   0.622029
   51  H  6  S   -0.116961   0.121794  -1.227103   0.322374  -1.477751
   52  H  7  S   -0.334124   0.190856  -0.718626  -0.508893   0.383605
   53  H  7  S   -0.142897  -0.013770   1.379100   1.235072  -0.518868

                     31         32         33         34         35
                    0.9841     1.0826     1.2617     1.3745     1.4544
                     A          A          A          A          A   
    1  C  1  S    0.029396  -0.071988  -0.063822  -0.026560   0.009045
    2  C  1  S   -0.044423  -1.211191  -1.294036  -0.356647   0.628744
    3  C  1  X   -0.054157  -0.117010  -0.079898  -0.003151   0.242921
    4  C  1  Y    0.151439   0.051099   0.019789   0.001516   0.018101
    5  C  1  Z   -0.091024  -0.030235   0.020119   0.071352  -0.004832
    6  C  1  S   -0.629444   2.414384   4.312336   1.175666  -1.461735
    7  C  1  X   -0.707441   0.058881   1.025005   0.276338  -0.513586
    8  C  1  Y   -0.253093  -0.628819  -0.758859  -0.175508   0.074225
    9  C  1  Z    0.145082   0.136831  -0.233791   0.406508  -0.065304
   10  C  1 XX    0.022419  -0.116054  -0.146065  -0.077714  -0.178770
   11  C  1 YY   -0.064486   0.034143   0.027541   0.109922   0.163255
   12  C  1 ZZ    0.039688  -0.138216  -0.062215  -0.084588   0.070804
   13  C  1 XY    0.078841   0.066211  -0.118802  -0.029623  -0.092995
   14  C  1 XZ   -0.018177   0.000828   0.062622  -0.284479   0.039309
   15  C  1 YZ   -0.006713  -0.055537  -0.091368   0.322887  -0.004995
   16  C  2  S   -0.007780   0.021604   0.034143   0.015831   0.073217
   17  C  2  S   -1.076627  -0.031836   0.634747   0.164360  -0.204842
   18  C  2  X   -0.143644  -0.002236  -0.043629  -0.012926  -0.324595
   19  C  2  Y    0.374691  -0.299657  -0.026382  -0.057387  -0.423795
   20  C  2  Z    0.054893  -0.003192   0.003863   0.052872  -0.018860
   21  C  2  S    2.238369  -1.956166  -0.873963  -0.125393   1.673097
   22  C  2  X   -0.142258  -0.831757   2.563577   0.670863   0.189744
   23  C  2  Y    0.092253   1.714647  -0.367626   0.155042   0.906362
   24  C  2  Z   -0.325465  -0.036263   0.154942  -0.103153   0.026015
   25  C  2 XX   -0.077397  -0.186496   0.165647   0.026329  -0.047747
   26  C  2 YY   -0.028944   0.253046  -0.103717   0.006508   0.204169
   27  C  2 ZZ   -0.026967  -0.093137   0.024885  -0.015614  -0.371627
   28  C  2 XY   -0.011122  -0.033039   0.202361   0.095217   0.502311
   29  C  2 XZ   -0.027231  -0.026882  -0.099495   0.502644  -0.046173
   30  C  2 YZ   -0.079467   0.010059   0.073271  -0.265735   0.048412
   31  O  3  S    0.005127  -0.023985   0.018371   0.001385  -0.064548
   32  O  3  S    0.243034  -0.207725   0.396320   0.179202   0.473251
   33  O  3  X    0.460733  -0.331972   0.402612   0.061351  -0.222297
   34  O  3  Y   -0.017995   0.111779  -0.297917  -0.065773  -0.237665
   35  O  3  Z   -0.276341  -0.006686   0.079940   0.006680  -0.015064
   36  O  3  S   -0.794089   0.574489  -1.805073  -0.801913  -1.589182
   37  O  3  X   -0.549367   0.938863  -0.952315  -0.162755   0.003446
   38  O  3  Y   -0.398502  -1.122094   1.454496   0.348239   0.118120
   39  O  3  Z    0.535069   0.017781  -0.196056  -0.069043   0.029330
   40  O  3 XX    0.112790  -0.055619   0.040412  -0.013329  -0.015375
   41  O  3 YY   -0.075252  -0.079764   0.150752   0.046861  -0.073999
   42  O  3 ZZ    0.168758  -0.026579   0.128139   0.097548   0.349752
   43  O  3 XY    0.013113  -0.089412   0.165763   0.054916  -0.210901
   44  O  3 XZ   -0.005418  -0.008344  -0.114855   0.312422  -0.032779
   45  O  3 YZ   -0.036875   0.006863   0.093234  -0.230094   0.007098
   46  H  4  S    0.730973   0.534292   0.094552   0.052275  -0.041490
   47  H  4  S   -1.036073   1.047527  -0.472241  -0.022603   0.146072
   48  H  5  S   -0.025607   0.111147  -0.372065  -0.158961   0.076237
   49  H  5  S    0.442371  -0.172255  -0.520024  -0.114653   0.076899
   50  H  6  S    0.058073  -0.313728  -0.287034   0.115400   0.074931
   51  H  6  S   -0.242376  -0.459775  -0.496686  -0.044605   0.141288
   52  H  7  S    0.216355  -0.292738  -0.130206  -0.291736   0.107402
   53  H  7  S   -0.405551  -0.557297  -0.374857  -0.197642   0.181114

                     36         37         38         39         40
                    1.6211     1.6342     1.7317     1.7867     1.8630
                     A          A          A          A          A   
    1  C  1  S    0.008788  -0.008710   0.008387   0.002925  -0.010476
    2  C  1  S   -0.273714   0.146372  -0.135263  -0.077439  -0.115405
    3  C  1  X   -0.175048   0.134434  -0.120775  -0.052314  -0.002634
    4  C  1  Y   -0.105025  -0.114542   0.190541  -0.008480  -0.053067
    5  C  1  Z    0.074467   0.027772  -0.005888  -0.079497  -0.065807
    6  C  1  S    1.122509   1.137120  -0.082456   0.241897   0.650661
    7  C  1  X    0.704952   0.783992  -0.184721   0.221333   0.254044
    8  C  1  Y    0.162094   0.099544  -0.259208   0.103683  -0.002129
    9  C  1  Z   -0.333626  -0.142404  -0.007499   0.472920   0.156314
   10  C  1 XX    0.254717  -0.215500  -0.167821   0.025268   0.055563
   11  C  1 YY   -0.182748   0.253788  -0.099336  -0.105929  -0.147262
   12  C  1 ZZ   -0.089732  -0.055004   0.206029   0.067784   0.089543
   13  C  1 XY    0.085948   0.013874  -0.675730  -0.090581   0.077444
   14  C  1 XZ   -0.075770  -0.008711   0.076740   0.261423   0.348840
   15  C  1 YZ    0.139875  -0.041138   0.161895  -0.479220  -0.295494
   16  C  2  S    0.018092  -0.014324   0.004556   0.007196   0.004522
   17  C  2  S   -0.430267  -0.129954  -0.249456  -0.089420  -0.000528
   18  C  2  X   -0.089019  -0.265184  -0.070967  -0.037714  -0.026975
   19  C  2  Y   -0.259629  -0.014979   0.195238  -0.030247  -0.077529
   20  C  2  Z    0.018561   0.006278  -0.056924   0.189606  -0.297688
   21  C  2  S   -2.560495  -4.195879  -0.660707  -0.508725  -0.641337
   22  C  2  X    0.332688   0.446988  -0.586052   0.073927   0.349994
   23  C  2  Y   -2.296785  -2.618543   0.295598  -0.480819  -0.629359
   24  C  2  Z    0.138780  -0.013952   0.022036  -0.343173  -0.003406
   25  C  2 XX    0.135685  -0.136950   0.354915   0.085064  -0.051947
   26  C  2 YY   -0.064213  -0.268861  -0.279117  -0.029668   0.032240
   27  C  2 ZZ   -0.322099   0.412231  -0.086472  -0.102325  -0.011830
   28  C  2 XY   -0.069558  -0.000570  -0.098296  -0.020606  -0.015561
   29  C  2 XZ    0.096952  -0.025637   0.013224  -0.189082   0.171895
   30  C  2 YZ   -0.025670  -0.010153   0.104234  -0.408666   0.475147
   31  O  3  S   -0.066242  -0.057108  -0.000576  -0.009812  -0.008769
   32  O  3  S   -1.045192  -1.104496  -0.286678  -0.197549  -0.126835
   33  O  3  X    0.057417  -0.046832  -0.157733  -0.004234   0.049768
   34  O  3  Y   -0.391887  -0.167583   0.153452  -0.077335  -0.109928
   35  O  3  Z    0.026109   0.002343  -0.061793   0.278977  -0.256589
   36  O  3  S    4.632538   5.546842   1.073785   0.889825   0.723091
   37  O  3  X   -1.130695  -0.870413   0.082529  -0.212756  -0.266714
   38  O  3  Y   -0.032831  -0.500188  -0.552228   0.014174   0.119801
   39  O  3  Z   -0.170575  -0.021460   0.029996  -0.008029   0.067170
   40  O  3 XX   -0.080742  -0.609556  -0.339681  -0.076367   0.000378
   41  O  3 YY   -0.401782  -0.499199   0.126087  -0.039784  -0.059909
   42  O  3 ZZ   -0.218942   0.287510  -0.014689  -0.001641   0.005100
   43  O  3 XY   -0.361082   0.200496  -0.183852  -0.100604  -0.008805
   44  O  3 XZ   -0.164446  -0.016743  -0.020758   0.606121   0.182700
   45  O  3 YZ    0.087368   0.005845  -0.086327   0.036867  -0.649069
   46  H  4  S   -0.268019   0.112350   0.415959  -0.028701  -0.125032
   47  H  4  S   -0.687076  -0.671948   0.185392  -0.161564  -0.220758
   48  H  5  S   -0.710141  -0.036793   0.180719  -0.179188  -0.184237
   49  H  5  S    0.042658  -0.119406   0.070310  -0.001721   0.006232
   50  H  6  S   -0.047880  -0.017793   0.046190   0.138255  -0.106824
   51  H  6  S   -0.083650   0.125882  -0.153709   0.194918   0.079913
   52  H  7  S    0.055930   0.000605   0.044912  -0.062549  -0.012728
   53  H  7  S    0.191961   0.274958  -0.096232  -0.163882  -0.110335

                     41         42         43         44         45
                    2.0398     2.2297     2.2509     2.3451     2.3954
                     A          A          A          A          A   
    1  C  1  S   -0.063478  -0.019777  -0.022600   0.008526  -0.028321
    2  C  1  S   -0.166029  -0.252254  -0.168618   0.067961  -0.120458
    3  C  1  X    0.113178  -0.009058   0.024757   0.030816  -0.018427
    4  C  1  Y   -0.081350  -0.018884   0.024813  -0.008164   0.031335
    5  C  1  Z    0.007079  -0.086893   0.104845  -0.031746  -0.047813
    6  C  1  S    1.935494   0.863347   0.678336  -0.190237   0.269539
    7  C  1  X    0.271616   0.505061   0.474671  -0.105820   0.207108
    8  C  1  Y   -0.484711  -0.121427   0.021346  -0.115728   0.102422
    9  C  1  Z    0.057350  -0.278322   0.428929  -0.096786  -0.089004
   10  C  1 XX   -0.020204   0.462843   0.438225  -0.017834   0.443930
   11  C  1 YY   -0.811983  -0.097989  -0.415026   0.187632  -0.335257
   12  C  1 ZZ    0.773572  -0.401804  -0.089401  -0.149970  -0.203115
   13  C  1 XY   -0.044160  -0.185663  -0.197836  -0.219237   0.523306
   14  C  1 XZ    0.072711   0.129823  -0.401757   0.780798   0.362598
   15  C  1 YZ    0.265360   0.454162  -0.579908   0.054302   0.176044
   16  C  2  S    0.010681   0.017412   0.021134   0.011066  -0.022237
   17  C  2  S    0.124640   0.083666   0.050838   0.056848  -0.101392
   18  C  2  X   -0.133500   0.415475   0.212623   0.251490  -0.315111
   19  C  2  Y   -0.153314  -0.195460  -0.080852  -0.109207   0.255000
   20  C  2  Z    0.038563   0.049790  -0.041743  -0.039769  -0.004533
   21  C  2  S   -1.824109  -0.043207  -0.144716   0.296656  -0.123594
   22  C  2  X    0.888312   0.444647   0.192897   0.064630  -0.312055
   23  C  2  Y   -1.111569  -0.192747  -0.194206   0.153316   0.303925
   24  C  2  Z   -0.037740   0.168205  -0.213261  -0.081156   0.025007
   25  C  2 XX   -0.345027   0.100709   0.100599  -0.063722   0.196808
   26  C  2 YY    0.127017   0.181023   0.088796   0.068730  -0.124676
   27  C  2 ZZ    0.198903  -0.362585  -0.244492  -0.040157   0.024962
   28  C  2 XY    0.022051  -0.103810  -0.017755  -0.083619   0.308873
   29  C  2 XZ    0.001236  -0.402790   0.328115   0.620021   0.135807
   30  C  2 YZ   -0.091731   0.192128  -0.116711  -0.372981  -0.102940
   31  O  3  S   -0.020028   0.004416  -0.003382   0.003912  -0.012833
   32  O  3  S   -0.046728   0.170984   0.199849   0.080277   0.032666
   33  O  3  X    0.052309   0.005836  -0.098835   0.054078  -0.235468
   34  O  3  Y   -0.168675   0.019286   0.071237  -0.003009   0.211739
   35  O  3  Z    0.042335   0.042817  -0.070463   0.018276   0.027902
   36  O  3  S    1.232246  -0.658728  -0.482700  -0.356804  -0.310788
   37  O  3  X   -0.328243  -0.000044   0.259148  -0.107482   0.656851
   38  O  3  Y    0.000558   0.259472   0.042882   0.121667  -0.401476
   39  O  3  Z   -0.013033  -0.088720   0.139639   0.030222  -0.027322
   40  O  3 XX   -0.013556  -0.039861  -0.226697   0.238511  -0.618360
   41  O  3 YY   -0.113844  -0.342202  -0.142832  -0.284237   0.554610
   42  O  3 ZZ    0.042279   0.503079   0.434444   0.047880   0.116204
   43  O  3 XY    0.057831   0.406702   0.274522   0.139921  -0.041332
   44  O  3 XZ    0.000633   0.338532  -0.338700  -0.400640  -0.073593
   45  O  3 YZ    0.083037  -0.107191   0.084112   0.244010   0.073272
   46  H  4  S   -0.140793  -0.315168  -0.141478  -0.136373   0.377549
   47  H  4  S   -0.365546  -0.061886  -0.075091   0.072133   0.050583
   48  H  5  S    0.144826   0.134914   0.237579   0.139532   0.093643
   49  H  5  S    0.046723  -0.150214  -0.120400  -0.005723  -0.061545
   50  H  6  S   -0.511807  -0.218482   0.516820  -0.248744  -0.317172
   51  H  6  S   -0.119134  -0.020665  -0.050799   0.034446   0.090715
   52  H  7  S   -0.511212   0.358130  -0.400644   0.407129   0.180908
   53  H  7  S   -0.088532  -0.080564  -0.020268  -0.085591  -0.069977

                     46         47         48         49         50
                    2.5836     2.9446     3.0773     3.2354     4.0596
                     A          A          A          A          A   
    1  C  1  S    0.059047  -0.000744   0.049227  -0.011483  -0.214170
    2  C  1  S    0.091327  -0.027146  -0.081618   0.247146   1.374231
    3  C  1  X   -0.316323  -0.002052  -0.017391   0.071536   0.008159
    4  C  1  Y    0.102321  -0.012125   0.031104  -0.075512  -0.033639
    5  C  1  Z   -0.001945  -0.025056   0.011215  -0.003106   0.002685
    6  C  1  S   -1.545378   0.071512  -0.043487  -0.281926   0.898537
    7  C  1  X   -0.916285   0.057144  -0.015239  -0.087707   0.070953
    8  C  1  Y    0.272498   0.034838  -0.015700  -0.126215   0.002237
    9  C  1  Z    0.050816   0.078108  -0.044359   0.029245  -0.042391
   10  C  1 XX   -0.691434   0.013026   0.060051  -0.009429  -0.761122
   11  C  1 YY    0.200919  -0.000079  -0.021343  -0.035391  -0.825459
   12  C  1 ZZ    0.539027   0.000833   0.286368  -0.086677  -0.879564
   13  C  1 XY    0.480533  -0.007605   0.166630  -0.274740  -0.117322
   14  C  1 XZ    0.027704  -0.007095  -0.011786  -0.013040  -0.005325
   15  C  1 YZ    0.012763  -0.023963  -0.001504  -0.015118  -0.009237
   16  C  2  S   -0.145881  -0.004557  -0.011084  -0.382361  -0.511966
   17  C  2  S    0.008983  -0.045291  -0.378510  -2.142617   0.707685
   18  C  2  X   -0.248892  -0.013370   0.829028   0.000958  -0.400982
   19  C  2  Y    0.228734  -0.028939  -0.562606  -0.032375  -0.787663
   20  C  2  Z    0.009156   1.173573   0.006365  -0.027982  -0.008143
   21  C  2  S    1.565837  -0.065008  -0.022028  -1.378522  -2.067414
   22  C  2  X   -0.856776   0.031989   0.594457  -0.200131  -0.387099
   23  C  2  Y    0.418660  -0.045965  -0.623153  -0.094668  -1.454386
   24  C  2  Z   -0.027322   0.411972   0.012494  -0.022551  -0.005550
   25  C  2 XX    0.573698  -0.015218   1.263540  -0.058784  -1.209766
   26  C  2 YY    0.138688  -0.017774  -1.133770   1.001754  -1.757010
   27  C  2 ZZ   -0.971323   0.051688   0.163330  -0.182650  -1.132151
   28  C  2 XY   -0.439694  -0.003647   0.797513   0.834722  -0.223361
   29  C  2 XZ    0.054957   0.753087   0.008106   0.000846  -0.010567
   30  C  2 YZ   -0.004720   1.219474   0.000837   0.001675   0.001186
   31  O  3  S   -0.003626  -0.000218   0.008090  -0.028622  -0.182526
   32  O  3  S   -0.237327  -0.027969  -0.174700  -1.767684   0.109212
   33  O  3  X    0.114779   0.006689  -0.586168   0.212338  -0.226865
   34  O  3  Y    0.118119  -0.003504   0.293785   0.233530  -0.339256
   35  O  3  Z   -0.009512  -0.647272   0.001189   0.008100  -0.006077
   36  O  3  S    0.102000   0.075626   0.421379   2.495966   5.995469
   37  O  3  X   -0.027005  -0.024460  -1.031563  -0.974043  -1.148013
   38  O  3  Y   -0.302864   0.017445   0.510708  -1.742792  -1.328146
   39  O  3  Z    0.020813  -0.941518  -0.024078   0.019228  -0.049381
   40  O  3 XX   -0.330761  -0.006043   1.236554   0.301156  -0.668319
   41  O  3 YY   -0.027059  -0.005740  -0.992697   1.065339  -0.696351
   42  O  3 ZZ    0.260752   0.029186  -0.050078  -0.261850  -1.046670
   43  O  3 XY    0.312534  -0.016626   0.676637   0.783827   0.307220
   44  O  3 XZ   -0.040469   0.807715   0.043861  -0.004030   0.025085
   45  O  3 YZ    0.041393   1.295435  -0.019477   0.004329  -0.000047
   46  H  4  S   -0.264273   0.000227   0.339638   0.018457   0.192864
   47  H  4  S    0.160511  -0.014706  -0.547022   0.167349  -0.491857
   48  H  5  S    0.201902  -0.028549  -0.128981  -0.080300  -0.177157
   49  H  5  S   -0.009310  -0.037489  -0.002106   0.335445   0.000400
   50  H  6  S   -0.102723   0.014063  -0.056885   0.077173   0.116367
   51  H  6  S    0.038598   0.095393   0.062869   0.011467  -0.250852
   52  H  7  S   -0.113721  -0.016206  -0.071466   0.036512   0.120219
   53  H  7  S    0.010748  -0.078394   0.118909   0.026064  -0.180570

                     51         52         53
                    4.1469     4.3268     4.6034
                     A          A          A   
    1  C  1  S    0.221905   0.374227  -0.043404
    2  C  1  S   -1.186248  -2.281925   0.255773
    3  C  1  X   -0.138484   0.170863  -0.001812
    4  C  1  Y   -0.055576  -0.089884  -0.099074
    5  C  1  Z    0.010295   0.004710   0.026806
    6  C  1  S   -1.006866  -1.918203   1.072263
    7  C  1  X    0.026456  -0.116883   0.541362
    8  C  1  Y    0.148443   0.228905   0.059137
    9  C  1  Z   -0.068655  -0.011587  -0.142970
   10  C  1 XX    0.632459   1.675980  -0.205856
   11  C  1 YY    0.820840   1.444997  -0.181868
   12  C  1 ZZ    0.833476   1.432368  -0.124538
   13  C  1 XY   -0.048581  -0.104527  -0.076244
   14  C  1 XZ    0.002412  -0.000855  -0.010638
   15  C  1 YZ    0.001240  -0.001281  -0.006340
   16  C  2  S   -0.182404  -0.179572   0.298684
   17  C  2  S   -3.770727   2.691555   2.248791
   18  C  2  X   -0.652250   0.270845   1.074409
   19  C  2  Y   -0.961885   0.262828   1.612957
   20  C  2  Z   -0.026361  -0.000048   0.051916
   21  C  2  S   -3.769389   1.237369  -3.303712
   22  C  2  X   -0.858003  -0.203402   0.175761
   23  C  2  Y   -1.370861  -0.208906  -1.774085
   24  C  2  Z   -0.015690  -0.004006   0.017687
   25  C  2 XX    0.687274  -1.487212  -0.043470
   26  C  2 YY    0.618698  -1.201700   0.494019
   27  C  2 ZZ    0.846835  -1.166214  -0.421369
   28  C  2 XY   -0.242728   0.214433   0.881890
   29  C  2 XZ   -0.015473  -0.002486   0.008123
   30  C  2 YZ   -0.009185  -0.004465   0.046105
   31  O  3  S   -0.382950   0.041084  -0.580514
   32  O  3  S   -0.217644  -0.108508  -2.296076
   33  O  3  X   -0.296579   0.111870   0.777867
   34  O  3  Y   -0.548628   0.257550   1.185573
   35  O  3  Z   -0.009710   0.004282   0.027981
   36  O  3  S    8.204909  -0.443310   5.917720
   37  O  3  X   -1.256264   0.105580  -0.596722
   38  O  3  Y   -2.013694   0.092687   0.111443
   39  O  3  Z   -0.020923   0.019201  -0.069380
   40  O  3 XX   -1.252084   0.086518  -1.411536
   41  O  3 YY   -0.534592  -0.132010  -2.029925
   42  O  3 ZZ   -1.669283   0.193468  -1.343624
   43  O  3 XY    0.751150  -0.341734  -0.399763
   44  O  3 XZ    0.011603  -0.010616   0.023393
   45  O  3 YZ    0.015654  -0.008687  -0.017827
   46  H  4  S   -0.095143   0.118996  -0.027975
   47  H  4  S    0.110004  -0.363118  -0.307657
   48  H  5  S   -0.085919  -0.029413  -0.175644
   49  H  5  S    0.202011   0.206601  -0.304057
   50  H  6  S   -0.034381  -0.077810  -0.012837
   51  H  6  S    0.248944   0.384909  -0.006316
   52  H  7  S   -0.031422  -0.084983  -0.019830
   53  H  7  S    0.337078   0.380639   0.156942
 ...... END OF RHF CALCULATION ......
 STEP CPU TIME =     5.42 TOTAL CPU TIME =          5.5 (      0.1 MIN)
 TOTAL WALL CLOCK TIME=          5.6 SECONDS, CPU UTILIZATION IS    98.75%

     ---------------------------------------------------------------------
     PROPERTIES FOR THE B3LYP    DFT FUNCTIONAL (RHF  TYPE) DENSITY MATRIX
     ---------------------------------------------------------------------

          -----------------
          ENERGY COMPONENTS
          -----------------

         WAVEFUNCTION NORMALIZATION =       1.0000000000

                ONE ELECTRON ENERGY =    -371.4538728938
                TWO ELECTRON ENERGY =     134.7874354740
           NUCLEAR REPULSION ENERGY =      83.6737554764
                                      ------------------
                       TOTAL ENERGY =    -152.9926819433

 ELECTRON-ELECTRON POTENTIAL ENERGY =     134.7874354740
  NUCLEUS-ELECTRON POTENTIAL ENERGY =    -527.3459126200
   NUCLEUS-NUCLEUS POTENTIAL ENERGY =      83.6737554764
                                      ------------------
             TOTAL POTENTIAL ENERGY =    -308.8847216696
               TOTAL KINETIC ENERGY =     155.8920397263
                 VIRIAL RATIO (V/T) =       1.9814015020

          ---------------------------------------
          MULLIKEN AND LOWDIN POPULATION ANALYSES
          ---------------------------------------

     ATOMIC MULLIKEN POPULATION IN EACH MOLECULAR ORBITAL

                      1          2          3          4          5

                  2.000000   2.000000   2.000000   2.000000   2.000000

    1             0.000088   0.000318   1.997895   0.027656   0.678027
    2            -0.005794   2.005242   0.000914   0.837877   0.479433
    3             2.005777  -0.005622  -0.000017   1.152534   0.628193
    4            -0.000019   0.000140  -0.000001  -0.014779   0.012622
    5            -0.000054  -0.000083   0.000147  -0.002662   0.098222
    6             0.000000   0.000004   0.000530  -0.000330   0.048813
    7             0.000002   0.000001   0.000531  -0.000296   0.054691

                      6          7          8          9         10

                  2.000000   2.000000   2.000000   2.000000   2.000000

    1             0.397117   0.055696   0.036111   0.612011   0.995257
    2             0.691127   0.730035   0.161888   0.562243   0.017751
    3             0.453608   1.180773   1.644685   0.171450   0.066696
    4             0.267288   0.019211   0.046492   0.264614   0.002094
    5             0.032365   0.002952   0.091442   0.011753   0.000150
    6             0.076772   0.009926   0.008484   0.178020   0.462072
    7             0.081722   0.001407   0.010899   0.199908   0.455979

                     11         12

                  2.000000   2.000000

    1             0.967275   0.867858
    2             0.234008   0.136261
    3             0.125139   0.530513
    4             0.086206   0.291260
    5             0.583714   0.020181
    6             0.001125   0.095548
    7             0.002533   0.058379

               ----- POPULATIONS IN EACH AO -----
                             MULLIKEN      LOWDIN
              1  C  1  S      1.99216     1.97985
              2  C  1  S      0.69488     0.39699
              3  C  1  X      0.72526     0.64988
              4  C  1  Y      0.58122     0.54175
              5  C  1  Z      0.69815     0.62278
              6  C  1  S      0.79457     0.38481
              7  C  1  X      0.34814     0.40890
              8  C  1  Y      0.44306     0.56071
              9  C  1  Z      0.34153     0.48543
             10  C  1 XX      0.00013     0.14764
             11  C  1 YY     -0.01384     0.15242
             12  C  1 ZZ      0.00814     0.18517
             13  C  1 XY      0.01043     0.01753
             14  C  1 XZ      0.00687     0.01444
             15  C  1 YZ      0.00460     0.00694
             16  C  2  S      1.99362     1.92219
             17  C  2  S      0.69117     0.33023
             18  C  2  X      0.82589     0.70615
             19  C  2  Y      0.87146     0.77812
             20  C  2  Z      0.58210     0.50706
             21  C  2  S      0.45516     0.29834
             22  C  2  X      0.10382     0.26816
             23  C  2  Y      0.07226     0.34490
             24  C  2  Z      0.11229     0.20307
             25  C  2 XX      0.03078     0.22951
             26  C  2 YY      0.06147     0.27335
             27  C  2 ZZ     -0.02174     0.09301
             28  C  2 XY      0.03053     0.08143
             29  C  2 XZ      0.01526     0.02976
             30  C  2 YZ      0.02692     0.05329
             31  O  3  S      1.99295     1.96294
             32  O  3  S      0.86633     0.62652
             33  O  3  X      1.19140     1.12558
             34  O  3  Y      1.13208     1.08532
             35  O  3  Z      0.88409     0.79269
             36  O  3  S      0.73675     0.37173
             37  O  3  X      0.41360     0.46992
             38  O  3  Y      0.31508     0.46165
             39  O  3  Z      0.38305     0.41753
             40  O  3 XX      0.00263     0.16394
             41  O  3 YY      0.01624     0.20265
             42  O  3 ZZ     -0.00887     0.14161
             43  O  3 XY      0.00968     0.06062
             44  O  3 XZ      0.00684     0.01028
             45  O  3 YZ      0.01189     0.02078
             46  H  4  S      0.54883     0.50841
             47  H  4  S      0.42630     0.41508
             48  H  5  S      0.39841     0.36325
             49  H  5  S      0.43972     0.41618
             50  H  6  S      0.52545     0.48355
             51  H  6  S      0.35551     0.37611
             52  H  7  S      0.52378     0.48127
             53  H  7  S      0.34198     0.36859

          ----- MULLIKEN ATOMIC OVERLAP POPULATIONS -----
          (OFF-DIAGONAL ELEMENTS NEED TO BE MULTIPLIED BY 2)

             1           2           3           4           5

    1    5.9198227
    2    0.4093059   4.6748567
    3   -0.4690631   0.6944939   7.7502562
    4   -0.1416203   0.2685379  -0.0435585   0.8565832
    5    0.3247204  -0.1411722  -0.0087764   0.0101300   0.6641908
    6    0.2807169  -0.0300400   0.0178406   0.0149405  -0.0051601
    7    0.3114272  -0.0249967   0.0125365   0.0101165  -0.0058057

             6           7

    6    0.6237512
    7   -0.0210860   0.5835646

          TOTAL MULLIKEN AND LOWDIN ATOMIC POPULATIONS
       ATOM         MULL.POP.    CHARGE          LOW.POP.     CHARGE
    1 C             6.635310   -0.635310         6.555258   -0.555258
    2 C             5.850985    0.149015         6.118539   -0.118539
    3 O             7.953729    0.046271         7.913757    0.086243
    4 H             0.975129    0.024871         0.923493    0.076507
    5 H             0.838127    0.161873         0.779430    0.220570
    6 H             0.880963    0.119037         0.859658    0.140342
    7 H             0.865756    0.134244         0.849865    0.150135

          -------------------------------
          BOND ORDER AND VALENCE ANALYSIS     BOND ORDER THRESHOLD=0.050
          -------------------------------

                   BOND                       BOND                       BOND
  ATOM PAIR DIST  ORDER      ATOM PAIR DIST  ORDER      ATOM PAIR DIST  ORDER
    1   2  1.520  0.853        1   5  1.500  0.831        1   6  1.090  0.932
    1   7  1.090  0.934        2   3  0.838  2.294        2   4  1.090  0.817
    3   5  1.316  0.136

                       TOTAL       BONDED        FREE
      ATOM            VALENCE     VALENCE     VALENCE
    1 C                 3.551       3.551       0.000
    2 C                 3.933       3.933      -0.000
    3 O                 2.453       2.453       0.000
    4 H                 0.929       0.929      -0.000
    5 H                 0.951       0.951       0.000
    6 H                 0.940       0.940      -0.000
    7 H                 0.941       0.941      -0.000

          ---------------------
          ELECTROSTATIC MOMENTS
          ---------------------

 POINT   1           X           Y           Z (BOHR)    CHARGE
                -0.000000    0.000000    0.000000        0.00 (A.U.)
         DX          DY          DZ         /D/  (DEBYE)
     1.165110   -0.727708    0.120768    1.378995
 ...... END OF PROPERTY EVALUATION ......
 STEP CPU TIME =     0.00 TOTAL CPU TIME =          5.5 (      0.1 MIN)
 TOTAL WALL CLOCK TIME=          5.6 SECONDS, CPU UTILIZATION IS    98.58%

 BEGINNING ONE ELECTRON GRADIENT...
 ..... END OF 1-ELECTRON GRADIENT ......
 STEP CPU TIME =     0.01 TOTAL CPU TIME =          5.5 (      0.1 MIN)
 TOTAL WALL CLOCK TIME=          5.6 SECONDS, CPU UTILIZATION IS    98.58%

          ----------------------
          GRADIENT OF THE ENERGY
          ----------------------
 MEMORY FOR GRID POINT CONTRIBUTIONS TO THE DFT GRADIENT=    269593 WORDS.
 STEP CPU TIME =     1.16 TOTAL CPU TIME =          6.7 (      0.1 MIN)
 TOTAL WALL CLOCK TIME=          6.8 SECONDS, CPU UTILIZATION IS    98.68%

 THE MINIMUM MEMORY REQUIRED FOR THIS RUN IS      88877 WORDS.
 USING     991233 WORDS FOR 2E- DERIVATIVE INTEGRAL CONTRIBUTIONS.
 THE COARSE/FINE SCHWARZ SCREENINGS SKIPPED          283/         635 BLOCKS.
 THE NUMBER OF GRADIENT INTEGRAL BLOCKS COMPUTED WAS     21048
 ...... END OF 2-ELECTRON GRADIENT ......
 STEP CPU TIME =     0.20 TOTAL CPU TIME =          6.9 (      0.1 MIN)
 TOTAL WALL CLOCK TIME=          7.0 SECONDS, CPU UTILIZATION IS    98.71%

          NSERCH=  0     ENERGY=    -152.9926819

                                 -----------------------
                                 GRADIENT (HARTREE/BOHR)
                                 -----------------------
        ATOM     ZNUC       DE/DX         DE/DY         DE/DZ
 --------------------------------------------------------------
    1  C            6.0     0.0652348     0.0141986     0.0233102
    2  C            6.0     1.3047043     1.9559948     0.0279004
    3  O            8.0    -1.5051391    -2.0066145    -0.0391231
    4  H            1.0    -0.0032858     0.0490528    -0.0026014
    5  H            1.0     0.1072706     0.0030303    -0.0099362
    6  H            1.0     0.0194823    -0.0072548     0.0053063
    7  H            1.0     0.0117330    -0.0084071    -0.0048562

          MAXIMUM GRADIENT = 2.0066145    RMS GRADIENT = 0.7509408

 NSERCH:   0  E=     -152.9926819433  GRAD. MAX=  2.0066145  R.M.S.=  0.7509408

          FORCE CONSTANT MATRIX NOT UPDATED --- TAKING FIRST STEP
               NR STEP HAS LENGTH         =   4.020910
          RADIUS OF STEP TAKEN=   4.02091  CURRENT TRUST RADIUS=   0.30000

 BEGINNING GEOMETRY SEARCH POINT NSERCH=   1 ...

 COORDINATES OF ALL ATOMS ARE (ANGS)
   ATOM   CHARGE       X              Y              Z
 ------------------------------------------------------------
 C           6.0  -1.1117442346  -0.1171447408  -0.1511113362
 C           6.0   0.0591670415  -0.7725624030  -0.1982784358
 O           8.0   1.4968465087   0.5911348189  -1.1475812320
 H           1.0   0.9179465572  -1.5991818217   0.8325894503
 H           1.0  -0.5239172833   1.2042719499   0.7864616147
 H           1.0  -1.9390598605  -0.0406700931  -1.0577711098
 H           1.0  -1.6251612586  -0.0065023408   0.8534614769

          INTERNUCLEAR DISTANCES (ANGS.)
          ------------------------------

                1 C          2 C          3 O          4 H          5 H     

   1 C       0.0000000    1.3426951 *  2.8808606 *  2.6988416 *  1.7235793 *
   2 C       1.3426951 *  0.0000000    2.1972183 *  1.5759094 *  2.2842010 *
   3 O       2.8808606 *  2.1972183 *  0.0000000    3.0089347    2.8635546 *
   4 H       2.6988416 *  1.5759094 *  3.0089347    0.0000000    3.1528483  
   5 H       1.7235793 *  2.2842010 *  2.8635546 *  3.1528483    0.0000000  
   6 H       1.2297689 *  2.2950609 *  3.4946668    3.7636296    2.6369876 *
   7 H       1.1335808 *  2.1283718 *  3.7560983    3.0007434    1.6380481 *

                6 H          7 H     

   1 C       1.2297689 *  1.1335808 *
   2 C       2.2950609 *  2.1283718 *
   3 O       3.4946668    3.7560983  
   4 H       3.7636296    3.0007434  
   5 H       2.6369876 *  1.6380481 *
   6 H       0.0000000    1.9371396 *
   7 H       1.9371396 *  0.0000000  

  * ... LESS THAN  3.000

[...]

                     11         12         13         14         15
                   -2.6063    -2.0973    -1.9892    -1.7281    -1.6985
                     A          A          A          A          A   
    1  C  1  S    0.016171  -0.057884   0.004609   0.015566   0.020883
    2  C  1  S   -0.050508   0.737493   0.367211   0.224418   0.885961
    3  C  1  X   -0.084192   0.084446   0.045664   0.312352   0.166481
    4  C  1  Y    0.092806   0.274211  -0.446997   0.400079  -0.106609
    5  C  1  Z   -0.004605  -0.049667   0.169433   0.115074  -0.079164
    6  C  1  S   -0.010766  -0.269193  -0.286148  -0.585334  -1.401739
    7  C  1  X   -0.000837  -0.165761  -0.131480  -0.589139  -0.654541
    8  C  1  Y   -0.051920   0.101596   0.780100  -1.000362   0.365940
    9  C  1  Z    0.028550   0.036242  -0.240177  -0.109462   0.279886
   10  C  1 XX    0.014547   0.089809   0.014008  -0.202677  -0.071294
   11  C  1 YY    0.028276  -0.443503   0.022202   0.337867   0.227233
   12  C  1 ZZ   -0.012518   0.047754  -0.066319  -0.127905  -0.287621
   13  C  1 XY   -0.035378  -0.084838  -0.018127  -0.030917  -0.406684
   14  C  1 XZ    0.012545  -0.015710  -0.081969  -0.086578  -0.106507
   15  C  1 YZ    0.002509   0.117502   0.044777   0.079842   0.058615
   16  C  2  S    0.163715  -0.001068  -0.012938  -0.009983  -0.008955
   17  C  2  S   -0.756895   0.093135   0.416901   0.185441   0.115686
   18  C  2  X   -0.630713  -0.014535  -0.109547   0.141890  -0.006469
   19  C  2  Y    0.110840  -0.097377  -0.134717   0.197635   0.178350
   20  C  2  Z    0.547934   0.049275   0.209196   0.142275  -0.076652
   21  C  2  S   -0.118032   0.040577  -0.162648  -0.063732   0.516869
   22  C  2  X    0.092725   0.000046   0.089905  -0.049857  -0.205482
   23  C  2  Y   -0.010977   0.062488   0.047944  -0.045822  -0.026841
   24  C  2  Z   -0.083592  -0.025493  -0.145093  -0.126641   0.149574
   25  C  2 XX    0.162921   0.002227   0.011306   0.094097   0.068641
   26  C  2 YY    0.028525   0.012839  -0.009418  -0.080874  -0.073697
   27  C  2 ZZ    0.141269  -0.009950  -0.043937  -0.058459  -0.019797
   28  C  2 XY   -0.015856  -0.042053  -0.034451   0.045899  -0.031299
   29  C  2 XZ   -0.138792   0.006004   0.001276  -0.007451  -0.082704
   30  C  2 YZ    0.022094   0.015329   0.021893  -0.021467  -0.015202
   31  O  3  S    0.000395   0.000261   0.000497   0.000075  -0.000473
   32  O  3  S    0.001202   0.000822   0.001564   0.000253  -0.001507
   33  O  3  X   -0.000261  -0.000253  -0.000248   0.000038   0.000292
   34  O  3  Y   -0.000341  -0.000141  -0.000520  -0.000268   0.000367
   35  O  3  Z    0.000715   0.000446   0.000984   0.000188  -0.000879
   36  O  3  S   -0.004875  -0.003274  -0.006219  -0.000964   0.005962
   37  O  3  X    0.000771   0.000764   0.000751  -0.000121  -0.000899
   38  O  3  Y    0.000987   0.000416   0.001550   0.000806  -0.001125
   39  O  3  Z   -0.002085  -0.001335  -0.002947  -0.000589   0.002681
   40  O  3 XX    0.001461   0.000923   0.001906   0.000363  -0.001763
   41  O  3 YY    0.001444   0.000983   0.001815   0.000236  -0.001735
   42  O  3 ZZ    0.001172   0.000783   0.001385   0.000166  -0.001343
   43  O  3 XY   -0.000070  -0.000034  -0.000133  -0.000086   0.000085
   44  O  3 XZ    0.000156   0.000138   0.000207   0.000031  -0.000199
   45  O  3 YZ    0.000180   0.000083   0.000288   0.000133  -0.000230
   46  H  4  S    0.003251  -0.045174  -0.261529  -0.215407   0.309282
   47  H  4  S    0.013328  -0.044863  -0.200174  -0.216440   0.290023
   48  H  5  S    0.004063  -0.685036   0.213691   0.053914   0.142087
   49  H  5  S    0.033527  -0.197729  -0.251633   0.528778   0.083856
   50  H  6  S    0.000996  -0.009352   0.004168   0.004404  -0.022826
   51  H  6  S    0.001544   0.015258  -0.032385  -0.047836   0.004284
   52  H  7  S   -0.000762  -0.004141  -0.058157   0.101384  -0.026852
   53  H  7  S   -0.000384  -0.030464  -0.015861   0.111938  -0.054641

                     16         17         18         19         20
                   -1.6157    -1.5768    -1.5578    -1.5496    -1.4929
                     A          A          A          A          A   
    1  C  1  S   -0.009735   0.025865  -0.009751   0.015180   0.003379
    2  C  1  S    0.088330  -0.483943   0.862575  -0.390978  -0.169935
    3  C  1  X    0.098045   0.248616  -0.100508   0.180291   0.118281
    4  C  1  Y   -0.097472  -0.159154   0.071360  -0.033008   0.073769
    5  C  1  Z    0.555366  -0.164201  -0.011037   0.086917  -0.059353
    6  C  1  S    0.040606   0.252712  -0.857916   0.247564   0.266147
    7  C  1  X   -0.137594  -0.624252   0.146956  -0.513467  -0.094859
    8  C  1  Y    0.274050   0.231737  -0.489235   0.112923  -0.238722
    9  C  1  Z   -1.055143   0.489697   0.026011  -0.275328   0.166501
   10  C  1 XX   -0.092089   0.260812   0.167408   0.536107  -0.400770
   11  C  1 YY   -0.181986  -0.171221  -0.103348  -0.133153  -0.060537
   12  C  1 ZZ    0.209449   0.133980  -0.340721  -0.232061   0.529512
   13  C  1 XY    0.136341   0.197460   0.464822  -0.280025  -0.270249
   14  C  1 XZ   -0.125411  -0.489458  -0.230796   0.301176  -0.238151
   15  C  1 YZ    0.028701   0.128485  -0.455646  -0.463691  -0.600107
   16  C  2  S    0.010377   0.009302  -0.011121   0.002033  -0.001611
   17  C  2  S   -0.144888   0.170778   0.319613  -0.045519   0.264538
   18  C  2  X    0.048968  -0.025138  -0.208612  -0.046418  -0.013102
   19  C  2  Y   -0.000376  -0.119423  -0.063308  -0.054500   0.026520
   20  C  2  Z    0.201745   0.132225   0.016265  -0.162160   0.092881
   21  C  2  S    0.006747   0.041444  -0.311025   0.165688  -0.336034
   22  C  2  X   -0.038856  -0.024286   0.230609   0.047937   0.097805
   23  C  2  Y   -0.053830   0.168292   0.125981   0.066953   0.013912
   24  C  2  Z   -0.038739  -0.154382  -0.067706   0.209067  -0.185917
   25  C  2 XX    0.028432   0.012935  -0.154620  -0.112414   0.012341
   26  C  2 YY    0.059278   0.089618   0.104242   0.032676  -0.047134
   27  C  2 ZZ   -0.036472  -0.092234  -0.024120   0.091281  -0.008561
   28  C  2 XY   -0.047893  -0.128107  -0.041337  -0.007056  -0.024963
   29  C  2 XZ    0.097374   0.047419  -0.011926  -0.115532   0.029651
   30  C  2 YZ   -0.084425  -0.006052   0.027131   0.093120  -0.085051
   31  O  3  S   -0.000046   0.000717   0.000440  -0.000350   0.000808
   32  O  3  S   -0.000190   0.002301   0.001432  -0.001128   0.002621
   33  O  3  X    0.000095  -0.000569  -0.000157   0.000287  -0.000928
   34  O  3  Y   -0.000130  -0.000518  -0.000313   0.000427  -0.000327
   35  O  3  Z   -0.000009   0.001315   0.000895  -0.000599   0.001183
   36  O  3  S    0.000663  -0.009054  -0.005593   0.004429  -0.010274
   37  O  3  X   -0.000340   0.001743   0.000520  -0.000870   0.002877
   38  O  3  Y    0.000370   0.001577   0.000979  -0.001288   0.001017
   39  O  3  Z    0.000086  -0.004009  -0.002754   0.001846  -0.003693
   40  O  3 XX   -0.000092   0.002627   0.001687  -0.001296   0.002736
   41  O  3 YY   -0.000197   0.002663   0.001631  -0.001251   0.003006
   42  O  3 ZZ   -0.000151   0.002060   0.001172  -0.001035   0.002505
   43  O  3 XY   -0.000041  -0.000150  -0.000069   0.000124  -0.000075
   44  O  3 XZ   -0.000047   0.000370   0.000171  -0.000181   0.000456
   45  O  3 YZ    0.000039   0.000307   0.000219  -0.000221   0.000227
   46  H  4  S    0.275729   0.076482   0.073028  -0.073722  -0.071015
   47  H  4  S    0.277988   0.099216   0.078610  -0.007677   0.088525
   48  H  5  S   -0.033025   0.053630   0.123144  -0.011868   0.016157
   49  H  5  S   -0.140072   0.083507   0.215538  -0.001165   0.020119
   50  H  6  S    0.048533   0.003934  -0.028306   0.023490   0.002272
   51  H  6  S   -0.043912  -0.008063  -0.015027   0.019403   0.098801
   52  H  7  S    0.017525   0.117841   0.011793   0.092506  -0.144411
   53  H  7  S    0.031805   0.174591   0.029459   0.097370  -0.244104

                     21         22
                   -1.4447    -1.3581
                     A          A   
    1  C  1  S   -0.014803  -0.018489
    2  C  1  S    0.382870   0.210926
    3  C  1  X   -0.199070   0.288184
    4  C  1  Y   -0.148427  -0.128712
    5  C  1  Z   -0.021647  -0.143198
    6  C  1  S   -0.137020   0.373489
    7  C  1  X    0.519230  -0.239924
    8  C  1  Y    0.398441   0.040188
    9  C  1  Z    0.015169   0.125684
   10  C  1 XX   -0.275682  -0.273856
   11  C  1 YY   -0.109976  -0.071591
   12  C  1 ZZ    0.211624   0.179982
   13  C  1 XY   -0.239211   0.303178
   14  C  1 XZ    0.000944   0.581062
   15  C  1 YZ   -0.139012   0.038342
   16  C  2  S    0.000924  -0.031304
   17  C  2  S    0.112806   1.163270
   18  C  2  X   -0.032483  -0.318956
   19  C  2  Y   -0.021433   0.126573
   20  C  2  Z    0.024801   0.181482
   21  C  2  S   -0.221177  -1.043573
   22  C  2  X    0.055724   0.475731
   23  C  2  Y   -0.069711  -0.068876
   24  C  2  Z   -0.089609  -0.379562
   25  C  2 XX   -0.001239  -0.167690
   26  C  2 YY   -0.008357  -0.150050
   27  C  2 ZZ   -0.003423  -0.027726
   28  C  2 XY   -0.017038   0.103010
   29  C  2 XZ    0.001133   0.041311
   30  C  2 YZ   -0.012635  -0.019785
   31  O  3  S    0.000211   0.000970
   32  O  3  S    0.000690   0.003240
   33  O  3  X   -0.000259  -0.000586
   34  O  3  Y   -0.000116  -0.000822
   35  O  3  Z    0.000271   0.001652
   36  O  3  S   -0.002699  -0.012501
   37  O  3  X    0.000807   0.001931
   38  O  3  Y    0.000358   0.002570
   39  O  3  Z   -0.000863  -0.005270
   40  O  3 XX    0.000702   0.003566
   41  O  3 YY    0.000770   0.003522
   42  O  3 ZZ    0.000680   0.002751
   43  O  3 XY   -0.000023  -0.000186
   44  O  3 XZ    0.000117   0.000437
   45  O  3 YZ    0.000072   0.000534
   46  H  4  S   -0.089182   0.170814
   47  H  4  S    0.032908   0.233106
   48  H  5  S   -0.008804   0.046890
   49  H  5  S   -0.180766  -0.065410
   50  H  6  S   -0.007342  -0.019589
   51  H  6  S    0.033564   0.026749
   52  H  7  S    0.456319   0.034834
   53  H  7  S    0.509726   0.021946

     ---------------------------------------------------------------------
     PROPERTIES FOR THE B3LYP    DFT FUNCTIONAL (RHF  TYPE) DENSITY MATRIX
     ---------------------------------------------------------------------

          -----------------
          ENERGY COMPONENTS
          -----------------

         WAVEFUNCTION NORMALIZATION =       1.0000000000

                ONE ELECTRON ENERGY =    -296.1511586506
                TWO ELECTRON ENERGY =     255.9278440553
           NUCLEAR REPULSION ENERGY =      40.2233145953
                                      ------------------
                       TOTAL ENERGY =       0.0000000000

 ELECTRON-ELECTRON POTENTIAL ENERGY =     255.9278440553
  NUCLEUS-ELECTRON POTENTIAL ENERGY =    -460.5894506560
   NUCLEUS-NUCLEUS POTENTIAL ENERGY =      40.2233145953
                                      ------------------
             TOTAL POTENTIAL ENERGY =    -164.4382920054
               TOTAL KINETIC ENERGY =     164.4382920054
                 VIRIAL RATIO (V/T) =       1.0000000000

          ---------------------------------------
          MULLIKEN AND LOWDIN POPULATION ANALYSES
          ---------------------------------------

     ATOMIC MULLIKEN POPULATION IN EACH MOLECULAR ORBITAL

                      1          2          3          4          5

                  2.000000   2.000000   2.000000   2.000000   2.000000

    1             1.998748   0.000662  -0.000000   1.578197   1.657262
    2             0.000703   1.999287  -0.000000   0.420811   0.254577
    3            -0.000000  -0.000000   2.000000  -0.000000  -0.000000
    4             0.000005   0.000037  -0.000000  -0.000199   0.001117
    5             0.000531   0.000011   0.000000   0.001235   0.086072
    6             0.000011   0.000002  -0.000000   0.000139   0.000365
    7             0.000002   0.000001   0.000000  -0.000182   0.000608

                      6          7          8          9         10

                  2.000000   2.000000   2.000000   2.000000   2.000000

    1             1.728083   1.908088   0.963823   0.096036   0.058572
    2             0.273779   0.091299   1.031569   1.895460   1.940798
    3            -0.000001  -0.000000  -0.000000  -0.000000  -0.000000
    4             0.000664   0.000601  -0.001229   0.007098   0.000903
    5            -0.003672  -0.002123   0.006123   0.001480  -0.000362
    6             0.000727   0.001571  -0.000160   0.000181  -0.000033
    7             0.000420   0.000564  -0.000127  -0.000255   0.000123

                     11         12

                  2.000000   2.000000

    1             0.027573   0.705961
    2             1.976315   0.011909
    3            -0.000002  -0.000004
    4            -0.000991   0.025376
    5            -0.002776   1.253483
    6            -0.000127  -0.003525
    7             0.000008   0.006801

               ----- POPULATIONS IN EACH AO -----
                             MULLIKEN      LOWDIN
              1  C  1  S      2.00162     1.99043
              2  C  1  S      2.35329     1.16041
              3  C  1  X      2.05699     1.87009
              4  C  1  Y      2.05429     1.85668
              5  C  1  Z      2.05955     1.86247
              6  C  1  S      0.29681     0.28550
              7  C  1  X     -0.02957     0.16582
              8  C  1  Y     -0.12871     0.13374
              9  C  1  Z     -0.06560     0.13468
             10  C  1 XX     -0.09723     0.31750
             11  C  1 YY      0.23792     0.48124
             12  C  1 ZZ     -0.15760     0.26406
             13  C  1 XY      0.05983     0.07846
             14  C  1 XZ      0.02449     0.03143
             15  C  1 YZ      0.05691     0.06296
             16  C  2  S      2.00113     1.99114
             17  C  2  S      2.25520     1.04017
             18  C  2  X      1.97708     1.78710
             19  C  2  Y      1.96953     1.77896
             20  C  2  Z      1.95903     1.76870
             21  C  2  S      0.23314     0.28128
             22  C  2  X     -0.08062     0.14065
             23  C  2  Y     -0.07970     0.13682
             24  C  2  Z     -0.05507     0.14560
             25  C  2 XX     -0.11803     0.24575
             26  C  2 YY     -0.13300     0.24786
             27  C  2 ZZ     -0.15341     0.22600
             28  C  2 XY      0.04207     0.05344
             29  C  2 XZ      0.05528     0.06099
             30  C  2 YZ      0.02387     0.02605
             31  O  3  S      1.96978     1.93534
             32  O  3  S      0.02643     0.04610
             33  O  3  X      0.00000     0.00000
             34  O  3  Y      0.00000     0.00000
             35  O  3  Z      0.00001     0.00001
             36  O  3  S      0.00882     0.01791
             37  O  3  X     -0.00000     0.00000
             38  O  3  Y     -0.00000     0.00000
             39  O  3  Z     -0.00000     0.00002
             40  O  3 XX     -0.00169     0.00022
             41  O  3 YY     -0.00169     0.00022
             42  O  3 ZZ     -0.00167     0.00021
             43  O  3 XY     -0.00000     0.00000
             44  O  3 XZ     -0.00000     0.00000
             45  O  3 YZ     -0.00000     0.00000
             46  H  4  S      0.01147     0.00993
             47  H  4  S      0.02192     0.03465
             48  H  5  S      1.13550     1.03597
             49  H  5  S      0.20450     0.27554
             50  H  6  S      0.00085     0.00031
             51  H  6  S     -0.00170     0.00661
             52  H  7  S      0.00031     0.00051
             53  H  7  S      0.00766     0.01046

          ----- MULLIKEN ATOMIC OVERLAP POPULATIONS -----
          (OFF-DIAGONAL ELEMENTS NEED TO BE MULTIPLIED BY 2)

             1           2           3           4           5

    1   10.8804487
    2   -0.1393397  10.0602788
    3    0.0000053  -0.0000374   2.0000269
    4    0.0124142   0.0024648   0.0000000   0.0165728
    5   -0.0367158  -0.0274842   0.0000015   0.0010115   1.4073787
    6    0.0020288   0.0006649  -0.0000039  -0.0000085  -0.0044148
    7    0.0041640  -0.0000417   0.0000000   0.0009274   0.0002262

             6           7

    6    0.0008890
    7   -0.0000065   0.0026925

          TOTAL MULLIKEN AND LOWDIN ATOMIC POPULATIONS
       ATOM         MULL.POP.    CHARGE          LOW.POP.     CHARGE
    1 C            10.723005   -4.723005        10.695468   -4.695468
    2 C             9.896506   -3.896506         9.930514   -3.930514
    3 O             1.999992    6.000008         2.000036    5.999964
    4 H             0.033382    0.966618         0.044580    0.955420
    5 H             1.340003   -0.340003         1.311510   -0.311510
    6 H            -0.000851    1.000851         0.006929    0.993071
    7 H             0.007962    0.992038         0.010963    0.989037

          -------------------------------
          BOND ORDER AND VALENCE ANALYSIS     BOND ORDER THRESHOLD=0.050
          -------------------------------

                   BOND                       BOND                       BOND
  ATOM PAIR DIST  ORDER      ATOM PAIR DIST  ORDER      ATOM PAIR DIST  ORDER
    1   2  1.677  0.280        1   5  1.138  0.814

                       TOTAL       BONDED        FREE
      ATOM            VALENCE     VALENCE     VALENCE
    1 C                 1.129       1.129      -0.000
    2 C                 0.286       0.286       0.000
    3 O                -0.000      -0.000      -0.000
    4 H                 0.066       0.066      -0.000
    5 H                 0.839       0.839      -0.000
    6 H                -0.002      -0.002       0.000
    7 H                 0.016       0.016      -0.000

          ---------------------
          ELECTROSTATIC MOMENTS
          ---------------------

 POINT   1           X           Y           Z (BOHR)    CHARGE
                 0.692899    0.375502   -1.538881       -0.00 (A.U.)
         DX          DY          DZ         /D/  (DEBYE)
    55.039001   13.044713 -103.424046  117.881252
 ...... END OF PROPERTY EVALUATION ......
 STEP CPU TIME =     0.01 TOTAL CPU TIME =         25.9 (      0.4 MIN)
 TOTAL WALL CLOCK TIME=         26.1 SECONDS, CPU UTILIZATION IS    99.12%
  $VIB   
          IVIB=   0 IATOM=   0 ICOORD=   0 E=        0.0000000000
  8.454787031E-02-6.578150226E-02-5.227698916E-02-1.639254853E-01-6.560616595E-04
  1.850159503E-03 5.392204159E-02 6.492267752E-02-3.094316761E-02 5.583397566E-02
 -4.882218261E-02 5.436900137E-02 1.433635418E-02 2.891790198E-02 4.536999924E-02
 -5.373408361E-02-1.025844070E-02-3.900420146E-02 9.019327167E-03 3.167760773E-02
  2.063519811E-02
  5.503900088E+01 1.304471348E+01-1.034240463E+02
 ......END OF GEOMETRY SEARCH......
 STEP CPU TIME =     0.01 TOTAL CPU TIME =         25.9 (      0.4 MIN)
 TOTAL WALL CLOCK TIME=         26.1 SECONDS, CPU UTILIZATION IS    99.12%
                991401  WORDS OF DYNAMIC MEMORY USED
 EXECUTION OF GAMESS TERMINATED NORMALLY Thu Oct 17 13:08:22 2019
 DDI: 263640 bytes (0.3 MB / 0 MWords) used by master data server.

 ----------------------------------------
 CPU timing information for all processes
 ========================================
 0: 25.273 + 0.653 = 25.926
 ----------------------------------------
 ddikick.x: exited gracefully.
----- accounting info -----
Files used on the master node crcfe01.crc.nd.edu were:
-rw-r--r-- 1 cdrisko campus     521 Oct 17 13:07 /afs/crc.nd.edu/user/c/cdrisko/TS_opt.F05
-rw-r--r-- 1 cdrisko campus  127007 Oct 17 13:08 /afs/crc.nd.edu/user/c/cdrisko/TS_opt.F07
-rw-r--r-- 1 cdrisko campus 7560672 Oct 17 13:08 /afs/crc.nd.edu/user/c/cdrisko/TS_opt.F08
-rw-r--r-- 1 cdrisko campus 1603280 Oct 17 13:08 /afs/crc.nd.edu/user/c/cdrisko/TS_opt.F10
-rw-r--r-- 1 cdrisko campus 2039576 Oct 17 13:08 /afs/crc.nd.edu/user/c/cdrisko/TS_opt.F22
Thu Oct 17 13:08:25 EDT 2019
0.383u 0.205s 0:29.90 1.9%	0+0k 0+56io 0pf+0w
