----- GAMESS execution script 'rungms' -----
This job is running on host crcfe02.crc.nd.edu
under operating system Linux at Sun Sep 29 10:42:38 EDT 2019
Available scratch disk space (Kbyte units) at beginning of the job is
Filesystem      1K-blocks  Used  Available Use% Mounted on
AFS            2147483647     0 2147483647   0% /afs
GAMESS temporary binary files will be written to /afs/crc.nd.edu/user/c/cdrisko
GAMESS supplementary output files will be written to /afs/crc.nd.edu/user/c/cdrisko/scr
Copying input file SO2.inp to your run's scratch directory...

 Distributed Data Interface kickoff program.
 Initiating 1 compute processes on 1 nodes to run the following command:
 /afs/crc.nd.edu/x86_64_linux/g/gamess/nov-2017/gamess/gamess.00.x SO2 

          ******************************************************
          *         GAMESS VERSION = 11 NOV 2017 (R3)         *
          *             FROM IOWA STATE UNIVERSITY             *
          * M.W.SCHMIDT, K.K.BALDRIDGE, J.A.BOATZ, S.T.ELBERT, *
          *   M.S.GORDON, J.H.JENSEN, S.KOSEKI, N.MATSUNAGA,   *
          *          K.A.NGUYEN, S.J.SU, T.L.WINDUS,           *
          *       TOGETHER WITH M.DUPUIS, J.A.MONTGOMERY       *
          *         J.COMPUT.CHEM.  14, 1347-1363(1993)        *
          **************** 64 BIT INTEL VERSION ****************

  SINCE 1993, STUDENTS AND POSTDOCS WORKING AT IOWA STATE UNIVERSITY
  AND ALSO IN THEIR VARIOUS JOBS AFTER LEAVING ISU HAVE MADE IMPORTANT
  CONTRIBUTIONS TO THE CODE:
     IVANA ADAMOVIC, CHRISTINE AIKENS, YURI ALEXEEV, POOJA ARORA,
     ANDREY ASADCHEV, ROB BELL, PRADIPTA BANDYOPADHYAY, JONATHAN BENTZ,
     BRETT BODE, KURT BRORSEN, CALEB CARLIN, GALINA CHABAN, WEI CHEN,
     CHEOL HO CHOI, PAUL DAY, ALBERT DEFUSCO, NUWAN DESILVA, TIM DUDLEY,
     DMITRI FEDOROV, ALEX FINDLATER, GRAHAM FLETCHER, MARK FREITAG,
     KURT GLAESEMANN, ANASTASIA GUININA,
     DAN KEMP, GRANT MERRILL, NORIYUKI MINEZAWA, JONATHAN MULLIN,
     TAKESHI NAGATA, SEAN NEDD, HEATHER NETZLOFF, BOSILJKA NJEGIC, RYAN OLSON,
     MIKE PAK, BUU PHAM,
     SPENCER PRUITT, LUKE ROSKOP, JIM SHOEMAKER, LYUDMILA SLIPCHENKO,
     TONY SMITH, SAROM SOK LEANG, JIE SONG, TETSUYA TAKETSUGU, SIMON WEBB,
     PENG XU, SOOHAENG YOO, FEDERICO ZAHARIEV

  ADDITIONAL CODE HAS BEEN PROVIDED BY COLLABORATORS IN OTHER GROUPS:
     IOWA STATE UNIVERSITY:
          JOE IVANIC, AARON WEST, LAIMUTIS BYTAUTAS, KLAUS RUEDENBERG
     UNIVERSITY OF TOKYO: KIMIHIKO HIRAO, TAKAHITO NAKAJIMA,
          TAKAO TSUNEDA, MUNEAKI KAMIYA, SUSUMU YANAGISAWA,
          KIYOSHI YAGI, MAHITO CHIBA, SEIKEN TOKURA, NAOAKI KAWAKAMI
     UNIVERSITY OF AARHUS: FRANK JENSEN
     UNIVERSITY OF IOWA: VISVALDAS KAIRYS, HUI LI
     NATIONAL INST. OF STANDARDS AND TECHNOLOGY: WALT STEVENS, DAVID GARMER
     UNIVERSITY OF PISA: BENEDETTA MENNUCCI, JACOPO TOMASI
     UNIVERSITY OF MEMPHIS: HENRY KURTZ, PRAKASHAN KORAMBATH
     UNIVERSITY OF ALBERTA: TOBY ZENG, MARIUSZ KLOBUKOWSKI
     UNIVERSITY OF NEW ENGLAND: MARK SPACKMAN
     MIE UNIVERSITY: HIROAKI UMEDA
     NAT. INST. OF ADVANCED INDUSTRIAL SCIENCE AND TECHNOLOGY: KAZUO KITAURA
     MICHIGAN STATE UNIVERSITY:
          KAROL KOWALSKI, MARTA WLOCH, JEFFREY GOUR, JESSE LUTZ,
          WEI LI, PIOTR PIECUCH
     UNIVERSITY OF SILESIA: MONIKA MUSIAL, STANISLAW KUCHARSKI
     FACULTES UNIVERSITAIRES NOTRE-DAME DE LA PAIX:
          OLIVIER QUINET, BENOIT CHAMPAGNE
     UNIVERSITY OF CALIFORNIA - SANTA BARBARA: BERNARD KIRTMAN
     INSTITUTE FOR MOLECULAR SCIENCE:
          KAZUYA ISHIMURA, MICHIO KATOUDA, AND SHIGERU NAGASE
     UNIVERSITY OF NOTRE DAME: ANNA POMOGAEVA, DAN CHIPMAN
     KYUSHU UNIVERSITY:
          HARUYUKI NAKANO,
          FENG LONG GU, JACEK KORCHOWIEC, MARCIN MAKOWSKI, AND YURIKO AOKI,
          HIROTOSHI MORI AND EISAKU MIYOSHI
     PENNSYLVANIA STATE UNIVERSITY:
          TZVETELIN IORDANOV, CHET SWALINA, JONATHAN SKONE,
          SHARON HAMMES-SCHIFFER
     WASEDA UNIVERSITY:
          MASATO KOBAYASHI, TOMOKO AKAMA, TSUGUKI TOUMA,
          TAKESHI YOSHIKAWA, YASUHIRO IKABATA, JUNJI SEINO,
          YUYA NAKAJIMA, HIROMI NAKAI
     NANJING UNIVERSITY: SHUHUA LI
     UNIVERSITY OF NEBRASKA:
          PEIFENG SU, DEJUN SI, NANDUN THELLAMUREGE, YALI WANG, HUI LI
     UNIVERSITY OF ZURICH: ROBERTO PEVERATI, KIM BALDRIDGE
     N. COPERNICUS UNIVERSITY AND JACKSON STATE UNIVERSITY:
          MARIA BARYSZ
     UNIVERSITY OF COPENHAGEN: Jimmy Kromann, CASPER STEINMANN
     TOKYO INSTITUTE OF TECHNOLOGY: HIROYA NAKATA
     NAGOYA UNIVERSITY: YOSHIO NISHIMOTO, STEPHAN IRLE
     MOSCOW STATE UNIVERSITY: VLADIMIR MIRONOV

 EXECUTION OF GAMESS BEGUN Sun Sep 29 10:42:38 2019

            ECHO OF THE FIRST FEW INPUT CARDS -
 INPUT CARD> $BASIS GBASIS=PCSEG-1 $END                                                     
 INPUT CARD> $CONTRL COORD=ZMT ISPHER=1 RUNTYP=ENERGY DFTTYP=PBE MULT=1 $END                
 INPUT CARD>                                                                                
 INPUT CARD> $DATA                                                                          
 INPUT CARD>Title SO2 single-point calculation template with Z-Matrix                       
 INPUT CARD>C1                                                                              
 INPUT CARD>S                                                                               
 INPUT CARD>O 1 1.30                                                                        
 INPUT CARD>O 1 1.30 2 95                                                                   
 INPUT CARD> $END                                                                           
    1000000 WORDS OF MEMORY AVAILABLE

     BASIS OPTIONS
     -------------
     GBASIS=PCSEG-1      IGAUSS=       0      POLAR=NONE    
     NDFUNC=       0     NFFUNC=       0     DIFFSP=       F
     NPFUNC=       0      DIFFS=       F     BASNAM=        


     RUN TITLE
     ---------
 Title SO2 single-point calculation template with Z-Matrix                       

 THE POINT GROUP OF THE MOLECULE IS C1      
 THE ORDER OF THE PRINCIPAL AXIS IS     0

 YOUR FULLY SUBSTITUTED Z-MATRIX IS
 S   
 O      1   1.3000000
 O      1   1.3000000  2   95.0000

 THE MOMENTS OF INERTIA ARE (AMU-ANGSTROM**2)
 IXX=    12.334   IYY=    29.387   IZZ=    41.722

 ATOM      ATOMIC                      COORDINATES (BOHR)
           CHARGE         X                   Y                   Z
 S          16.0     0.0000000000       -0.8300725307        0.0000000000
 O           8.0     1.8112277866        0.8296119534        0.0000000000
 O           8.0    -1.8112277866        0.8296119534        0.0000000000

          INTERNUCLEAR DISTANCES (ANGS.)
          ------------------------------

                1 S          2 O          3 O     

   1 S       0.0000000    1.3000000 *  1.3000000 *
   2 O       1.3000000 *  0.0000000    1.9169211 *
   3 O       1.3000000 *  1.9169211 *  0.0000000  

  * ... LESS THAN  3.000


     ATOMIC BASIS SET
     ----------------
 THE CONTRACTED PRIMITIVE FUNCTIONS HAVE BEEN UNNORMALIZED
 THE CONTRACTED BASIS FUNCTIONS ARE NOW NORMALIZED TO UNITY

  SHELL TYPE  PRIMITIVE        EXPONENT          CONTRACTION COEFFICIENT(S)

 S         

      1   S       1         49299.4000000    0.000677492991
      1   S       2          7395.8400000    0.005232317766
      1   S       3          1683.3000000    0.026769459077
      1   S       4           476.1440000    0.102869580705
      1   S       5           154.3290000    0.286438127414
      1   S       6            55.0288000    0.454278639081
      1   S       7            20.5029000    0.271743121997

      2   S       8            45.9596000   -0.088421914560
      2   S       9             4.9274000    0.564350486135
      2   S      10             1.9179900    0.505415953466

      3   S      11             0.3684980    1.000000000000

      4   S      12             0.1291650    1.000000000000

      5   P      13           451.6620000    0.003707705453
      5   P      14           106.0980000    0.029219352245
      5   P      15            33.6996000    0.124444551509
      5   P      16            12.3054000    0.321808587656
      5   P      17             4.7141200    0.462822172957
      5   P      18             1.7810500    0.266513371364

      6   P      19             0.8722350    0.349265132972
      6   P      20             0.3102780    0.717115018770

      7   P      21             0.1001940    1.000000000000

      8   D      22             0.5500000    1.000000000000

 O         

      9   S      23          2288.6400000    0.005451138222
      9   S      24           344.4160000    0.040718922842
      9   S      25            78.2538000    0.181369420873
      9   S      26            21.7195000    0.465536820246
      9   S      27             6.5590700    0.451211321214

     10   S      28            10.4656000   -0.150211201174
     10   S      29             0.9643510    1.052867983385

     11   S      30             0.2851270    1.000000000000

     12   P      31            17.0590000    0.068749256972
     12   P      32             3.6899900    0.351671941499
     12   P      33             0.9929960    0.724532099722

     13   P      34             0.2449240    1.000000000000

     14   D      35             1.0000000    1.000000000000

 O         

     15   S      36          2288.6400000    0.005451138222
     15   S      37           344.4160000    0.040718922842
     15   S      38            78.2538000    0.181369420873
     15   S      39            21.7195000    0.465536820246
     15   S      40             6.5590700    0.451211321214

     16   S      41            10.4656000   -0.150211201174
     16   S      42             0.9643510    1.052867983385

     17   S      43             0.2851270    1.000000000000

     18   P      44            17.0590000    0.068749256972
     18   P      45             3.6899900    0.351671941499
     18   P      46             0.9929960    0.724532099722

     19   P      47             0.2449240    1.000000000000

     20   D      48             1.0000000    1.000000000000

 TOTAL NUMBER OF BASIS SET SHELLS             =   20
 NUMBER OF CARTESIAN GAUSSIAN BASIS FUNCTIONS =   49
 NOTE: THIS RUN WILL RESTRICT THE MO VARIATION SPACE TO SPHERICAL HARMONICS.
 THE NUMBER OF ORBITALS KEPT IN THE VARIATIONAL SPACE WILL BE PRINTED LATER.
 NUMBER OF ELECTRONS                          =   32
 CHARGE OF MOLECULE                           =    0
 SPIN MULTIPLICITY                            =    1
 NUMBER OF OCCUPIED ORBITALS (ALPHA)          =   16
 NUMBER OF OCCUPIED ORBITALS (BETA )          =   16
 TOTAL NUMBER OF ATOMS                        =    3
 THE NUCLEAR REPULSION ENERGY IS      121.8747856333

     LEBEDEV GRID-BASED DFT OPTIONS
     ------------------------------
     DFTTYP=PBE     
     NRAD  =      96     NLEB  =     302
     NRAD0 =      24     NLEB0 =     110
     SWOFF =    5.00E-03 (PURE SCF -> DFT)
     SWITCH=    3.00E-04 (COARSE -> TIGHT GRID)
     THRESH=    0.00E+00 GTHRE=    1.00E+00

 GRIMME'S EMPIRICAL DISPERSION CORRECTION= F

     $CONTRL OPTIONS
     ---------------
 SCFTYP=RHF          RUNTYP=ENERGY       EXETYP=RUN     
 MPLEVL=       0     CITYP =NONE         CCTYP =NONE         VBTYP =NONE    
 DFTTYP=PBE          TDDFT =NONE    
 MULT  =       1     ICHARG=       0     NZVAR =       0     COORD =ZMT     
 PP    =NONE         RELWFN=NONE         LOCAL =NONE         NUMGRD=       F
 ISPHER=       1     NOSYM =       0     MAXIT =      30     UNITS =ANGS    
 PLTORB=       F     MOLPLT=       F     AIMPAC=       F     FRIEND=        
 NPRINT=       7     IREST =       0     GEOM  =INPUT   
 NORMF =       0     NORMP =       0     ITOL  =      20     ICUT  =       9
 INTTYP=BEST         GRDTYP=BEST         QMTTOL= 1.0E-06

     $SYSTEM OPTIONS
     ---------------
  REPLICATED MEMORY=     1000000 WORDS (ON EVERY NODE).
 DISTRIBUTED MEMDDI=           0 MILLION WORDS IN AGGREGATE,
 MEMDDI DISTRIBUTED OVER   1 PROCESSORS IS           0 WORDS/PROCESSOR.
 TOTAL MEMORY REQUESTED ON EACH PROCESSOR=     1000000 WORDS.
 TIMLIM=      525600.00 MINUTES, OR     365.0 DAYS.
 PARALL= F  BALTYP=  DLB     KDIAG=    0  COREFL= F
 MXSEQ2=     300 MXSEQ3=     150  mem10=         0

          ----------------
          PROPERTIES INPUT
          ----------------

     MOMENTS            FIELD           POTENTIAL          DENSITY
 IEMOM =       1   IEFLD =       0   IEPOT =       0   IEDEN =       0
 WHERE =COMASS     WHERE =NUCLEI     WHERE =NUCLEI     WHERE =NUCLEI  
 OUTPUT=BOTH       OUTPUT=BOTH       OUTPUT=BOTH       OUTPUT=BOTH    
 IEMINT=       0   IEFINT=       0                     IEDINT=       0
                                                       MORB  =       0
          EXTRAPOLATION IN EFFECT
          DIIS IN EFFECT
 ORBITAL PRINTING OPTION: NPREO=     1    49     2     1

     -------------------------------
     INTEGRAL TRANSFORMATION OPTIONS
     -------------------------------
     NWORD  =            0
     CUTOFF = 1.0E-09     MPTRAN =       0
     DIRTRF =       F     AOINTS =DUP     

          ----------------------
          INTEGRAL INPUT OPTIONS
          ----------------------
 NOPK  =       1 NORDER=       0 SCHWRZ=       F

   --- ENCODED Z MATRIX ---
 COORD  TYPE   I   J   K   L   M   N
    1      1    2   1
    2      1    3   1
    3      2    3   1   2

 THE DETERMINANT OF THE G MATRIX IS 10**(    -4)

 THE DETERMINANT OF THE G MATRIX IS 10**(    -4)
 * * * WARNING * * *
 YOUR B MATRIX HAS A SMALL DETERMINANT.
 THIS SUGGESTS YOU MAY HAVE BADLY CHOSEN COORDINATES.

     ------------------------------------------
     THE POINT GROUP IS C1 , NAXIS= 0, ORDER= 1
     ------------------------------------------

 -- VARIATIONAL SPACE WILL BE RESTRICTED TO PURE SPHERICAL HARMONICS ONLY --
 AFTER EXCLUDING CONTAMINANT COMBINATIONS FROM THE CARTESIAN GAUSSIAN BASIS
 SET, THE NUMBER OF SPHERICAL HARMONICS KEPT IN THE VARIATION SPACE IS   46

     DIMENSIONS OF THE SYMMETRY SUBSPACES ARE
 A   =   46

 ..... DONE SETTING UP THE RUN .....
 STEP CPU TIME =     0.04 TOTAL CPU TIME =          0.0 (      0.0 MIN)
 TOTAL WALL CLOCK TIME=          0.0 SECONDS, CPU UTILIZATION IS   100.00%

          ********************
          1 ELECTRON INTEGRALS
          ********************
 ...... END OF ONE-ELECTRON INTEGRALS ......
 STEP CPU TIME =     0.00 TOTAL CPU TIME =          0.0 (      0.0 MIN)
 TOTAL WALL CLOCK TIME=          0.0 SECONDS, CPU UTILIZATION IS    80.00%

          -------------
          GUESS OPTIONS
          -------------
          GUESS =HUCKEL            NORB  =       0          NORDER=       0
          MIX   =       F          PRTMO =       F          PUNMO =       F
          TOLZ  = 1.0E-08          TOLE  = 1.0E-05
          SYMDEN=       F          PURIFY=       F

 INITIAL GUESS ORBITALS GENERATED BY HUCKEL   ROUTINE.
 HUCKEL GUESS REQUIRES     21634 WORDS.

 STATISTICS FOR GENERATION OF SYMMETRY ORBITAL -Q- MATRIX
 NUMBER OF CARTESIAN ATOMIC ORBITALS=         49
 NUMBER OF SPHERICAL CONTAMINANTS DROPPED=     3
 NUMBER OF LINEARLY DEPENDENT MOS DROPPED=     0
 TOTAL NUMBER OF MOS IN VARIATION SPACE=      46

 SYMMETRIES FOR INITIAL GUESS ORBITALS FOLLOW.   BOTH SET(S).
    16 ORBITALS ARE OCCUPIED (    7 CORE ORBITALS).
     8=A        9=A       10=A       11=A       12=A       13=A       14=A   
    15=A       16=A       17=A       18=A       19=A       20=A       21=A   
    22=A       23=A       24=A       25=A       26=A   
 ...... END OF INITIAL ORBITAL SELECTION ......
 STEP CPU TIME =     0.01 TOTAL CPU TIME =          0.0 (      0.0 MIN)
 TOTAL WALL CLOCK TIME=          0.0 SECONDS, CPU UTILIZATION IS   100.00%

                    ----------------------
                    AO INTEGRAL TECHNOLOGY
                    ----------------------
     S,P,L SHELL ROTATED AXIS INTEGRALS, REPROGRAMMED BY
        KAZUYA ISHIMURA (IMS) AND JOSE SIERRA (SYNSTAR).
     S,P,D,L SHELL ROTATED AXIS INTEGRALS PROGRAMMED BY
        KAZUYA ISHIMURA (INSTITUTE FOR MOLECULAR SCIENCE).
     S,P,D,F,G SHELL TO TOTAL QUARTET ANGULAR MOMENTUM SUM 5,
        ERIC PROGRAM BY GRAHAM FLETCHER (ELORET AND NASA ADVANCED
        SUPERCOMPUTING DIVISION, AMES RESEARCH CENTER).
     S,P,D,F,G,L SHELL GENERAL RYS QUADRATURE PROGRAMMED BY
        MICHEL DUPUIS (PACIFIC NORTHWEST NATIONAL LABORATORY).

          --------------------
          2 ELECTRON INTEGRALS
          --------------------

 THE -PK- OPTION IS OFF, THE INTEGRALS ARE NOT IN SUPERMATRIX FORM.
 STORING   15000 INTEGRALS/RECORD ON DISK, USING 12 BYTES/INTEGRAL.
 TWO ELECTRON INTEGRAL EVALUATION REQUIRES   90606 WORDS OF MEMORY.
 II,JST,KST,LST =  1  1  1  1 NREC =         1 INTLOC =    1
 II,JST,KST,LST =  2  1  1  1 NREC =         1 INTLOC =    2
 II,JST,KST,LST =  3  1  1  1 NREC =         1 INTLOC =    7
 II,JST,KST,LST =  4  1  1  1 NREC =         1 INTLOC =   22
 II,JST,KST,LST =  5  1  1  1 NREC =         1 INTLOC =   56
 II,JST,KST,LST =  6  1  1  1 NREC =         1 INTLOC =  125
 II,JST,KST,LST =  7  1  1  1 NREC =         1 INTLOC =  329
 II,JST,KST,LST =  8  1  1  1 NREC =         1 INTLOC =  776
 II,JST,KST,LST =  9  1  1  1 NREC =         1 INTLOC = 2864
 II,JST,KST,LST = 10  1  1  1 NREC =         1 INTLOC = 5007
 II,JST,KST,LST = 11  1  1  1 NREC =         1 INTLOC = 7677
 II,JST,KST,LST = 12  1  1  1 NREC =         1 INTLOC =10795
 II,JST,KST,LST = 13  1  1  1 NREC =         2 INTLOC = 6736
 II,JST,KST,LST = 14  1  1  1 NREC =         3 INTLOC = 7011
 II,JST,KST,LST = 15  1  1  1 NREC =         6 INTLOC = 9066
 II,JST,KST,LST = 16  1  1  1 NREC =         7 INTLOC = 4281
 II,JST,KST,LST = 17  1  1  1 NREC =         8 INTLOC = 1745
 II,JST,KST,LST = 18  1  1  1 NREC =         9 INTLOC =  400
 II,JST,KST,LST = 19  1  1  1 NREC =        11 INTLOC =13460
 II,JST,KST,LST = 20  1  1  1 NREC =        15 INTLOC = 6541
 TOTAL NUMBER OF NONZERO TWO-ELECTRON INTEGRALS =              356163
         24 INTEGRAL RECORDS WERE STORED ON DISK FILE  8.
  ...... END OF TWO-ELECTRON INTEGRALS .....
 STEP CPU TIME =     0.11 TOTAL CPU TIME =          0.2 (      0.0 MIN)
 TOTAL WALL CLOCK TIME=          0.2 SECONDS, CPU UTILIZATION IS    94.12%

          --------------------------
               R-PBE SCF CALCULATION
          --------------------------

     NUCLEAR ENERGY =       121.8747856333
     MAXIT =   30     NPUNCH=    2
     EXTRAP=T  DAMP=F  SHIFT=F  RSTRCT=F  DIIS=T  DEM=F  SOSCF=F
         DENSITY MATRIX CONVERGENCE THRESHOLD=  1.00E-05
     COARSE -> FINE DFT GRID SWITCH THRESHOLD=  3.00E-04 (SWITCH IN $DFT)
                   HF -> DFT SWITCH THRESHOLD=  5.00E-03 (SWOFF IN $DFT)
     MEMORY REQUIRED FOR RHF ITERS=    183108 WORDS.

 DFT CODE IS SWITCHING FROM THE FINE GRID NRAD= 96,  NLEB=  302
                      TO THE COARSE GRID NRAD0= 24, NLEB0=  110

     EXCHANGE FUNCTIONAL   =PBE       
     CORRELATION FUNCTIONAL=PBE       
     DFT THRESHOLD         =.460E-07
     GRID CHANGE THRESHOLD =.300E-03
 FOR AN EULER-MACLAURIN QUADRATURE USING  96 RADIAL POINTS:
 SMALLEST GAUSSIAN PRIMITIVE EXPONENT=        0.1001940000 OF TYPE -P-
 ON ATOM NUMBER   1 HAS RADIAL NORMALIZATION=  1.000000
  LARGEST GAUSSIAN PRIMITIVE EXPONENT=    49299.4000000000 OF TYPE -S-
 ON ATOM NUMBER   1 HAS RADIAL NORMALIZATION=  1.000000
 DFT IS SWITCHED OFF, PERFORMING PURE SCF UNTIL SWOFF THRESHOLD IS REACHED.

 ITER EX DEM     TOTAL ENERGY        E CHANGE  DENSITY CHANGE    DIIS ERROR
   1  0  0     -545.8626724579  -545.8626724579   0.581239827   0.868344671
          * * *   INITIATING DIIS PROCEDURE   * * *
   2  1  0     -546.8591392819    -0.9964668239   0.317523730   0.201426789
   3  2  0     -546.9373217431    -0.0781824613   0.109951168   0.100815722
   4  3  0     -546.9751431336    -0.0378213905   0.011455280   0.011358659
   5  4  0     -546.9760642987    -0.0009211651   0.007460788   0.005756755
   6  5  0     -546.9761945005    -0.0001302017   0.002271873   0.001623078
 CONVERGED TO SWOFF, SO DFT CALCULATION IS NOW SWITCHED ON.
          * * *   INITIATING DIIS PROCEDURE   * * *
   7  6  0     -548.0327759139    -1.0565814134   0.242138842   0.080544542
   8  7  0     -548.0434292238    -0.0106533100   0.187539636   0.066956638
   9  8  0     -548.0427398571     0.0006893667   0.069918901   0.063790920
  10  9  0     -548.0590430694    -0.0163032123   0.015957429   0.005871837
  11 10  0     -548.0592464563    -0.0002033869   0.000837785   0.000765566
  12 11  0     -548.0592477357    -0.0000012793   0.000237689   0.000172035
 DFT CODE IS SWITCHING BACK TO THE FINE GRID
          * * *   INITIATING DIIS PROCEDURE   * * *
  13 12  0     -548.0743811224    -0.0151333867   0.017509269   0.011543194
  14 13  0     -548.0746520640    -0.0002709416   0.007912863   0.003218231
  15 14  0     -548.0746162182     0.0000358458   0.005021146   0.004354983
  16 15  0     -548.0746796549    -0.0000634367   0.000361497   0.000513928
  17 16  0     -548.0746801438    -0.0000004889   0.000119538   0.000039048
  18 17  0     -548.0746801474    -0.0000000035   0.000050966   0.000052137
  19 18  0     -548.0746801534    -0.0000000060   0.000015031   0.000015956
  20 19  0     -548.0746801541    -0.0000000007   0.000001877   0.000000821
  21 20  0     -548.0746801541     0.0000000000   0.000000060   0.000000034

          -----------------
          DENSITY CONVERGED
          -----------------
     TIME TO FORM FOCK OPERATORS=       2.6 SECONDS (       0.1 SEC/ITER)
     TIME TO SOLVE SCF EQUATIONS=       0.0 SECONDS (       0.0 SEC/ITER)

 FINAL R-PBE ENERGY IS     -548.0746801541 AFTER  21 ITERATIONS
 DFT EXCHANGE + CORRELATION ENERGY =       -42.8386265535
 TOTAL ELECTRON NUMBER             =        31.9999852164

          ------------
          EIGENVECTORS
          ------------

                      1          2          3          4          5
                  -88.1963   -18.7507   -18.7507    -7.8307    -5.8549
                     A          A          A          A          A   
    1  S  1  S    0.997736  -0.000004  -0.000076  -0.308271  -0.000000
    2  S  1  S    0.008438   0.000032   0.000662   1.030982   0.000000
    3  S  1  S   -0.003958  -0.000011  -0.000219   0.029339  -0.000000
    4  S  1  S    0.000433   0.000383   0.007933  -0.005691  -0.000000
    5  S  1  X   -0.000000  -0.000229   0.000011  -0.000000   0.993756
    6  S  1  Y    0.000225   0.000005   0.000114   0.010779  -0.000001
    7  S  1  Z    0.000000   0.000000   0.000000   0.000000   0.000000
    8  S  1  X    0.000000  -0.000042   0.000002   0.000000   0.019445
    9  S  1  Y   -0.001095   0.000020   0.000409   0.001897  -0.000000
   10  S  1  Z    0.000000   0.000000   0.000000   0.000000   0.000000
   11  S  1  X    0.000000  -0.002518   0.000121   0.000000  -0.002686
   12  S  1  Y   -0.000009   0.000172   0.003555  -0.000235  -0.000000
   13  S  1  Z    0.000000   0.000000   0.000000   0.000000   0.000000
   14  S  1 XX   -0.000232  -0.000002  -0.000050   0.000413  -0.000000
   15  S  1 YY   -0.000123  -0.000024  -0.000489   0.000052  -0.000000
   16  S  1 ZZ    0.000355   0.000026   0.000538  -0.000465   0.000000
   17  S  1 XY    0.000000   0.001761  -0.000085   0.000000   0.002178
   18  S  1 XZ    0.000000   0.000000   0.000000   0.000000   0.000000
   19  S  1 YZ    0.000000   0.000000   0.000000   0.000000   0.000000
   20  O  2  S   -0.000030  -0.667553   0.735228  -0.000573  -0.001113
   21  O  2  S   -0.000067  -0.023486   0.025480   0.000038   0.001181
   22  O  2  S    0.000968   0.010451  -0.012764  -0.000556  -0.002226
   23  O  2  X   -0.000193   0.001162  -0.001123  -0.000502  -0.001432
   24  O  2  Y   -0.000154   0.001187  -0.000977  -0.000510  -0.001508
   25  O  2  Z    0.000000   0.000000   0.000000   0.000000   0.000000
   26  O  2  X   -0.000553  -0.002124   0.001573   0.000805   0.001164
   27  O  2  Y   -0.000557  -0.001204   0.001551   0.000841   0.001399
   28  O  2  Z    0.000000   0.000000   0.000000   0.000000   0.000000
   29  O  2 XX    0.000113   0.000426   0.000392   0.000339   0.000262
   30  O  2 YY    0.000050  -0.000209  -0.000180   0.000248   0.000526
   31  O  2 ZZ   -0.000163  -0.000218  -0.000213  -0.000587  -0.000788
   32  O  2 XY    0.000284  -0.000286  -0.000061   0.001040   0.001334
   33  O  2 XZ    0.000000   0.000000   0.000000   0.000000   0.000000
   34  O  2 YZ    0.000000   0.000000   0.000000   0.000000   0.000000
   35  O  3  S   -0.000030   0.735241   0.667539  -0.000573   0.001113
   36  O  3  S   -0.000067   0.025830   0.023100   0.000038  -0.001181
   37  O  3  S    0.000968  -0.011631  -0.011699  -0.000556   0.002226
   38  O  3  X    0.000193   0.001265   0.001006   0.000502  -0.001432
   39  O  3  Y   -0.000154  -0.001276  -0.000858  -0.000510   0.001508
   40  O  3  Z    0.000000   0.000000   0.000000   0.000000   0.000000
   41  O  3  X    0.000553  -0.002266  -0.001361  -0.000805   0.001164
   42  O  3  Y   -0.000557   0.001347   0.001428   0.000841  -0.001399
   43  O  3  Z    0.000000   0.000000   0.000000   0.000000   0.000000
   44  O  3 XX    0.000113  -0.000386   0.000431   0.000339  -0.000262
   45  O  3 YY    0.000050   0.000190  -0.000199   0.000248  -0.000526
   46  O  3 ZZ   -0.000163   0.000196  -0.000232  -0.000587   0.000788
   47  O  3 XY   -0.000284  -0.000279   0.000089  -0.001040   0.001334
   48  O  3 XZ    0.000000   0.000000   0.000000   0.000000   0.000000
   49  O  3 YZ    0.000000   0.000000   0.000000   0.000000   0.000000

                      6          7          8          9         10
                   -5.8544    -5.8489    -1.1584    -0.9787    -0.5657
                     A          A          A          A          A   
    1  S  1  S    0.000000   0.003635   0.055578   0.000000   0.061821
    2  S  1  S    0.000000  -0.012732  -0.334451  -0.000000  -0.395219
    3  S  1  S    0.000000   0.000961   0.451820  -0.000001   0.605387
    4  S  1  S    0.000000   0.003124   0.057406  -0.000006   0.238198
    5  S  1  X    0.000000   0.000001  -0.000000  -0.165822   0.000000
    6  S  1  Y    0.000000   0.993951  -0.107718   0.000000   0.122805
    7  S  1  Z    0.994607   0.000000   0.000000   0.000000   0.000000
    8  S  1  X    0.000000   0.000000   0.000002   0.360862  -0.000002
    9  S  1  Y    0.000000   0.018477   0.215622  -0.000003  -0.309298
   10  S  1  Z    0.017061   0.000000   0.000000   0.000000   0.000000
   11  S  1  X    0.000000  -0.000000   0.000001  -0.015078  -0.000001
   12  S  1  Y    0.000000  -0.002186  -0.020566  -0.000003  -0.070169
   13  S  1  Z   -0.003173   0.000000   0.000000   0.000000   0.000000
   14  S  1 XX    0.000000  -0.000394   0.022588  -0.000000   0.025350
   15  S  1 YY    0.000000   0.001503   0.025144  -0.000001  -0.053946
   16  S  1 ZZ    0.000000  -0.001109  -0.047732   0.000001   0.028597
   17  S  1 XY    0.000000   0.000000   0.000001   0.121552  -0.000001
   18  S  1 XZ   -0.000000   0.000000   0.000000   0.000000   0.000000
   19  S  1 YZ    0.000976   0.000000   0.000000   0.000000   0.000000
   20  O  2  S    0.000000  -0.001011  -0.133111  -0.161910   0.084630
   21  O  2  S    0.000000   0.001341   0.263303   0.325517  -0.177839
   22  O  2  S    0.000000  -0.002326   0.166001   0.236422  -0.229502
   23  O  2  X    0.000000  -0.001542  -0.115830  -0.075763  -0.007042
   24  O  2  Y    0.000000  -0.001344  -0.088583  -0.110635  -0.178617
   25  O  2  Z    0.000199   0.000000   0.000000   0.000000   0.000000
   26  O  2  X    0.000000   0.001201  -0.010614   0.000641  -0.005321
   27  O  2  Y    0.000000   0.000518  -0.009473  -0.004949  -0.087470
   28  O  2  Z   -0.000500   0.000000   0.000000   0.000000   0.000000
   29  O  2 XX    0.000000   0.000540   0.004859   0.000707  -0.005995
   30  O  2 YY    0.000000   0.000219   0.003185   0.004330   0.010171
   31  O  2 ZZ    0.000000  -0.000759  -0.008044  -0.005037  -0.004177
   32  O  2 XY    0.000000   0.001314   0.016062   0.012183   0.009405
   33  O  2 XZ   -0.000193   0.000000   0.000000   0.000000   0.000000
   34  O  2 YZ   -0.000223   0.000000   0.000000   0.000000   0.000000
   35  O  3  S    0.000000  -0.001011  -0.133111   0.161909   0.084631
   36  O  3  S    0.000000   0.001341   0.263303  -0.325519  -0.177840
   37  O  3  S    0.000000  -0.002326   0.166008  -0.236410  -0.229506
   38  O  3  X    0.000000   0.001542   0.115831  -0.075762   0.007042
   39  O  3  Y    0.000000  -0.001344  -0.088584   0.110635  -0.178618
   40  O  3  Z    0.000199   0.000000   0.000000   0.000000   0.000000
   41  O  3  X    0.000000  -0.001201   0.010617   0.000645   0.005321
   42  O  3  Y    0.000000   0.000518  -0.009475   0.004947  -0.087469
   43  O  3  Z   -0.000500   0.000000   0.000000   0.000000   0.000000
   44  O  3 XX    0.000000   0.000540   0.004860  -0.000706  -0.005995
   45  O  3 YY    0.000000   0.000219   0.003185  -0.004330   0.010171
   46  O  3 ZZ    0.000000  -0.000759  -0.008045   0.005036  -0.004177
   47  O  3 XY    0.000000  -0.001314  -0.016063   0.012182  -0.009405
   48  O  3 XZ    0.000193   0.000000   0.000000   0.000000   0.000000
   49  O  3 YZ   -0.000223   0.000000   0.000000   0.000000   0.000000

                     11         12         13         14         15
                   -0.4998    -0.4596    -0.4236    -0.3241    -0.3131
                     A          A          A          A          A   
    1  S  1  S    0.000000   0.009526   0.000000   0.000000   0.019341
    2  S  1  S    0.000000  -0.061961  -0.000001   0.000000  -0.127698
    3  S  1  S    0.000000   0.140803   0.000001   0.000000   0.156843
    4  S  1  S    0.000000  -0.120196   0.000001   0.000000   0.433139
    5  S  1  X    0.000000  -0.000000  -0.172792   0.000000   0.000000
    6  S  1  Y    0.000000  -0.150611   0.000001   0.000000   0.146235
    7  S  1  Z   -0.214362   0.000000   0.000000  -0.000000   0.000000
    8  S  1  X    0.000000   0.000002   0.464831   0.000000  -0.000001
    9  S  1  Y    0.000000   0.397405  -0.000002   0.000000  -0.391449
   10  S  1  Z    0.558353   0.000000   0.000000   0.000001   0.000000
   11  S  1  X    0.000000   0.000001  -0.003823   0.000000   0.000001
   12  S  1  Y    0.000000  -0.004787  -0.000000   0.000000  -0.069397
   13  S  1  Z    0.083119   0.000000   0.000000   0.000000   0.000000
   14  S  1 XX    0.000000  -0.078920  -0.000000   0.000000  -0.150792
   15  S  1 YY    0.000000   0.091611  -0.000000   0.000000   0.092913
   16  S  1 ZZ    0.000000  -0.012691   0.000000   0.000000   0.057879
   17  S  1 XY    0.000000   0.000001   0.049286   0.000000  -0.000000
   18  S  1 XZ   -0.000000   0.000000   0.000000   0.152089   0.000000
   19  S  1 YZ    0.082788   0.000000   0.000000  -0.000000   0.000000
   20  O  2  S    0.000000   0.073665   0.079571   0.000000   0.003927
   21  O  2  S    0.000000  -0.155760  -0.165003   0.000000  -0.014748
   22  O  2  S    0.000000  -0.260013  -0.318048   0.000000  -0.011531
   23  O  2  X    0.000000  -0.363314  -0.179519   0.000000  -0.053176
   24  O  2  Y    0.000000   0.010404  -0.332454   0.000000   0.391778
   25  O  2  Z    0.312620   0.000000   0.000000   0.468696   0.000000
   26  O  2  X    0.000000  -0.179614  -0.072020   0.000000  -0.067626
   27  O  2  Y    0.000000   0.026633  -0.154610   0.000000   0.264411
   28  O  2  Z    0.164469   0.000000   0.000000   0.329244   0.000000
   29  O  2 XX    0.000000   0.020263  -0.003124   0.000000   0.008217
   30  O  2 YY    0.000000  -0.011848   0.013611   0.000000  -0.013934
   31  O  2 ZZ    0.000000  -0.008415  -0.010487   0.000000   0.005717
   32  O  2 XY    0.000000   0.009579   0.013464   0.000000  -0.014259
   33  O  2 XZ   -0.019870   0.000000   0.000000  -0.017261   0.000000
   34  O  2 YZ   -0.017017   0.000000   0.000000  -0.020619   0.000000
   35  O  3  S    0.000000   0.073664  -0.079571   0.000000   0.003927
   36  O  3  S    0.000000  -0.155761   0.165002   0.000000  -0.014748
   37  O  3  S    0.000000  -0.260009   0.318048   0.000000  -0.011531
   38  O  3  X    0.000000   0.363316  -0.179519   0.000000   0.053179
   39  O  3  Y    0.000000   0.010405   0.332455   0.000000   0.391778
   40  O  3  Z    0.312621   0.000000   0.000000  -0.468696   0.000000
   41  O  3  X    0.000000   0.179617  -0.072020   0.000000   0.067628
   42  O  3  Y    0.000000   0.026632   0.154610   0.000000   0.264411
   43  O  3  Z    0.164469   0.000000   0.000000  -0.329244   0.000000
   44  O  3 XX    0.000000   0.020263   0.003124   0.000000   0.008217
   45  O  3 YY    0.000000  -0.011848  -0.013611   0.000000  -0.013934
   46  O  3 ZZ    0.000000  -0.008416   0.010487   0.000000   0.005717
   47  O  3 XY    0.000000  -0.009579   0.013464   0.000000   0.014258
   48  O  3 XZ    0.019870   0.000000   0.000000  -0.017261   0.000000
   49  O  3 YZ   -0.017017   0.000000   0.000000   0.020619   0.000000

                     16         17         18         19         20
                   -0.2529    -0.1307     0.0193     0.0820     0.1949
                     A          A          A          A          A   
    1  S  1  S   -0.000000   0.000000  -0.000000   0.016592   0.000000
    2  S  1  S    0.000000   0.000000   0.000001  -0.113160   0.000000
    3  S  1  S   -0.000001   0.000000  -0.000001   0.050616   0.000000
    4  S  1  S    0.000013   0.000000  -0.000016   1.178049   0.000000
    5  S  1  X   -0.010422   0.000000  -0.135174  -0.000003   0.000000
    6  S  1  Y   -0.000001   0.000000   0.000001  -0.047422   0.000000
    7  S  1  Z    0.000000  -0.221873   0.000000   0.000000   0.254633
    8  S  1  X    0.030951   0.000000   0.415796   0.000010   0.000000
    9  S  1  Y    0.000005   0.000000  -0.000006   0.178951   0.000000
   10  S  1  Z    0.000000   0.680644   0.000000   0.000000  -0.988837
   11  S  1  X    0.173690   0.000000   1.005339   0.000005   0.000000
   12  S  1  Y    0.000007   0.000000  -0.000013   1.322546   0.000000
   13  S  1  Z    0.000000   0.457758   0.000000   0.000000   1.266320
   14  S  1 XX    0.000001   0.000000   0.000001  -0.083774   0.000000
   15  S  1 YY    0.000000   0.000000   0.000001  -0.177341   0.000000
   16  S  1 ZZ   -0.000002   0.000000  -0.000001   0.261116   0.000000
   17  S  1 XY   -0.142895   0.000000  -0.254839  -0.000002   0.000000
   18  S  1 XZ    0.000000  -0.000000   0.000000   0.000000   0.000000
   19  S  1 YZ    0.000000  -0.144291   0.000000   0.000000  -0.065372
   20  O  2  S    0.017981   0.000000   0.042657   0.063316   0.000000
   21  O  2  S   -0.043556   0.000000  -0.072428  -0.088526   0.000000
   22  O  2  S   -0.073501   0.000000  -0.408744  -0.813920   0.000000
   23  O  2  X    0.455010   0.000000  -0.096117   0.105764   0.000000
   24  O  2  Y   -0.183542   0.000000   0.272332   0.035637   0.000000
   25  O  2  Z    0.000000  -0.344803   0.000000   0.000000   0.024702
   26  O  2  X    0.291491   0.000000  -0.173451   0.219767   0.000000
   27  O  2  Y   -0.157794   0.000000   0.257611  -0.012511   0.000000
   28  O  2  Z    0.000000  -0.351432   0.000000   0.000000  -0.065573
   29  O  2 XX   -0.022321   0.000000   0.004224  -0.010672   0.000000
   30  O  2 YY    0.021854   0.000000  -0.000870  -0.004893   0.000000
   31  O  2 ZZ    0.000467   0.000000  -0.003353   0.015566   0.000000
   32  O  2 XY   -0.010828   0.000000   0.001944   0.001914   0.000000
   33  O  2 XZ    0.000000   0.005833   0.000000   0.000000   0.021256
   34  O  2 YZ    0.000000  -0.001493   0.000000   0.000000   0.015904
   35  O  3  S   -0.017980   0.000000  -0.042658   0.063316   0.000000
   36  O  3  S    0.043558   0.000000   0.072428  -0.088527   0.000000
   37  O  3  S    0.073481   0.000000   0.408767  -0.813909   0.000000
   38  O  3  X    0.455007   0.000000  -0.096115  -0.105770   0.000000
   39  O  3  Y    0.183540   0.000000  -0.272333   0.035630   0.000000
   40  O  3  Z    0.000000  -0.344802   0.000000   0.000000   0.024702
   41  O  3  X    0.291484   0.000000  -0.173444  -0.219765   0.000000
   42  O  3  Y    0.157796   0.000000  -0.257613  -0.012520   0.000000
   43  O  3  Z    0.000000  -0.351432   0.000000   0.000000  -0.065573
   44  O  3 XX    0.022321   0.000000  -0.004223  -0.010671   0.000000
   45  O  3 YY   -0.021854   0.000000   0.000870  -0.004894   0.000000
   46  O  3 ZZ   -0.000467   0.000000   0.003353   0.015565   0.000000
   47  O  3 XY   -0.010827   0.000000   0.001943  -0.001914   0.000000
   48  O  3 XZ    0.000000  -0.005833   0.000000   0.000000  -0.021256
   49  O  3 YZ    0.000000  -0.001493   0.000000   0.000000   0.015904

                     21         22         23         24         25
                    0.2341     0.3163     0.4003     0.5965     0.6010
                     A          A          A          A          A   
    1  S  1  S   -0.048512  -0.000000  -0.045383   0.000000   0.000000
    2  S  1  S    0.353425   0.000002   0.329844   0.000000   0.000000
    3  S  1  S   -1.314948  -0.000010  -1.134342   0.000000   0.000000
    4  S  1  S    1.911131   0.000005   1.394713   0.000000   0.000000
    5  S  1  X   -0.000002   0.254965  -0.000001   0.000000   0.000000
    6  S  1  Y   -0.208503  -0.000000   0.159739   0.000000   0.000000
    7  S  1  Z    0.000000   0.000000   0.000000  -0.000000  -0.002770
    8  S  1  X    0.000008  -0.940719   0.000009   0.000000   0.000000
    9  S  1  Y    0.872591   0.000000  -0.561457   0.000000   0.000000
   10  S  1  Z    0.000000   0.000000   0.000000   0.000000  -0.017012
   11  S  1  X   -0.000005   1.236010   0.000001   0.000000   0.000000
   12  S  1  Y   -0.442760  -0.000000   0.832939   0.000000   0.000000
   13  S  1  Z    0.000000   0.000000   0.000000  -0.000002   0.219848
   14  S  1 XX   -0.076255  -0.000001   0.396999   0.000000   0.000000
   15  S  1 YY   -0.050229  -0.000003   0.181570   0.000000   0.000000
   16  S  1 ZZ    0.126484   0.000004  -0.578568   0.000000   0.000000
   17  S  1 XY   -0.000001   0.444018   0.000005   0.000000   0.000000
   18  S  1 XZ    0.000000   0.000000   0.000000   0.987107   0.000009
   19  S  1 YZ    0.000000   0.000000   0.000000  -0.000009   0.954405
   20  O  2  S    0.025083   0.000396   0.002102   0.000000   0.000000
   21  O  2  S   -0.046670   0.060158   0.044784   0.000000   0.000000
   22  O  2  S   -0.410667  -0.400580  -0.505559   0.000000   0.000000
   23  O  2  X   -0.000418  -0.163350  -0.233544   0.000000   0.000000
   24  O  2  Y   -0.038984  -0.168773  -0.208429   0.000000   0.000000
   25  O  2  Z    0.000000   0.000000   0.000000  -0.297809  -0.339388
   26  O  2  X    0.149351  -0.018431  -0.009276   0.000000   0.000000
   27  O  2  Y    0.112995   0.001589   0.059677   0.000000   0.000000
   28  O  2  Z    0.000000   0.000000   0.000000  -0.088191  -0.048948
   29  O  2 XX    0.003275   0.007969  -0.029288   0.000000   0.000000
   30  O  2 YY   -0.019241  -0.030464   0.019227   0.000000   0.000000
   31  O  2 ZZ    0.015966   0.022496   0.010061   0.000000   0.000000
   32  O  2 XY   -0.013494  -0.029090  -0.049213   0.000000   0.000000
   33  O  2 XZ    0.000000   0.000000   0.000000  -0.005228  -0.053525
   34  O  2 YZ    0.000000   0.000000   0.000000  -0.051449   0.004880
   35  O  3  S    0.025083  -0.000395   0.002102   0.000000   0.000000
   36  O  3  S   -0.046671  -0.060161   0.044781   0.000000   0.000000
   37  O  3  S   -0.410664   0.400584  -0.505540   0.000000   0.000000
   38  O  3  X    0.000417  -0.163351   0.233542   0.000000   0.000000
   39  O  3  Y   -0.038987   0.168774  -0.208428   0.000000   0.000000
   40  O  3  Z    0.000000   0.000000   0.000000   0.297816  -0.339382
   41  O  3  X   -0.149346  -0.018428   0.009291   0.000000   0.000000
   42  O  3  Y    0.112991  -0.001594   0.059665   0.000000   0.000000
   43  O  3  Z    0.000000   0.000000   0.000000   0.088190  -0.048947
   44  O  3 XX    0.003276  -0.007968  -0.029286   0.000000   0.000000
   45  O  3 YY   -0.019242   0.030464   0.019226   0.000000   0.000000
   46  O  3 ZZ    0.015966  -0.022496   0.010060   0.000000   0.000000
   47  O  3 XY    0.013494  -0.029091   0.049213   0.000000   0.000000
   48  O  3 XZ    0.000000   0.000000   0.000000  -0.005229   0.053526
   49  O  3 YZ    0.000000   0.000000   0.000000   0.051449   0.004881

                     26         27         28         29         30
                    0.6176     0.6548     0.6973     0.7714     0.7933
                     A          A          A          A          A   
    1  S  1  S    0.033188  -0.000000   0.019478   0.000893   0.000000
    2  S  1  S   -0.263553   0.000002  -0.153747  -0.004977   0.000000
    3  S  1  S    1.355928  -0.000013   0.792837  -0.052132   0.000000
    4  S  1  S    0.687335  -0.000018   0.082722   0.121430   0.000000
    5  S  1  X   -0.000003  -0.197121   0.000000   0.000001   0.000000
    6  S  1  Y   -0.158006   0.000002  -0.083616  -0.010919   0.000000
    7  S  1  Z    0.000000   0.000000   0.000000   0.000000   0.000000
    8  S  1  X    0.000020   1.229573  -0.000001  -0.000003   0.000000
    9  S  1  Y    0.939277  -0.000011   0.466163   0.101460   0.000000
   10  S  1  Z    0.000000   0.000000   0.000000   0.000000  -0.000001
   11  S  1  X    0.000001  -0.104893  -0.000000   0.000002   0.000000
   12  S  1  Y    0.088316  -0.000005  -0.500328   0.332374   0.000000
   13  S  1  Z    0.000000   0.000000   0.000000   0.000000  -0.000008
   14  S  1 XX   -0.125599   0.000004   0.860233   0.145539   0.000000
   15  S  1 YY    0.523442  -0.000011  -0.823639  -0.007488   0.000000
   16  S  1 ZZ   -0.397843   0.000007  -0.036594  -0.138051   0.000000
   17  S  1 XY    0.000009   0.412967  -0.000000  -0.000000   0.000000
   18  S  1 XZ    0.000000   0.000000   0.000000   0.000000   0.302769
   19  S  1 YZ    0.000000   0.000000   0.000000   0.000000  -0.000004
   20  O  2  S    0.055404   0.067038   0.023648   0.002714   0.000000
   21  O  2  S   -0.098257  -0.125493  -0.054027  -0.036628   0.000000
   22  O  2  S   -0.716610  -0.797555  -0.181416  -0.070062   0.000000
   23  O  2  X   -0.093349  -0.162899  -0.082951  -0.426620   0.000000
   24  O  2  Y   -0.175187  -0.220782   0.024927   0.525119   0.000000
   25  O  2  Z    0.000000   0.000000   0.000000   0.000000   0.586848
   26  O  2  X    0.875685   1.026880   0.109309   0.435821   0.000000
   27  O  2  Y    0.652863   0.923996   0.686781  -0.522845   0.000000
   28  O  2  Z    0.000000   0.000000   0.000000   0.000000  -0.884069
   29  O  2 XX    0.039850  -0.010613  -0.040464  -0.002687   0.000000
   30  O  2 YY   -0.021281   0.010079   0.058572   0.001207   0.000000
   31  O  2 ZZ   -0.018570   0.000535  -0.018108   0.001480   0.000000
   32  O  2 XY    0.010429  -0.004474   0.016839   0.005528   0.000000
   33  O  2 XZ    0.000000   0.000000   0.000000   0.000000  -0.046093
   34  O  2 YZ    0.000000   0.000000   0.000000   0.000000  -0.023365
   35  O  3  S    0.055402  -0.067040   0.023648   0.002714   0.000000
   36  O  3  S   -0.098255   0.125501  -0.054029  -0.036631   0.000000
   37  O  3  S   -0.716578   0.797574  -0.181417  -0.070063   0.000000
   38  O  3  X    0.093339  -0.162904   0.082950   0.426623   0.000000
   39  O  3  Y   -0.175182   0.220797   0.024925   0.525117   0.000000
   40  O  3  Z    0.000000   0.000000   0.000000   0.000000  -0.586861
   41  O  3  X   -0.875644   1.026905  -0.109310  -0.435830   0.000000
   42  O  3  Y    0.652834  -0.924019   0.686786  -0.522841   0.000000
   43  O  3  Z    0.000000   0.000000   0.000000   0.000000   0.884090
   44  O  3 XX    0.039852   0.010613  -0.040464  -0.002687   0.000000
   45  O  3 YY   -0.021282  -0.010079   0.058572   0.001207   0.000000
   46  O  3 ZZ   -0.018570  -0.000535  -0.018108   0.001480   0.000000
   47  O  3 XY   -0.010430  -0.004474  -0.016840  -0.005528   0.000000
   48  O  3 XZ    0.000000   0.000000   0.000000   0.000000  -0.046093
   49  O  3 YZ    0.000000   0.000000   0.000000   0.000000   0.023365

                     31         32         33         34         35
                    0.8135     0.9367     1.0910     1.3682     1.4111
                     A          A          A          A          A   
    1  S  1  S    0.000000   0.000000  -0.025750  -0.000000  -0.004778
    2  S  1  S    0.000000  -0.000000   0.180872   0.000001   0.046704
    3  S  1  S    0.000000  -0.000001  -0.031984  -0.000003  -0.181572
    4  S  1  S    0.000000   0.000005  -0.321433  -0.000023  -2.146740
    5  S  1  X    0.000000  -0.012112  -0.000000   0.193969  -0.000003
    6  S  1  Y    0.000000  -0.000001   0.159074   0.000001   0.099573
    7  S  1  Z    0.005629   0.000000   0.000000   0.000000   0.000000
    8  S  1  X    0.000000   0.036588   0.000001  -1.018854   0.000013
    9  S  1  Y    0.000000   0.000002  -0.532406  -0.000007  -0.713539
   10  S  1  Z   -0.115678   0.000000   0.000000   0.000000   0.000000
   11  S  1  X    0.000000  -0.754736  -0.000004  -0.512524  -0.000000
   12  S  1  Y    0.000000   0.000003  -0.074996  -0.000009  -0.875441
   13  S  1  Z   -0.689089   0.000000   0.000000   0.000000   0.000000
   14  S  1 XX    0.000000   0.000002  -0.490286  -0.000002  -0.146060
   15  S  1 YY    0.000000   0.000002  -0.302504  -0.000001  -0.205435
   16  S  1 ZZ    0.000000  -0.000004   0.792790   0.000003   0.351495
   17  S  1 XY    0.000000  -0.015137   0.000000  -0.991401   0.000016
   18  S  1 XZ   -0.000003   0.000000   0.000000   0.000000   0.000000
   19  S  1 YZ   -0.394787   0.000000   0.000000   0.000000   0.000000
   20  O  2  S    0.000000   0.012640  -0.060900   0.010962   0.064692
   21  O  2  S    0.000000  -0.063342   0.438978  -0.560550  -1.185026
   22  O  2  S    0.000000   0.118963   0.111624   1.711829   2.440246
   23  O  2  X    0.000000  -0.447437  -0.531073  -0.366603  -0.161534
   24  O  2  Y    0.000000   0.423264  -0.352797  -0.411234  -0.125917
   25  O  2  Z   -0.571913   0.000000   0.000000   0.000000   0.000000
   26  O  2  X    0.000000   0.950452   0.229807  -0.316339  -0.327822
   27  O  2  Y    0.000000  -0.707324   0.178031  -0.209852  -0.267946
   28  O  2  Z    0.959988   0.000000   0.000000   0.000000   0.000000
   29  O  2 XX    0.000000   0.059704  -0.083407  -0.050338   0.049200
   30  O  2 YY    0.000000  -0.033448   0.015347  -0.026897  -0.029091
   31  O  2 ZZ    0.000000  -0.026256   0.068060   0.077235  -0.020109
   32  O  2 XY    0.000000  -0.027656   0.032598  -0.105201  -0.154879
   33  O  2 XZ    0.020008   0.000000   0.000000   0.000000   0.000000
   34  O  2 YZ    0.034334   0.000000   0.000000   0.000000   0.000000
   35  O  3  S    0.000000  -0.012640  -0.060900  -0.010960   0.064690
   36  O  3  S    0.000000   0.063348   0.438983   0.560520  -1.185017
   37  O  3  S    0.000000  -0.118976   0.111619  -1.711773   2.440263
   38  O  3  X    0.000000  -0.447442   0.531070  -0.366598   0.161546
   39  O  3  Y    0.000000  -0.423258  -0.352800   0.411231  -0.125932
   40  O  3  Z   -0.571899   0.000000   0.000000   0.000000   0.000000
   41  O  3  X    0.000000   0.950455  -0.229800  -0.316333   0.327831
   42  O  3  Y    0.000000   0.707319   0.178036   0.209845  -0.267944
   43  O  3  Z    0.959969   0.000000   0.000000   0.000000   0.000000
   44  O  3 XX    0.000000  -0.059704  -0.083409   0.050336   0.049195
   45  O  3 YY    0.000000   0.033448   0.015348   0.026898  -0.029090
   46  O  3 ZZ    0.000000   0.026256   0.068061  -0.077234  -0.020106
   47  O  3 XY    0.000000  -0.027655  -0.032598  -0.105197   0.154883
   48  O  3 XZ   -0.020007   0.000000   0.000000   0.000000   0.000000
   49  O  3 YZ    0.034334   0.000000   0.000000   0.000000   0.000000

                     36         37         38         39         40
                    1.4882     2.0391     2.0694     2.0883     2.1175
                     A          A          A          A          A   
    1  S  1  S   -0.000000   0.000000   0.003360  -0.000000   0.000000
    2  S  1  S    0.000000   0.000000  -0.024474   0.000000   0.000000
    3  S  1  S   -0.000000   0.000000   0.010449   0.000001   0.000000
    4  S  1  S   -0.000016   0.000000  -0.405804   0.000001   0.000000
    5  S  1  X    0.066534   0.000000   0.000000   0.026547   0.000000
    6  S  1  Y    0.000001   0.000000  -0.013661   0.000000   0.000000
    7  S  1  Z    0.000000  -0.013128   0.000000   0.000000   0.000000
    8  S  1  X    0.010022   0.000000  -0.000002  -0.116077   0.000000
    9  S  1  Y   -0.000005   0.000000   0.001743  -0.000000   0.000000
   10  S  1  Z    0.000000   0.065122   0.000000   0.000000  -0.000000
   11  S  1  X    0.294034   0.000000   0.000001  -0.002265   0.000000
   12  S  1  Y   -0.000007   0.000000  -0.207544   0.000000   0.000000
   13  S  1  Z    0.000000   0.031437   0.000000   0.000000  -0.000000
   14  S  1 XX   -0.000002   0.000000   0.022920   0.000000   0.000000
   15  S  1 YY   -0.000001   0.000000   0.177593  -0.000002   0.000000
   16  S  1 ZZ    0.000003   0.000000  -0.200512   0.000001   0.000000
   17  S  1 XY   -0.656907   0.000000   0.000001   0.186690   0.000000
   18  S  1 XZ    0.000000  -0.000000   0.000000   0.000000  -0.020227
   19  S  1 YZ    0.000000  -0.085323   0.000000   0.000000   0.000000
   20  O  2  S   -0.082658   0.000000   0.018745   0.005440   0.000000
   21  O  2  S    1.144132   0.000000  -0.313412  -0.101265   0.000000
   22  O  2  S   -1.218437   0.000000   0.469123   0.083901   0.000000
   23  O  2  X   -0.262089   0.000000   0.072634   0.014999   0.000000
   24  O  2  Y   -0.285960   0.000000   0.020508   0.045141   0.000000
   25  O  2  Z    0.000000   0.048843   0.000000   0.000000   0.054406
   26  O  2  X    0.381212   0.000000  -0.109789  -0.000162   0.000000
   27  O  2  Y    0.305335   0.000000  -0.058156  -0.047313   0.000000
   28  O  2  Z    0.000000  -0.068786   0.000000   0.000000  -0.083977
   29  O  2 XX    0.158102   0.000000  -0.394777  -0.144668   0.000000
   30  O  2 YY   -0.010671   0.000000  -0.221488   0.615091   0.000000
   31  O  2 ZZ   -0.147432   0.000000   0.616265  -0.470423   0.000000
   32  O  2 XY   -0.027119   0.000000   0.314703  -0.309868   0.000000
   33  O  2 XZ    0.000000  -0.403364   0.000000   0.000000   0.585739
   34  O  2 YZ    0.000000   0.579765   0.000000   0.000000  -0.404711
   35  O  3  S    0.082659   0.000000   0.018744  -0.005440   0.000000
   36  O  3  S   -1.144148   0.000000  -0.313409   0.101268   0.000000
   37  O  3  S    1.218472   0.000000   0.469120  -0.083904   0.000000
   38  O  3  X   -0.262086   0.000000  -0.072633   0.015000   0.000000
   39  O  3  Y    0.285958   0.000000   0.020508  -0.045141   0.000000
   40  O  3  Z    0.000000   0.048842   0.000000   0.000000  -0.054406
   41  O  3  X    0.381217   0.000000   0.109787  -0.000163   0.000000
   42  O  3  Y   -0.305339   0.000000  -0.058155   0.047314   0.000000
   43  O  3  Z    0.000000  -0.068785   0.000000   0.000000   0.083978
   44  O  3 XX   -0.158103   0.000000  -0.394778   0.144673   0.000000
   45  O  3 YY    0.010671   0.000000  -0.221494  -0.615090   0.000000
   46  O  3 ZZ    0.147432   0.000000   0.616272   0.470417   0.000000
   47  O  3 XY   -0.027117   0.000000  -0.314704  -0.309864   0.000000
   48  O  3 XZ    0.000000   0.403368   0.000000   0.000000   0.585736
   49  O  3 YZ    0.000000   0.579768   0.000000   0.000000   0.404707

                     41         42         43         44         45
                    2.3394     2.4456     2.4857     2.5736     2.9161
                     A          A          A          A          A   
    1  S  1  S    0.000000   0.000000  -0.000000  -0.003308   0.000000
    2  S  1  S    0.000000   0.000000   0.000002   0.040219  -0.000000
    3  S  1  S    0.000000   0.000000  -0.000013  -0.310635   0.000001
    4  S  1  S    0.000000   0.000000   0.000005  -0.175602  -0.000007
    5  S  1  X    0.000000   0.000000  -0.062504   0.000002  -0.240243
    6  S  1  Y    0.000000   0.000000   0.000000  -0.066818  -0.000000
    7  S  1  Z   -0.000000  -0.104565   0.000000   0.000000   0.000000
    8  S  1  X    0.000000   0.000000   0.158408  -0.000013   1.958856
    9  S  1  Y    0.000000   0.000000  -0.000005   0.182340   0.000002
   10  S  1  Z    0.000001   0.490191   0.000000   0.000000   0.000000
   11  S  1  X    0.000000   0.000000   0.059521   0.000000   0.108859
   12  S  1  Y    0.000000   0.000000   0.000004   0.023620  -0.000003
   13  S  1  Z    0.000000   0.071913   0.000000   0.000000   0.000000
   14  S  1 XX    0.000000   0.000000  -0.000002  -0.696814  -0.000006
   15  S  1 YY    0.000000   0.000000   0.000002   0.664754   0.000005
   16  S  1 ZZ    0.000000   0.000000   0.000001   0.032060   0.000001
   17  S  1 XY    0.000000   0.000000   0.137825  -0.000006   0.988060
   18  S  1 XZ   -0.563129   0.000001   0.000000   0.000000   0.000000
   19  S  1 YZ    0.000001   0.540863   0.000000   0.000000   0.000000
   20  O  2  S    0.000000   0.000000   0.020949   0.010184   0.018726
   21  O  2  S    0.000000   0.000000  -0.418346  -0.209746   0.465800
   22  O  2  S    0.000000   0.000000   0.495028   0.334457  -1.943030
   23  O  2  X    0.000000   0.000000   0.192387   0.073242   0.183012
   24  O  2  Y    0.000000   0.000000  -0.002612  -0.005391   0.203200
   25  O  2  Z   -0.039511   0.009811   0.000000   0.000000   0.000000
   26  O  2  X    0.000000   0.000000  -0.488123   0.005030   0.896595
   27  O  2  Y    0.000000   0.000000   0.104876  -0.310506   0.741607
   28  O  2  Z    0.230505  -0.251362   0.000000   0.000000   0.000000
   29  O  2 XX    0.000000   0.000000   0.694755  -0.608057  -0.271466
   30  O  2 YY    0.000000   0.000000  -0.348546   0.778902  -0.230823
   31  O  2 ZZ    0.000000   0.000000  -0.346209  -0.170844   0.502289
   32  O  2 XY    0.000000   0.000000  -0.252924   0.096380  -0.791247
   33  O  2 XZ   -0.447262   0.648656   0.000000   0.000000   0.000000
   34  O  2 YZ   -0.631196   0.457036   0.000000   0.000000   0.000000
   35  O  3  S    0.000000   0.000000  -0.020949   0.010184  -0.018726
   36  O  3  S    0.000000   0.000000   0.418347  -0.209743  -0.465807
   37  O  3  S    0.000000   0.000000  -0.495027   0.334438   1.943042
   38  O  3  X    0.000000   0.000000   0.192388  -0.073245   0.183010
   39  O  3  Y    0.000000   0.000000   0.002611  -0.005389  -0.203201
   40  O  3  Z    0.039511   0.009811   0.000000   0.000000   0.000000
   41  O  3  X    0.000000   0.000000  -0.488119  -0.005039   0.896595
   42  O  3  Y    0.000000   0.000000  -0.104883  -0.310497  -0.741611
   43  O  3  Z   -0.230506  -0.251361   0.000000   0.000000   0.000000
   44  O  3 XX    0.000000   0.000000  -0.694754  -0.608057   0.271454
   45  O  3 YY    0.000000   0.000000   0.348552   0.778895   0.230834
   46  O  3 ZZ    0.000000   0.000000   0.346202  -0.170838  -0.502288
   47  O  3 XY    0.000000   0.000000  -0.252934  -0.096367  -0.791246
   48  O  3 XZ   -0.447265  -0.648655   0.000000   0.000000   0.000000
   49  O  3 YZ    0.631197   0.457034   0.000000   0.000000   0.000000

                     46
                    2.9564
                     A   
    1  S  1  S    0.039492
    2  S  1  S   -0.400209
    3  S  1  S    1.969646
    4  S  1  S    0.915623
    5  S  1  X   -0.000000
    6  S  1  Y   -0.176043
    7  S  1  Z    0.000000
    8  S  1  X   -0.000002
    9  S  1  Y    1.510849
   10  S  1  Z    0.000000
   11  S  1  X    0.000002
   12  S  1  Y    0.093129
   13  S  1  Z    0.000000
   14  S  1 XX    0.207635
   15  S  1 YY    0.247415
   16  S  1 ZZ   -0.455051
   17  S  1 XY    0.000000
   18  S  1 XZ    0.000000
   19  S  1 YZ    0.000000
   20  O  2  S    0.014499
   21  O  2  S    0.420893
   22  O  2  S   -1.605621
   23  O  2  X    0.145386
   24  O  2  Y    0.111592
   25  O  2  Z    0.000000
   26  O  2  X    0.689090
   27  O  2  Y    0.613886
   28  O  2  Z    0.000000
   29  O  2 XX   -0.365211
   30  O  2 YY   -0.050135
   31  O  2 ZZ    0.415345
   32  O  2 XY   -0.790888
   33  O  2 XZ    0.000000
   34  O  2 YZ    0.000000
   35  O  3  S    0.014499
   36  O  3  S    0.420900
   37  O  3  S   -1.605632
   38  O  3  X   -0.145384
   39  O  3  Y    0.111592
   40  O  3  Z    0.000000
   41  O  3  X   -0.689102
   42  O  3  Y    0.613887
   43  O  3  Z    0.000000
   44  O  3 XX   -0.365220
   45  O  3 YY   -0.050131
   46  O  3 ZZ    0.415351
   47  O  3 XY    0.790888
   48  O  3 XZ    0.000000
   49  O  3 YZ    0.000000
 ...... END OF RHF CALCULATION ......
 STEP CPU TIME =     2.66 TOTAL CPU TIME =          2.8 (      0.0 MIN)
 TOTAL WALL CLOCK TIME=          2.9 SECONDS, CPU UTILIZATION IS    98.60%

     ---------------------------------------------------------------------
     PROPERTIES FOR THE PBE      DFT FUNCTIONAL (RHF  TYPE) DENSITY MATRIX
     ---------------------------------------------------------------------

          -----------------
          ENERGY COMPONENTS
          -----------------

         WAVEFUNCTION NORMALIZATION =       1.0000000000

                ONE ELECTRON ENERGY =    -997.3707364746
                TWO ELECTRON ENERGY =     327.4212706872
           NUCLEAR REPULSION ENERGY =     121.8747856333
                                      ------------------
                       TOTAL ENERGY =    -548.0746801541

 ELECTRON-ELECTRON POTENTIAL ENERGY =     327.4212706872
  NUCLEUS-ELECTRON POTENTIAL ENERGY =   -1546.6295070710
   NUCLEUS-NUCLEUS POTENTIAL ENERGY =     121.8747856333
                                      ------------------
             TOTAL POTENTIAL ENERGY =   -1097.3334507505
               TOTAL KINETIC ENERGY =     549.2587705964
                 VIRIAL RATIO (V/T) =       1.9978442029

          ---------------------------------------
          MULLIKEN AND LOWDIN POPULATION ANALYSES
          ---------------------------------------

     ATOMIC MULLIKEN POPULATION IN EACH MOLECULAR ORBITAL

                      1          2          3          4          5

                  2.000000   2.000000   2.000000   2.000000   2.000000

    1             1.999842   0.000026   0.001593   2.000872   2.000018
    2             0.000079   0.903746   1.095444  -0.000436  -0.000009
    3             0.000079   1.096228   0.902963  -0.000436  -0.000009

                      6          7          8          9         10

                  2.000000   2.000000   2.000000   2.000000   2.000000

    1             2.000057   1.999947   0.844686   0.590174   1.216323
    2            -0.000028   0.000026   0.577649   0.704920   0.391837
    3            -0.000028   0.000026   0.577664   0.704906   0.391840

                     11         12         13         14         15

                  2.000000   2.000000   2.000000   2.000000   2.000000

    1             0.980459   0.408405   0.346036   0.142076   0.773182
    2             0.509769   0.795795   0.826982   0.928963   0.613408
    3             0.509772   0.795800   0.826981   0.928961   0.613410

                     16

                  2.000000

    1             0.248250
    2             0.875880
    3             0.875870

               ----- POPULATIONS IN EACH AO -----
                             MULLIKEN      LOWDIN
              1  S  1  S      1.99979     1.99920
              2  S  1  S      1.99176     1.87474
              3  S  1  S      1.24330     0.59732
              4  S  1  S      0.60268     0.49487
              5  S  1  X      1.99437     1.96042
              6  S  1  Y      1.99552     1.96869
              7  S  1  Z      1.99353     1.95965
              8  S  1  X      0.85443     0.67384
              9  S  1  Y      1.09367     0.94538
             10  S  1  Z      0.83806     0.71680
             11  S  1  X      0.12247     0.23690
             12  S  1  Y      0.07550     0.23214
             13  S  1  Z      0.10683     0.21331
             14  S  1 XX      0.04196     0.33706
             15  S  1 YY      0.20067     0.33777
             16  S  1 ZZ      0.21324     0.25079
             17  S  1 XY      0.14208     0.23923
             18  S  1 XZ      0.04210     0.17705
             19  S  1 YZ      0.00000     0.03997
             20  O  2  S      1.99533     1.97204
             21  O  2  S      0.92669     0.66469
             22  O  2  S      0.81769     0.48692
             23  O  2  X      1.10038     1.07114
             24  O  2  Y      1.00098     0.97858
             25  O  2  Z      0.89297     0.85317
             26  O  2  X      0.44984     0.54990
             27  O  2  Y      0.47455     0.59309
             28  O  2  Z      0.53488     0.57675
             29  O  2 XX      0.00294     0.19832
             30  O  2 YY      0.00728     0.19732
             31  O  2 ZZ      0.00965     0.19255
             32  O  2 XY      0.00547     0.02127
             33  O  2 XZ      0.00539     0.00918
             34  O  2 YZ      0.00000     0.00751
             35  O  3  S      1.99533     1.97204
             36  O  3  S      0.92669     0.66469
             37  O  3  S      0.81769     0.48692
             38  O  3  X      1.10038     1.07114
             39  O  3  Y      1.00098     0.97858
             40  O  3  Z      0.89297     0.85317
             41  O  3  X      0.44984     0.54990
             42  O  3  Y      0.47455     0.59309
             43  O  3  Z      0.53488     0.57675
             44  O  3 XX      0.00294     0.19832
             45  O  3 YY      0.00728     0.19731
             46  O  3 ZZ      0.00965     0.19255
             47  O  3 XY      0.00547     0.02127
             48  O  3 XZ      0.00539     0.00918
             49  O  3 YZ      0.00000     0.00751

          ----- MULLIKEN ATOMIC OVERLAP POPULATIONS -----
          (OFF-DIAGONAL ELEMENTS NEED TO BE MULTIPLIED BY 2)

             1           2           3

    1   14.5154443
    2    0.5182368   7.9303640
    3    0.5182654  -0.2245745   7.9303364

          TOTAL MULLIKEN AND LOWDIN ATOMIC POPULATIONS
       ATOM         MULL.POP.    CHARGE          LOW.POP.     CHARGE
    1 S            15.551946    0.448054        15.255141    0.744859
    2 O             8.224026   -0.224026         8.372430   -0.372430
    3 O             8.224027   -0.224027         8.372429   -0.372429

          MULLIKEN SPHERICAL HARMONIC POPULATIONS
       ATOM           S       P       D      F      G      H      I    TOTAL
    1 S             5.84    9.07    0.64   0.00   0.00   0.00   0.00   15.55
    2 O             3.74    4.45    0.03   0.00   0.00   0.00   0.00    8.22
    3 O             3.74    4.45    0.03   0.00   0.00   0.00   0.00    8.22

          -------------------------------
          BOND ORDER AND VALENCE ANALYSIS     BOND ORDER THRESHOLD=0.050
          -------------------------------

                   BOND                       BOND                       BOND
  ATOM PAIR DIST  ORDER      ATOM PAIR DIST  ORDER      ATOM PAIR DIST  ORDER
    1   2  1.300  2.050        1   3  1.300  2.050        2   3  1.917  0.112

                       TOTAL       BONDED        FREE
      ATOM            VALENCE     VALENCE     VALENCE
    1 S                 4.099       4.099       0.000
    2 O                 2.161       2.161       0.000
    3 O                 2.161       2.161      -0.000

          ---------------------
          ELECTROSTATIC MOMENTS
          ---------------------

 POINT   1           X           Y           Z (BOHR)    CHARGE
                -0.000000   -0.000000    0.000000        0.00 (A.U.)
         DX          DY          DZ         /D/  (DEBYE)
    -0.000015   -2.259218    0.000000    2.259218
 ...... END OF PROPERTY EVALUATION ......
 STEP CPU TIME =     0.00 TOTAL CPU TIME =          2.8 (      0.0 MIN)
 TOTAL WALL CLOCK TIME=          2.9 SECONDS, CPU UTILIZATION IS    98.60%
                580000  WORDS OF DYNAMIC MEMORY USED
 EXECUTION OF GAMESS TERMINATED NORMALLY Sun Sep 29 10:42:41 2019
 DDI: 263640 bytes (0.3 MB / 0 MWords) used by master data server.

 ----------------------------------------
 CPU timing information for all processes
 ========================================
 0: 2.767 + 0.64 = 2.831
 ----------------------------------------
 ddikick.x: exited gracefully.
----- accounting info -----
Files used on the master node crcfe02.crc.nd.edu were:
-rw-r--r-- 1 cdrisko campus     207 Sep 29 10:42 /afs/crc.nd.edu/user/c/cdrisko/SO2.F05
-rw-r--r-- 1 cdrisko campus   37566 Sep 29 10:42 /afs/crc.nd.edu/user/c/cdrisko/SO2.F07
-rw-r--r-- 1 cdrisko campus 4320384 Sep 29 10:42 /afs/crc.nd.edu/user/c/cdrisko/SO2.F08
-rw-r--r-- 1 cdrisko campus 1766880 Sep 29 10:42 /afs/crc.nd.edu/user/c/cdrisko/SO2.F10
Sun Sep 29 10:42:44 EDT 2019
0.449u 0.256s 0:06.54 10.5%	0+0k 0+24io 0pf+0w
