   4   4   0   0
  0.1390658E+02  0.3817333E-09  0.3817333E-09  0.3817333E-09  0.5000000E-15
  1.000000000000000E-004
  CAR 
 unknown system                          
     45.30119616      0.16492883  301     11.69942041      1.00000000
      0.165  0.0000E+00  0.0000E+00
      0.315  0.0000E+00  0.0000E+00
      0.466  0.0000E+00  0.0000E+00
      0.616  0.0000E+00  0.0000E+00
      0.767  0.0000E+00  0.0000E+00
      0.917  0.0000E+00  0.0000E+00
      1.068  0.0000E+00  0.0000E+00
      1.218  0.0000E+00  0.0000E+00
      1.369 -0.2560E-32 -0.3852E-33
      1.519 -0.2646E-22 -0.3980E-23
      1.669 -0.2724E-14 -0.4099E-15
      1.820 -0.2813E-08 -0.4232E-09
      1.970 -0.2499E-04 -0.3761E-05
      2.121 -0.4754E-03 -0.7529E-04
      2.271  0.1397E-01  0.2027E-02
      2.422  0.9633E-01  0.1652E-01
      2.572  0.2116E+00  0.4836E-01
      2.723  0.1592E+00  0.7231E-01
      2.873  0.1220E+00  0.9067E-01
      3.024  0.4923E+00  0.1647E+00
      3.174  0.3903E+00  0.2235E+00
      3.324  0.6834E-01  0.2337E+00
      3.475  0.5836E+00  0.3215E+00
      3.625  0.6188E+00  0.4146E+00
      3.776  0.1365E+01  0.6200E+00
      3.926  0.3537E+01  0.1152E+01
      4.077  0.6557E+01  0.2139E+01
      4.227  0.6648E+01  0.3139E+01
      4.378  0.1100E+02  0.4793E+01
      4.528  0.1105E+02  0.6455E+01
      4.679  0.8378E+01  0.7716E+01
      4.829  0.8947E+01  0.9062E+01
      4.979  0.5889E+01  0.9948E+01
      5.130  0.4634E+01  0.1065E+02
      5.280  0.9242E+01  0.1204E+02
      5.431  0.7475E+01  0.1316E+02
      5.581  0.5259E+01  0.1395E+02
      5.732  0.7689E+01  0.1511E+02
      5.882  0.8040E+01  0.1632E+02
      6.033  0.8646E+01  0.1762E+02
      6.183  0.9743E+01  0.1908E+02
      6.334  0.1412E+02  0.2121E+02
      6.484  0.8960E+01  0.2256E+02
      6.634  0.9400E+01  0.2397E+02
      6.785  0.6975E+01  0.2502E+02
      6.935  0.5702E+01  0.2588E+02
      7.086  0.9028E+01  0.2724E+02
      7.236  0.7663E+01  0.2839E+02
      7.387  0.8540E+01  0.2968E+02
      7.537  0.9488E+01  0.3110E+02
      7.688  0.8111E+01  0.3232E+02
      7.838  0.5845E+01  0.3320E+02
      7.989  0.8497E+01  0.3448E+02
      8.139  0.5678E+01  0.3534E+02
      8.289  0.7159E+01  0.3641E+02
      8.440  0.1209E+02  0.3823E+02
      8.590  0.1221E+02  0.4007E+02
      8.741  0.7149E+01  0.4114E+02
      8.891  0.2246E+01  0.4148E+02
      9.042  0.1087E+01  0.4164E+02
      9.192  0.9300E+00  0.4178E+02
      9.343  0.1763E+01  0.4205E+02
      9.493  0.4371E+00  0.4211E+02
      9.644  0.7374E+00  0.4223E+02
      9.794  0.2546E+00  0.4226E+02
      9.944  0.7472E+00  0.4238E+02
     10.095  0.6164E+00  0.4247E+02
     10.245  0.1077E+01  0.4263E+02
     10.396  0.1748E+01  0.4289E+02
     10.546  0.3216E+00  0.4294E+02
     10.697  0.9381E+00  0.4308E+02
     10.847  0.5814E+00  0.4317E+02
     10.998  0.1723E+00  0.4320E+02
     11.148  0.1025E+01  0.4335E+02
     11.299  0.2087E+01  0.4367E+02
     11.449  0.1133E+01  0.4384E+02
     11.599  0.4290E+00  0.4390E+02
     11.750  0.1048E+01  0.4406E+02
     11.900  0.4013E+00  0.4412E+02
     12.051  0.1133E+01  0.4429E+02
     12.201  0.3430E+00  0.4434E+02
     12.352  0.6556E+00  0.4444E+02
     12.502  0.1383E+01  0.4465E+02
     12.653  0.1270E+01  0.4484E+02
     12.803  0.1458E+01  0.4506E+02
     12.954  0.1390E+01  0.4527E+02
     13.104  0.4614E+00  0.4534E+02
     13.254  0.4709E+00  0.4541E+02
     13.405  0.4238E+00  0.4547E+02
     13.555  0.9580E+00  0.4562E+02
     13.706  0.4110E+00  0.4568E+02
     13.856  0.1237E+01  0.4586E+02
     14.007  0.1462E+01  0.4608E+02
     14.157  0.1626E+01  0.4633E+02
     14.308  0.4102E+00  0.4639E+02
     14.458  0.1574E-01  0.4639E+02
     14.609  0.1428E+01  0.4661E+02
     14.759  0.9611E+00  0.4675E+02
     14.909  0.1497E+00  0.4677E+02
     15.060  0.6241E+00  0.4687E+02
     15.210  0.5058E+00  0.4694E+02
     15.361  0.1090E+01  0.4711E+02
     15.511  0.4673E+00  0.4718E+02
     15.662  0.2389E+00  0.4721E+02
     15.812  0.1202E+01  0.4739E+02
     15.963  0.8114E+00  0.4752E+02
     16.113  0.2171E+00  0.4755E+02
     16.264  0.1349E+00  0.4757E+02
     16.414  0.3767E+00  0.4763E+02
     16.564  0.1051E+01  0.4778E+02
     16.715  0.1768E+01  0.4805E+02
     16.865  0.1184E+01  0.4823E+02
     17.016  0.1284E+01  0.4842E+02
     17.166  0.4708E+00  0.4849E+02
     17.317  0.1151E+01  0.4867E+02
     17.467  0.2548E+01  0.4905E+02
     17.618  0.8391E+00  0.4918E+02
     17.768  0.1513E+01  0.4940E+02
     17.919  0.5919E+00  0.4949E+02
     18.069  0.1626E+01  0.4974E+02
     18.219  0.2821E+00  0.4978E+02
     18.370  0.7098E+00  0.4989E+02
     18.520  0.1467E+01  0.5011E+02
     18.671  0.1034E+01  0.5026E+02
     18.821  0.1407E+01  0.5047E+02
     18.972  0.1184E+01  0.5065E+02
     19.122  0.4875E+00  0.5073E+02
     19.273  0.7110E+00  0.5083E+02
     19.423  0.1347E+01  0.5104E+02
     19.574  0.6864E+00  0.5114E+02
     19.724  0.7078E+00  0.5125E+02
     19.874  0.1301E+01  0.5144E+02
     20.025  0.1326E+01  0.5164E+02
     20.175  0.1215E+01  0.5182E+02
     20.326  0.1264E+01  0.5201E+02
     20.476  0.2971E+01  0.5246E+02
     20.627  0.9330E+00  0.5260E+02
     20.777  0.1637E+01  0.5285E+02
     20.928  0.9532E-01  0.5286E+02
     21.078  0.1610E+01  0.5310E+02
     21.229  0.3543E+01  0.5364E+02
     21.379  0.1229E+01  0.5382E+02
     21.529  0.1341E+01  0.5402E+02
     21.680  0.1977E+01  0.5432E+02
     21.830  0.2450E+01  0.5469E+02
     21.981  0.1980E+01  0.5499E+02
     22.131  0.1616E+01  0.5523E+02
     22.282  0.1209E+01  0.5541E+02
     22.432  0.1290E+01  0.5561E+02
     22.583  0.1547E+01  0.5584E+02
     22.733  0.1362E+01  0.5604E+02
     22.884  0.2263E+01  0.5638E+02
     23.034  0.2034E+01  0.5669E+02
     23.184  0.1417E+01  0.5690E+02
     23.335  0.2204E+01  0.5724E+02
     23.485  0.1087E+01  0.5740E+02
     23.636  0.2833E+01  0.5783E+02
     23.786  0.1987E+01  0.5812E+02
     23.937  0.2499E+01  0.5850E+02
     24.087  0.2017E+01  0.5880E+02
     24.238  0.3275E+01  0.5930E+02
     24.388  0.9217E+00  0.5944E+02
     24.539  0.2390E+01  0.5979E+02
     24.689  0.1764E+01  0.6006E+02
     24.839  0.1216E+01  0.6024E+02
     24.990  0.2536E+01  0.6062E+02
     25.140  0.1060E+01  0.6078E+02
     25.291  0.2094E+01  0.6110E+02
     25.441  0.8548E+00  0.6123E+02
     25.592  0.1105E+01  0.6139E+02
     25.742  0.2194E+01  0.6172E+02
     25.893  0.3886E+01  0.6231E+02
     26.043  0.2838E+01  0.6274E+02
     26.194  0.1618E+01  0.6298E+02
     26.344  0.1927E+01  0.6327E+02
     26.494  0.2587E+01  0.6366E+02
     26.645  0.1503E+01  0.6388E+02
     26.795  0.1001E+01  0.6404E+02
     26.946  0.2194E+01  0.6437E+02
     27.096  0.2254E+01  0.6470E+02
     27.247  0.3149E+01  0.6518E+02
     27.397  0.2358E+01  0.6553E+02
     27.548  0.1513E+01  0.6576E+02
     27.698  0.9051E+00  0.6590E+02
     27.849  0.2914E+01  0.6633E+02
     27.999  0.3376E+01  0.6684E+02
     28.149  0.2046E+01  0.6715E+02
     28.300  0.7236E+00  0.6726E+02
     28.450  0.2571E+01  0.6765E+02
     28.601  0.2007E+01  0.6795E+02
     28.751  0.2704E+01  0.6836E+02
     28.902  0.9440E+00  0.6850E+02
     29.052  0.2040E+01  0.6880E+02
     29.203  0.2551E+01  0.6919E+02
     29.353  0.1067E+01  0.6935E+02
     29.504  0.7032E+00  0.6945E+02
     29.654  0.4641E+00  0.6952E+02
     29.804  0.1765E+01  0.6979E+02
     29.955  0.9572E+00  0.6993E+02
     30.105  0.1651E+01  0.7018E+02
     30.256  0.1079E+01  0.7034E+02
     30.406  0.1862E+01  0.7062E+02
     30.557  0.1840E+01  0.7090E+02
     30.707  0.2750E+01  0.7132E+02
     30.858  0.4575E+01  0.7200E+02
     31.008  0.3444E+01  0.7252E+02
     31.158  0.2627E+01  0.7292E+02
     31.309  0.3289E+01  0.7341E+02
     31.459  0.3031E+01  0.7387E+02
     31.610  0.3828E+01  0.7444E+02
     31.760  0.2859E+01  0.7487E+02
     31.911  0.2180E+01  0.7520E+02
     32.061  0.2412E+01  0.7556E+02
     32.212  0.1325E+01  0.7576E+02
     32.362  0.8133E+00  0.7589E+02
     32.513  0.4265E+01  0.7653E+02
     32.663  0.4541E+01  0.7721E+02
     32.813  0.3875E+01  0.7779E+02
     32.964  0.2648E+01  0.7819E+02
     33.114  0.6873E+00  0.7830E+02
     33.265  0.8336E+00  0.7842E+02
     33.415  0.1379E+01  0.7863E+02
     33.566  0.1849E+01  0.7891E+02
     33.716  0.2358E+01  0.7926E+02
     33.867  0.1813E+01  0.7953E+02
     34.017  0.2172E+01  0.7986E+02
     34.168  0.5994E+00  0.7995E+02
     34.318  0.1988E+01  0.8025E+02
     34.468  0.4504E+00  0.8032E+02
     34.619  0.7822E+00  0.8044E+02
     34.769  0.1006E+01  0.8059E+02
     34.920  0.9827E+00  0.8074E+02
     35.070  0.8605E+00  0.8086E+02
     35.221  0.7917E+00  0.8098E+02
     35.371  0.1123E+00  0.8100E+02
     35.522  0.1308E+01  0.8120E+02
     35.672  0.2573E+01  0.8158E+02
     35.823  0.3356E+01  0.8209E+02
     35.973  0.2263E+01  0.8243E+02
     36.123  0.6722E+00  0.8253E+02
     36.274  0.1670E+01  0.8278E+02
     36.424  0.1427E+01  0.8300E+02
     36.575  0.3194E+01  0.8348E+02
     36.725  0.2461E+01  0.8385E+02
     36.876  0.3140E+00  0.8390E+02
     37.026  0.1253E+01  0.8408E+02
     37.177  0.2305E+01  0.8443E+02
     37.327  0.2167E+01  0.8476E+02
     37.478  0.2114E+01  0.8507E+02
     37.628  0.5455E+01  0.8590E+02
     37.778  0.3665E+01  0.8645E+02
     37.929  0.3266E+01  0.8694E+02
     38.079  0.5129E+01  0.8771E+02
     38.230  0.2220E+01  0.8804E+02
     38.380  0.1174E+01  0.8822E+02
     38.531  0.3343E+01  0.8872E+02
     38.681  0.1456E+01  0.8894E+02
     38.832  0.8889E+00  0.8908E+02
     38.982  0.1710E+01  0.8933E+02
     39.133  0.1492E+01  0.8956E+02
     39.283  0.1554E+01  0.8979E+02
     39.433  0.4858E+01  0.9052E+02
     39.584  0.2141E+01  0.9084E+02
     39.734  0.3132E+01  0.9132E+02
     39.885  0.4128E+01  0.9194E+02
     40.035  0.2480E+01  0.9231E+02
     40.186  0.2957E+01  0.9276E+02
     40.336  0.5056E+01  0.9352E+02
     40.487  0.3460E+01  0.9404E+02
     40.637  0.2265E+01  0.9438E+02
     40.788  0.6055E+00  0.9447E+02
     40.938  0.1784E+01  0.9474E+02
     41.088  0.2448E+01  0.9511E+02
     41.239  0.1505E+01  0.9533E+02
     41.389  0.1428E+01  0.9555E+02
     41.540  0.1592E+01  0.9579E+02
     41.690  0.7510E+00  0.9590E+02
     41.841  0.5734E-01  0.9591E+02
     41.991  0.1259E+00  0.9593E+02
     42.142 -0.3884E-02  0.9593E+02
     42.292 -0.1503E-03  0.9593E+02
     42.443 -0.3581E-02  0.9593E+02
     42.593  0.6392E-01  0.9594E+02
     42.743  0.3075E+00  0.9598E+02
     42.894  0.8727E-01  0.9599E+02
     43.044  0.1998E-01  0.9600E+02
     43.195  0.9281E-03  0.9600E+02
     43.345  0.1668E-01  0.9600E+02
     43.496 -0.3420E-03  0.9600E+02
     43.646 -0.2498E-04  0.9600E+02
     43.797 -0.2813E-08  0.9600E+02
     43.947 -0.2725E-14  0.9600E+02
     44.098  0.0000E+00  0.9600E+02
     44.248  0.0000E+00  0.9600E+02
     44.398  0.0000E+00  0.9600E+02
     44.549  0.0000E+00  0.9600E+02
     44.699  0.0000E+00  0.9600E+02
     44.850  0.0000E+00  0.9600E+02
     45.000  0.0000E+00  0.9600E+02
     45.151  0.0000E+00  0.9600E+02
     45.301  0.0000E+00  0.9600E+02
