    4    4    1    1
  0.1390658E+02  0.3817333E-09  0.3817333E-09  0.3817333E-09  0.5000000E-15
  1.000000000000000E-004
  CAR 
 unknown system                          
     44     35     48
 
  0.0000000E+00  0.0000000E+00  0.0000000E+00  0.1371742E-02
    1        2.216577   1.000000
    2        3.604717   1.000000
    3        3.604717   1.000000
    4        3.604717   1.000000
    5        3.827877   1.000000
    6        3.827877   1.000000
    7        3.827877   1.000000
    8        5.940066   1.000000
    9        5.940066   1.000000
   10        5.940066   1.000000
   11        7.420290   1.000000
   12        7.420290   1.000000
   13        8.510870   1.000000
   14        8.510870   1.000000
   15        8.510870   1.000000
   16        8.849270   1.000000
   17        8.849270   1.000000
   18        8.849270   1.000000
   19        8.849270   1.000000
   20        8.849270   1.000000
   21        8.849270   1.000000
   22       13.035772  -0.000000
   23       13.035772  -0.000000
   24       13.035772  -0.000000
   25       20.141770   0.000000
   26       20.141770   0.000000
   27       20.141770   0.000000
   28       23.333105   0.000000
   29       23.333105   0.000000
   30       23.333105   0.000000
   31       23.333105   0.000000
   32       23.333105   0.000000
   33       23.333105   0.000000
   34       27.914725   0.000000
   35       31.495398   0.000000
   36       31.495398   0.000000
   37       31.495398   0.000000
   38       31.749587   0.000000
   39       31.749587   0.000000
   40       31.749587   0.000000
   41       32.716689   0.000000
   42       32.716689   0.000000
   43       32.716689   0.000000
   44       38.128818   0.000000
   45       40.981705   0.000000
   46       40.981705   0.000000
   47       40.981705   0.000000
   48       43.249548   0.000000
 
  0.1111111E+00  0.0000000E+00  0.0000000E+00  0.8230453E-02
    1        2.369679   1.000000
    2        3.678044   1.000000
    3        3.696721   1.000000
    4        3.696721   1.000000
    5        3.882670   1.000000
    6        3.913015   1.000000
    7        3.913015   1.000000
    8        5.864988   1.000000
    9        6.005013   1.000000
   10        6.005013   1.000000
   11        7.343570   1.000000
   12        7.450895   1.000000
   13        8.407285   1.000000
   14        8.407285   1.000000
   15        8.462595   1.000000
   16        8.462595   1.000000
   17        8.475430   1.000000
   18        8.724728   1.000000
   19        8.724728   1.000000
   20        8.849513   1.000000
   21        8.849513   1.000000
   22       12.253854  -0.000000
   23       13.534808  -0.000000
   24       13.534808  -0.000000
   25       20.134574   0.000000
   26       20.134574   0.000000
   27       21.109024   0.000000
   28       22.979303   0.000000
   29       22.979303   0.000000
   30       22.985359   0.000000
   31       22.985359   0.000000
   32       23.629578   0.000000
   33       23.629578   0.000000
   34       28.052552   0.000000
   35       31.414071   0.000000
   36       31.703005   0.000000
   37       31.814806   0.000000
   38       31.814806   0.000000
   39       32.113251   0.000000
   40       32.485373   0.000000
   41       32.485373   0.000000
   42       32.566623   0.000000
   43       32.566623   0.000000
   44       39.154163   0.000000
   45       40.337888   0.000000
   46       40.337888   0.000000
   47       41.154546   0.000000
   48       42.852078   0.000000
 
  0.2222222E+00  0.0000000E+00  0.0000000E+00  0.8230453E-02
    1        2.811155   1.000000
    2        3.880096   1.000000
    3        3.951817   1.000000
    4        3.951817   1.000000
    5        4.043235   1.000000
    6        4.166833   1.000000
    7        4.166833   1.000000
    8        5.653826   1.000000
    9        6.197345   1.000000
   10        6.197345   1.000000
   11        7.140952   1.000000
   12        7.539741   1.000000
   13        7.633350   1.000000
   14        7.633350   1.000000
   15        8.120213   1.000000
   16        8.120213   1.000000
   17        8.374539   1.000000
   18        8.386896   1.000000
   19        8.386896   1.000000
   20        8.850125   1.000000
   21        8.850125   1.000000
   22       10.641092   1.000000
   23       14.696068   0.000000
   24       14.696068   0.000000
   25       20.121782   0.000000
   26       20.121782   0.000000
   27       22.056651   0.000000
   28       22.056651   0.000000
   29       22.238908   0.000000
   30       22.238908   0.000000
   31       23.254683   0.000000
   32       24.476581   0.000000
   33       24.476581   0.000000
   34       28.438347   0.000000
   35       31.024032   0.000000
   36       31.172084   0.000000
   37       31.645357   0.000000
   38       31.971126   0.000000
   39       31.971126   0.000000
   40       32.687477   0.000000
   41       32.687477   0.000000
   42       34.339764   0.000000
   43       34.339764   0.000000
   44       39.486160   0.000000
   45       39.486160   0.000000
   46       40.878390   0.000000
   47       41.501268   0.000000
   48       41.501270   0.000000
 
  0.3333333E+00  0.0000000E+00  0.0000000E+00  0.8230453E-02
    1        3.465645   1.000000
    2        4.148166   1.000000
    3        4.296203   1.000000
    4        4.297111   1.000000
    5        4.297111   1.000000
    6        4.585566   1.000000
    7        4.585566   1.000000
    8        5.343742   1.000000
    9        6.508679   1.000000
   10        6.508679   1.000000
   11        6.726270   1.000000
   12        6.726270   1.000000
   13        6.912817   1.000000
   14        7.678070   1.000000
   15        7.734784   1.000000
   16        7.734784   1.000000
   17        7.918198   1.000000
   18        7.918198   1.000000
   19        8.222407   1.000000
   20        8.850627   1.000000
   21        8.850627   1.000000
   22        8.966939   1.000000
   23       16.139804   0.000000
   24       16.139804   0.000000
   25       20.123616   0.000000
   26       20.123616   0.000000
   27       20.760055   0.000000
   28       20.760055   0.000000
   29       21.553941   0.000000
   30       21.553941   0.000000
   31       25.704888   0.000000
   32       25.768369   0.000000
   33       25.768369   0.000000
   34       28.997993   0.000000
   35       30.025935   0.000000
   36       30.757071   0.000000
   37       30.757071   0.000000
   38       30.777319   0.000000
   39       31.840289   0.000000
   40       33.973001   0.000000
   41       33.973001   0.000000
   42       36.745730   0.000000
   43       36.745730   0.000000
   44       38.030330   0.000000
   45       39.423332   0.000000
   46       39.423332   0.000000
   47       39.517431   0.000000
   48       39.517431   0.000000
 
  0.4444444E+00  0.0000000E+00  0.0000000E+00  0.8230453E-02
    1        4.103493   1.000000
    2        4.324126   1.000000
    3        4.574458   1.000000
    4        4.574458   1.000000
    5        4.619878   1.000000
    6        4.983001   1.000000
    7        5.162409   1.000000
    8        5.162409   1.000000
    9        5.884279   1.000000
   10        5.884279   1.000000
   11        6.921541   1.000000
   12        6.921541   1.000000
   13        6.924615   1.000000
   14        7.406536   1.000000
   15        7.406536   1.000000
   16        7.428765   1.000000
   17        7.428765   1.000000
   18        7.611265   1.000000
   19        7.851023   1.000000
   20        8.039978   1.000000
   21        8.850973   1.000000
   22        8.850973   1.000000
   23       17.696098   0.000000
   24       17.696098   0.000000
   25       19.266916   0.000000
   26       19.266916   0.000000
   27       20.145111   0.000000
   28       20.145111   0.000000
   29       21.151030   0.000000
   30       21.151030   0.000000
   31       27.368859   0.000000
   32       27.368859   0.000000
   33       27.799930   0.000000
   34       29.099776   0.000000
   35       29.111799   0.000000
   36       29.111799   0.000000
   37       29.633418   0.000000
   38       30.250185   0.000000
   39       32.819714   0.000000
   40       35.028157   0.000000
   41       35.583620   0.000000
   42       35.583620   0.000000
   43       37.462178   0.000000
   44       37.462178   0.000000
   45       39.020144   0.000000
   46       39.020144   0.000000
   47       40.236546   0.000000
   48       40.236548   0.000000
 
  0.1111111E+00  0.1111111E+00  0.0000000E+00  0.1646091E-01
    1        2.518549   1.000000
    2        3.766491   1.000000
    3        3.771070   1.000000
    4        3.771070   1.000000
    5        3.965858   1.000000
    6        3.965858   1.000000
    7        4.014199   1.000000
    8        5.835717   1.000000
    9        6.027942   1.000000
   10        6.061172   1.000000
   11        7.323399   1.000000
   12        7.437383   1.000000
   13        8.218709   1.000000
   14        8.220152   1.000000
   15        8.220152   1.000000
   16        8.312121   1.000000
   17        8.485966   1.000000
   18        8.485966   1.000000
   19        8.724357   1.000000
   20        8.724357   1.000000
   21        8.764665   1.000000
   22       12.737582  -0.000000
   23       12.737582  -0.000000
   24       13.977056  -0.000000
   25       20.122317   0.000000
   26       21.123042   0.000000
   27       21.123042   0.000000
   28       21.670581   0.000000
   29       23.245417   0.000000
   30       23.245417   0.000000
   31       23.270149   0.000000
   32       23.270149   0.000000
   33       23.902848   0.000000
   34       28.149572   0.000000
   35       31.045994   0.000000
   36       31.335582   0.000000
   37       31.750204   0.000000
   38       31.750204   0.000000
   39       32.441393   0.000000
   40       32.455448   0.000000
   41       32.455448   0.000000
   42       33.298426   0.000000
   43       33.710588   0.000000
   44       38.524436   0.000000
   45       40.324906   0.000000
   46       40.825520   0.000000
   47       40.931529   0.000000
   48       42.624450   0.000000
 
  0.2222222E+00  0.1111111E+00  0.0000000E+00  0.3292181E-01
    1        2.947195   1.000000
    2        3.976150   1.000000
    3        3.976413   1.000000
    4        4.029386   1.000000
    5        4.120293   1.000000
    6        4.213617   1.000000
    7        4.295492   1.000000
    8        5.656030   1.000000
    9        6.199235   1.000000
   10        6.219358   1.000000
   11        7.159110   1.000000
   12        7.440058   1.000000
   13        7.517741   1.000000
   14        7.531559   1.000000
   15        7.844185   1.000000
   16        8.046717   1.000000
   17        8.168052   1.000000
   18        8.384892   1.000000
   19        8.400307   1.000000
   20        8.721957   1.000000
   21        8.722983   1.000000
   22       11.142274   1.000000
   23       13.815762  -0.000000
   24       15.056281   0.000000
   25       19.962188   0.000000
   26       20.466979   0.000000
   27       21.159971   0.000000
   28       22.321139   0.000000
   29       22.474498   0.000000
   30       23.281387   0.000000
   31       23.997740   0.000000
   32       24.012723   0.000000
   33       24.077520   0.000000
   34       28.384391   0.000000
   35       29.794788   0.000000
   36       31.561435   0.000000
   37       31.651857   0.000000
   38       31.983080   0.000000
   39       32.455859   0.000000
   40       32.658034   0.000000
   41       33.290365   0.000000
   42       34.292488   0.000000
   43       35.686821   0.000000
   44       37.695172   0.000000
   45       39.734430   0.000000
   46       41.232754   0.000000
   47       41.450164   0.000000
   48       41.540665   0.000000
 
  0.3333333E+00  0.1111111E+00  0.0000000E+00  0.3292181E-01
    1        3.582382   1.000000
    2        4.250747   1.000000
    3        4.302777   1.000000
    4        4.363788   1.000000
    5        4.379877   1.000000
    6        4.621785   1.000000
    7        4.702344   1.000000
    8        5.365393   1.000000
    9        6.402435   1.000000
   10        6.505637   1.000000
   11        6.578619   1.000000
   12        6.679185   1.000000
   13        7.031348   1.000000
   14        7.337066   1.000000
   15        7.687544   1.000000
   16        7.709470   1.000000
   17        7.774722   1.000000
   18        7.914742   1.000000
   19        8.210140   1.000000
   20        8.714459   1.000000
   21        8.720733   1.000000
   22        9.558450   1.000000
   23       15.091776   0.000000
   24       16.444844   0.000000
   25       18.892749   0.000000
   26       20.297433   0.000000
   27       21.013185   0.000000
   28       21.097198   0.000000
   29       21.954226   0.000000
   30       23.446007   0.000000
   31       25.094318   0.000000
   32       25.284177   0.000000
   33       25.781796   0.000000
   34       28.523104   0.000000
   35       28.656646   0.000000
   36       31.216508   0.000000
   37       31.269227   0.000000
   38       32.049325   0.000000
   39       32.748235   0.000000
   40       32.861058   0.000000
   41       33.979113   0.000000
   42       36.336780   0.000000
   43       37.559913   0.000000
   44       38.004530   0.000000
   45       39.263987   0.000000
   46       39.606708   0.000000
   47       39.652995   0.000000
   48       39.806472   0.000000
 
  0.4444444E+00  0.1111111E+00  0.0000000E+00  0.3292181E-01
    1        4.209041   1.000000
    2        4.432664   1.000000
    3        4.624179   1.000000
    4        4.658232   1.000000
    5        4.674863   1.000000
    6        5.022240   1.000000
    7        5.181765   1.000000
    8        5.186921   1.000000
    9        5.804578   1.000000
   10        5.877927   1.000000
   11        6.473765   1.000000
   12        6.788876   1.000000
   13        6.917259   1.000000
   14        7.306261   1.000000
   15        7.402484   1.000000
   16        7.410808   1.000000
   17        7.445540   1.000000
   18        7.863410   1.000000
   19        7.958279   1.000000
   20        8.423142   1.000000
   21        8.715003   1.000000
   22        8.717755   1.000000
   23       16.395954   0.000000
   24       17.660427   0.000000
   25       17.968375   0.000000
   26       19.522530   0.000000
   27       20.444828   0.000000
   28       20.749057   0.000000
   29       22.122871   0.000000
   30       22.702163   0.000000
   31       26.353250   0.000000
   32       26.702577   0.000000
   33       27.554537   0.000000
   34       27.988035   0.000000
   35       28.168897   0.000000
   36       30.240308   0.000000
   37       30.771953   0.000000
   38       30.936723   0.000000
   39       33.736758   0.000000
   40       34.524866   0.000000
   41       35.621259   0.000000
   42       35.673028   0.000000
   43       36.230915   0.000000
   44       37.529032   0.000000
   45       39.425220   0.000000
   46       40.252879   0.000000
   47       40.273776   0.000000
   48       40.378748   0.000000
 
  0.2222222E+00  0.2222222E+00  0.0000000E+00  0.1646091E-01
    1        3.336267   1.000000
    2        4.108252   1.000000
    3        4.245478   1.000000
    4        4.245478   1.000000
    5        4.350022   1.000000
    6        4.350022   1.000000
    7        4.602162   1.000000
    8        5.594137   1.000000
    9        6.281805   1.000000
   10        6.282046   1.000000
   11        7.034559   1.000000
   12        7.034559   1.000000
   13        7.095133   1.000000
   14        7.128490   1.000000
   15        7.649014   1.000000
   16        7.836028   1.000000
   17        8.155893   1.000000
   18        8.155893   1.000000
   19        8.379568   1.000000
   20        8.379568   1.000000
   21        8.518899   1.000000
   22       12.159570  -0.000000
   23       12.159570  -0.000000
   24       15.993592   0.000000
   25       18.511292   0.000000
   26       20.274530   0.000000
   27       22.851385   0.000000
   28       22.851385   0.000000
   29       23.063618   0.000000
   30       23.063618   0.000000
   31       23.578574   0.000000
   32       23.578574   0.000000
   33       25.479023   0.000000
   34       28.153338   0.000000
   35       28.374446   0.000000
   36       30.741243   0.000000
   37       32.013908   0.000000
   38       32.573908   0.000000
   39       32.573908   0.000000
   40       34.263418   0.000000
   41       34.263418   0.000000
   42       34.867716   0.000000
   43       35.403273   0.000000
   44       37.800647   0.000000
   45       40.437970   0.000000
   46       40.491538   0.000000
   47       41.168690   0.000000
   48       41.170055   0.000000
 
  0.3333333E+00  0.2222222E+00  0.0000000E+00  0.3292181E-01
    1        3.908728   1.000000
    2        4.374697   1.000000
    3        4.540111   1.000000
    4        4.563610   1.000000
    5        4.615124   1.000000
    6        4.725846   1.000000
    7        4.983523   1.000000
    8        5.400540   1.000000
    9        6.248844   1.000000
   10        6.297039   1.000000
   11        6.516839   1.000000
   12        6.531725   1.000000
   13        6.565111   1.000000
   14        7.026784   1.000000
   15        7.542544   1.000000
   16        7.785539   1.000000
   17        7.906847   1.000000
   18        7.972152   1.000000
   19        7.988597   1.000000
   20        8.372836   1.000000
   21        8.412027   1.000000
   22       10.556364   1.000000
   23       13.310456  -0.000000
   24       17.033761   0.000000
   25       17.269936   0.000000
   26       20.394085   0.000000
   27       21.721125   0.000000
   28       21.901134   0.000000
   29       23.839299   0.000000
   30       23.887738   0.000000
   31       24.153708   0.000000
   32       25.778137   0.000000
   33       25.965123   0.000000
   34       27.125735   0.000000
   35       27.592664   0.000000
   36       31.216003   0.000000
   37       32.067472   0.000000
   38       32.447622   0.000000
   39       32.975450   0.000000
   40       33.993602   0.000000
   41       34.531208   0.000000
   42       35.607776   0.000000
   43       36.532731   0.000000
   44       39.346189   0.000000
   45       39.876538   0.000000
   46       40.101239   0.000000
   47       40.117756   0.000000
   48       40.216450   0.000000
 
  0.4444444E+00  0.2222222E+00  0.0000000E+00  0.3292181E-01
    1        4.493023   1.000000
    2        4.735308   1.000000
    3        4.736970   1.000000
    4        4.832819   1.000000
    5        4.896755   1.000000
    6        5.126384   1.000000
    7        5.234183   1.000000
    8        5.301984   1.000000
    9        5.622626   1.000000
   10        5.848777   1.000000
   11        6.145696   1.000000
   12        6.178018   1.000000
   13        6.919836   1.000000
   14        7.259496   1.000000
   15        7.332065   1.000000
   16        7.396242   1.000000
   17        7.433422   1.000000
   18        7.660906   1.000000
   19        8.368633   1.000000
   20        8.375454   1.000000
   21        8.482515   1.000000
   22        9.301480   1.000000
   23       14.495947   0.000000
   24       15.717311   0.000000
   25       18.719935   0.000000
   26       20.234910   0.000000
   27       20.668955   0.000000
   28       21.157366   0.000000
   29       24.436191   0.000000
   30       24.895533   0.000000
   31       25.161494   0.000000
   32       25.415309   0.000000
   33       25.991957   0.000000
   34       26.636681   0.000000
   35       28.412841   0.000000
   36       30.724711   0.000000
   37       32.164092   0.000000
   38       32.300802   0.000000
   39       32.843007   0.000000
   40       34.688111   0.000000
   41       35.417158   0.000000
   42       35.721357   0.000000
   43       37.067963   0.000000
   44       37.714789   0.000000
   45       38.026364   0.000000
   46       39.339151   0.000000
   47       40.499556   0.000000
   48       41.638569   0.000000
 
  0.3333333E+00  0.3333333E+00  0.0000000E+00  0.1646091E-01
    1        4.368324   1.000000
    2        4.554479   1.000000
    3        4.884242   1.000000
    4        4.884242   1.000000
    5        4.951511   1.000000
    6        4.951511   1.000000
    7        5.326996   1.000000
    8        5.375583   1.000000
    9        5.885210   1.000000
   10        5.885210   1.000000
   11        6.203593   1.000000
   12        6.244811   1.000000
   13        6.672138   1.000000
   14        6.874360   1.000000
   15        7.318081   1.000000
   16        7.644550   1.000000
   17        7.644550   1.000000
   18        7.902327   1.000000
   19        7.902327   1.000000
   20        8.136483   1.000000
   21        8.507746   1.000000
   22       11.636354   0.933302
   23       11.636354   0.933302
   24       15.403606   0.000000
   25       18.441077   0.000000
   26       20.626088   0.000000
   27       22.644362   0.000000
   28       22.644362   0.000000
   29       22.760039   0.000000
   30       22.760039   0.000000
   31       25.780164   0.000000
   32       26.333102   0.000000
   33       26.333102   0.000000
   34       26.487385   0.000000
   35       27.786029   0.000000
   36       30.116804   0.000000
   37       32.421733   0.000000
   38       32.924898   0.000000
   39       33.993816   0.000000
   40       33.993816   0.000000
   41       35.096132   0.000000
   42       35.096132   0.000000
   43       35.931800   0.000000
   44       39.624205   0.000000
   45       40.012062   0.000000
   46       40.171217   0.000000
   47       40.359985   0.000000
   48       40.361132   0.000000
 
  0.4444444E+00  0.3333333E+00  0.0000000E+00  0.3292181E-01
    1        4.838366   1.000000
    2        4.853290   1.000000
    3        5.072623   1.000000
    4        5.147703   1.000000
    5        5.221322   1.000000
    6        5.253587   1.000000
    7        5.301310   1.000000
    8        5.462832   1.000000
    9        5.550509   1.000000
   10        5.718984   1.000000
   11        5.767861   1.000000
   12        6.014461   1.000000
   13        6.975967   1.000000
   14        6.983964   1.000000
   15        7.153908   1.000000
   16        7.292242   1.000000
   17        7.335408   1.000000
   18        7.408907   1.000000
   19        7.916673   1.000000
   20        7.979432   1.000000
   21        9.251997   1.000000
   22       10.270818   1.000000
   23       12.772513  -0.000000
   24       14.003980  -0.000000
   25       19.812552   0.000000
   26       21.043478   0.000000
   27       21.280543   0.000000
   28       21.704242   0.000000
   29       23.554126   0.000000
   30       23.985391   0.000000
   31       24.601116   0.000000
   32       25.263045   0.000000
   33       26.938234   0.000000
   34       27.740205   0.000000
   35       28.718553   0.000000
   36       30.813596   0.000000
   37       31.338987   0.000000
   38       33.490915   0.000000
   39       33.577280   0.000000
   40       33.904154   0.000000
   41       35.043982   0.000000
   42       35.438054   0.000000
   43       35.814079   0.000000
   44       37.896833   0.000000
   45       39.940232   0.000000
   46       40.112928   0.000000
   47       40.226396   0.000000
   48       40.996252   0.000000
 
  0.4444444E+00  0.4444444E+00  0.0000000E+00  0.1646091E-01
    1        5.003689   1.000000
    2        5.076027   1.000000
    3        5.215264   1.000000
    4        5.215264   1.000000
    5        5.341123   1.000000
    6        5.350661   1.000000
    7        5.350661   1.000000
    8        5.601019   1.000000
    9        5.721025   1.000000
   10        5.721025   1.000000
   11        5.799483   1.000000
   12        6.000601   1.000000
   13        6.796756   1.000000
   14        6.943258   1.000000
   15        7.007695   1.000000
   16        7.007695   1.000000
   17        7.151957   1.000000
   18        7.479776   1.000000
   19        7.479776   1.000000
   20        7.661640   1.000000
   21       10.185188   1.000000
   22       11.336709   1.000002
   23       11.336709   1.000002
   24       12.556818  -0.000000
   25       21.115507   0.000000
   26       21.627712   0.000000
   27       22.458497   0.000000
   28       22.458497   0.000000
   29       22.530524   0.000000
   30       22.530524   0.000000
   31       23.423711   0.000000
   32       23.881654   0.000000
   33       29.241137   0.000000
   34       29.241137   0.000000
   35       29.915878   0.000000
   36       30.564571   0.000000
   37       30.575284   0.000000
   38       32.895876   0.000000
   39       32.895876   0.000000
   40       33.564326   0.000000
   41       34.865827   0.000000
   42       35.655725   0.000000
   43       35.655725   0.000000
   44       37.316641   0.000000
   45       39.761733   0.000000
   46       39.862243   0.000000
   47       40.239009   0.000000
   48       40.239009   0.000000
 
  0.1111111E+00  0.1111111E+00  0.1111111E+00  0.1097394E-01
    1        2.661389   1.000000
    2        3.837016   1.000000
    3        3.837016   1.000000
    4        3.837016   1.000000
    5        4.069378   1.000000
    6        4.069378   1.000000
    7        4.069378   1.000000
    8        5.822305   1.000000
    9        6.074665   1.000000
   10        6.074665   1.000000
   11        7.369600   1.000000
   12        7.369600   1.000000
   13        8.078209   1.000000
   14        8.078209   1.000000
   15        8.078209   1.000000
   16        8.201248   1.000000
   17        8.201248   1.000000
   18        8.201248   1.000000
   19        8.734990   1.000000
   20        8.734990   1.000000
   21        8.734990   1.000000
   22       13.150439  -0.000000
   23       13.150439  -0.000000
   24       13.150439  -0.000000
   25       21.103195   0.000000
   26       21.103195   0.000000
   27       21.103195   0.000000
   28       21.961813   0.000000
   29       21.961813   0.000000
   30       21.961813   0.000000
   31       24.177063   0.000000
   32       24.177063   0.000000
   33       24.177063   0.000000
   34       28.171716   0.000000
   35       30.240218   0.000000
   36       31.259693   0.000000
   37       31.259693   0.000000
   38       31.259693   0.000000
   39       33.144730   0.000000
   40       33.144730   0.000000
   41       33.701756   0.000000
   42       33.701756   0.000000
   43       33.701756   0.000000
   44       38.127235   0.000000
   45       39.967717   0.000000
   46       39.967717   0.000000
   47       41.888599   0.000000
   48       42.662454   0.000000
 
  0.2222222E+00  0.1111111E+00  0.1111111E+00  0.3292181E-01
    1        3.070798   1.000000
    2        4.025917   1.000000
    3        4.040033   1.000000
    4        4.040033   1.000000
    5        4.235872   1.000000
    6        4.351893   1.000000
    7        4.351893   1.000000
    8        5.681433   1.000000
    9        6.209465   1.000000
   10        6.214449   1.000000
   11        7.209197   1.000000
   12        7.358610   1.000000
   13        7.358610   1.000000
   14        7.501911   1.000000
   15        7.692138   1.000000
   16        7.915760   1.000000
   17        7.987842   1.000000
   18        7.987842   1.000000
   19        8.629829   1.000000
   20        8.687729   1.000000
   21        8.687729   1.000000
   22       11.524445   1.016435
   23       14.128567  -0.000000
   24       14.128567  -0.000000
   25       20.382506   0.000000
   26       20.382506   0.000000
   27       21.386235   0.000000
   28       21.386235   0.000000
   29       22.555029   0.000000
   30       23.403000   0.000000
   31       24.242176   0.000000
   32       24.242176   0.000000
   33       24.968840   0.000000
   34       28.004312   0.000000
   35       29.358926   0.000000
   36       31.065133   0.000000
   37       31.586033   0.000000
   38       31.586033   0.000000
   39       32.505406   0.000000
   40       33.610170   0.000000
   41       33.737210   0.000000
   42       35.676187   0.000000
   43       35.676187   0.000000
   44       37.341565   0.000000
   45       38.976849   0.000000
   46       40.186340   0.000000
   47       41.481785   0.000000
   48       41.481790   0.000000
 
  0.3333333E+00  0.1111111E+00  0.1111111E+00  0.3292181E-01
    1        3.671539   1.000000
    2        4.266953   1.000000
    3        4.365418   1.000000
    4        4.365418   1.000000
    5        4.506350   1.000000
    6        4.746949   1.000000
    7        4.746949   1.000000
    8        5.423997   1.000000
    9        6.357541   1.000000
   10        6.445061   1.000000
   11        6.556772   1.000000
   12        6.556772   1.000000
   13        7.148128   1.000000
   14        7.175469   1.000000
   15        7.536169   1.000000
   16        7.671367   1.000000
   17        7.671367   1.000000
   18        7.703663   1.000000
   19        8.446244   1.000000
   20        8.646884   1.000000
   21        8.646884   1.000000
   22        9.895207   1.000000
   23       15.330273   0.000000
   24       15.330273   0.000000
   25       19.115971   0.000000
   26       19.115971   0.000000
   27       21.568158   0.000000
   28       21.568158   0.000000
   29       23.619479   0.000000
   30       23.619479   0.000000
   31       23.653330   0.000000
   32       25.817024   0.000000
   33       26.197920   0.000000
   34       27.185818   0.000000
   35       29.214577   0.000000
   36       30.845893   0.000000
   37       31.199314   0.000000
   38       32.787358   0.000000
   39       32.787358   0.000000
   40       32.830127   0.000000
   41       33.993822   0.000000
   42       37.196516   0.000000
   43       37.630367   0.000000
   44       37.630367   0.000000
   45       38.888220   0.000000
   46       39.746137   0.000000
   47       39.941533   0.000000
   48       39.941533   0.000000
 
  0.4444444E+00  0.1111111E+00  0.1111111E+00  0.3292181E-01
    1        4.253311   1.000000
    2        4.439660   1.000000