       N       E                     dE             d eps       ncg     rms          rms(c)
DAV:   1     0.201480764471E+03    0.20148E+03   -0.18740E+04  3360   0.760E+02
DAV:   2    -0.717511309753E+01   -0.20866E+03   -0.19731E+03  4512   0.195E+02
DAV:   3    -0.103571155146E+02   -0.31820E+01   -0.31800E+01  3816   0.256E+01
DAV:   4    -0.103659386285E+02   -0.88231E-02   -0.88229E-02  4728   0.142E+00
DAV:   5    -0.103660061567E+02   -0.67528E-04   -0.67528E-04  3768   0.121E-01    0.189E+01
DAV:   6    -0.928132593748E+01    0.10847E+01   -0.20358E+00  4320   0.848E+00    0.112E+01
DAV:   7    -0.918597237443E+01    0.95354E-01   -0.11464E-01  4320   0.200E+00    0.459E+00
DAV:   8    -0.916974788464E+01    0.16224E-01   -0.78897E-03  4128   0.455E-01    0.300E-01
DAV:   9    -0.916976665191E+01   -0.18767E-04   -0.31760E-05  3576   0.282E-02
   1 F= -.91697667E+01 E0= -.91692690E+01  d E =-.149282E-02
