 vasp.5.4.1 05Feb16 (build Feb 08 2018 09:21:51) complex                        
  
 executed on             LinuxIFC date 2019.11.21  15:54:10
 running on   24 total cores
 distrk:  each k-point on   24 cores,    1 groups
 distr:  one band on NCORES_PER_BAND=   1 cores,   24 groups


--------------------------------------------------------------------------------------------------------


 INCAR:
 POTCAR:    PAW_PBE Ag 02Apr2005                  

 ----------------------------------------------------------------------------- 
|                                                                             |
|           W    W    AA    RRRRR   N    N  II  N    N   GGGG   !!!           |
|           W    W   A  A   R    R  NN   N  II  NN   N  G    G  !!!           |
|           W    W  A    A  R    R  N N  N  II  N N  N  G       !!!           |
|           W WW W  AAAAAA  RRRRR   N  N N  II  N  N N  G  GGG   !            |
|           WW  WW  A    A  R   R   N   NN  II  N   NN  G    G                |
|           W    W  A    A  R    R  N    N  II  N    N   GGGG   !!!           |
|                                                                             |
|      For optimal performance we recommend to set                            |
|        NCORE= 4 - approx SQRT( number of cores)                             |
|      NCORE specifies how many cores store one orbital (NPAR=cpu/NCORE).     |
|      This setting can  greatly improve the performance of VASP for DFT.     |
|      The default, NPAR=number of cores might be grossly inefficient         |
|      on modern multi-core architectures or massively parallel machines.     |
|      Do your own testing !!!!                                               |
|      Unfortunately you need to use the default for GW and RPA calculations. |
|      (for HF NCORE is supported but not extensively tested yet)             |
|                                                                             |
 ----------------------------------------------------------------------------- 

 POTCAR:    PAW_PBE Ag 02Apr2005                  
   VRHFIN =Ag : s1 d10                                                          
   LEXCH  = PE                                                                  
   EATOM  =  1037.2675 eV,   76.2370 Ry                                         
                                                                                
   TITEL  = PAW_PBE Ag 02Apr2005                                                
   LULTRA =        F    use ultrasoft PP ?                                      
   IUNSCR =        1    unscreen: 0-lin 1-nonlin 2-no                           
   RPACOR =    2.000    partial core radius                                     
   POMASS =  107.868; ZVAL   =   11.000    mass and valenz                      
   RCORE  =    2.500    outmost cutoff radius                                   
   RWIGS  =    2.840; RWIGS  =    1.503    wigner-seitz radius (au A)           
   ENMAX  =  249.844; ENMIN  =  187.383 eV                                      
   ICORE  =        3    local potential                                         
   LCOR   =        T    correct aug charges                                     
   LPAW   =        T    paw PP                                                  
   EAUG   =  412.496                                                            
   DEXC   =    0.000                                                            
   RMAX   =    2.560    core radius for proj-oper                               
   RAUG   =    1.300    factor for augmentation sphere                          
   RDEP   =    2.576    radius for radial grids                                 
   RDEPT  =    2.072    core radius for aug-charge                              
                                                                                
   Atomic configuration                                                         
   12 entries                                                                   
     n  l   j            E        occ.                                          
     1  0  0.50    -25324.9161   2.0000                                         
     2  0  0.50     -3728.5341   2.0000                                         
     2  1  1.50     -3344.0404   6.0000                                         
     3  0  0.50      -683.5581   2.0000                                         
     3  1  1.50      -557.3225   6.0000                                         
     3  2  2.50      -358.3853  10.0000                                         
     4  0  0.50       -95.0341   2.0000                                         
     4  1  1.50       -58.5511   6.0000                                         
     4  2  2.50        -7.4440  10.0000                                         
     5  0  0.50        -4.4045   1.0000                                         
     5  1  0.50        -1.3606   0.0000                                         
     4  3  2.50        -1.3606   0.0000                                         
   Description                                                                  
     l       E           TYP  RCUT    TYP  RCUT                                 
     2     -7.4439781     23  2.400                                             
     2     -8.8045607     23  2.400                                             
     0     -4.4044681     23  2.400                                             
     0      1.9520038     23  2.400                                             
     1     -1.3605826     23  2.500                                             
     1     27.2116520     23  2.500                                             
     3     -4.0817478     23  2.400                                             
  local pseudopotential read in
  partial core-charges read in
  partial kinetic energy density read in
  atomic valenz-charges read in
  non local Contribution for L=           2  read in
    real space projection operators read in
  non local Contribution for L=           2  read in
    real space projection operators read in
  non local Contribution for L=           0  read in
    real space projection operators read in
  non local Contribution for L=           0  read in
    real space projection operators read in
  non local Contribution for L=           1  read in
    real space projection operators read in
  non local Contribution for L=           1  read in
    real space projection operators read in
    PAW grid and wavefunctions read in
 
   number of l-projection  operators is LMAX  =           6
   number of lm-projection operators is LMMAX =          18
 
  PAW_PBE Ag 02Apr2005                  :
 energy of atom  1       EATOM=-1037.2675
 kinetic energy error for atom=    0.0091 (will be added to EATOM!!)
 
 
 POSCAR: Ag                                      
  positions in cartesian coordinates
  No initial velocities read in
 exchange correlation table for  LEXCH =        8
   RHO(1)=    0.500       N(1)  =     2000
   RHO(2)=  100.500       N(2)  =     4000
 


--------------------------------------------------------------------------------------------------------


 ion  position               nearest neighbor table
   1  0.000  0.000  0.000-   2 2.70   3 2.70   4 2.70   2 2.70   3 2.70   2 2.70   4 2.70   2 2.70
                             3 2.70   4 2.70   3 2.70   4 2.70
   2  0.000  0.500  0.500-   1 2.70   3 2.70   4 2.70   1 2.70   4 2.70   1 2.70   3 2.70   1 2.70
                             3 2.70   4 2.70   4 2.70   3 2.70
   3  0.500  0.000  0.500-   1 2.70   2 2.70   4 2.70   1 2.70   4 2.70   2 2.70   4 2.70   4 2.70
                             1 2.70   2 2.70   1 2.70   2 2.70
   4  0.500  0.500  0.000-   1 2.70   2 2.70   3 2.70   2 2.70   3 2.70   1 2.70   3 2.70   3 2.70
                             1 2.70   2 2.70   2 2.70   1 2.70
 
  LATTYP: Found a simple cubic cell.
 ALAT       =     3.8173333333
  
  Lattice vectors:
  
 A1 = (   3.8173333333,   0.0000000000,   0.0000000000)
 A2 = (   0.0000000000,   3.8173333333,   0.0000000000)
 A3 = (   0.0000000000,   0.0000000000,   3.8173333333)


Analysis of symmetry for initial positions (statically):
=====================================================================
 Subroutine PRICEL returns following result:
 
  LATTYP: Found a face centered cubic cell.
 ALAT       =     3.8173333333
  
  Lattice vectors:
  
 A1 = (   1.9086666667,   1.9086666667,   0.0000000000)
 A2 = (   1.9086666667,   0.0000000000,  -1.9086666667)
 A3 = (   0.0000000000,   1.9086666667,  -1.9086666667)
 
   4 primitive cells build up your supercell.
 

 Routine SETGRP: Setting up the symmetry group for a 
 simple cubic supercell.


 Subroutine GETGRP returns: Found 48 space group operations
 (whereof 48 operations were pure point group operations)
 out of a pool of 48 trial point group operations.


The static configuration has the point symmetry O_h .


Analysis of symmetry for dynamics (positions and initial velocities):
=====================================================================
 Subroutine PRICEL returns following result:
 
  LATTYP: Found a face centered cubic cell.
 ALAT       =     3.8173333333
  
  Lattice vectors:
  
 A1 = (   1.9086666667,   1.9086666667,   0.0000000000)
 A2 = (   1.9086666667,   0.0000000000,  -1.9086666667)
 A3 = (   0.0000000000,   1.9086666667,  -1.9086666667)
 
   4 primitive cells build up your supercell.
 

 Routine SETGRP: Setting up the symmetry group for a 
 simple cubic supercell.


 Subroutine GETGRP returns: Found 48 space group operations
 (whereof 48 operations were pure point group operations)
 out of a pool of 48 trial point group operations.


The dynamic configuration has the point symmetry O_h .


 Subroutine INISYM returns: Found 48 space group operations
 (whereof 48 operations are pure point group operations),
 and found     4 'primitive' translations

 
 
 KPOINTS: KPOINTS created by Atomic Simulation Env

Automatic generation of k-mesh.
Space group operators:
 irot       det(A)        alpha          n_x          n_y          n_z        tau_x        tau_y        tau_z
    1     1.000000     0.000000     1.000000     0.000000     0.000000     0.000000     0.000000     0.000000
    2    -1.000000     0.000000     1.000000     0.000000     0.000000     0.000000     0.000000     0.000000
    3     1.000000   120.000000    -0.577350    -0.577350    -0.577350     0.000000     0.000000     0.000000
    4    -1.000000   120.000000    -0.577350    -0.577350    -0.577350     0.000000     0.000000     0.000000
    5     1.000000   120.000000     0.577350     0.577350     0.577350     0.000000     0.000000     0.000000
    6    -1.000000   120.000000     0.577350     0.577350     0.577350     0.000000     0.000000     0.000000
    7     1.000000    90.000000     0.000000     0.000000    -1.000000     0.000000     0.000000     0.000000
    8    -1.000000    90.000000     0.000000     0.000000    -1.000000     0.000000     0.000000     0.000000
    9     1.000000   180.000000     0.000000     0.707107     0.707107     0.000000     0.000000     0.000000
   10    -1.000000   180.000000     0.000000     0.707107     0.707107     0.000000     0.000000     0.000000
   11     1.000000    90.000000     0.000000     1.000000     0.000000     0.000000     0.000000     0.000000
   12    -1.000000    90.000000     0.000000     1.000000     0.000000     0.000000     0.000000     0.000000
   13     1.000000   180.000000     0.000000     0.000000     1.000000     0.000000     0.000000     0.000000
   14    -1.000000   180.000000     0.000000     0.000000     1.000000     0.000000     0.000000     0.000000
   15     1.000000   120.000000    -0.577350     0.577350     0.577350     0.000000     0.000000     0.000000
   16    -1.000000   120.000000    -0.577350     0.577350     0.577350     0.000000     0.000000     0.000000
   17     1.000000   120.000000    -0.577350     0.577350    -0.577350     0.000000     0.000000     0.000000
   18    -1.000000   120.000000    -0.577350     0.577350    -0.577350     0.000000     0.000000     0.000000
   19     1.000000    90.000000     0.000000     0.000000     1.000000     0.000000     0.000000     0.000000
   20    -1.000000    90.000000     0.000000     0.000000     1.000000     0.000000     0.000000     0.000000
   21     1.000000    90.000000    -1.000000     0.000000     0.000000     0.000000     0.000000     0.000000
   22    -1.000000    90.000000    -1.000000     0.000000     0.000000     0.000000     0.000000     0.000000
   23     1.000000   180.000000     0.707107     0.000000     0.707107     0.000000     0.000000     0.000000
   24    -1.000000   180.000000     0.707107     0.000000     0.707107     0.000000     0.000000     0.000000
   25     1.000000   120.000000     0.577350    -0.577350     0.577350     0.000000     0.000000     0.000000
   26    -1.000000   120.000000     0.577350    -0.577350     0.577350     0.000000     0.000000     0.000000
   27     1.000000   120.000000    -0.577350    -0.577350     0.577350     0.000000     0.000000     0.000000
   28    -1.000000   120.000000    -0.577350    -0.577350     0.577350     0.000000     0.000000     0.000000
   29     1.000000   180.000000     1.000000     0.000000     0.000000     0.000000     0.000000     0.000000
   30    -1.000000   180.000000     1.000000     0.000000     0.000000     0.000000     0.000000     0.000000
   31     1.000000    90.000000     0.000000    -1.000000     0.000000     0.000000     0.000000     0.000000
   32    -1.000000    90.000000     0.000000    -1.000000     0.000000     0.000000     0.000000     0.000000
   33     1.000000   180.000000     0.707107     0.707107     0.000000     0.000000     0.000000     0.000000
   34    -1.000000   180.000000     0.707107     0.707107     0.000000     0.000000     0.000000     0.000000
   35     1.000000    90.000000     1.000000     0.000000     0.000000     0.000000     0.000000     0.000000
   36    -1.000000    90.000000     1.000000     0.000000     0.000000     0.000000     0.000000     0.000000
   37     1.000000   120.000000     0.577350    -0.577350    -0.577350     0.000000     0.000000     0.000000
   38    -1.000000   120.000000     0.577350    -0.577350    -0.577350     0.000000     0.000000     0.000000
   39     1.000000   180.000000     0.000000     1.000000     0.000000     0.000000     0.000000     0.000000
   40    -1.000000   180.000000     0.000000     1.000000     0.000000     0.000000     0.000000     0.000000
   41     1.000000   120.000000     0.577350     0.577350    -0.577350     0.000000     0.000000     0.000000
   42    -1.000000   120.000000     0.577350     0.577350    -0.577350     0.000000     0.000000     0.000000
   43     1.000000   180.000000     0.000000    -0.707107     0.707107     0.000000     0.000000     0.000000
   44    -1.000000   180.000000     0.000000    -0.707107     0.707107     0.000000     0.000000     0.000000
   45     1.000000   180.000000     0.707107    -0.707107     0.000000     0.000000     0.000000     0.000000
   46    -1.000000   180.000000     0.707107    -0.707107     0.000000     0.000000     0.000000     0.000000
   47     1.000000   180.000000     0.707107     0.000000    -0.707107     0.000000     0.000000     0.000000
   48    -1.000000   180.000000     0.707107     0.000000    -0.707107     0.000000     0.000000     0.000000
 
 Subroutine IBZKPT returns following result:
 ===========================================
 
 Found     35 irreducible k-points:
 
 Following reciprocal coordinates:
            Coordinates               Weight
  0.000000  0.000000  0.000000      1.000000
  0.111111  0.000000  0.000000      6.000000
  0.222222  0.000000  0.000000      6.000000
  0.333333  0.000000  0.000000      6.000000
  0.444444  0.000000  0.000000      6.000000
  0.111111  0.111111  0.000000     12.000000
  0.222222  0.111111  0.000000     24.000000
  0.333333  0.111111  0.000000     24.000000
  0.444444  0.111111  0.000000     24.000000
  0.222222  0.222222  0.000000     12.000000
  0.333333  0.222222  0.000000     24.000000
  0.444444  0.222222  0.000000     24.000000
  0.333333  0.333333  0.000000     12.000000
  0.444444  0.333333  0.000000     24.000000
  0.444444  0.444444  0.000000     12.000000
  0.111111  0.111111  0.111111      8.000000
  0.222222  0.111111  0.111111     24.000000
  0.333333  0.111111  0.111111     24.000000
  0.444444  0.111111  0.111111     24.000000
  0.222222  0.222222  0.111111     24.000000
  0.333333  0.222222  0.111111     48.000000
  0.444444  0.222222  0.111111     48.000000
  0.333333  0.333333  0.111111     24.000000
  0.444444  0.333333  0.111111     48.000000
  0.444444  0.444444  0.111111     24.000000
  0.222222  0.222222  0.222222      8.000000
  0.333333  0.222222  0.222222     24.000000
  0.444444  0.222222  0.222222     24.000000
  0.333333  0.333333  0.222222     24.000000
  0.444444  0.333333  0.222222     48.000000
  0.444444  0.444444  0.222222     24.000000
  0.333333  0.333333  0.333333      8.000000
  0.444444  0.333333  0.333333     24.000000
  0.444444  0.444444  0.333333     24.000000
  0.444444  0.444444  0.444444      8.000000
 
 Following cartesian coordinates:
            Coordinates               Weight
  0.000000  0.000000  0.000000      1.000000
  0.029107  0.000000  0.000000      6.000000
  0.058214  0.000000  0.000000      6.000000
  0.087321  0.000000  0.000000      6.000000
  0.116428  0.000000  0.000000      6.000000
  0.029107  0.029107  0.000000     12.000000
  0.058214  0.029107  0.000000     24.000000
  0.087321  0.029107  0.000000     24.000000
  0.116428  0.029107  0.000000     24.000000
  0.058214  0.058214  0.000000     12.000000
  0.087321  0.058214  0.000000     24.000000
  0.116428  0.058214  0.000000     24.000000
  0.087321  0.087321  0.000000     12.000000
  0.116428  0.087321  0.000000     24.000000
  0.116428  0.116428  0.000000     12.000000
  0.029107  0.029107  0.029107      8.000000
  0.058214  0.029107  0.029107     24.000000
  0.087321  0.029107  0.029107     24.000000
  0.116428  0.029107  0.029107     24.000000
  0.058214  0.058214  0.029107     24.000000
  0.087321  0.058214  0.029107     48.000000
  0.116428  0.058214  0.029107     48.000000
  0.087321  0.087321  0.029107     24.000000
  0.116428  0.087321  0.029107     48.000000
  0.116428  0.116428  0.029107     24.000000
  0.058214  0.058214  0.058214      8.000000
  0.087321  0.058214  0.058214     24.000000
  0.116428  0.058214  0.058214     24.000000
  0.087321  0.087321  0.058214     24.000000
  0.116428  0.087321  0.058214     48.000000
  0.116428  0.116428  0.058214     24.000000
  0.087321  0.087321  0.087321      8.000000
  0.116428  0.087321  0.087321     24.000000
  0.116428  0.116428  0.087321     24.000000
  0.116428  0.116428  0.116428      8.000000
 


--------------------------------------------------------------------------------------------------------




 Dimension of arrays:
   k-points           NKPTS =     35   k-points in BZ     NKDIM =     35   number of bands    NBANDS=     48
   number of dos      NEDOS =    301   number of ions     NIONS =      4
   non local maximal  LDIM  =      6   non local SUM 2l+1 LMDIM =     18
   total plane-waves  NPLWV =   8000
   max r-space proj   IRMAX =      1   max aug-charges    IRDMAX=   7270
   dimension x,y,z NGX =    20 NGY =   20 NGZ =   20
   dimension x,y,z NGXF=    40 NGYF=   40 NGZF=   40
   support grid    NGXF=    40 NGYF=   40 NGZF=   40
   ions per type =               4
 NGX,Y,Z   is equivalent  to a cutoff of   8.71,  8.71,  8.71 a.u.
 NGXF,Y,Z  is equivalent  to a cutoff of  17.42, 17.42, 17.42 a.u.


 I would recommend the setting:
   dimension x,y,z NGX =    19 NGY =   19 NGZ =   19
 SYSTEM =  unknown system                          
 POSCAR =  Ag                                      

 Startparameter for this run:
   NWRITE =      2    write-flag & timer
   PREC   = normal    normal or accurate (medium, high low for compatibility)
   ISTART =      0    job   : 0-new  1-cont  2-samecut
   ICHARG =      2    charge: 1-file 2-atom 10-const
   ISPIN  =      1    spin polarized calculation?
   LNONCOLLINEAR =      F non collinear calculations
   LSORBIT =      F    spin-orbit coupling
   INIWAV =      1    electr: 0-lowe 1-rand  2-diag
   LASPH  =      F    aspherical Exc in radial PAW
   METAGGA=      F    non-selfconsistent MetaGGA calc.

 Electronic Relaxation 1
   ENCUT  =  400.0 eV  29.40 Ry    5.42 a.u.   6.23  6.23  6.23*2*pi/ulx,y,z
   ENINI  =  400.0     initial cutoff
   ENAUG  =  412.5 eV  augmentation charge cutoff
   NELM   =     60;   NELMIN=  2; NELMDL= -5     # of ELM steps 
   EDIFF  = 0.1E-03   stopping-criterion for ELM
   LREAL  =      F    real-space projection
   NLSPLINE    = F    spline interpolate recip. space projectors
   LCOMPAT=      F    compatible to vasp.4.4
   GGA_COMPAT  = T    GGA compatible to vasp.4.4-vasp.4.6
   LMAXPAW     = -100 max onsite density
   LMAXMIX     =    2 max onsite mixed and CHGCAR
   VOSKOWN=      0    Vosko Wilk Nusair interpolation
   ROPT   =    0.00000
 Ionic relaxation
   EDIFFG = 0.1E-02   stopping-criterion for IOM
   NSW    =      0    number of steps for IOM
   NBLOCK =      1;   KBLOCK =      1    inner block; outer block 
   IBRION =     -1    ionic relax: 0-MD 1-quasi-New 2-CG
   NFREE  =      0    steps in history (QN), initial steepest desc. (CG)
   ISIF   =      2    stress and relaxation
   IWAVPR =     10    prediction:  0-non 1-charg 2-wave 3-comb
   ISYM   =      2    0-nonsym 1-usesym 2-fastsym
   LCORR  =      T    Harris-Foulkes like correction to forces

   POTIM  = 0.5000    time-step for ionic-motion
   TEIN   =    0.0    initial temperature
   TEBEG  =    0.0;   TEEND  =   0.0 temperature during run
   SMASS  =  -3.00    Nose mass-parameter (am)
   estimated Nose-frequenzy (Omega)   =  0.10E-29 period in steps =****** mass=  -0.333E-27a.u.
   SCALEE = 1.0000    scale energy and forces
   NPACO  =    256;   APACO  = 16.0  distance and # of slots for P.C.
   PSTRESS=    0.0 pullay stress

  Mass of Ions in am
   POMASS = 107.87
  Ionic Valenz
   ZVAL   =  11.00
  Atomic Wigner-Seitz radii
   RWIGS  =  -1.00
  virtual crystal weights 
   VCA    =   1.00
   NELECT =      44.0000    total number of electrons
   NUPDOWN=      -1.0000    fix difference up-down

 DOS related values:
   EMIN   =  10.00;   EMAX   =-10.00  energy-range for DOS
   EFERMI =   0.00
   ISMEAR =     1;   SIGMA  =   0.10  broadening in eV -4-tet -1-fermi 0-gaus

 Electronic relaxation 2 (details)
   IALGO  =     38    algorithm
   LDIAG  =      T    sub-space diagonalisation (order eigenvalues)
   LSUBROT=      F    optimize rotation matrix (better conditioning)
   TURBO    =      0    0=normal 1=particle mesh
   IRESTART =      0    0=no restart 2=restart with 2 vectors
   NREBOOT  =      0    no. of reboots
   NMIN     =      0    reboot dimension
   EREF     =   0.00    reference energy to select bands
   IMIX   =      4    mixing-type and parameters
     AMIX     =   0.40;   BMIX     =  1.00
     AMIX_MAG =   1.60;   BMIX_MAG =  1.00
     AMIN     =   0.10
     WC   =   100.;   INIMIX=   1;  MIXPRE=   1;  MAXMIX= -45

 Intra band minimization:
   WEIMIN = 0.0000     energy-eigenvalue tresh-hold
   EBREAK =  0.52E-06  absolut break condition
   DEPER  =   0.30     relativ break condition  

   TIME   =   0.40     timestep for ELM

  volume/ion in A,a.u.               =      13.91        93.85
  Fermi-wavevector in a.u.,A,eV,Ry     =   1.514022  2.861088 31.188143  2.292264
  Thomas-Fermi vector in A             =   2.623735
 
 Write flags
   LWAVE  =      F    write WAVECAR
   LCHARG =      F    write CHGCAR
   LVTOT  =      F    write LOCPOT, total local potential
   LVHAR  =      F    write LOCPOT, Hartree potential only
   LELF   =      F    write electronic localiz. function (ELF)
   LORBIT =      0    0 simple, 1 ext, 2 COOP (PROOUT)


 Dipole corrections
   LMONO  =      F    monopole corrections only (constant potential shift)
   LDIPOL =      F    correct potential (dipole corrections)
   IDIPOL =      0    1-x, 2-y, 3-z, 4-all directions 
   EPSILON=  1.0000000 bulk dielectric constant

 Exchange correlation treatment:
   GGA     =    --    GGA type
   LEXCH   =     8    internal setting for exchange type
   VOSKOWN=      0    Vosko Wilk Nusair interpolation
   LHFCALC =     F    Hartree Fock is set to
   LHFONE  =     F    Hartree Fock one center treatment
   AEXX    =    0.0000 exact exchange contribution

 Linear response parameters
   LEPSILON=     F    determine dielectric tensor
   LRPA    =     F    only Hartree local field effects (RPA)
   LNABLA  =     F    use nabla operator in PAW spheres
   LVEL    =     F    velocity operator in full k-point grid
   LINTERFAST=   F  fast interpolation
   KINTER  =     0    interpolate to denser k-point grid
   CSHIFT  =0.1000    complex shift for real part using Kramers Kronig
   OMEGAMAX=  -1.0    maximum frequency
   DEG_THRESHOLD= 0.2000000E-02 threshold for treating states as degnerate
   RTIME   =    0.100 relaxation time in fs

 Orbital magnetization related:
   ORBITALMAG=     F  switch on orbital magnetization
   LCHIMAG   =     F  perturbation theory with respect to B field
   DQ        =  0.001000  dq finite difference perturbation B field



--------------------------------------------------------------------------------------------------------


 Static calculation
 charge density and potential will be updated during run
 non-spin polarized calculation
 Variant of blocked Davidson
 Davidson routine will perform the subspace rotation
 perform sub-space diagonalisation
    after iterative eigenvector-optimisation
 modified Broyden-mixing scheme, WC =      100.0
 initial mixing is a Kerker type mixing with AMIX =  0.4000 and BMIX =      1.0000
 Hartree-type preconditioning will be used
 using additional bands           26
 reciprocal scheme for non local part
 use partial core corrections
 calculate Harris-corrections to forces 
   (improved forces if not selfconsistent)
 use gradient corrections 
 use of overlap-Matrix (Vanderbilt PP)
 Methfessel and Paxton  Order N= 1 SIGMA  =   0.10


--------------------------------------------------------------------------------------------------------


  energy-cutoff  :      400.00
  volume of cell :       55.63
      direct lattice vectors                 reciprocal lattice vectors
     3.817333333  0.000000000  0.000000000     0.261962976  0.000000000  0.000000000
     0.000000000  3.817333333  0.000000000     0.000000000  0.261962976  0.000000000
     0.000000000  0.000000000  3.817333333     0.000000000  0.000000000  0.261962976

  length of vectors
     3.817333333  3.817333333  3.817333333     0.261962976  0.261962976  0.261962976


 
 k-points in units of 2pi/SCALE and weight: KPOINTS created by Atomic Simulation Env
   0.00000000  0.00000000  0.00000000       0.001
   0.02910700  0.00000000  0.00000000       0.008
   0.05821399  0.00000000  0.00000000       0.008
   0.08732099  0.00000000  0.00000000       0.008
   0.11642799  0.00000000  0.00000000       0.008
   0.02910700  0.02910700  0.00000000       0.016
   0.05821399  0.02910700  0.00000000       0.033
   0.08732099  0.02910700  0.00000000       0.033
   0.11642799  0.02910700  0.00000000       0.033
   0.05821399  0.05821399  0.00000000       0.016
   0.08732099  0.05821399  0.00000000       0.033
   0.11642799  0.05821399  0.00000000       0.033
   0.08732099  0.08732099  0.00000000       0.016
   0.11642799  0.08732099  0.00000000       0.033
   0.11642799  0.11642799  0.00000000       0.016
   0.02910700  0.02910700  0.02910700       0.011
   0.05821399  0.02910700  0.02910700       0.033
   0.08732099  0.02910700  0.02910700       0.033
   0.11642799  0.02910700  0.02910700       0.033
   0.05821399  0.05821399  0.02910700       0.033
   0.08732099  0.05821399  0.02910700       0.066
   0.11642799  0.05821399  0.02910700       0.066
   0.08732099  0.08732099  0.02910700       0.033
   0.11642799  0.08732099  0.02910700       0.066
   0.11642799  0.11642799  0.02910700       0.033
   0.05821399  0.05821399  0.05821399       0.011
   0.08732099  0.05821399  0.05821399       0.033
   0.11642799  0.05821399  0.05821399       0.033
   0.08732099  0.08732099  0.05821399       0.033
   0.11642799  0.08732099  0.05821399       0.066
   0.11642799  0.11642799  0.05821399       0.033
   0.08732099  0.08732099  0.08732099       0.011
   0.11642799  0.08732099  0.08732099       0.033
   0.11642799  0.11642799  0.08732099       0.033
   0.11642799  0.11642799  0.11642799       0.011
 
 k-points in reciprocal lattice and weights: KPOINTS created by Atomic Simulation Env
   0.00000000  0.00000000  0.00000000       0.001
   0.11111111  0.00000000  0.00000000       0.008
   0.22222222  0.00000000  0.00000000       0.008
   0.33333333  0.00000000  0.00000000       0.008
   0.44444444  0.00000000  0.00000000       0.008
   0.11111111  0.11111111  0.00000000       0.016
   0.22222222  0.11111111  0.00000000       0.033
   0.33333333  0.11111111  0.00000000       0.033
   0.44444444  0.11111111  0.00000000       0.033
   0.22222222  0.22222222  0.00000000       0.016
   0.33333333  0.22222222  0.00000000       0.033
   0.44444444  0.22222222  0.00000000       0.033
   0.33333333  0.33333333  0.00000000       0.016
   0.44444444  0.33333333  0.00000000       0.033
   0.44444444  0.44444444  0.00000000       0.016
   0.11111111  0.11111111  0.11111111       0.011
   0.22222222  0.11111111  0.11111111       0.033
   0.33333333  0.11111111  0.11111111       0.033
   0.44444444  0.11111111  0.11111111       0.033
   0.22222222  0.22222222  0.11111111       0.033
   0.33333333  0.22222222  0.11111111       0.066
   0.44444444  0.22222222  0.11111111       0.066
   0.33333333  0.33333333  0.11111111       0.033
   0.44444444  0.33333333  0.11111111       0.066
   0.44444444  0.44444444  0.11111111       0.033
   0.22222222  0.22222222  0.22222222       0.011
   0.33333333  0.22222222  0.22222222       0.033
   0.44444444  0.22222222  0.22222222       0.033
   0.33333333  0.33333333  0.22222222       0.033
   0.44444444  0.33333333  0.22222222       0.066
   0.44444444  0.44444444  0.22222222       0.033
   0.33333333  0.33333333  0.33333333       0.011
   0.44444444  0.33333333  0.33333333       0.033
   0.44444444  0.44444444  0.33333333       0.033
   0.44444444  0.44444444  0.44444444       0.011
 
 position of ions in fractional coordinates (direct lattice) 
   0.00000000  0.00000000  0.00000000
   0.00000000  0.50000000  0.50000000
   0.50000000  0.00000000  0.50000000
   0.50000000  0.50000000  0.00000000
 
 position of ions in cartesian coordinates  (Angst):
   0.00000000  0.00000000  0.00000000
   0.00000000  1.90866667  1.90866667
   1.90866667  0.00000000  1.90866667
   1.90866667  1.90866667  0.00000000
 


--------------------------------------------------------------------------------------------------------


 k-point  1 :   0.0000 0.0000 0.0000  plane waves:    1021
 k-point  2 :   0.1111 0.0000 0.0000  plane waves:    1013
 k-point  3 :   0.2222 0.0000 0.0000  plane waves:    1001
 k-point  4 :   0.3333 0.0000 0.0000  plane waves:    1000
 k-point  5 :   0.4444 0.0000 0.0000  plane waves:    1016
 k-point  6 :   0.1111 0.1111 0.0000  plane waves:    1007
 k-point  7 :   0.2222 0.1111 0.0000  plane waves:    1009
 k-point  8 :   0.3333 0.1111 0.0000  plane waves:    1011
 k-point  9 :   0.4444 0.1111 0.0000  plane waves:    1010
 k-point 10 :   0.2222 0.2222 0.0000  plane waves:    1003
 k-point 11 :   0.3333 0.2222 0.0000  plane waves:    1007
 k-point 12 :   0.4444 0.2222 0.0000  plane waves:    1014
 k-point 13 :   0.3333 0.3333 0.0000  plane waves:    1009
 k-point 14 :   0.4444 0.3333 0.0000  plane waves:    1017
 k-point 15 :   0.4444 0.4444 0.0000  plane waves:    1016
 k-point 16 :   0.1111 0.1111 0.1111  plane waves:    1000
 k-point 17 :   0.2222 0.1111 0.1111  plane waves:    1010
 k-point 18 :   0.3333 0.1111 0.1111  plane waves:    1019
 k-point 19 :   0.4444 0.1111 0.1111  plane waves:    1007
 k-point 20 :   0.2222 0.2222 0.1111  plane waves:    1008
 k-point 21 :   0.3333 0.2222 0.1111  plane waves:    1013
 k-point 22 :   0.4444 0.2222 0.1111  plane waves:    1010
 k-point 23 :   0.3333 0.3333 0.1111  plane waves:    1011
 k-point 24 :   0.4444 0.3333 0.1111  plane waves:    1010
 k-point 25 :   0.4444 0.4444 0.1111  plane waves:    1015
 k-point 26 :   0.2222 0.2222 0.2222  plane waves:    1012
 k-point 27 :   0.3333 0.2222 0.2222  plane waves:    1003
 k-point 28 :   0.4444 0.2222 0.2222  plane waves:    1008
 k-point 29 :   0.3333 0.3333 0.2222  plane waves:    1001
 k-point 30 :   0.4444 0.3333 0.2222  plane waves:    1012
 k-point 31 :   0.4444 0.4444 0.2222  plane waves:    1003
 k-point 32 :   0.3333 0.3333 0.3333  plane waves:    1009
 k-point 33 :   0.4444 0.3333 0.3333  plane waves:    1008
 k-point 34 :   0.4444 0.4444 0.3333  plane waves:    1014
 k-point 35 :   0.4444 0.4444 0.4444  plane waves:    1016

 maximum and minimum number of plane-waves per node :      1021     1000

 maximum number of plane-waves:      1021
 maximum index in each direction: 
   IXMAX=    6   IYMAX=    6   IZMAX=    6
   IXMIN=   -6   IYMIN=   -6   IZMIN=   -6

 WARNING: aliasing errors must be expected set NGX to  26 to avoid them
 WARNING: aliasing errors must be expected set NGY to  26 to avoid them
 WARNING: aliasing errors must be expected set NGZ to  26 to avoid them
 aliasing errors are usually negligible using standard VASP settings
 and one can safely disregard these warnings

 serial   3D FFT for wavefunctions
 parallel 3D FFT for charge:
    minimum data exchange during FFTs selected (reduces bandwidth)


 total amount of memory used by VASP on root node    37197. kBytes
========================================================================

   base      :      30000. kBytes
   nonl-proj :       5267. kBytes
   fftplans  :        147. kBytes
   grid      :        485. kBytes
   one-center:         62. kBytes
   wavefun   :       1236. kBytes
 
     INWAV:  cpu time    0.0000: real time    0.0001
 Broyden mixing: mesh for mixing (old mesh)
   NGX = 13   NGY = 13   NGZ = 13
  (NGX  = 40   NGY  = 40   NGZ  = 40)
  gives a total of   2197 points

 initial charge density was supplied:
 charge density of overlapping atoms calculated
 number of electron      44.0000000 magnetization 
 keeping initial charge density in first step


--------------------------------------------------------------------------------------------------------


 Maximum index for augmentation-charges          437 (set IRDMAX)


--------------------------------------------------------------------------------------------------------


 First call to EWALD:  gamma=   0.464
 Maximum number of real-space cells 3x 3x 3
 Maximum number of reciprocal cells 3x 3x 3

 FEWALD executed in parallel
    FEWALD:  cpu time    0.0016: real time    0.0016


----------------------------------------- Iteration    1(   1)  ---------------------------------------


    POTLOK:  cpu time    0.1092: real time    0.1369
    SETDIJ:  cpu time    0.0031: real time    0.0031
     EDDAV:  cpu time    0.4921: real time    0.4922
       DOS:  cpu time    0.0019: real time    0.0019
    --------------------------------------------
      LOOP:  cpu time    0.6078: real time    0.6572

 eigenvalue-minimisations  :  3360
 total energy-change (2. order) : 0.2014808E+03  (-0.1874046E+04)
 number of electron      44.0000000 magnetization 
 augmentation part       44.0000000 magnetization 

 Free energy of the ion-electron system (eV)
  ---------------------------------------------------
  alpha Z        PSCENC =       244.65489508
  Ewald energy   TEWEN  =     -4185.40640392
  -Hartree energ DENC   =      -686.84728920
  -exchange      EXHF   =         0.00000000
  -V(xc)+E(xc)   XCENC  =       -39.05300166
  PAW double counting   =      4013.84859731    -3829.39709692
  entropy T*S    EENTRO =         0.00055160
  eigenvalues    EBANDS =       534.64679868
  atomic energy  EATOM  =      4149.03371350
  Solvation  Ediel_sol  =         0.00000000
  ---------------------------------------------------
  free energy    TOTEN  =       201.48076447 eV

  energy without entropy =      201.48021287  energy(sigma->0) =      201.48058060


--------------------------------------------------------------------------------------------------------




----------------------------------------- Iteration    1(   2)  ---------------------------------------


     EDDAV:  cpu time    0.7191: real time    0.7194
       DOS:  cpu time    0.0023: real time    0.0023
    --------------------------------------------
      LOOP:  cpu time    0.7227: real time    0.7251

 eigenvalue-minimisations  :  4512
 total energy-change (2. order) :-0.2086559E+03  (-0.1973064E+03)
 number of electron      44.0000000 magnetization 
 augmentation part       44.0000000 magnetization 

 Free energy of the ion-electron system (eV)
  ---------------------------------------------------
  alpha Z        PSCENC =       244.65489508
  Ewald energy   TEWEN  =     -4185.40640392
  -Hartree energ DENC   =      -686.84728920
  -exchange      EXHF   =         0.00000000
  -V(xc)+E(xc)   XCENC  =       -39.05300166
  PAW double counting   =      4013.84859731    -3829.39709692
  entropy T*S    EENTRO =        -0.00266790
  eigenvalues    EBANDS =       325.99414061
  atomic energy  EATOM  =      4149.03371350
  Solvation  Ediel_sol  =         0.00000000
  ---------------------------------------------------
  free energy    TOTEN  =        -7.17511310 eV

  energy without entropy =       -7.17244520  energy(sigma->0) =       -7.17422380


--------------------------------------------------------------------------------------------------------




----------------------------------------- Iteration    1(   3)  ---------------------------------------


     EDDAV:  cpu time    0.5539: real time    0.5544
       DOS:  cpu time    0.0019: real time    0.0019
    --------------------------------------------
      LOOP:  cpu time    0.5567: real time    0.5599

 eigenvalue-minimisations  :  3816
 total energy-change (2. order) :-0.3182002E+01  (-0.3179999E+01)
 number of electron      44.0000000 magnetization 
 augmentation part       44.0000000 magnetization 

 Free energy of the ion-electron system (eV)
  ---------------------------------------------------
  alpha Z        PSCENC =       244.65489508
  Ewald energy   TEWEN  =     -4185.40640392
  -Hartree energ DENC   =      -686.84728920
  -exchange      EXHF   =         0.00000000
  -V(xc)+E(xc)   XCENC  =       -39.05300166
  PAW double counting   =      4013.84859731    -3829.39709692
  entropy T*S    EENTRO =        -0.00271321
  eigenvalues    EBANDS =       322.81218351
  atomic energy  EATOM  =      4149.03371350
  Solvation  Ediel_sol  =         0.00000000
  ---------------------------------------------------
  free energy    TOTEN  =       -10.35711551 eV

  energy without entropy =      -10.35440230  energy(sigma->0) =      -10.35621111


--------------------------------------------------------------------------------------------------------




----------------------------------------- Iteration    1(   4)  ---------------------------------------


     EDDAV:  cpu time    0.7418: real time    0.7418
       DOS:  cpu time    0.0009: real time    0.0009
    --------------------------------------------
      LOOP:  cpu time    0.7436: real time    0.7451

 eigenvalue-minimisations  :  4728
 total energy-change (2. order) :-0.8823114E-02  (-0.8822915E-02)
 number of electron      44.0000000 magnetization 
 augmentation part       44.0000000 magnetization 

 Free energy of the ion-electron system (eV)
  ---------------------------------------------------
  alpha Z        PSCENC =       244.65489508
  Ewald energy   TEWEN  =     -4185.40640392
  -Hartree energ DENC   =      -686.84728920
  -exchange      EXHF   =         0.00000000
  -V(xc)+E(xc)   XCENC  =       -39.05300166
  PAW double counting   =      4013.84859731    -3829.39709692
  entropy T*S    EENTRO =        -0.00271305
  eigenvalues    EBANDS =       322.80336023
  atomic energy  EATOM  =      4149.03371350
  Solvation  Ediel_sol  =         0.00000000
  ---------------------------------------------------
  free energy    TOTEN  =       -10.36593863 eV

  energy without entropy =      -10.36322558  energy(sigma->0) =      -10.36503428


--------------------------------------------------------------------------------------------------------




----------------------------------------- Iteration    1(   5)  ---------------------------------------


     EDDAV:  cpu time    0.5535: real time    0.5534
       DOS:  cpu time    0.0009: real time    0.0009
    CHARGE:  cpu time    0.0136: real time    0.0141
    MIXING:  cpu time    0.0005: real time    0.0005
    --------------------------------------------
      LOOP:  cpu time    0.5694: real time    0.5715

 eigenvalue-minimisations  :  3768
 total energy-change (2. order) :-0.6752827E-04  (-0.6752833E-04)
 number of electron      43.9999743 magnetization 
 augmentation part       20.1277044 magnetization 

 Broyden mixing:
  rms(total) = 0.18893E+01    rms(broyden)= 0.18893E+01
  rms(prec ) = 0.24507E+01
  weight for this iteration     100.00

 Free energy of the ion-electron system (eV)
  ---------------------------------------------------
  alpha Z        PSCENC =       244.65489508
  Ewald energy   TEWEN  =     -4185.40640392
  -Hartree energ DENC   =      -686.84728920
  -exchange      EXHF   =         0.00000000
  -V(xc)+E(xc)   XCENC  =       -39.05300166
  PAW double counting   =      4013.84859731    -3829.39709692
  entropy T*S    EENTRO =        -0.00271304
  eigenvalues    EBANDS =       322.80329270
  atomic energy  EATOM  =      4149.03371350
  Solvation  Ediel_sol  =         0.00000000
  ---------------------------------------------------
  free energy    TOTEN  =       -10.36600616 eV

  energy without entropy =      -10.36329311  energy(sigma->0) =      -10.36510181


--------------------------------------------------------------------------------------------------------




----------------------------------------- Iteration    1(   6)  ---------------------------------------


    POTLOK:  cpu time    0.0083: real time    0.0083
    SETDIJ:  cpu time    0.0024: real time    0.0024
     EDDAV:  cpu time    0.6601: real time    0.6601
       DOS:  cpu time    0.0009: real time    0.0009
    CHARGE:  cpu time    0.0096: real time    0.0096
    MIXING:  cpu time    0.0068: real time    0.0068
    --------------------------------------------
      LOOP:  cpu time    0.6890: real time    0.6907

 eigenvalue-minimisations  :  4320
 total energy-change (2. order) : 0.1084680E+01  (-0.2035834E+00)
 number of electron      43.9999736 magnetization 
 augmentation part       20.7158415 magnetization 

 Broyden mixing:
  rms(total) = 0.11158E+01    rms(broyden)= 0.11158E+01
  rms(prec ) = 0.11768E+01
  weight for this iteration     100.00

 eigenvalues of (default mixing * dielectric matrix)
  average eigenvalue GAMMA=   2.0210
  2.0210

 Free energy of the ion-electron system (eV)
  ---------------------------------------------------
  alpha Z        PSCENC =       244.65489508
  Ewald energy   TEWEN  =     -4185.40640392
  -Hartree energ DENC   =      -648.41680896
  -exchange      EXHF   =         0.00000000
  -V(xc)+E(xc)   XCENC  =       -40.40031801
  PAW double counting   =      4393.38112366    -4215.73686249
  entropy T*S    EENTRO =        -0.00154280
  eigenvalues    EBANDS =       293.61087799
  atomic energy  EATOM  =      4149.03371350
  Solvation  Ediel_sol  =         0.00000000
  ---------------------------------------------------
  free energy    TOTEN  =        -9.28132594 eV

  energy without entropy =       -9.27978314  energy(sigma->0) =       -9.28081167


--------------------------------------------------------------------------------------------------------




----------------------------------------- Iteration    1(   7)  ---------------------------------------


    POTLOK:  cpu time    0.0056: real time    0.0057
    SETDIJ:  cpu time    0.0024: real time    0.0024
     EDDAV:  cpu time    0.6587: real time    0.6587
       DOS:  cpu time    0.0017: real time    0.0017
    CHARGE:  cpu time    0.0220: real time    0.0220
    MIXING:  cpu time    0.0003: real time    0.0003
    --------------------------------------------
      LOOP:  cpu time    0.6918: real time    0.6934

 eigenvalue-minimisations  :  4320
 total energy-change (2. order) : 0.9535356E-01  (-0.1146387E-01)
 number of electron      43.9999735 magnetization 
 augmentation part       20.8465464 magnetization 

 Broyden mixing:
  rms(total) = 0.45949E+00    rms(broyden)= 0.45948E+00
  rms(prec ) = 0.46220E+00
  weight for this iteration     100.00

 eigenvalues of (default mixing * dielectric matrix)
  average eigenvalue GAMMA=   1.8880
  1.1648  2.6112

 Free energy of the ion-electron system (eV)
  ---------------------------------------------------
  alpha Z        PSCENC =       244.65489508
  Ewald energy   TEWEN  =     -4185.40640392
  -Hartree energ DENC   =      -634.73614193
  -exchange      EXHF   =         0.00000000
  -V(xc)+E(xc)   XCENC  =       -40.87805442
  PAW double counting   =      4731.49101336    -4560.16365653
  entropy T*S    EENTRO =        -0.00147662
  eigenvalues    EBANDS =       286.82013910
  atomic energy  EATOM  =      4149.03371350
  Solvation  Ediel_sol  =         0.00000000
  ---------------------------------------------------
  free energy    TOTEN  =        -9.18597237 eV

  energy without entropy =       -9.18449576  energy(sigma->0) =       -9.18548017


--------------------------------------------------------------------------------------------------------




----------------------------------------- Iteration    1(   8)  ---------------------------------------


    POTLOK:  cpu time    0.0080: real time    0.0080
    SETDIJ:  cpu time    0.0023: real time    0.0023
     EDDAV:  cpu time    0.6472: real time    0.6472
       DOS:  cpu time    0.0013: real time    0.0013
    CHARGE:  cpu time    0.0094: real time    0.0094
    MIXING:  cpu time    0.0002: real time    0.0002
    --------------------------------------------
      LOOP:  cpu time    0.6695: real time    0.6721

 eigenvalue-minimisations  :  4128
 total energy-change (2. order) : 0.1622449E-01  (-0.7889663E-03)
 number of electron      43.9999735 magnetization 
 augmentation part       20.8277481 magnetization 

 Broyden mixing:
  rms(total) = 0.30017E-01    rms(broyden)= 0.30017E-01
  rms(prec ) = 0.30638E-01
  weight for this iteration     100.00

 eigenvalues of (default mixing * dielectric matrix)
  average eigenvalue GAMMA=   1.5254
  2.5116  1.1719  0.8927

 Free energy of the ion-electron system (eV)
  ---------------------------------------------------
  alpha Z        PSCENC =       244.65489508
  Ewald energy   TEWEN  =     -4185.40640392
  -Hartree energ DENC   =      -631.31384789
  -exchange      EXHF   =         0.00000000
  -V(xc)+E(xc)   XCENC  =       -41.00070625
  PAW double counting   =      4941.97307072    -4774.83460692
  entropy T*S    EENTRO =        -0.00149221
  eigenvalues    EBANDS =       287.72563001
  atomic energy  EATOM  =      4149.03371350
  Solvation  Ediel_sol  =         0.00000000
  ---------------------------------------------------
  free energy    TOTEN  =        -9.16974788 eV

  energy without entropy =       -9.16825567  energy(sigma->0) =       -9.16925048


--------------------------------------------------------------------------------------------------------




----------------------------------------- Iteration    1(   9)  ---------------------------------------


    POTLOK:  cpu time    0.0050: real time    0.0050
    SETDIJ:  cpu time    0.0021: real time    0.0021
     EDDAV:  cpu time    0.5933: real time    0.5933
       DOS:  cpu time    0.0014: real time    0.0014
    --------------------------------------------
      LOOP:  cpu time    0.6027: real time    0.6042

 eigenvalue-minimisations  :  3576
 total energy-change (2. order) :-0.1876727E-04  (-0.3176027E-05)
 number of electron      43.9999735 magnetization 
 augmentation part       20.8277481 magnetization 

 Free energy of the ion-electron system (eV)
  ---------------------------------------------------
  alpha Z        PSCENC =       244.65489508
  Ewald energy   TEWEN  =     -4185.40640392
  -Hartree energ DENC   =      -631.63967884
  -exchange      EXHF   =         0.00000000
  -V(xc)+E(xc)   XCENC  =       -40.98949476
  PAW double counting   =      4930.95337069    -4763.50639312
  entropy T*S    EENTRO =        -0.00149282
  eigenvalues    EBANDS =       287.73171753
  atomic energy  EATOM  =      4149.03371350
  Solvation  Ediel_sol  =         0.00000000
  ---------------------------------------------------
  free energy    TOTEN  =        -9.16976665 eV

  energy without entropy =       -9.16827383  energy(sigma->0) =       -9.16926904


--------------------------------------------------------------------------------------------------------




 average (electrostatic) potential at core
  the test charge radii are     1.1249
  (the norm of the test charge is              1.0000)
       1 -68.1541       2 -68.1541       3 -68.1541       4 -68.1541
 
 
 
 E-fermi :  11.6994     XC(G=0): -13.4705     alpha+bet :-16.5055


 k-point     1 :       0.0000    0.0000    0.0000
  band No.  band energies     occupation 
      1       2.2166      2.00000
      2       3.6047      2.00000
      3       3.6047      2.00000
      4       3.6047      2.00000
      5       3.8279      2.00000
      6       3.8279      2.00000
      7       3.8279      2.00000
      8       5.9401      2.00000
      9       5.9401      2.00000
     10       5.9401      2.00000
     11       7.4203      2.00000
     12       7.4203      2.00000
     13       8.5109      2.00000
     14       8.5109      2.00000
     15       8.5109      2.00000
     16       8.8493      2.00000
     17       8.8493      2.00000
     18       8.8493      2.00000
     19       8.8493      2.00000
     20       8.8493      2.00000
     21       8.8493      2.00000
     22      13.0358     -0.00000
     23      13.0358     -0.00000
     24      13.0358     -0.00000
     25      20.1418      0.00000
     26      20.1418      0.00000
     27      20.1418      0.00000
     28      23.3331      0.00000
     29      23.3331      0.00000
     30      23.3331      0.00000
     31      23.3331      0.00000
     32      23.3331      0.00000
     33      23.3331      0.00000
     34      27.9147      0.00000
     35      31.4954      0.00000
     36      31.4954      0.00000
     37      31.4954      0.00000
     38      31.7496      0.00000
     39      31.7496      0.00000
     40      31.7496      0.00000
     41      32.7167      0.00000
     42      32.7167      0.00000
     43      32.7167      0.00000
     44      38.1288      0.00000
     45      40.9817      0.00000
     46      40.9817      0.00000
     47      40.9817      0.00000
     48      43.2495      0.00000

 k-point     2 :       0.1111    0.0000    0.0000
  band No.  band energies     occupation 
      1       2.3697      2.00000
      2       3.6780      2.00000
      3       3.6967      2.00000
      4       3.6967      2.00000
      5       3.8827      2.00000
      6       3.9130      2.00000
      7       3.9130      2.00000
      8       5.8650      2.00000
      9       6.0050      2.00000
     10       6.0050      2.00000
     11       7.3436      2.00000
     12       7.4509      2.00000
     13       8.4073      2.00000
     14       8.4073      2.00000
     15       8.4626      2.00000
     16       8.4626      2.00000
     17       8.4754      2.00000
     18       8.7247      2.00000
     19       8.7247      2.00000
     20       8.8495      2.00000
     21       8.8495      2.00000
     22      12.2539     -0.00000
     23      13.5348     -0.00000
     24      13.5348     -0.00000
     25      20.1346      0.00000
     26      20.1346      0.00000
     27      21.1090      0.00000
     28      22.9793      0.00000
     29      22.9793      0.00000
     30      22.9854      0.00000
     31      22.9854      0.00000
     32      23.6296      0.00000
     33      23.6296      0.00000
     34      28.0526      0.00000
     35      31.4141      0.00000
     36      31.7030      0.00000
     37      31.8148      0.00000
     38      31.8148      0.00000
     39      32.1133      0.00000
     40      32.4854      0.00000
     41      32.4854      0.00000
     42      32.5666      0.00000
     43      32.5666      0.00000
     44      39.1542      0.00000
     45      40.3379      0.00000
     46      40.3379      0.00000
     47      41.1545      0.00000
     48      42.8521      0.00000

 k-point     3 :       0.2222    0.0000    0.0000
  band No.  band energies     occupation 
      1       2.8112      2.00000
      2       3.8801      2.00000
      3       3.9518      2.00000
      4       3.9518      2.00000
      5       4.0432      2.00000
      6       4.1668      2.00000
      7       4.1668      2.00000
      8       5.6538      2.00000
      9       6.1973      2.00000
     10       6.1973      2.00000
     11       7.1410      2.00000
     12       7.5397      2.00000
     13       7.6334      2.00000
     14       7.6334      2.00000
     15       8.1202      2.00000
     16       8.1202      2.00000
     17       8.3745      2.00000
     18       8.3869      2.00000
     19       8.3869      2.00000
     20       8.8501      2.00000
     21       8.8501      2.00000
     22      10.6411      2.00000
     23      14.6961      0.00000
     24      14.6961      0.00000
     25      20.1218      0.00000
     26      20.1218      0.00000
     27      22.0567      0.00000
     28      22.0567      0.00000
     29      22.2389      0.00000
     30      22.2389      0.00000
     31      23.2547      0.00000
     32      24.4766      0.00000
     33      24.4766      0.00000
     34      28.4383      0.00000
     35      31.0240      0.00000
     36      31.1721      0.00000
     37      31.6454      0.00000
     38      31.9711      0.00000
     39      31.9711      0.00000
     40      32.6875      0.00000
     41      32.6875      0.00000
     42      34.3398      0.00000
     43      34.3398      0.00000
     44      39.4862      0.00000
     45      39.4862      0.00000
     46      40.8784      0.00000
     47      41.5013      0.00000
     48      41.5013      0.00000

 k-point     4 :       0.3333    0.0000    0.0000
  band No.  band energies     occupation 
      1       3.4656      2.00000
      2       4.1482      2.00000
      3       4.2962      2.00000
      4       4.2971      2.00000
      5       4.2971      2.00000
      6       4.5856      2.00000
      7       4.5856      2.00000
      8       5.3437      2.00000
      9       6.5087      2.00000
     10       6.5087      2.00000
     11       6.7263      2.00000
     12       6.7263      2.00000
     13       6.9128      2.00000
     14       7.6781      2.00000
     15       7.7348      2.00000
     16       7.7348      2.00000
     17       7.9182      2.00000
     18       7.9182      2.00000
     19       8.2224      2.00000
     20       8.8506      2.00000
     21       8.8506      2.00000
     22       8.9669      2.00000
     23      16.1398      0.00000
     24      16.1398      0.00000
     25      20.1236      0.00000
     26      20.1236      0.00000
     27      20.7601      0.00000
     28      20.7601      0.00000
     29      21.5539      0.00000
     30      21.5539      0.00000
     31      25.7049      0.00000
     32      25.7684      0.00000
     33      25.7684      0.00000
     34      28.9980      0.00000
     35      30.0259      0.00000
     36      30.7571      0.00000
     37      30.7571      0.00000
     38      30.7773      0.00000
     39      31.8403      0.00000
     40      33.9730      0.00000
     41      33.9730      0.00000
     42      36.7457      0.00000
     43      36.7457      0.00000
     44      38.0303      0.00000
     45      39.4233      0.00000
     46      39.4233      0.00000
     47      39.5174      0.00000
     48      39.5174      0.00000

 k-point     5 :       0.4444    0.0000    0.0000
  band No.  band energies     occupation 
      1       4.1035      2.00000
      2       4.3241      2.00000
      3       4.5745      2.00000
      4       4.5745      2.00000
      5       4.6199      2.00000
      6       4.9830      2.00000
      7       5.1624      2.00000
      8       5.1624      2.00000
      9       5.8843      2.00000
     10       5.8843      2.00000
     11       6.9215      2.00000
     12       6.9215      2.00000
     13       6.9246      2.00000
     14       7.4065      2.00000
     15       7.4065      2.00000
     16       7.4288      2.00000
     17       7.4288      2.00000
     18       7.6113      2.00000
     19       7.8510      2.00000
     20       8.0400      2.00000
     21       8.8510      2.00000
     22       8.8510      2.00000
     23      17.6961      0.00000
     24      17.6961      0.00000
     25      19.2669      0.00000
     26      19.2669      0.00000
     27      20.1451      0.00000
     28      20.1451      0.00000
     29      21.1510      0.00000
     30      21.1510      0.00000
     31      27.3689      0.00000
     32      27.3689      0.00000
     33      27.7999      0.00000
     34      29.0998      0.00000
     35      29.1118      0.00000
     36      29.1118      0.00000
     37      29.6334      0.00000
     38      30.2502      0.00000
     39      32.8197      0.00000
     40      35.0282      0.00000
     41      35.5836      0.00000
     42      35.5836      0.00000
     43      37.4622      0.00000
     44      37.4622      0.00000
     45      39.0201      0.00000
     46      39.0201      0.00000
     47      40.2365      0.00000
     48      40.2365      0.00000

 k-point     6 :       0.1111    0.1111    0.0000
  band No.  band energies     occupation 
      1       2.5185      2.00000
      2       3.7665      2.00000
      3       3.7711      2.00000
      4       3.7711      2.00000
      5       3.9659      2.00000
      6       3.9659      2.00000
      7       4.0142      2.00000
      8       5.8357      2.00000
      9       6.0279      2.00000
     10       6.0612      2.00000
     11       7.3234      2.00000
     12       7.4374      2.00000
     13       8.2187      2.00000
     14       8.2202      2.00000
     15       8.2202      2.00000
     16       8.3121      2.00000
     17       8.4860      2.00000
     18       8.4860      2.00000
     19       8.7244      2.00000
     20       8.7244      2.00000
     21       8.7647      2.00000
     22      12.7376     -0.00000
     23      12.7376     -0.00000
     24      13.9771     -0.00000
     25      20.1223      0.00000
     26      21.1230      0.00000
     27      21.1230      0.00000
     28      21.6706      0.00000
     29      23.2454      0.00000
     30      23.2454      0.00000
     31      23.2701      0.00000
     32      23.2701      0.00000
     33      23.9028      0.00000
     34      28.1496      0.00000
     35      31.0460      0.00000
     36      31.3356      0.00000
     37      31.7502      0.00000
     38      31.7502      0.00000
     39      32.4414      0.00000
     40      32.4554      0.00000
     41      32.4554      0.00000
     42      33.2984      0.00000
     43      33.7106      0.00000
     44      38.5244      0.00000
     45      40.3249      0.00000
     46      40.8255      0.00000
     47      40.9315      0.00000
     48      42.6244      0.00000

 k-point     7 :       0.2222    0.1111    0.0000
  band No.  band energies     occupation 
      1       2.9472      2.00000
      2       3.9761      2.00000
      3       3.9764      2.00000
      4       4.0294      2.00000
      5       4.1203      2.00000
      6       4.2136      2.00000
      7       4.2955      2.00000
      8       5.6560      2.00000
      9       6.1992      2.00000
     10       6.2194      2.00000
     11       7.1591      2.00000
     12       7.4401      2.00000
     13       7.5177      2.00000
     14       7.5316      2.00000
     15       7.8442      2.00000
     16       8.0467      2.00000
     17       8.1681      2.00000
     18       8.3849      2.00000
     19       8.4003      2.00000
     20       8.7220      2.00000
     21       8.7230      2.00000
     22      11.1423      2.00000
     23      13.8158     -0.00000
     24      15.0563      0.00000
     25      19.9622      0.00000
     26      20.4670      0.00000
     27      21.1600      0.00000
     28      22.3211      0.00000
     29      22.4745      0.00000
     30      23.2814      0.00000
     31      23.9977      0.00000
     32      24.0127      0.00000
     33      24.0775      0.00000
     34      28.3844      0.00000
     35      29.7948      0.00000
     36      31.5614      0.00000
     37      31.6519      0.00000
     38      31.9831      0.00000
     39      32.4559      0.00000
     40      32.6580      0.00000
     41      33.2904      0.00000
     42      34.2925      0.00000
     43      35.6868      0.00000
     44      37.6952      0.00000
     45      39.7344      0.00000
     46      41.2328      0.00000
     47      41.4502      0.00000
     48      41.5407      0.00000

 k-point     8 :       0.3333    0.1111    0.0000
  band No.  band energies     occupation 
      1       3.5824      2.00000
      2       4.2507      2.00000
      3       4.3028      2.00000
      4       4.3638      2.00000
      5       4.3799      2.00000
      6       4.6218      2.00000
      7       4.7023      2.00000
      8       5.3654      2.00000
      9       6.4024      2.00000
     10       6.5056      2.00000
     11       6.5786      2.00000
     12       6.6792      2.00000
     13       7.0313      2.00000
     14       7.3371      2.00000
     15       7.6875      2.00000
     16       7.7095      2.00000
     17       7.7747      2.00000
     18       7.9147      2.00000
     19       8.2101      2.00000
     20       8.7145      2.00000
     21       8.7207      2.00000
     22       9.5585      2.00000
     23      15.0918      0.00000
     24      16.4448      0.00000
     25      18.8927      0.00000
     26      20.2974      0.00000
     27      21.0132      0.00000
     28      21.0972      0.00000
     29      21.9542      0.00000
     30      23.4460      0.00000
     31      25.0943      0.00000
     32      25.2842      0.00000
     33      25.7818      0.00000
     34      28.5231      0.00000
     35      28.6566      0.00000
     36      31.2165      0.00000
     37      31.2692      0.00000
     38      32.0493      0.00000
     39      32.7482      0.00000
     40      32.8611      0.00000
     41      33.9791      0.00000
     42      36.3368      0.00000
     43      37.5599      0.00000
     44      38.0045      0.00000
     45      39.2640      0.00000
     46      39.6067      0.00000
     47      39.6530      0.00000
     48      39.8065      0.00000

 k-point     9 :       0.4444    0.1111    0.0000
  band No.  band energies     occupation 
      1       4.2090      2.00000
      2       4.4327      2.00000
      3       4.6242      2.00000
      4       4.6582      2.00000
      5       4.6749      2.00000
      6       5.0222      2.00000
      7       5.1818      2.00000
      8       5.1869      2.00000
      9       5.8046      2.00000
     10       5.8779      2.00000
     11       6.4738      2.00000
     12       6.7889      2.00000
     13       6.9173      2.00000
     14       7.3063      2.00000
     15       7.4025      2.00000
     16       7.4108      2.00000
     17       7.4455      2.00000
     18       7.8634      2.00000
     19       7.9583      2.00000
     20       8.4231      2.00000
     21       8.7150      2.00000
     22       8.7178      2.00000
     23      16.3960      0.00000
     24      17.6604      0.00000
     25      17.9684      0.00000
     26      19.5225      0.00000
     27      20.4448      0.00000
     28      20.7491      0.00000
     29      22.1229      0.00000
     30      22.7022      0.00000
     31      26.3532      0.00000
     32      26.7026      0.00000
     33      27.5545      0.00000
     34      27.9880      0.00000
     35      28.1689      0.00000
     36      30.2403      0.00000
     37      30.7720      0.00000
     38      30.9367      0.00000
     39      33.7368      0.00000
     40      34.5249      0.00000
     41      35.6213      0.00000
     42      35.6730      0.00000
     43      36.2309      0.00000
     44      37.5290      0.00000
     45      39.4252      0.00000
     46      40.2529      0.00000
     47      40.2738      0.00000
     48      40.3787      0.00000

 k-point    10 :       0.2222    0.2222    0.0000
  band No.  band energies     occupation 
      1       3.3363      2.00000
      2       4.1083      2.00000
      3       4.2455      2.00000
      4       4.2455      2.00000
      5       4.3500      2.00000
      6       4.3500      2.00000
      7       4.6022      2.00000
      8       5.5941      2.00000
      9       6.2818      2.00000
     10       6.2820      2.00000
     11       7.0346      2.00000
     12       7.0346      2.00000
     13       7.0951      2.00000
     14       7.1285      2.00000
     15       7.6490      2.00000
     16       7.8360      2.00000
     17       8.1559      2.00000
     18       8.1559      2.00000
     19       8.3796      2.00000
     20       8.3796      2.00000
     21       8.5189      2.00000
     22      12.1596     -0.00000
     23      12.1596     -0.00000
     24      15.9936      0.00000
     25      18.5113      0.00000
     26      20.2745      0.00000
     27      22.8514      0.00000
     28      22.8514      0.00000
     29      23.0636      0.00000
     30      23.0636      0.00000
     31      23.5786      0.00000
     32      23.5786      0.00000
     33      25.4790      0.00000
     34      28.1533      0.00000
     35      28.3744      0.00000
     36      30.7412      0.00000
     37      32.0139      0.00000
     38      32.5739      0.00000
     39      32.5739      0.00000
     40      34.2634      0.00000
     41      34.2634      0.00000
     42      34.8677      0.00000
     43      35.4033      0.00000
     44      37.8006      0.00000
     45      40.4380      0.00000
     46      40.4915      0.00000
     47      41.1687      0.00000
     48      41.1701      0.00000

 k-point    11 :       0.3333    0.2222    0.0000
  band No.  band energies     occupation 
      1       3.9087      2.00000
      2       4.3747      2.00000
      3       4.5401      2.00000
      4       4.5636      2.00000
      5       4.6151      2.00000
      6       4.7258      2.00000
      7       4.9835      2.00000
      8       5.4005      2.00000
      9       6.2488      2.00000
     10       6.2970      2.00000
     11       6.5168      2.00000
     12       6.5317      2.00000
     13       6.5651      2.00000
     14       7.0268      2.00000
     15       7.5425      2.00000
     16       7.7855      2.00000
     17       7.9068      2.00000
     18       7.9722      2.00000
     19       7.9886      2.00000
     20       8.3728      2.00000
     21       8.4120      2.00000
     22      10.5564      2.00000
     23      13.3105     -0.00000
     24      17.0338      0.00000
     25      17.2699      0.00000
     26      20.3941      0.00000
     27      21.7211      0.00000
     28      21.9011      0.00000
     29      23.8393      0.00000
     30      23.8877      0.00000
     31      24.1537      0.00000
     32      25.7781      0.00000
     33      25.9651      0.00000
     34      27.1257      0.00000
     35      27.5927      0.00000
     36      31.2160      0.00000
     37      32.0675      0.00000
     38      32.4476      0.00000
     39      32.9755      0.00000
     40      33.9936      0.00000
     41      34.5312      0.00000
     42      35.6078      0.00000
     43      36.5327      0.00000
     44      39.3462      0.00000
     45      39.8765      0.00000
     46      40.1012      0.00000
     47      40.1178      0.00000
     48      40.2165      0.00000

 k-point    12 :       0.4444    0.2222    0.0000
  band No.  band energies     occupation 
      1       4.4930      2.00000
      2       4.7353      2.00000
      3       4.7370      2.00000
      4       4.8328      2.00000
      5       4.8968      2.00000
      6       5.1264      2.00000
      7       5.2342      2.00000
      8       5.3020      2.00000
      9       5.6226      2.00000
     10       5.8488      2.00000
     11       6.1457      2.00000
     12       6.1780      2.00000
     13       6.9198      2.00000
     14       7.2595      2.00000
     15       7.3321      2.00000
     16       7.3962      2.00000
     17       7.4334      2.00000
     18       7.6609      2.00000
     19       8.3686      2.00000
     20       8.3755      2.00000
     21       8.4825      2.00000
     22       9.3015      2.00000
     23      14.4959      0.00000
     24      15.7173      0.00000
     25      18.7199      0.00000
     26      20.2349      0.00000
     27      20.6690      0.00000
     28      21.1574      0.00000
     29      24.4362      0.00000
     30      24.8955      0.00000
     31      25.1615      0.00000
     32      25.4153      0.00000
     33      25.9920      0.00000
     34      26.6367      0.00000
     35      28.4128      0.00000
     36      30.7247      0.00000
     37      32.1641      0.00000
     38      32.3008      0.00000
     39      32.8430      0.00000
     40      34.6881      0.00000
     41      35.4172      0.00000
     42      35.7214      0.00000
     43      37.0680      0.00000
     44      37.7148      0.00000
     45      38.0264      0.00000
     46      39.3392      0.00000
     47      40.4996      0.00000
     48      41.6386      0.00000

 k-point    13 :       0.3333    0.3333    0.0000
  band No.  band energies     occupation 
      1       4.3683      2.00000
      2       4.5545      2.00000
      3       4.8842      2.00000
      4       4.8842      2.00000
      5       4.9515      2.00000
      6       4.9515      2.00000
      7       5.3270      2.00000
      8       5.3756      2.00000
      9       5.8852      2.00000
     10       5.8852      2.00000
     11       6.2036      2.00000
     12       6.2448      2.00000
     13       6.6721      2.00000
     14       6.8744      2.00000
     15       7.3181      2.00000
     16       7.6446      2.00000
     17       7.6446      2.00000
     18       7.9023      2.00000
     19       7.9023      2.00000
     20       8.1365      2.00000
     21       8.5077      2.00000
     22      11.6364      1.86660
     23      11.6364      1.86660
     24      15.4036      0.00000
     25      18.4411      0.00000
     26      20.6261      0.00000
     27      22.6444      0.00000
     28      22.6444      0.00000
     29      22.7600      0.00000
     30      22.7600      0.00000
     31      25.7802      0.00000
     32      26.3331      0.00000
     33      26.3331      0.00000
     34      26.4874      0.00000
     35      27.7860      0.00000
     36      30.1168      0.00000
     37      32.4217      0.00000
     38      32.9249      0.00000
     39      33.9938      0.00000
     40      33.9938      0.00000
     41      35.0961      0.00000
     42      35.0961      0.00000
     43      35.9318      0.00000
     44      39.6242      0.00000
     45      40.0121      0.00000
     46      40.1712      0.00000
     47      40.3600      0.00000
     48      40.3611      0.00000

 k-point    14 :       0.4444    0.3333    0.0000
  band No.  band energies     occupation 
      1       4.8384      2.00000
      2       4.8533      2.00000
      3       5.0726      2.00000
      4       5.1477      2.00000
      5       5.2213      2.00000
      6       5.2536      2.00000
      7       5.3013      2.00000
      8       5.4628      2.00000
      9       5.5505      2.00000
     10       5.7190      2.00000
     11       5.7679      2.00000
     12       6.0145      2.00000
     13       6.9760      2.00000
     14       6.9840      2.00000
     15       7.1539      2.00000
     16       7.2922      2.00000
     17       7.3354      2.00000
     18       7.4089      2.00000
     19       7.9167      2.00000
     20       7.9794      2.00000
     21       9.2520      2.00000
     22      10.2708      2.00000
     23      12.7725     -0.00000
     24      14.0040     -0.00000
     25      19.8126      0.00000
     26      21.0435      0.00000
     27      21.2805      0.00000
     28      21.7042      0.00000
     29      23.5541      0.00000
     30      23.9854      0.00000
     31      24.6011      0.00000
     32      25.2630      0.00000
     33      26.9382      0.00000
     34      27.7402      0.00000
     35      28.7186      0.00000
     36      30.8136      0.00000
     37      31.3390      0.00000
     38      33.4909      0.00000
     39      33.5773      0.00000
     40      33.9042      0.00000
     41      35.0440      0.00000
     42      35.4381      0.00000
     43      35.8141      0.00000
     44      37.8968      0.00000
     45      39.9402      0.00000
     46      40.1129      0.00000
     47      40.2264      0.00000
     48      40.9963      0.00000

 k-point    15 :       0.4444    0.4444    0.0000
  band No.  band energies     occupation 
      1       5.0037      2.00000
      2       5.0760      2.00000
      3       5.2153      2.00000
      4       5.2153      2.00000
      5       5.3411      2.00000
      6       5.3507      2.00000
      7       5.3507      2.00000
      8       5.6010      2.00000
      9       5.7210      2.00000
     10       5.7210      2.00000
     11       5.7995      2.00000
     12       6.0006      2.00000
     13       6.7968      2.00000
     14       6.9433      2.00000
     15       7.0077      2.00000
     16       7.0077      2.00000
     17       7.1520      2.00000
     18       7.4798      2.00000
     19       7.4798      2.00000
     20       7.6616      2.00000
     21      10.1852      2.00000
     22      11.3367      2.00000
     23      11.3367      2.00000
     24      12.5568     -0.00000
     25      21.1155      0.00000
     26      21.6277      0.00000
     27      22.4585      0.00000
     28      22.4585      0.00000
     29      22.5305      0.00000
     30      22.5305      0.00000
     31      23.4237      0.00000
     32      23.8817      0.00000
     33      29.2411      0.00000
     34      29.2411      0.00000
     35      29.9159      0.00000
     36      30.5646      0.00000
     37      30.5753      0.00000
     38      32.8959      0.00000
     39      32.8959      0.00000
     40      33.5643      0.00000
     41      34.8658      0.00000
     42      35.6557      0.00000
     43      35.6557      0.00000
     44      37.3166      0.00000
     45      39.7617      0.00000
     46      39.8622      0.00000
     47      40.2390      0.00000
     48      40.2390      0.00000

 k-point    16 :       0.1111    0.1111    0.1111
  band No.  band energies     occupation 
      1       2.6614      2.00000
      2       3.8370      2.00000
      3       3.8370      2.00000
      4       3.8370      2.00000
      5       4.0694      2.00000
      6       4.0694      2.00000
      7       4.0694      2.00000
      8       5.8223      2.00000
      9       6.0747      2.00000
     10       6.0747      2.00000
     11       7.3696      2.00000
     12       7.3696      2.00000
     13       8.0782      2.00000
     14       8.0782      2.00000
     15       8.0782      2.00000
     16       8.2012      2.00000
     17       8.2012      2.00000
     18       8.2012      2.00000
     19       8.7350      2.00000
     20       8.7350      2.00000
     21       8.7350      2.00000
     22      13.1504     -0.00000
     23      13.1504     -0.00000
     24      13.1504     -0.00000
     25      21.1032      0.00000
     26      21.1032      0.00000
     27      21.1032      0.00000
     28      21.9618      0.00000
     29      21.9618      0.00000
     30      21.9618      0.00000
     31      24.1771      0.00000
     32      24.1771      0.00000
     33      24.1771      0.00000
     34      28.1717      0.00000
     35      30.2402      0.00000
     36      31.2597      0.00000
     37      31.2597      0.00000
     38      31.2597      0.00000
     39      33.1447      0.00000
     40      33.1447      0.00000
     41      33.7018      0.00000
     42      33.7018      0.00000
     43      33.7018      0.00000
     44      38.1272      0.00000
     45      39.9677      0.00000
     46      39.9677      0.00000
     47      41.8886      0.00000
     48      42.6625      0.00000

 k-point    17 :       0.2222    0.1111    0.1111
  band No.  band energies     occupation 
      1       3.0708      2.00000
      2       4.0259      2.00000
      3       4.0400      2.00000
      4       4.0400      2.00000
      5       4.2359      2.00000
      6       4.3519      2.00000
      7       4.3519      2.00000
      8       5.6814      2.00000
      9       6.2095      2.00000
     10       6.2144      2.00000
     11       7.2092      2.00000
     12       7.3586      2.00000
     13       7.3586      2.00000
     14       7.5019      2.00000
     15       7.6921      2.00000
     16       7.9158      2.00000
     17       7.9878      2.00000
     18       7.9878      2.00000
     19       8.6298      2.00000
     20       8.6877      2.00000
     21       8.6877      2.00000
     22      11.5244      2.03287
     23      14.1286     -0.00000
     24      14.1286     -0.00000
     25      20.3825      0.00000
     26      20.3825      0.00000
     27      21.3862      0.00000
     28      21.3862      0.00000
     29      22.5550      0.00000
     30      23.4030      0.00000
     31      24.2422      0.00000
     32      24.2422      0.00000
     33      24.9688      0.00000
     34      28.0043      0.00000
     35      29.3589      0.00000
     36      31.0651      0.00000
     37      31.5860      0.00000
     38      31.5860      0.00000
     39      32.5054      0.00000
     40      33.6102      0.00000
     41      33.7372      0.00000
     42      35.6762      0.00000
     43      35.6762      0.00000
     44      37.3416      0.00000
     45      38.9768      0.00000
     46      40.1863      0.00000
     47      41.4818      0.00000
     48      41.4818      0.00000

 k-point    18 :       0.3333    0.1111    0.1111
  band No.  band energies     occupation 
      1       3.6715      2.00000
      2       4.2670      2.00000
      3       4.3654      2.00000
      4       4.3654      2.00000
      5       4.5064      2.00000
      6       4.7469      2.00000
      7       4.7469      2.00000
      8       5.4240      2.00000
      9       6.3575      2.00000
     10       6.4451      2.00000
     11       6.5568      2.00000
     12       6.5568      2.00000
     13       7.1481      2.00000
     14       7.1755      2.00000
     15       7.5362      2.00000
     16       7.6714      2.00000
     17       7.6714      2.00000
     18       7.7037      2.00000
     19       8.4462      2.00000
     20       8.6469      2.00000
     21       8.6469      2.00000
     22       9.8952      2.00000
     23      15.3303      0.00000
     24      15.3303      0.00000
     25      19.1160      0.00000
     26      19.1160      0.00000
     27      21.5682      0.00000
[...]
  band No.  band energies     occupation 
      1       4.1395      2.00000
      2       4.2892      2.00000
      3       4.4852      2.00000
      4       4.4932      2.00000
      5       5.3813      2.00000
      6       5.4016      2.00000
      7       5.7304      2.00000
      8       5.9740      2.00000
      9       6.2577      2.00000
     10       6.3333      2.00000
     11       6.4634      2.00000
     12       6.5788      2.00000
     13       6.6219      2.00000
     14       6.6322      2.00000
     15       6.6506      2.00000
     16       6.7260      2.00000
     17       7.9534      2.00000
     18       8.3362      2.00000
     19       8.3732      2.00000
     20       8.3867      2.00000
     21       9.0307      2.00000
     22      10.3058      2.00000
     23      12.8444     -0.00000
     24      13.7187     -0.00000
     25      16.8462      0.00000
     26      17.6773      0.00000
     27      19.9884      0.00000
     28      21.2361      0.00000
     29      25.1371      0.00000
     30      25.9586      0.00000
     31      27.1529      0.00000
     32      27.3828      0.00000
     33      27.9122      0.00000
     34      27.9214      0.00000
     35      28.9387      0.00000
     36      30.6100      0.00000
     37      30.8058      0.00000
     38      31.5962      0.00000
     39      31.6095      0.00000
     40      33.3276      0.00000
     41      36.9727      0.00000
     42      37.4718      0.00000
     43      37.6192      0.00000
     44      37.8465      0.00000
     45      38.1186      0.00000
     46      39.3400      0.00000
     47      40.3555      0.00000
     48      40.6071      0.00000

 k-point    31 :       0.4444    0.4444    0.2222
  band No.  band energies     occupation 
      1       4.1709      2.00000
      2       4.2920      2.00000
      3       4.2920      2.00000
      4       4.3577      2.00000
      5       5.5610      2.00000
      6       5.6677      2.00000
      7       5.6677      2.00000
      8       5.8721      2.00000
      9       6.2221      2.00000
     10       6.3424      2.00000
     11       6.3424      2.00000
     12       6.4058      2.00000
     13       6.8930      2.00000
     14       6.8930      2.00000
     15       6.9184      2.00000
     16       7.0425      2.00000
     17       7.8765      2.00000
     18       8.1623      2.00000
     19       8.1623      2.00000
     20       8.2033      2.00000
     21       9.9871      2.00000
     22      11.2581      2.00000
     23      11.2581      2.00000
     24      12.4194     -0.00000
     25      17.6019      0.00000
     26      18.6812      0.00000
     27      18.6812      0.00000
     28      19.8745      0.00000
     29      25.7566      0.00000
     30      26.5555      0.00000
     31      26.5555      0.00000
     32      27.2169      0.00000
     33      29.0579      0.00000
     34      29.0579      0.00000
     35      29.3551      0.00000
     36      30.0621      0.00000
     37      30.6630      0.00000
     38      31.8712      0.00000
     39      31.8712      0.00000
     40      33.0803      0.00000
     41      36.6478      0.00000
     42      37.2441      0.00000
     43      37.2441      0.00000
     44      38.0247      0.00000
     45      38.1150      0.00000
     46      38.9989      0.00000
     47      39.1295      0.00000
     48      39.1295      0.00000

 k-point    32 :       0.3333    0.3333    0.3333
  band No.  band energies     occupation 
      1       3.9138      2.00000
      2       4.2622      2.00000
      3       4.2622      2.00000
      4       4.2622      2.00000
      5       5.5293      2.00000
      6       5.5293      2.00000
      7       5.5293      2.00000
      8       6.0867      2.00000
      9       6.0867      2.00000
     10       6.4702      2.00000
     11       6.4702      2.00000
     12       6.4702      2.00000
     13       6.7667      2.00000
     14       6.7667      2.00000
     15       6.7667      2.00000
     16       7.5432      2.00000
     17       8.0019      2.00000
     18       8.0019      2.00000
     19       8.5904      2.00000
     20       8.5904      2.00000
     21       8.5904      2.00000
     22      12.3143     -0.00000
     23      12.3143     -0.00000
     24      12.3143     -0.00000
     25      17.4959      0.00000
     26      17.4959      0.00000
     27      17.4959      0.00000
     28      21.0617      0.00000
     29      26.5685      0.00000
     30      26.5685      0.00000
     31      26.5685      0.00000
     32      28.1058      0.00000
     33      29.0432      0.00000
     34      29.0432      0.00000
     35      29.0432      0.00000
     36      29.7085      0.00000
     37      29.7085      0.00000
     38      29.7085      0.00000
     39      33.1787      0.00000
     40      33.1787      0.00000
     41      36.9865      0.00000
     42      36.9865      0.00000
     43      38.2379      0.00000
     44      39.1491      0.00000
     45      39.1491      0.00000
     46      39.1491      0.00000
     47      39.5049      0.00000
     48      39.5049      0.00000

 k-point    33 :       0.4444    0.3333    0.3333
  band No.  band energies     occupation 
      1       3.9376      2.00000
      2       4.0666      2.00000
      3       4.1911      2.00000
      4       4.1911      2.00000
      5       5.5665      2.00000
      6       5.5665      2.00000
      7       5.7656      2.00000
      8       5.9633      2.00000
      9       6.0953      2.00000
     10       6.2277      2.00000
     11       6.3221      2.00000
     12       6.3221      2.00000
     13       7.1009      2.00000
     14       7.1209      2.00000
     15       7.1209      2.00000
     16       7.4735      2.00000
     17       8.3308      2.00000
     18       8.5060      2.00000
     19       8.5060      2.00000
     20       8.5381      2.00000
     21       9.0052      2.00000
     22      10.5532      2.00000
     23      12.6085     -0.00000
     24      12.6085     -0.00000
     25      16.6885      0.00000
     26      16.6885      0.00000
     27      18.4931      0.00000
     28      19.6922      0.00000
     29      26.8315      0.00000
     30      26.8315      0.00000
     31      27.5217      0.00000
     32      27.7960      0.00000
     33      28.5660      0.00000
     34      28.5660      0.00000
     35      30.0932      0.00000
     36      30.7402      0.00000
     37      30.7402      0.00000
     38      30.9105      0.00000
     39      31.4805      0.00000
     40      32.6999      0.00000
     41      37.3670      0.00000
     42      37.6426      0.00000
     43      38.0692      0.00000
     44      38.0692      0.00000
     45      38.3938      0.00000
     46      38.6806      0.00000
     47      39.6169      0.00000
     48      39.6175      0.00000

 k-point    34 :       0.4444    0.4444    0.3333
  band No.  band energies     occupation 
      1       3.8855      2.00000
      2       3.9759      2.00000
      3       3.9759      2.00000
      4       4.0185      2.00000
      5       5.7089      2.00000
      6       5.7714      2.00000
      7       5.7714      2.00000
      8       5.9260      2.00000
      9       6.0099      2.00000
     10       6.1037      2.00000
     11       6.1037      2.00000
     12       6.1313      2.00000
     13       7.5806      2.00000
     14       7.6056      2.00000
     15       7.6056      2.00000
     16       7.9693      2.00000
     17       8.2387      2.00000
     18       8.4548      2.00000
     19       8.4587      2.00000
     20       8.4587      2.00000
     21       9.8098      2.00000
     22      11.1335      2.00000
     23      11.1335      2.00000
     24      11.9305     -0.00518
     25      16.6609      0.00000
     26      17.3492      0.00000
     27      17.3492      0.00000
     28      18.3881      0.00000
     29      27.0543      0.00000
     30      27.2857      0.00000
     31      27.2857      0.00000
     32      27.4866      0.00000
     33      29.7579      0.00000
     34      29.9605      0.00000
     35      29.9605      0.00000
     36      30.8608      0.00000
     37      31.0094      0.00000
     38      31.4062      0.00000
     39      31.4062      0.00000
     40      32.4744      0.00000
     41      37.5145      0.00000
     42      37.5639      0.00000
     43      37.8290      0.00000
     44      37.8290      0.00000
     45      38.3596      0.00000
     46      38.3717      0.00000
     47      38.5311      0.00000
     48      38.5311      0.00000

 k-point    35 :       0.4444    0.4444    0.4444
  band No.  band energies     occupation 
      1       3.7667      2.00000
      2       3.8141      2.00000
      3       3.8141      2.00000
      4       3.8141      2.00000
      5       5.8441      2.00000
      6       5.8441      2.00000
      7       5.8441      2.00000
      8       5.9209      2.00000
      9       5.9209      2.00000
     10       5.9630      2.00000
     11       5.9630      2.00000
     12       5.9630      2.00000
     13       8.1721      2.00000
     14       8.1721      2.00000
     15       8.1721      2.00000
     16       8.4793      2.00000
     17       8.4793      2.00000
     18       8.5553      2.00000
     19       8.5553      2.00000
     20       8.5553      2.00000
     21      10.0412      2.00000
     22      10.9932      2.00000
     23      10.9932      2.00000
     24      10.9932      2.00000
     25      16.6250      0.00000
     26      16.6250      0.00000
     27      16.6250      0.00000
     28      17.2717      0.00000
     29      27.2306      0.00000
     30      27.2306      0.00000
     31      27.2306      0.00000
     32      27.2958      0.00000
     33      31.1196      0.00000
     34      31.1196      0.00000
     35      31.1196      0.00000
     36      31.2351      0.00000
     37      31.2351      0.00000
     38      31.2351      0.00000
     39      31.7992      0.00000
     40      31.7992      0.00000
     41      37.5581      0.00000
     42      37.5581      0.00000
     43      37.8626      0.00000
     44      37.8626      0.00000
     45      37.8626      0.00000
     46      37.9729      0.00000
     47      37.9729      0.00000
     48      37.9729      0.00000


--------------------------------------------------------------------------------------------------------


 soft charge-density along one line, spin component           1
         0         1         2         3         4         5         6         7         8         9
 total charge-density along one line
 
 pseudopotential strength for first ion, spin component:           1
 -2.638   0.000  -0.000   0.000  -0.000  -2.927   0.000  -0.000
  0.000  -2.638   0.000   0.000  -0.000   0.000  -2.927   0.000
 -0.000   0.000  -2.624   0.000   0.000  -0.000   0.000  -2.914
  0.000   0.000   0.000  -2.638   0.000   0.000   0.000   0.000
 -0.000  -0.000   0.000   0.000  -2.624  -0.000  -0.000   0.000
 -2.927   0.000  -0.000   0.000  -0.000  -3.180   0.000  -0.000
  0.000  -2.927   0.000   0.000  -0.000   0.000  -3.180   0.000
 -0.000   0.000  -2.914   0.000   0.000  -0.000   0.000  -3.167
  0.000   0.000   0.000  -2.927   0.000   0.000   0.000   0.000
 -0.000  -0.000   0.000   0.000  -2.914  -0.000  -0.000   0.000
 -0.000  -0.000   0.000  -0.000  -0.000  -0.000  -0.000   0.000
 -0.000  -0.000   0.000  -0.000   0.000  -0.000  -0.000   0.000
  0.000   0.000   0.000   0.000   0.000   0.000   0.000   0.000
  0.000   0.000   0.000   0.000   0.000   0.000   0.000   0.000
  0.000   0.000  -0.000   0.000   0.000   0.000   0.000  -0.000
  0.000   0.000   0.000   0.000   0.000   0.000   0.000   0.000
  0.000   0.000   0.000   0.000   0.000   0.000   0.000   0.000
  0.000   0.000  -0.000   0.000   0.000   0.000   0.000  -0.000
 total augmentation occupancy for first ion, spin component:           1
  4.574   0.000  -0.000  -0.000  -0.000  -2.761   0.000   0.000   0.000  -0.000  -0.000   0.000   0.000   0.000   0.000  -0.000
 -0.000   4.574  -0.000  -0.000  -0.000  -0.000  -2.761   0.000   0.000   0.000  -0.000   0.000  -0.000   0.000  -0.000  -0.000
 -0.000   0.000   4.471  -0.000  -0.000  -0.000  -0.000  -2.471   0.000   0.000  -0.000   0.000  -0.000   0.000   0.000   0.000
 -0.000  -0.000  -0.000   4.574   0.000   0.000   0.000   0.000  -2.761  -0.000  -0.000   0.000   0.000   0.000  -0.000  -0.000
 -0.000  -0.000   0.000   0.000   4.471   0.000   0.000   0.000   0.000  -2.471  -0.000  -0.000  -0.000   0.000   0.000   0.000
 -2.761  -0.000  -0.000  -0.000   0.000   2.890  -0.000  -0.000  -0.000  -0.000  -0.000   0.000   0.000   0.000   0.000   0.000
 -0.000  -2.761  -0.000   0.000   0.000  -0.000   2.890   0.000  -0.000  -0.000  -0.000   0.000  -0.000  -0.000   0.000   0.000
  0.000   0.000  -2.471   0.000  -0.000  -0.000   0.000   2.438   0.000   0.000   0.000   0.000  -0.000  -0.000   0.000   0.000
  0.000   0.000  -0.000  -2.761   0.000  -0.000  -0.000   0.000   2.890  -0.000  -0.000   0.000   0.000   0.000   0.000  -0.000
  0.000   0.000  -0.000  -0.000  -2.471   0.000  -0.000  -0.000  -0.000   2.438   0.000   0.000   0.000  -0.000   0.000   0.000
 -0.000  -0.000   0.000  -0.000   0.000   0.000  -0.000   0.000  -0.000   0.000   2.881  -0.613   0.000   0.000   0.000   0.000
  0.000   0.000   0.000   0.000   0.000  -0.000   0.000   0.000   0.000   0.000  -0.613   0.158   0.000   0.000   0.000  -0.000
  0.000   0.000   0.000   0.000   0.000   0.000   0.000  -0.000   0.000  -0.000   0.000   0.000   0.268  -0.000  -0.000  -0.017
 -0.000   0.000   0.000   0.000   0.000   0.000   0.000   0.000  -0.000  -0.000   0.000   0.000   0.000   0.268  -0.000   0.000
  0.000  -0.000   0.000  -0.000   0.000   0.000  -0.000  -0.000  -0.000  -0.000   0.000   0.000  -0.000  -0.000   0.268   0.000
  0.000  -0.000   0.000  -0.000   0.000  -0.000   0.000  -0.000  -0.000   0.000   0.000   0.000  -0.017  -0.000   0.000   0.001
 -0.000   0.000  -0.000  -0.000  -0.000  -0.000   0.000   0.000  -0.000  -0.000   0.000   0.000   0.000  -0.017   0.000  -0.000
  0.000   0.000   0.000  -0.000   0.000  -0.000  -0.000  -0.000   0.000   0.000  -0.000   0.000   0.000  -0.000  -0.017   0.000


------------------------ aborting loop because EDIFF is reached ----------------------------------------


    CHARGE:  cpu time    0.0089: real time    0.0090
    FORLOC:  cpu time    0.0002: real time    0.0002
    FORNL :  cpu time    0.0664: real time    0.0665
    STRESS:  cpu time    0.2218: real time    0.2218
    FORCOR:  cpu time    0.0049: real time    0.0049
    FORHAR:  cpu time    0.0009: real time    0.0009
    MIXING:  cpu time    0.0003: real time    0.0003
    OFIELD:  cpu time    0.0000: real time    0.0000

  FORCE on cell =-STRESS in cart. coord.  units (eV):
  Direction    XX          YY          ZZ          XY          YZ          ZX
  --------------------------------------------------------------------------------------
  Alpha Z   244.65490   244.65490   244.65490
  Ewald   -1395.13608 -1395.13608 -1395.13608    -0.00000     0.00000     0.00000
  Hartree   210.53703   210.53703   210.53703    -0.00000    -0.00000    -0.00000
  E(xc)    -235.34772  -235.34772  -235.34772    -0.00000     0.00000     0.00000
  Local     281.25211   281.25211   281.25211     0.00000     0.00000     0.00000
  n-local     4.68352   -12.42184   -16.78842     1.04846     4.75434     1.89770
  augment   366.96308   366.96308   366.96308    -0.00000     0.00000     0.00000
  Kinetic   559.06492   550.27178   543.62659    -4.80799    -0.77016    -1.94974
  Fock        0.00000     0.00000     0.00000     0.00000     0.00000     0.00000
  -------------------------------------------------------------------------------------
  Total      15.73550    15.73550    15.73550    -0.00000    -0.00000    -0.00000
  in kB     453.22194   453.22194   453.22194    -0.00000    -0.00000    -0.00000
  external pressure =      453.22 kB  Pullay stress =        0.00 kB


 VOLUME and BASIS-vectors are now :
 -----------------------------------------------------------------------------
  energy-cutoff  :      400.00
  volume of cell :       55.63
      direct lattice vectors                 reciprocal lattice vectors
     3.817333333  0.000000000  0.000000000     0.261962976  0.000000000  0.000000000
     0.000000000  3.817333333  0.000000000     0.000000000  0.261962976  0.000000000
     0.000000000  0.000000000  3.817333333     0.000000000  0.000000000  0.261962976

  length of vectors
     3.817333333  3.817333333  3.817333333     0.261962976  0.261962976  0.261962976


 FORCES acting on ions
    electron-ion (+dipol)            ewald-force                    non-local-force                 convergence-correction
 -----------------------------------------------------------------------------------------------
   0.220E-13 0.496E-13 -.398E-14   -.160E-13 0.956E-17 -.454E-14   0.331E-23 0.000E+00 0.199E-22   -.120E-13 -.120E-13 0.974E-14
   0.208E-13 -.103E-12 -.157E-12   -.168E-13 0.858E-14 0.506E-14   0.827E-23 0.165E-22 -.869E-23   -.679E-14 0.307E-13 0.177E-14
   -.136E-12 0.537E-13 0.652E-12   0.155E-13 -.709E-14 0.500E-14   -.215E-22 -.211E-22 -.372E-23   0.125E-13 -.161E-14 -.385E-13
   -.138E-12 -.769E-13 -.594E-12   0.147E-13 0.148E-14 -.560E-14   0.000E+00 -.662E-23 -.199E-22   0.160E-13 0.388E-13 0.308E-13
 -----------------------------------------------------------------------------------------------
   -.231E-12 -.764E-13 -.102E-12   -.272E-14 0.298E-14 -.937E-16   -.993E-23 -.112E-22 -.124E-22   0.965E-14 0.559E-13 0.385E-14
 
 
 POSITION                                       TOTAL-FORCE (eV/Angst)
 -----------------------------------------------------------------------------------
      0.00000      0.00000      0.00000         0.000000      0.000000      0.000000
      0.00000      1.90867      1.90867         0.000000      0.000000     -0.000000
      1.90867      0.00000      1.90867        -0.000000     -0.000000     -0.000000
      1.90867      1.90867      0.00000         0.000000      0.000000      0.000000
 -----------------------------------------------------------------------------------
    total drift:                               -0.000000     -0.000000     -0.000000


--------------------------------------------------------------------------------------------------------



  FREE ENERGIE OF THE ION-ELECTRON SYSTEM (eV)
  ---------------------------------------------------
  free  energy   TOTEN  =        -9.16976665 eV

  energy  without entropy=       -9.16827383  energy(sigma->0) =       -9.16926904
 


--------------------------------------------------------------------------------------------------------


    POTLOK:  cpu time    0.0134: real time    0.0134


--------------------------------------------------------------------------------------------------------


     LOOP+:  cpu time    6.1857: real time    6.2564
    4ORBIT:  cpu time    0.0000: real time    0.0000

 total amount of memory used by VASP on root node    37197. kBytes
========================================================================

   base      :      30000. kBytes
   nonl-proj :       5267. kBytes
   fftplans  :        147. kBytes
   grid      :        485. kBytes
   one-center:         62. kBytes
   wavefun   :       1236. kBytes
 
  
  
 General timing and accounting informations for this job:
 ========================================================
  
                  Total CPU time used (sec):       24.488
                            User time (sec):       24.334
                          System time (sec):        0.154
                         Elapsed time (sec):       25.268
  
                   Maximum memory used (kb):       59548.
                   Average memory used (kb):           0.
  
                          Minor page faults:        17792
                          Major page faults:           10
                 Voluntary context switches:         1517
