<?xml version="1.0" encoding="ISO-8859-1"?>
<modeling>
 <generator>
  <i name="program" type="string">vasp </i>
  <i name="version" type="string">5.4.1  </i>
  <i name="subversion" type="string">05Feb16 (build Feb 08 2018 09:21:51) complex                          parallel </i>
  <i name="platform" type="string">LinuxIFC </i>
  <i name="date" type="string">2019 11 21 </i>
  <i name="time" type="string">15:54:10 </i>
 </generator>
 <incar>
  <i type="string" name="PREC">normal</i>
  <i name="ENCUT">    400.00000000</i>
  <i type="int" name="ISMEAR">     1</i>
  <i name="SIGMA">      0.10000000</i>
  <i type="logical" name="LWAVE"> F  </i>
  <i type="logical" name="LCHARG"> F  </i>
  <v type="int" name="KPOINT_BSE">    -1     0     0     0</v>
 </incar>
 <kpoints>
  <generation param="Monkhorst-Pack">
   <v type="int" name="divisions">       9        9        9 </v>
   <v name="usershift">      0.00000000       0.00000000       0.00000000 </v>
   <v name="genvec1">      0.11111111       0.00000000       0.00000000 </v>
   <v name="genvec2">      0.00000000       0.11111111       0.00000000 </v>
   <v name="genvec3">      0.00000000       0.00000000       0.11111111 </v>
   <v name="shift">      0.00000000       0.00000000       0.00000000 </v>
  </generation>
  <varray name="kpointlist" >
   <v>       0.00000000       0.00000000       0.00000000 </v>
   <v>       0.11111111       0.00000000       0.00000000 </v>
   <v>       0.22222222       0.00000000       0.00000000 </v>
   <v>       0.33333333       0.00000000       0.00000000 </v>
   <v>       0.44444444       0.00000000       0.00000000 </v>
   <v>       0.11111111       0.11111111       0.00000000 </v>
   <v>       0.22222222       0.11111111       0.00000000 </v>
   <v>       0.33333333       0.11111111       0.00000000 </v>
   <v>       0.44444444       0.11111111       0.00000000 </v>
   <v>       0.22222222       0.22222222       0.00000000 </v>
   <v>       0.33333333       0.22222222       0.00000000 </v>
   <v>       0.44444444       0.22222222       0.00000000 </v>
   <v>       0.33333333       0.33333333       0.00000000 </v>
   <v>       0.44444444       0.33333333       0.00000000 </v>
   <v>       0.44444444       0.44444444       0.00000000 </v>
   <v>       0.11111111       0.11111111       0.11111111 </v>
   <v>       0.22222222       0.11111111       0.11111111 </v>
   <v>       0.33333333       0.11111111       0.11111111 </v>
   <v>       0.44444444       0.11111111       0.11111111 </v>
   <v>       0.22222222       0.22222222       0.11111111 </v>
   <v>       0.33333333       0.22222222       0.11111111 </v>
   <v>       0.44444444       0.22222222       0.11111111 </v>
   <v>       0.33333333       0.33333333       0.11111111 </v>
   <v>       0.44444444       0.33333333       0.11111111 </v>
   <v>       0.44444444       0.44444444       0.11111111 </v>
   <v>       0.22222222       0.22222222       0.22222222 </v>
   <v>       0.33333333       0.22222222       0.22222222 </v>
   <v>       0.44444444       0.22222222       0.22222222 </v>
   <v>       0.33333333       0.33333333       0.22222222 </v>
   <v>       0.44444444       0.33333333       0.22222222 </v>
   <v>       0.44444444       0.44444444       0.22222222 </v>
   <v>       0.33333333       0.33333333       0.33333333 </v>
   <v>       0.44444444       0.33333333       0.33333333 </v>
   <v>       0.44444444       0.44444444       0.33333333 </v>
   <v>       0.44444444       0.44444444       0.44444444 </v>
  </varray>
  <varray name="weights" >
   <v>       0.00137174 </v>
   <v>       0.00823045 </v>
   <v>       0.00823045 </v>
   <v>       0.00823045 </v>
   <v>       0.00823045 </v>
   <v>       0.01646091 </v>
   <v>       0.03292181 </v>
   <v>       0.03292181 </v>
   <v>       0.03292181 </v>
   <v>       0.01646091 </v>
   <v>       0.03292181 </v>
   <v>       0.03292181 </v>
   <v>       0.01646091 </v>
   <v>       0.03292181 </v>
   <v>       0.01646091 </v>
   <v>       0.01097394 </v>
   <v>       0.03292181 </v>
   <v>       0.03292181 </v>
   <v>       0.03292181 </v>
   <v>       0.03292181 </v>
   <v>       0.06584362 </v>
   <v>       0.06584362 </v>
   <v>       0.03292181 </v>
   <v>       0.06584362 </v>
   <v>       0.03292181 </v>
   <v>       0.01097394 </v>
   <v>       0.03292181 </v>
   <v>       0.03292181 </v>
   <v>       0.03292181 </v>
   <v>       0.06584362 </v>
   <v>       0.03292181 </v>
   <v>       0.01097394 </v>
   <v>       0.03292181 </v>
   <v>       0.03292181 </v>
   <v>       0.01097394 </v>
  </varray>
 </kpoints>
 <parameters>
  <separator name="general" >
   <i type="string" name="SYSTEM">unknown system</i>
   <i type="logical" name="LCOMPAT"> F  </i>
  </separator>
  <separator name="electronic" >
   <i type="string" name="PREC">normal</i>
   <i name="ENMAX">    400.00000000</i>
   <i name="ENAUG">    412.49600000</i>
   <i name="EDIFF">      0.00010000</i>
   <i type="int" name="IALGO">    38</i>
   <i type="int" name="IWAVPR">    10</i>
   <i type="int" name="NBANDS">    48</i>
   <i name="NELECT">     44.00000000</i>
   <i type="int" name="TURBO">     0</i>
   <i type="int" name="IRESTART">     0</i>
   <i type="int" name="NREBOOT">     0</i>
   <i type="int" name="NMIN">     0</i>
   <i name="EREF">      0.00000000</i>
   <separator name="electronic smearing" >
    <i type="int" name="ISMEAR">     1</i>
    <i name="SIGMA">      0.10000000</i>
    <i name="KSPACING">      0.50000000</i>
    <i type="logical" name="KGAMMA"> T  </i>
   </separator>
   <separator name="electronic projectors" >
    <i type="logical" name="LREAL"> F  </i>
    <v name="ROPT">      0.00000000</v>
    <i type="int" name="LMAXPAW">  -100</i>
    <i type="int" name="LMAXMIX">     2</i>
    <i type="logical" name="NLSPLINE"> F  </i>
   </separator>
   <separator name="electronic startup" >
    <i type="int" name="ISTART">     0</i>
    <i type="int" name="ICHARG">     2</i>
    <i type="int" name="INIWAV">     1</i>
   </separator>
   <separator name="electronic spin" >
    <i type="int" name="ISPIN">     1</i>
    <i type="logical" name="LNONCOLLINEAR"> F  </i>
    <v name="MAGMOM">      1.00000000      1.00000000      1.00000000      1.00000000</v>
    <i name="NUPDOWN">     -1.00000000</i>
    <i type="logical" name="LSORBIT"> F  </i>
    <v name="SAXIS">      0.00000000      0.00000000      1.00000000</v>
    <i type="logical" name="LSPIRAL"> F  </i>
    <v name="QSPIRAL">      0.00000000      0.00000000      0.00000000</v>
    <i type="logical" name="LZEROZ"> F  </i>
   </separator>
   <separator name="electronic exchange-correlation" >
    <i type="logical" name="LASPH"> F  </i>
    <i type="logical" name="LMETAGGA"> F  </i>
   </separator>
   <separator name="electronic convergence" >
    <i type="int" name="NELM">    60</i>
    <i type="int" name="NELMDL">    -5</i>
    <i type="int" name="NELMIN">     2</i>
    <i name="ENINI">    400.00000000</i>
    <separator name="electronic convergence detail" >
     <i type="logical" name="LDIAG"> T  </i>
     <i type="logical" name="LSUBROT"> F  </i>
     <i name="WEIMIN">      0.00000000</i>
     <i name="EBREAK">      0.00000052</i>
     <i name="DEPER">      0.30000000</i>
     <i type="int" name="NRMM">     4</i>
     <i name="TIME">      0.40000000</i>
    </separator>
   </separator>
   <separator name="electronic mixer" >
    <i name="AMIX">      0.40000000</i>
    <i name="BMIX">      1.00000000</i>
    <i name="AMIN">      0.10000000</i>
    <i name="AMIX_MAG">      1.60000000</i>
    <i name="BMIX_MAG">      1.00000000</i>
    <separator name="electronic mixer details" >
     <i type="int" name="IMIX">     4</i>
     <i type="logical" name="MIXFIRST"> F  </i>
     <i type="int" name="MAXMIX">   -45</i>
     <i name="WC">    100.00000000</i>
     <i type="int" name="INIMIX">     1</i>
     <i type="int" name="MIXPRE">     1</i>
     <i type="int" name="MREMOVE">     5</i>
    </separator>
   </separator>
   <separator name="electronic dipolcorrection" >
    <i type="logical" name="LDIPOL"> F  </i>
    <i type="logical" name="LMONO"> F  </i>
    <i type="int" name="IDIPOL">     0</i>
    <i name="EPSILON">      1.00000000</i>
    <v name="DIPOL">   -100.00000000   -100.00000000   -100.00000000</v>
    <i name="EFIELD">      0.00000000</i>
   </separator>
  </separator>
  <separator name="grids" >
   <i type="int" name="NGX">    20</i>
   <i type="int" name="NGY">    20</i>
   <i type="int" name="NGZ">    20</i>
   <i type="int" name="NGXF">    40</i>
   <i type="int" name="NGYF">    40</i>
   <i type="int" name="NGZF">    40</i>
   <i type="logical" name="ADDGRID"> F  </i>
  </separator>
  <separator name="ionic" >
   <i type="int" name="NSW">     0</i>
   <i type="int" name="IBRION">    -1</i>
   <i type="int" name="ISIF">     2</i>
   <i name="PSTRESS">      0.00000000</i>
   <i name="EDIFFG">      0.00100000</i>
   <i type="int" name="NFREE">     0</i>
   <i name="POTIM">      0.50000000</i>
   <i name="SMASS">     -3.00000000</i>
   <i name="SCALEE">      1.00000000</i>
  </separator>
  <separator name="ionic md" >
   <i name="TEBEG">      0.00010000</i>
   <i name="TEEND">      0.00010000</i>
   <i type="int" name="NBLOCK">     1</i>
   <i type="int" name="KBLOCK">     1</i>
   <i type="int" name="NPACO">   256</i>
   <i name="APACO">     16.00000000</i>
  </separator>
  <separator name="symmetry" >
   <i type="int" name="ISYM">     2</i>
   <i name="SYMPREC">      0.00001000</i>
  </separator>
  <separator name="dos" >
   <i type="logical" name="LORBIT"> F  </i>
   <v name="RWIGS">     -1.00000000</v>
   <i type="int" name="NEDOS">   301</i>
   <i name="EMIN">     10.00000000</i>
   <i name="EMAX">    -10.00000000</i>
   <i name="EFERMI">      0.00000000</i>
  </separator>
  <separator name="writing" >
   <i type="int" name="NWRITE">     2</i>
   <i type="logical" name="LWAVE"> F  </i>
   <i type="logical" name="LCHARG"> F  </i>
   <i type="logical" name="LPARD"> F  </i>
   <i type="logical" name="LVTOT"> F  </i>
   <i type="logical" name="LVHAR"> F  </i>
   <i type="logical" name="LELF"> F  </i>
   <i type="logical" name="LOPTICS"> F  </i>
   <v name="STM">      0.00000000      0.00000000      0.00000000      0.00000000      0.00000000      0.00000000      0.00000000</v>
  </separator>
  <separator name="performance" >
   <i type="int" name="NPAR">    24</i>
   <i type="int" name="NSIM">     4</i>
   <i type="int" name="NBLK">    -1</i>
   <i type="logical" name="LPLANE"> T  </i>
   <i type="logical" name="LSCALAPACK"> F  </i>
   <i type="logical" name="LSCAAWARE"> F  </i>
   <i type="logical" name="LSCALU"> F  </i>
   <i type="logical" name="LASYNC"> F  </i>
   <i type="logical" name="LORBITALREAL"> F  </i>
  </separator>
  <separator name="miscellaneous" >
   <i type="int" name="IDIOT">     3</i>
   <i type="logical" name="LMUSIC"> F  </i>
   <v name="POMASS">    107.86800000</v>
   <v name="DARWINR">      0.00000000</v>
   <v name="DARWINV">      1.00000000</v>
   <i type="logical" name="LCORR"> T  </i>
  </separator>
  <i type="logical" name="GGA_COMPAT"> T  </i>
  <i type="logical" name="LBERRY"> F  </i>
  <i type="int" name="ICORELEVEL">     0</i>
  <i type="logical" name="LDAU"> F  </i>
  <i type="int" name="I_CONSTRAINED_M">     0</i>
  <separator name="electronic exchange-correlation" >
   <i type="string" name="GGA">--</i>
   <i type="int" name="VOSKOWN">     0</i>
   <i type="logical" name="LHFCALC"> F  </i>
   <i type="string" name="PRECFOCK"></i>
   <i type="logical" name="LSYMGRAD"> F  </i>
   <i type="logical" name="LHFONE"> F  </i>
   <i type="logical" name="LRHFCALC"> F  </i>
   <i type="logical" name="LTHOMAS"> F  </i>
   <i type="logical" name="LMODELHF"> F  </i>
   <i name="ENCUT4O">     -1.00000000</i>
   <i type="int" name="EXXOEP">     0</i>
   <i type="int" name="FOURORBIT">     0</i>
   <i name="AEXX">      0.00000000</i>
   <i name="HFALPHA">      0.00000000</i>
   <i name="MCALPHA">      0.00000000</i>
   <i name="ALDAX">      1.00000000</i>
   <i name="AGGAX">      1.00000000</i>
   <i name="ALDAC">      1.00000000</i>
   <i name="AGGAC">      1.00000000</i>
   <i type="int" name="NKREDX">     1</i>
   <i type="int" name="NKREDY">     1</i>
   <i type="int" name="NKREDZ">     1</i>
   <i type="logical" name="SHIFTRED"> F  </i>
   <i type="logical" name="ODDONLY"> F  </i>
   <i type="logical" name="EVENONLY"> F  </i>
   <i type="int" name="LMAXFOCK">     0</i>
   <i type="int" name="NMAXFOCKAE">     0</i>
   <i type="logical" name="LFOCKAEDFT"> F  </i>
   <i name="HFSCREEN">      0.00000000</i>
   <i name="HFSCREENC">      0.00000000</i>
   <i type="int" name="NBANDSGWLOW">     0</i>
  </separator>
  <separator name="vdW DFT" >
   <i type="logical" name="LUSE_VDW"> F  </i>
   <i name="Zab_VDW">     -0.84910000</i>
   <i name="PARAM1">      0.12340000</i>
   <i name="PARAM2">      1.00000000</i>
   <i name="PARAM3">      0.00000000</i>
  </separator>
  <separator name="model GW" >
   <i type="int" name="MODEL_GW">     0</i>
   <i name="MODEL_EPS0">      8.34394654</i>
   <i name="MODEL_ALPHA">      1.00000000</i>
  </separator>
  <separator name="linear response parameters" >
   <i type="logical" name="LEPSILON"> F  </i>
   <i type="logical" name="LRPA"> F  </i>
   <i type="logical" name="LNABLA"> F  </i>
   <i type="logical" name="LVEL"> F  </i>
   <i type="int" name="KINTER">     0</i>
   <i name="CSHIFT">      0.10000000</i>
   <i name="OMEGAMAX">     -1.00000000</i>
   <i name="DEG_THRESHOLD">      0.00200000</i>
  </separator>
  <separator name="orbital magnetization" >
   <i type="logical" name="NUCIND"> F  </i>
   <v name="MAGPOS">      0.00000000      0.00000000      0.00000000</v>
   <i type="logical" name="LNICSALL"> T  </i>
   <i type="logical" name="ORBITALMAG"> F  </i>
   <i type="logical" name="LMAGBLOCH"> F  </i>
   <i type="logical" name="LCHIMAG"> F  </i>
   <i type="logical" name="LGAUGE"> T  </i>
   <i type="int" name="MAGATOM">     0</i>
   <v name="MAGDIPOL">      0.00000000      0.00000000      0.00000000</v>
   <v name="AVECCONST">      0.00000000      0.00000000      0.00000000</v>
  </separator>
  <separator name="response functions" >
   <i type="logical" name="LADDER"> F  </i>
   <i type="logical" name="LFXC"> F  </i>
   <i type="logical" name="LHARTREE"> T  </i>
   <i type="int" name="IBSE">     0</i>
   <v type="int" name="KPOINT">    -1     0     0     0</v>
   <i type="logical" name="LTCTE"> F  </i>
   <i type="logical" name="LTETE"> F  </i>
   <i type="logical" name="LTRIPLET"> F  </i>
   <i type="logical" name="LFXCEPS"> F  </i>
   <i type="logical" name="LFXHEG"> F  </i>
   <i type="int" name="NATURALO">     0</i>
   <i type="logical" name="L2ORDER"> F  </i>
   <i type="logical" name="LUSEW"> F  </i>
   <i name="ENCUTGW">     -2.00000000</i>
   <i name="ENCUTGWSOFT">     -2.00000000</i>
   <i name="ENCUTLF">     -1.00000000</i>
   <i type="int" name="LMAXMP2">    -1</i>
   <i name="SCISSOR">      0.00000000</i>
   <i type="int" name="NOMEGA">     0</i>
   <i type="int" name="NOMEGAR">     0</i>
   <i type="int" name="NBANDSGW">    -1</i>
   <i type="int" name="NBANDSO">    -1</i>
   <i type="int" name="NBANDSV">    -1</i>
   <i type="int" name="NELM">     1</i>
   <i type="int" name="NELMHF">     1</i>
   <i type="int" name="DIM">     3</i>
   <i type="int" name="ANTIRES">     0</i>
   <i name="OMEGAMAX">    -30.00000000</i>
   <i name="OMEGAMIN">    -30.00000000</i>
   <i name="OMEGATL">   -200.00000000</i>
   <i type="int" name="OMEGAGRID">     0</i>
   <i name="CSHIFT">     -0.10000000</i>
   <i type="logical" name="SELFENERGY"> F  </i>
   <i type="logical" name="LSPECTRAL"> F  </i>
   <i type="logical" name="LSPECTRALGW"> F  </i>
   <i type="logical" name="LSINGLES"> F  </i>
   <i type="logical" name="LFERMIGW"> F  </i>
   <i type="logical" name="ODDONLYGW"> F  </i>
   <i type="logical" name="EVENONLYGW"> F  </i>
   <i type="int" name="NKREDLFX">     1</i>
   <i type="int" name="NKREDLFY">     1</i>
   <i type="int" name="NKREDLFZ">     1</i>
   <i type="int" name="MAXMEM">  1800</i>
   <i type="int" name="TELESCOPE">     0</i>
   <i type="int" name="TAUPAR">     1</i>
   <i type="int" name="OMEGAPAR">    -1</i>
   <i name="LAMBDA">      1.00000000</i>
  </separator>
  <separator name="External order field" >
   <i name="OFIELD_KAPPA">      0.00000000</i>
   <v name="OFIELD_K">      0.00000000      0.00000000      0.00000000</v>
   <i name="OFIELD_Q6_NEAR">      0.00000000</i>
   <i name="OFIELD_Q6_FAR">      0.00000000</i>
   <i name="OFIELD_A">      0.00000000</i>
  </separator>
 </parameters>
 <atominfo>
  <atoms>       4 </atoms>
  <types>       1 </types>
  <array name="atoms" >
   <dimension dim="1">ion</dimension>
   <field type="string">element</field>
   <field type="int">atomtype</field>
   <set>
    <rc><c>Ag</c><c>   1</c></rc>
    <rc><c>Ag</c><c>   1</c></rc>
    <rc><c>Ag</c><c>   1</c></rc>
    <rc><c>Ag</c><c>   1</c></rc>
   </set>
  </array>
  <array name="atomtypes" >
   <dimension dim="1">type</dimension>
   <field type="int">atomspertype</field>
   <field type="string">element</field>
   <field>mass</field>
   <field>valence</field>
   <field type="string">pseudopotential</field>
   <set>
    <rc><c>   4</c><c>Ag</c><c>    107.86800000</c><c>     11.00000000</c><c>  PAW_PBE Ag 02Apr2005                  </c></rc>
   </set>
  </array>
 </atominfo>
 <structure name="initialpos" >
  <crystal>
   <varray name="basis" >
    <v>       3.81733333       0.00000000       0.00000000 </v>
    <v>       0.00000000       3.81733333       0.00000000 </v>
    <v>       0.00000000       0.00000000       3.81733333 </v>
   </varray>
   <i name="volume">     55.62631027 </i>
   <varray name="rec_basis" >
    <v>       0.26196298       0.00000000       0.00000000 </v>
    <v>       0.00000000       0.26196298       0.00000000 </v>
    <v>       0.00000000       0.00000000       0.26196298 </v>
   </varray>
  </crystal>
  <varray name="positions" >
   <v>       0.00000000       0.00000000       0.00000000 </v>
   <v>       0.00000000       0.50000000       0.50000000 </v>
   <v>       0.50000000       0.00000000       0.50000000 </v>
   <v>       0.50000000       0.50000000       0.00000000 </v>
  </varray>
 </structure>
 <calculation>
  <scstep>
   <time name="dav">    0.49    0.49</time>
   <time name="total">    0.61    0.66</time>
   <energy>
    <i name="alphaZ">    244.65489508 </i>
    <i name="ewald">  -4185.40640392 </i>
    <i name="hartreedc">   -686.84728920 </i>
    <i name="XCdc">    -39.05300166 </i>
    <i name="pawpsdc">   4013.84859731 </i>
    <i name="pawaedc">  -3829.39709692 </i>
    <i name="eentropy">      0.00055160 </i>
    <i name="bandstr">    534.64679868 </i>
    <i name="atom">   4149.03371350 </i>
    <i name="e_fr_energy">    201.48076447 </i>
    <i name="e_wo_entrp">    201.48021287 </i>
    <i name="e_0_energy">    201.48058060 </i>
   </energy>
  </scstep>
  <scstep>
   <time name="dav">    0.72    0.72</time>
   <time name="total">    0.72    0.73</time>
   <energy>
    <i name="e_fr_energy">     -7.17511310 </i>
    <i name="e_wo_entrp">     -7.17244520 </i>
    <i name="e_0_energy">     -7.17422380 </i>
   </energy>
  </scstep>
  <scstep>
   <time name="dav">    0.55    0.55</time>
   <time name="total">    0.56    0.56</time>
   <energy>
    <i name="e_fr_energy">    -10.35711551 </i>
    <i name="e_wo_entrp">    -10.35440230 </i>
    <i name="e_0_energy">    -10.35621111 </i>
   </energy>
  </scstep>
  <scstep>
   <time name="dav">    0.74    0.74</time>
   <time name="total">    0.74    0.75</time>
   <energy>
    <i name="e_fr_energy">    -10.36593863 </i>
    <i name="e_wo_entrp">    -10.36322558 </i>
    <i name="e_0_energy">    -10.36503428 </i>
   </energy>
  </scstep>
  <scstep>
   <time name="dav">    0.55    0.55</time>
   <time name="total">    0.57    0.57</time>
   <energy>
    <i name="e_fr_energy">    -10.36600616 </i>
    <i name="e_wo_entrp">    -10.36329311 </i>
    <i name="e_0_energy">    -10.36510181 </i>
   </energy>
  </scstep>
  <scstep>
   <time name="dav">    0.66    0.66</time>
   <time name="total">    0.69    0.69</time>
   <energy>
    <i name="e_fr_energy">     -9.28132594 </i>
    <i name="e_wo_entrp">     -9.27978314 </i>
    <i name="e_0_energy">     -9.28081167 </i>
   </energy>
  </scstep>
  <scstep>
   <time name="dav">    0.66    0.66</time>
   <time name="total">    0.69    0.69</time>
   <energy>
    <i name="e_fr_energy">     -9.18597237 </i>
    <i name="e_wo_entrp">     -9.18449576 </i>
    <i name="e_0_energy">     -9.18548017 </i>
   </energy>
  </scstep>
  <scstep>
   <time name="dav">    0.65    0.65</time>
   <time name="total">    0.67    0.67</time>
   <energy>
    <i name="e_fr_energy">     -9.16974788 </i>
    <i name="e_wo_entrp">     -9.16825567 </i>
    <i name="e_0_energy">     -9.16925048 </i>
   </energy>
  </scstep>
  <scstep>
   <time name="dav">    0.59    0.59</time>
   <time name="total">    0.60    0.60</time>
   <energy>
    <i name="alphaZ">    244.65489508 </i>
    <i name="ewald">  -4185.40640392 </i>
    <i name="hartreedc">   -631.63967884 </i>
    <i name="XCdc">    -40.98949476 </i>
    <i name="pawpsdc">   4930.95337069 </i>
    <i name="pawaedc">  -4763.50639312 </i>
    <i name="eentropy">     -0.00149282 </i>
    <i name="bandstr">    287.73171753 </i>
    <i name="atom">   4149.03371350 </i>
    <i name="e_fr_energy">     -9.16976665 </i>
    <i name="e_wo_entrp">     -9.16827383 </i>
    <i name="e_0_energy">     -9.16926904 </i>
   </energy>
  </scstep>
  <structure>
   <crystal>
    <varray name="basis" >
     <v>       3.81733333       0.00000000       0.00000000 </v>
     <v>       0.00000000       3.81733333       0.00000000 </v>
     <v>       0.00000000       0.00000000       3.81733333 </v>
    </varray>
    <i name="volume">     55.62631027 </i>
    <varray name="rec_basis" >
     <v>       0.26196298       0.00000000       0.00000000 </v>
     <v>       0.00000000       0.26196298       0.00000000 </v>
     <v>       0.00000000       0.00000000       0.26196298 </v>
    </varray>
   </crystal>
   <varray name="positions" >
    <v>       0.00000000       0.00000000       0.00000000 </v>
    <v>       0.00000000       0.50000000       0.50000000 </v>
    <v>       0.50000000       0.00000000       0.50000000 </v>
    <v>       0.50000000       0.50000000       0.00000000 </v>
   </varray>
  </structure>
  <varray name="forces" >
   <v>       0.00000000       0.00000000       0.00000000 </v>
   <v>       0.00000000       0.00000000      -0.00000000 </v>
   <v>      -0.00000000      -0.00000000      -0.00000000 </v>
   <v>       0.00000000       0.00000000       0.00000000 </v>
  </varray>
  <varray name="stress" >
   <v>     453.22194344       0.00000000      -0.00000000 </v>
   <v>      -0.00000000     453.22194344      -0.00000000 </v>
   <v>       0.00000000      -0.00000000     453.22194344 </v>
  </varray>
  <energy>
   <i name="e_fr_energy">     -9.16976665 </i>
   <i name="e_wo_entrp">     -9.16926904 </i>
   <i name="e_0_energy">     -0.00149282 </i>
  </energy>
  <time name="totalsc">    6.19    6.26</time>
  <eigenvalues>
   <array>
    <dimension dim="1">band</dimension>
    <dimension dim="2">kpoint</dimension>
    <dimension dim="3">spin</dimension>
    <field>eigene</field>
    <field>occ</field>
    <set>
     <set comment="spin 1">
      <set comment="kpoint 1">
       <r>    2.2166    1.0000 </r>
       <r>    3.6047    1.0000 </r>
       <r>    3.6047    1.0000 </r>
       <r>    3.6047    1.0000 </r>
       <r>    3.8279    1.0000 </r>
       <r>    3.8279    1.0000 </r>
       <r>    3.8279    1.0000 </r>
       <r>    5.9401    1.0000 </r>
       <r>    5.9401    1.0000 </r>
       <r>    5.9401    1.0000 </r>
       <r>    7.4203    1.0000 </r>
       <r>    7.4203    1.0000 </r>
       <r>    8.5109    1.0000 </r>
       <r>    8.5109    1.0000 </r>
       <r>    8.5109    1.0000 </r>
       <r>    8.8493    1.0000 </r>
       <r>    8.8493    1.0000 </r>
       <r>    8.8493    1.0000 </r>
       <r>    8.8493    1.0000 </r>
       <r>    8.8493    1.0000 </r>
       <r>    8.8493    1.0000 </r>
       <r>   13.0358   -0.0000 </r>
       <r>   13.0358   -0.0000 </r>
       <r>   13.0358   -0.0000 </r>
       <r>   20.1418    0.0000 </r>
       <r>   20.1418    0.0000 </r>
       <r>   20.1418    0.0000 </r>
       <r>   23.3331    0.0000 </r>
       <r>   23.3331    0.0000 </r>
       <r>   23.3331    0.0000 </r>
       <r>   23.3331    0.0000 </r>
       <r>   23.3331    0.0000 </r>
       <r>   23.3331    0.0000 </r>
       <r>   27.9147    0.0000 </r>
       <r>   31.4954    0.0000 </r>
       <r>   31.4954    0.0000 </r>
       <r>   31.4954    0.0000 </r>
       <r>   31.7496    0.0000 </r>
       <r>   31.7496    0.0000 </r>
       <r>   31.7496    0.0000 </r>
       <r>   32.7167    0.0000 </r>
       <r>   32.7167    0.0000 </r>
       <r>   32.7167    0.0000 </r>
       <r>   38.1288    0.0000 </r>
       <r>   40.9817    0.0000 </r>
       <r>   40.9817    0.0000 </r>
       <r>   40.9817    0.0000 </r>
       <r>   43.2495    0.0000 </r>
      </set>
      <set comment="kpoint 2">
       <r>    2.3697    1.0000 </r>
       <r>    3.6780    1.0000 </r>
       <r>    3.6967    1.0000 </r>
       <r>    3.6967    1.0000 </r>
       <r>    3.8827    1.0000 </r>
       <r>    3.9130    1.0000 </r>
       <r>    3.9130    1.0000 </r>
       <r>    5.8650    1.0000 </r>
       <r>    6.0050    1.0000 </r>
       <r>    6.0050    1.0000 </r>
       <r>    7.3436    1.0000 </r>
       <r>    7.4509    1.0000 </r>
       <r>    8.4073    1.0000 </r>
       <r>    8.4073    1.0000 </r>
       <r>    8.4626    1.0000 </r>
       <r>    8.4626    1.0000 </r>
       <r>    8.4754    1.0000 </r>
       <r>    8.7247    1.0000 </r>
       <r>    8.7247    1.0000 </r>
       <r>    8.8495    1.0000 </r>
       <r>    8.8495    1.0000 </r>
       <r>   12.2539   -0.0000 </r>
       <r>   13.5348   -0.0000 </r>
       <r>   13.5348   -0.0000 </r>
       <r>   20.1346    0.0000 </r>
       <r>   20.1346    0.0000 </r>
       <r>   21.1090    0.0000 </r>
       <r>   22.9793    0.0000 </r>
       <r>   22.9793    0.0000 </r>
       <r>   22.9854    0.0000 </r>
       <r>   22.9854    0.0000 </r>
       <r>   23.6296    0.0000 </r>
       <r>   23.6296    0.0000 </r>
       <r>   28.0526    0.0000 </r>
       <r>   31.4141    0.0000 </r>
       <r>   31.7030    0.0000 </r>
       <r>   31.8148    0.0000 </r>
       <r>   31.8148    0.0000 </r>
       <r>   32.1133    0.0000 </r>
       <r>   32.4854    0.0000 </r>
       <r>   32.4854    0.0000 </r>
       <r>   32.5666    0.0000 </r>
       <r>   32.5666    0.0000 </r>
       <r>   39.1542    0.0000 </r>
       <r>   40.3379    0.0000 </r>
       <r>   40.3379    0.0000 </r>
       <r>   41.1545    0.0000 </r>
       <r>   42.8521    0.0000 </r>
      </set>
      <set comment="kpoint 3">
       <r>    2.8112    1.0000 </r>
       <r>    3.8801    1.0000 </r>
       <r>    3.9518    1.0000 </r>
       <r>    3.9518    1.0000 </r>
       <r>    4.0432    1.0000 </r>
       <r>    4.1668    1.0000 </r>
       <r>    4.1668    1.0000 </r>
       <r>    5.6538    1.0000 </r>
       <r>    6.1973    1.0000 </r>
       <r>    6.1973    1.0000 </r>
       <r>    7.1410    1.0000 </r>
       <r>    7.5397    1.0000 </r>
       <r>    7.6334    1.0000 </r>
       <r>    7.6334    1.0000 </r>
       <r>    8.1202    1.0000 </r>
       <r>    8.1202    1.0000 </r>
       <r>    8.3745    1.0000 </r>
       <r>    8.3869    1.0000 </r>
       <r>    8.3869    1.0000 </r>
       <r>    8.8501    1.0000 </r>
       <r>    8.8501    1.0000 </r>
       <r>   10.6411    1.0000 </r>
       <r>   14.6961    0.0000 </r>
       <r>   14.6961    0.0000 </r>
       <r>   20.1218    0.0000 </r>
       <r>   20.1218    0.0000 </r>
       <r>   22.0567    0.0000 </r>
       <r>   22.0567    0.0000 </r>
       <r>   22.2389    0.0000 </r>
       <r>   22.2389    0.0000 </r>
       <r>   23.2547    0.0000 </r>
       <r>   24.4766    0.0000 </r>
       <r>   24.4766    0.0000 </r>
       <r>   28.4383    0.0000 </r>
       <r>   31.0240    0.0000 </r>
       <r>   31.1721    0.0000 </r>
       <r>   31.6454    0.0000 </r>
       <r>   31.9711    0.0000 </r>
       <r>   31.9711    0.0000 </r>
       <r>   32.6875    0.0000 </r>
       <r>   32.6875    0.0000 </r>
       <r>   34.3398    0.0000 </r>
       <r>   34.3398    0.0000 </r>
       <r>   39.4862    0.0000 </r>
       <r>   39.4862    0.0000 </r>
       <r>   40.8784    0.0000 </r>
       <r>   41.5013    0.0000 </r>
       <r>   41.5013    0.0000 </r>
      </set>
      <set comment="kpoint 4">
       <r>    3.4656    1.0000 </r>
       <r>    4.1482    1.0000 </r>
       <r>    4.2962    1.0000 </r>
       <r>    4.2971    1.0000 </r>
       <r>    4.2971    1.0000 </r>
       <r>    4.5856    1.0000 </r>
       <r>    4.5856    1.0000 </r>
       <r>    5.3437    1.0000 </r>
       <r>    6.5087    1.0000 </r>
       <r>    6.5087    1.0000 </r>
       <r>    6.7263    1.0000 </r>
       <r>    6.7263    1.0000 </r>
       <r>    6.9128    1.0000 </r>
       <r>    7.6781    1.0000 </r>
       <r>    7.7348    1.0000 </r>
       <r>    7.7348    1.0000 </r>
       <r>    7.9182    1.0000 </r>
       <r>    7.9182    1.0000 </r>
       <r>    8.2224    1.0000 </r>
       <r>    8.8506    1.0000 </r>
       <r>    8.8506    1.0000 </r>
       <r>    8.9669    1.0000 </r>
       <r>   16.1398    0.0000 </r>
       <r>   16.1398    0.0000 </r>
       <r>   20.1236    0.0000 </r>
       <r>   20.1236    0.0000 </r>
       <r>   20.7601    0.0000 </r>
       <r>   20.7601    0.0000 </r>
       <r>   21.5539    0.0000 </r>
       <r>   21.5539    0.0000 </r>
       <r>   25.7049    0.0000 </r>
       <r>   25.7684    0.0000 </r>
       <r>   25.7684    0.0000 </r>
       <r>   28.9980    0.0000 </r>
       <r>   30.0259    0.0000 </r>
       <r>   30.7571    0.0000 </r>
       <r>   30.7571    0.0000 </r>
       <r>   30.7773    0.0000 </r>
       <r>   31.8403    0.0000 </r>
       <r>   33.9730    0.0000 </r>
       <r>   33.9730    0.0000 </r>
       <r>   36.7457    0.0000 </r>
       <r>   36.7457    0.0000 </r>
       <r>   38.0303    0.0000 </r>
       <r>   39.4233    0.0000 </r>
       <r>   39.4233    0.0000 </r>
       <r>   39.5174    0.0000 </r>
       <r>   39.5174    0.0000 </r>
      </set>
      <set comment="kpoint 5">
       <r>    4.1035    1.0000 </r>
       <r>    4.3241    1.0000 </r>
       <r>    4.5745    1.0000 </r>
       <r>    4.5745    1.0000 </r>
       <r>    4.6199    1.0000 </r>
       <r>    4.9830    1.0000 </r>
       <r>    5.1624    1.0000 </r>
       <r>    5.1624    1.0000 </r>
       <r>    5.8843    1.0000 </r>
       <r>    5.8843    1.0000 </r>
       <r>    6.9215    1.0000 </r>
       <r>    6.9215    1.0000 </r>
       <r>    6.9246    1.0000 </r>
       <r>    7.4065    1.0000 </r>
       <r>    7.4065    1.0000 </r>
       <r>    7.4288    1.0000 </r>
       <r>    7.4288    1.0000 </r>
       <r>    7.6113    1.0000 </r>
       <r>    7.8510    1.0000 </r>
       <r>    8.0400    1.0000 </r>
       <r>    8.8510    1.0000 </r>
       <r>    8.8510    1.0000 </r>
       <r>   17.6961    0.0000 </r>
       <r>   17.6961    0.0000 </r>
       <r>   19.2669    0.0000 </r>
       <r>   19.2669    0.0000 </r>
       <r>   20.1451    0.0000 </r>
       <r>   20.1451    0.0000 </r>
       <r>   21.1510    0.0000 </r>
       <r>   21.1510    0.0000 </r>
       <r>   27.3689    0.0000 </r>
       <r>   27.3689    0.0000 </r>
       <r>   27.7999    0.0000 </r>
       <r>   29.0998    0.0000 </r>
       <r>   29.1118    0.0000 </r>
       <r>   29.1118    0.0000 </r>
       <r>   29.6334    0.0000 </r>
       <r>   30.2502    0.0000 </r>
       <r>   32.8197    0.0000 </r>
       <r>   35.0282    0.0000 </r>
       <r>   35.5836    0.0000 </r>
       <r>   35.5836    0.0000 </r>
       <r>   37.4622    0.0000 </r>
       <r>   37.4622    0.0000 </r>
       <r>   39.0201    0.0000 </r>
       <r>   39.0201    0.0000 </r>
       <r>   40.2365    0.0000 </r>
       <r>   40.2365    0.0000 </r>
      </set>
      <set comment="kpoint 6">
       <r>    2.5185    1.0000 </r>
       <r>    3.7665    1.0000 </r>
       <r>    3.7711    1.0000 </r>
       <r>    3.7711    1.0000 </r>
       <r>    3.9659    1.0000 </r>
       <r>    3.9659    1.0000 </r>
       <r>    4.0142    1.0000 </r>
       <r>    5.8357    1.0000 </r>
       <r>    6.0279    1.0000 </r>
       <r>    6.0612    1.0000 </r>
       <r>    7.3234    1.0000 </r>
       <r>    7.4374    1.0000 </r>
       <r>    8.2187    1.0000 </r>
       <r>    8.2202    1.0000 </r>
       <r>    8.2202    1.0000 </r>
       <r>    8.3121    1.0000 </r>
       <r>    8.4860    1.0000 </r>
       <r>    8.4860    1.0000 </r>
       <r>    8.7244    1.0000 </r>
       <r>    8.7244    1.0000 </r>
       <r>    8.7647    1.0000 </r>
       <r>   12.7376   -0.0000 </r>
       <r>   12.7376   -0.0000 </r>
       <r>   13.9771   -0.0000 </r>
       <r>   20.1223    0.0000 </r>
       <r>   21.1230    0.0000 </r>
       <r>   21.1230    0.0000 </r>
       <r>   21.6706    0.0000 </r>
       <r>   23.2454    0.0000 </r>
       <r>   23.2454    0.0000 </r>
       <r>   23.2701    0.0000 </r>
       <r>   23.2701    0.0000 </r>
       <r>   23.9028    0.0000 </r>
       <r>   28.1496    0.0000 </r>
       <r>   31.0460    0.0000 </r>
       <r>   31.3356    0.0000 </r>
       <r>   31.7502    0.0000 </r>
       <r>   31.7502    0.0000 </r>
       <r>   32.4414    0.0000 </r>
       <r>   32.4554    0.0000 </r>
       <r>   32.4554    0.0000 </r>
       <r>   33.2984    0.0000 </r>
       <r>   33.7106    0.0000 </r>
       <r>   38.5244    0.0000 </r>
       <r>   40.3249    0.0000 </r>
       <r>   40.8255    0.0000 </r>
       <r>   40.9315    0.0000 </r>
       <r>   42.6244    0.0000 </r>
      </set>
      <set comment="kpoint 7">
       <r>    2.9472    1.0000 </r>
       <r>    3.9761    1.0000 </r>
       <r>    3.9764    1.0000 </r>
       <r>    4.0294    1.0000 </r>
       <r>    4.1203    1.0000 </r>
       <r>    4.2136    1.0000 </r>
       <r>    4.2955    1.0000 </r>
       <r>    5.6560    1.0000 </r>
       <r>    6.1992    1.0000 </r>
       <r>    6.2194    1.0000 </r>
       <r>    7.1591    1.0000 </r>
       <r>    7.4401    1.0000 </r>
       <r>    7.5177    1.0000 </r>
       <r>    7.5316    1.0000 </r>
       <r>    7.8442    1.0000 </r>
       <r>    8.0467    1.0000 </r>
       <r>    8.1681    1.0000 </r>
       <r>    8.3849    1.0000 </r>
       <r>    8.4003    1.0000 </r>
       <r>    8.7220    1.0000 </r>
       <r>    8.7230    1.0000 </r>
       <r>   11.1423    1.0000 </r>
       <r>   13.8158   -0.0000 </r>
       <r>   15.0563    0.0000 </r>
       <r>   19.9622    0.0000 </r>
       <r>   20.4670    0.0000 </r>
       <r>   21.1600    0.0000 </r>
       <r>   22.3211    0.0000 </r>
       <r>   22.4745    0.0000 </r>
       <r>   23.2814    0.0000 </r>
       <r>   23.9977    0.0000 </r>
       <r>   24.0127    0.0000 </r>
       <r>   24.0775    0.0000 </r>
       <r>   28.3844    0.0000 </r>
       <r>   29.7948    0.0000 </r>
       <r>   31.5614    0.0000 </r>
       <r>   31.6519    0.0000 </r>
       <r>   31.9831    0.0000 </r>
       <r>   32.4559    0.0000 </r>
       <r>   32.6580    0.0000 </r>
       <r>   33.2904    0.0000 </r>
       <r>   34.2925    0.0000 </r>
       <r>   35.6868    0.0000 </r>
       <r>   37.6952    0.0000 </r>
       <r>   39.7344    0.0000 </r>
       <r>   41.2328    0.0000 </r>
       <r>   41.4502    0.0000 </r>
       <r>   41.5407    0.0000 </r>
      </set>
      <set comment="kpoint 8">
       <r>    3.5824    1.0000 </r>
       <r>    4.2507    1.0000 </r>
       <r>    4.3028    1.0000 </r>
       <r>    4.3638    1.0000 </r>
       <r>    4.3799    1.0000 </r>
       <r>    4.6218    1.0000 </r>
       <r>    4.7023    1.0000 </r>
       <r>    5.3654    1.0000 </r>
       <r>    6.4024    1.0000 </r>
       <r>    6.5056    1.0000 </r>
       <r>    6.5786    1.0000 </r>
       <r>    6.6792    1.0000 </r>
       <r>    7.0313    1.0000 </r>
       <r>    7.3371    1.0000 </r>
       <r>    7.6875    1.0000 </r>
       <r>    7.7095    1.0000 </r>
       <r>    7.7747    1.0000 </r>
       <r>    7.9147    1.0000 </r>
       <r>    8.2101    1.0000 </r>
       <r>    8.7145    1.0000 </r>
       <r>    8.7207    1.0000 </r>
       <r>    9.5585    1.0000 </r>
       <r>   15.0918    0.0000 </r>
       <r>   16.4448    0.0000 </r>
       <r>   18.8927    0.0000 </r>
       <r>   20.2974    0.0000 </r>
       <r>   21.0132    0.0000 </r>
       <r>   21.0972    0.0000 </r>
       <r>   21.9542    0.0000 </r>
       <r>   23.4460    0.0000 </r>
       <r>   25.0943    0.0000 </r>
       <r>   25.2842    0.0000 </r>
       <r>   25.7818    0.0000 </r>
       <r>   28.5231    0.0000 </r>
       <r>   28.6566    0.0000 </r>
       <r>   31.2165    0.0000 </r>
       <r>   31.2692    0.0000 </r>
       <r>   32.0493    0.0000 </r>
       <r>   32.7482    0.0000 </r>
       <r>   32.8611    0.0000 </r>
       <r>   33.9791    0.0000 </r>
       <r>   36.3368    0.0000 </r>
       <r>   37.5599    0.0000 </r>
       <r>   38.0045    0.0000 </r>
       <r>   39.2640    0.0000 </r>
       <r>   39.6067    0.0000 </r>
       <r>   39.6530    0.0000 </r>
       <r>   39.8065    0.0000 </r>
      </set>
      <set comment="kpoint 9">
       <r>    4.2090    1.0000 </r>
       <r>    4.4327    1.0000 </r>
       <r>    4.6242    1.0000 </r>
       <r>    4.6582    1.0000 </r>
       <r>    4.6749    1.0000 </r>
       <r>    5.0222    1.0000 </r>
       <r>    5.1818    1.0000 </r>
       <r>    5.1869    1.0000 </r>
       <r>    5.8046    1.0000 </r>
       <r>    5.8779    1.0000 </r>
       <r>    6.4738    1.0000 </r>
       <r>    6.7889    1.0000 </r>
       <r>    6.9173    1.0000 </r>
       <r>    7.3063    1.0000 </r>
       <r>    7.4025    1.0000 </r>
       <r>    7.4108    1.0000 </r>
       <r>    7.4455    1.0000 </r>
       <r>    7.8634    1.0000 </r>
       <r>    7.9583    1.0000 </r>
       <r>    8.4231    1.0000 </r>
       <r>    8.7150    1.0000 </r>
       <r>    8.7178    1.0000 </r>
       <r>   16.3960    0.0000 </r>
       <r>   17.6604    0.0000 </r>
       <r>   17.9684    0.0000 </r>
       <r>   19.5225    0.0000 </r>
       <r>   20.4448    0.0000 </r>
       <r>   20.7491    0.0000 </r>
       <r>   22.1229    0.0000 </r>
       <r>   22.7022    0.0000 </r>
       <r>   26.3532    0.0000 </r>
       <r>   26.7026    0.0000 </r>
       <r>   27.5545    0.0000 </r>
       <r>   27.9880    0.0000 </r>
       <r>   28.1689    0.0000 </r>
       <r>   30.2403    0.0000 </r>
       <r>   30.7720    0.0000 </r>
       <r>   30.9367    0.0000 </r>
       <r>   33.7368    0.0000 </r>
       <r>   34.5249    0.0000 </r>
       <r>   35.6213    0.0000 </r>
       <r>   35.6730    0.0000 </r>
       <r>   36.2309    0.0000 </r>
       <r>   37.5290    0.0000 </r>
       <r>   39.4252    0.0000 </r>
       <r>   40.2529    0.0000 </r>
       <r>   40.2738    0.0000 </r>
       <r>   40.3787    0.0000 </r>
      </set>
      <set comment="kpoint 10">
       <r>    3.3363    1.0000 </r>
       <r>    4.1083    1.0000 </r>
       <r>    4.2455    1.0000 </r>
       <r>    4.2455    1.0000 </r>
       <r>    4.3500    1.0000 </r>
       <r>    4.3500    1.0000 </r>
       <r>    4.6022    1.0000 </r>
       <r>    5.5941    1.0000 </r>
       <r>    6.2818    1.0000 </r>
       <r>    6.2820    1.0000 </r>
       <r>    7.0346    1.0000 </r>
       <r>    7.0346    1.0000 </r>
       <r>    7.0951    1.0000 </r>
       <r>    7.1285    1.0000 </r>
       <r>    7.6490    1.0000 </r>
       <r>    7.8360    1.0000 </r>
       <r>    8.1559    1.0000 </r>
       <r>    8.1559    1.0000 </r>
       <r>    8.3796    1.0000 </r>
       <r>    8.3796    1.0000 </r>
       <r>    8.5189    1.0000 </r>
       <r>   12.1596   -0.0000 </r>
       <r>   12.1596   -0.0000 </r>
       <r>   15.9936    0.0000 </r>
       <r>   18.5113    0.0000 </r>
       <r>   20.2745    0.0000 </r>
       <r>   22.8514    0.0000 </r>
       <r>   22.8514    0.0000 </r>
       <r>   23.0636    0.0000 </r>
       <r>   23.0636    0.0000 </r>
       <r>   23.5786    0.0000 </r>
       <r>   23.5786    0.0000 </r>
       <r>   25.4790    0.0000 </r>
       <r>   28.1533    0.0000 </r>
       <r>   28.3744    0.0000 </r>
       <r>   30.7412    0.0000 </r>
       <r>   32.0139    0.0000 </r>
       <r>   32.5739    0.0000 </r>
       <r>   32.5739    0.0000 </r>
       <r>   34.2634    0.0000 </r>
       <r>   34.2634    0.0000 </r>
       <r>   34.8677    0.0000 </r>
       <r>   35.4033    0.0000 </r>
       <r>   37.8006    0.0000 </r>
       <r>   40.4380    0.0000 </r>
       <r>   40.4915    0.0000 </r>
       <r>   41.1687    0.0000 </r>
       <r>   41.1701    0.0000 </r>
      </set>
      <set comment="kpoint 11">
       <r>    3.9087    1.0000 </r>
       <r>    4.3747    1.0000 </r>
       <r>    4.5401    1.0000 </r>
       <r>    4.5636    1.0000 </r>
       <r>    4.6151    1.0000 </r>
       <r>    4.7258    1.0000 </r>
       <r>    4.9835    1.0000 </r>
       <r>    5.4005    1.0000 </r>
       <r>    6.2488    1.0000 </r>
       <r>    6.2970    1.0000 </r>
       <r>    6.5168    1.0000 </r>
       <r>    6.5317    1.0000 </r>
       <r>    6.5651    1.0000 </r>
       <r>    7.0268    1.0000 </r>
       <r>    7.5425    1.0000 </r>
       <r>    7.7855    1.0000 </r>
       <r>    7.9068    1.0000 </r>
       <r>    7.9722    1.0000 </r>
       <r>    7.9886    1.0000 </r>
       <r>    8.3728    1.0000 </r>
       <r>    8.4120    1.0000 </r>
       <r>   10.5564    1.0000 </r>
       <r>   13.3105   -0.0000 </r>
       <r>   17.0338    0.0000 </r>
       <r>   17.2699    0.0000 </r>
       <r>   20.3941    0.0000 </r>
       <r>   21.7211    0.0000 </r>
       <r>   21.9011    0.0000 </r>
       <r>   23.8393    0.0000 </r>
       <r>   23.8877    0.0000 </r>
       <r>   24.1537    0.0000 </r>
       <r>   25.7781    0.0000 </r>
       <r>   25.9651    0.0000 </r>
       <r>   27.1257    0.0000 </r>
       <r>   27.5927    0.0000 </r>
       <r>   31.2160    0.0000 </r>
       <r>   32.0675    0.0000 </r>
       <r>   32.4476    0.0000 </r>
       <r>   32.9755    0.0000 </r>
       <r>   33.9936    0.0000 </r>
       <r>   34.5312    0.0000 </r>
       <r>   35.6078    0.0000 </r>
       <r>   36.5327    0.0000 </r>
       <r>   39.3462    0.0000 </r>
       <r>   39.8765    0.0000 </r>
       <r>   40.1012    0.0000 </r>
       <r>   40.1178    0.0000 </r>
       <r>   40.2165    0.0000 </r>
      </set>
      <set comment="kpoint 12">
       <r>    4.4930    1.0000 </r>
       <r>    4.7353    1.0000 </r>
       <r>    4.7370    1.0000 </r>
       <r>    4.8328    1.0000 </r>
       <r>    4.8968    1.0000 </r>
       <r>    5.1264    1.0000 </r>
       <r>    5.2342    1.0000 </r>
       <r>    5.3020    1.0000 </r>
       <r>    5.6226    1.0000 </r>
       <r>    5.8488    1.0000 </r>
       <r>    6.1457    1.0000 </r>
       <r>    6.1780    1.0000 </r>
       <r>    6.9198    1.0000 </r>
       <r>    7.2595    1.0000 </r>
       <r>    7.3321    1.0000 </r>
       <r>    7.3962    1.0000 </r>
       <r>    7.4334    1.0000 </r>
       <r>    7.6609    1.0000 </r>
       <r>    8.3686    1.0000 </r>
       <r>    8.3755    1.0000 </r>
       <r>    8.4825    1.0000 </r>
       <r>    9.3015    1.0000 </r>
       <r>   14.4959    0.0000 </r>
       <r>   15.7173    0.0000 </r>
       <r>   18.7199    0.0000 </r>
       <r>   20.2349    0.0000 </r>
       <r>   20.6690    0.0000 </r>
       <r>   21.1574    0.0000 </r>
       <r>   24.4362    0.0000 </r>
       <r>   24.8955    0.0000 </r>
       <r>   25.1615    0.0000 </r>
       <r>   25.4153    0.0000 </r>
       <r>   25.9920    0.0000 </r>
       <r>   26.6367    0.0000 </r>
       <r>   28.4128    0.0000 </r>
       <r>   30.7247    0.0000 </r>
       <r>   32.1641    0.0000 </r>
       <r>   32.3008    0.0000 </r>
       <r>   32.8430    0.0000 </r>
       <r>   34.6881    0.0000 </r>
       <r>   35.4172    0.0000 </r>
       <r>   35.7214    0.0000 </r>
       <r>   37.0680    0.0000 </r>
       <r>   37.7148    0.0000 </r>
       <r>   38.0264    0.0000 </r>
       <r>   39.3392    0.0000 </r>
       <r>   40.4996    0.0000 </r>
       <r>   41.6386    0.0000 </r>
      </set>
      <set comment="kpoint 13">
       <r>    4.3683    1.0000 </r>
       <r>    4.5545    1.0000 </r>
       <r>    4.8842    1.0000 </r>
       <r>    4.8842    1.0000 </r>
       <r>    4.9515    1.0000 </r>
       <r>    4.9515    1.0000 </r>
       <r>    5.3270    1.0000 </r>
       <r>    5.3756    1.0000 </r>
       <r>    5.8852    1.0000 </r>
       <r>    5.8852    1.0000 </r>
       <r>    6.2036    1.0000 </r>
       <r>    6.2448    1.0000 </r>
       <r>    6.6721    1.0000 </r>
       <r>    6.8744    1.0000 </r>
       <r>    7.3181    1.0000 </r>
       <r>    7.6446    1.0000 </r>
       <r>    7.6446    1.0000 </r>
       <r>    7.9023    1.0000 </r>
       <r>    7.9023    1.0000 </r>
       <r>    8.1365    1.0000 </r>
       <r>    8.5077    1.0000 </r>
       <r>   11.6364    0.9333 </r>
       <r>   11.6364    0.9333 </r>
       <r>   15.4036    0.0000 </r>
       <r>   18.4411    0.0000 </r>
       <r>   20.6261    0.0000 </r>
       <r>   22.6444    0.0000 </r>
       <r>   22.6444    0.0000 </r>
       <r>   22.7600    0.0000 </r>
       <r>   22.7600    0.0000 </r>
       <r>   25.7802    0.0000 </r>
       <r>   26.3331    0.0000 </r>
       <r>   26.3331    0.0000 </r>
       <r>   26.4874    0.0000 </r>
       <r>   27.7860    0.0000 </r>
       <r>   30.1168    0.0000 </r>
       <r>   32.4217    0.0000 </r>
       <r>   32.9249    0.0000 </r>
       <r>   33.9938    0.0000 </r>
       <r>   33.9938    0.0000 </r>
       <r>   35.0961    0.0000 </r>
       <r>   35.0961    0.0000 </r>
       <r>   35.9318    0.0000 </r>
       <r>   39.6242    0.0000 </r>
       <r>   40.0121    0.0000 </r>
       <r>   40.1712    0.0000 </r>
       <r>   40.3600    0.0000 </r>
       <r>   40.3611    0.0000 </r>
      </set>
      <set comment="kpoint 14">
       <r>    4.8384    1.0000 </r>
       <r>    4.8533    1.0000 </r>
       <r>    5.0726    1.0000 </r>
       <r>    5.1477    1.0000 </r>
       <r>    5.2213    1.0000 </r>
       <r>    5.2536    1.0000 </r>
       <r>    5.3013    1.0000 </r>
       <r>    5.4628    1.0000 </r>
       <r>    5.5505    1.0000 </r>
       <r>    5.7190    1.0000 </r>
       <r>    5.7679    1.0000 </r>
       <r>    6.0145    1.0000 </r>
       <r>    6.9760    1.0000 </r>
       <r>    6.9840    1.0000 </r>
       <r>    7.1539    1.0000 </r>
       <r>    7.2922    1.0000 </r>
       <r>    7.3354    1.0000 </r>
       <r>    7.4089    1.0000 </r>
       <r>    7.9167    1.0000 </r>
       <r>    7.9794    1.0000 </r>
       <r>    9.2520    1.0000 </r>
       <r>   10.2708    1.0000 </r>
       <r>   12.7725   -0.0000 </r>
       <r>   14.0040   -0.0000 </r>
       <r>   19.8126    0.0000 </r>
       <r>   21.0435    0.0000 </r>
       <r>   21.2805    0.0000 </r>
       <r>   21.7042    0.0000 </r>
       <r>   23.5541    0.0000 </r>
       <r>   23.9854    0.0000 </r>
       <r>   24.6011    0.0000 </r>
       <r>   25.2630    0.0000 </r>
       <r>   26.9382    0.0000 </r>
       <r>   27.7402    0.0000 </r>
       <r>   28.7186    0.0000 </r>
       <r>   30.8136    0.0000 </r>
       <r>   31.3390    0.0000 </r>
       <r>   33.4909    0.0000 </r>
       <r>   33.5773    0.0000 </r>
       <r>   33.9042    0.0000 </r>
       <r>   35.0440    0.0000 </r>
       <r>   35.4381    0.0000 </r>
       <r>   35.8141    0.0000 </r>
       <r>   37.8968    0.0000 </r>
       <r>   39.9402    0.0000 </r>
       <r>   40.1129    0.0000 </r>
       <r>   40.2264    0.0000 </r>
       <r>   40.9963    0.0000 </r>
      </set>
      <set comment="kpoint 15">
       <r>    5.0037    1.0000 </r>
       <r>    5.0760    1.0000 </r>
       <r>    5.2153    1.0000 </r>
       <r>    5.2153    1.0000 </r>
       <r>    5.3411    1.0000 </r>
       <r>    5.3507    1.0000 </r>
       <r>    5.3507    1.0000 </r>
       <r>    5.6010    1.0000 </r>
       <r>    5.7210    1.0000 </r>
       <r>    5.7210    1.0000 </r>
       <r>    5.7995    1.0000 </r>
       <r>    6.0006    1.0000 </r>
       <r>    6.7968    1.0000 </r>
       <r>    6.9433    1.0000 </r>
       <r>    7.0077    1.0000 </r>
       <r>    7.0077    1.0000 </r>
       <r>    7.1520    1.0000 </r>
       <r>    7.4798    1.0000 </r>
       <r>    7.4798    1.0000 </r>
       <r>    7.6616    1.0000 </r>
       <r>   10.1852    1.0000 </r>
       <r>   11.3367    1.0000 </r>
       <r>   11.3367    1.0000 </r>
       <r>   12.5568   -0.0000 </r>
       <r>   21.1155    0.0000 </r>
       <r>   21.6277    0.0000 </r>
       <r>   22.4585    0.0000 </r>
       <r>   22.4585    0.0000 </r>
       <r>   22.5305    0.0000 </r>
       <r>   22.5305    0.0000 </r>
       <r>   23.4237    0.0000 </r>
       <r>   23.8817    0.0000 </r>
       <r>   29.2411    0.0000 </r>
       <r>   29.2411    0.0000 </r>
       <r>   29.9159    0.0000 </r>
       <r>   30.5646    0.0000 </r>
       <r>   30.5753    0.0000 </r>
       <r>   32.8959    0.0000 </r>
       <r>   32.8959    0.0000 </r>
       <r>   33.5643    0.0000 </r>
       <r>   34.8658    0.0000 </r>
       <r>   35.6557    0.0000 </r>
       <r>   35.6557    0.0000 </r>
       <r>   37.3166    0.0000 </r>
       <r>   39.7617    0.0000 </r>
       <r>   39.8622    0.0000 </r>
       <r>   40.2390    0.0000 </r>
       <r>   40.2390    0.0000 </r>
      </set>
      <set comment="kpoint 16">
       <r>    2.6614    1.0000 </r>
       <r>    3.8370    1.0000 </r>
       <r>    3.8370    1.0000 </r>
       <r>    3.8370    1.0000 </r>
       <r>    4.0694    1.0000 </r>
       <r>    4.0694    1.0000 </r>
       <r>    4.0694    1.0000 </r>
       <r>    5.8223    1.0000 </r>
       <r>    6.0747    1.0000 </r>
       <r>    6.0747    1.0000 </r>
       <r>    7.3696    1.0000 </r>
       <r>    7.3696    1.0000 </r>
       <r>    8.0782    1.0000 </r>
       <r>    8.0782    1.0000 </r>
       <r>    8.0782    1.0000 </r>
       <r>    8.2012    1.0000 </r>
       <r>    8.2012    1.0000 </r>
       <r>    8.2012    1.0000 </r>
       <r>    8.7350    1.0000 </r>
       <r>    8.7350    1.0000 </r>
       <r>    8.7350    1.0000 </r>
       <r>   13.1504   -0.0000 </r>
       <r>   13.1504   -0.0000 </r>
       <r>   13.1504   -0.0000 </r>
       <r>   21.1032    0.0000 </r>
       <r>   21.1032    0.0000 </r>
       <r>   21.1032    0.0000 </r>
       <r>   21.9618    0.0000 </r>
       <r>   21.9618    0.0000 </r>
       <r>   21.9618    0.0000 </r>
       <r>   24.1771    0.0000 </r>
       <r>   24.1771    0.0000 </r>
       <r>   24.1771    0.0000 </r>
       <r>   28.1717    0.0000 </r>
       <r>   30.2402    0.0000 </r>
       <r>   31.2597    0.0000 </r>
       <r>   31.2597    0.0000 </r>
       <r>   31.2597    0.0000 </r>
       <r>   33.1447    0.0000 </r>
       <r>   33.1447    0.0000 </r>
       <r>   33.7018    0.0000 </r>
       <r>   33.7018    0.0000 </r>
       <r>   33.7018    0.0000 </r>
       <r>   38.1272    0.0000 </r>
       <r>   39.9677    0.0000 </r>
       <r>   39.9677    0.0000 </r>
       <r>   41.8886    0.0000 </r>
       <r>   42.6625    0.0000 </r>
      </set>
      <set comment="kpoint 17">
       <r>    3.0708    1.0000 </r>
       <r>    4.0259    1.0000 </r>
       <r>    4.0400    1.0000 </r>
       <r>    4.0400    1.0000 </r>
       <r>    4.2359    1.0000 </r>
       <r>    4.3519    1.0000 </r>
       <r>    4.3519    1.0000 </r>
       <r>    5.6814    1.0000 </r>
       <r>    6.2095    1.0000 </r>
       <r>    6.2144    1.0000 </r>
       <r>    7.2092    1.0000 </r>
       <r>    7.3586    1.0000 </r>
       <r>    7.3586    1.0000 </r>
       <r>    7.5019    1.0000 </r>
       <r>    7.6921    1.0000 </r>
       <r>    7.9158    1.0000 </r>
       <r>    7.9878    1.0000 </r>
       <r>    7.9878    1.0000 </r>
       <r>    8.6298    1.0000 </r>
       <r>    8.6877    1.0000 </r>
       <r>    8.6877    1.0000 </r>
       <r>   11.5244    1.0164 </r>
       <r>   14.1286   -0.0000 </r>
       <r>   14.1286   -0.0000 </r>
       <r>   20.3825    0.0000 </r>
       <r>   20.3825    0.0000 </r>
       <r>   21.3862    0.0000 </r>
       <r>   21.3862    0.0000 </r>
       <r>   22.5550    0.0000 </r>
       <r>   23.4030    0.0000 </r>
       <r>   24.2422    0.0000 </r>
       <r>   24.2422    0.0000 </r>
       <r>   24.9688    0.0000 </r>
       <r>   28.0043    0.0000 </r>
       <r>   29.3589    0.0000 </r>
       <r>   31.0651    0.0000 </r>
       <r>   31.5860    0.0000 </r>
       <r>   31.5860    0.0000 </r>
       <r>   32.5054    0.0000 </r>
       <r>   33.6102    0.0000 </r>
       <r>   33.7372    0.0000 </r>
       <r>   35.6762    0.0000 </r>
       <r>   35.6762    0.0000 </r>
       <r>   37.3416    0.0000 </r>
       <r>   38.9768    0.0000 </r>
       <r>   40.1863    0.0000 </r>
       <r>   41.4818    0.0000 </r>
       <r>   41.4818    0.0000 </r>
      </set>
      <set comment="kpoint 18">
       <r>    3.6715    1.0000 </r>
       <r>    4.2670    1.0000 </r>
       <r>    4.3654    1.0000 </r>
       <r>    4.3654    1.0000 </r>
       <r>    4.5064    1.0000 </r>
       <r>    4.7469    1.0000 </r>
       <r>    4.7469    1.0000 </r>
       <r>    5.4240    1.0000 </r>
       <r>    6.3575    1.0000 </r>
       <r>    6.4451    1.0000 </r>
       <r>    6.5568    1.0000 </r>
       <r>    6.5568    1.0000 </r>
       <r>    7.1481    1.0000 </r>
       <r>    7.1755    1.0000 </r>
       <r>    7.5362    1.0000 </r>
       <r>    7.6714    1.0000 </r>
       <r>    7.6714    1.0000 </r>
       <r>    7.7037    1.0000 </r>
       <r>    8.4462    1.0000 </r>
       <r>    8.6469    1.0000 </r>
       <r>    8.6469    1.0000 </r>
       <r>    9.8952    1.0000 </r>
       <r>   15.3303    0.0000 </r>
       <r>   15.3303    0.0000 </r>
       <r>   19.1160    0.0000 </r>
       <r>   19.1160    0.0000 </r>
       <r>   21.5682    0.0000 </r>
       <r>   21.5682    0.0000 </r>
       <r>   23.6195    0.0000 </r>
       <r>   23.6195    0.0000 </r>
       <r>   23.6533    0.0000 </r>
       <r>   25.8170    0.0000 </r>
       <r>   26.1979    0.0000 </r>
       <r>   27.1858    0.0000 </r>
       <r>   29.2146    0.0000 </r>
       <r>   30.8459    0.0000 </r>
       <r>   31.1993    0.0000 </r>
       <r>   32.7874    0.0000 </r>
       <r>   32.7874    0.0000 </r>
       <r>   32.8301    0.0000 </r>
       <r>   33.9938    0.0000 </r>
       <r>   37.1965    0.0000 </r>
       <r>   37.6304    0.0000 </r>
       <r>   37.6304    0.0000 </r>
       <r>   38.8882    0.0000 </r>
       <r>   39.7461    0.0000 </r>
       <r>   39.9415    0.0000 </r>
       <r>   39.9415    0.0000 </r>
      </set>
      <set comment="kpoint 19">
       <r>    4.2533    1.0000 </r>
       <r>    4.4397    1.0000 </r>
       <r>    4.7008    1.0000 </r>
       <r>    4.7008    1.0000 </r>
       <r>    4.8193    1.0000 </r>
       <r>    5.1219    1.0000 </r>
       <r>    5.1596    1.0000 </r>
       <r>    5.1596    1.0000 </r>
       <r>    5.8630    1.0000 </r>
       <r>    5.8630    1.0000 </r>
       <r>    6.3520    1.0000 </r>
       <r>    6.6012    1.0000 </r>
       <r>    6.7579    1.0000 </r>
       <r>    7.1328    1.0000 </r>
       <r>    7.3899    1.0000 </r>
       <r>    7.3899    1.0000 </r>
       <r>    7.6341    1.0000 </r>
       <r>    7.9496    1.0000 </r>
       <r>    8.2083    1.0000 </r>
       <r>    8.5596    1.0000 </r>
       <r>    8.6295    1.0000 </r>
       <r>    8.6295    1.0000 </r>
       <r>   16.5530    0.0000 </r>
       <r>   16.5530    0.0000 </r>
       <r>   17.9147    0.0000 </r>
       <r>   17.9147    0.0000 </r>
       <r>   21.9270    0.0000 </r>
       <r>   21.9270    0.0000 </r>
       <r>   22.8810    0.0000 </r>
       <r>   22.8810    0.0000 </r>
       <r>   24.8712    0.0000 </r>
       <r>   26.0782    0.0000 </r>
       <r>   27.7542    0.0000 </r>
       <r>   28.0168    0.0000 </r>
       <r>   29.1349    0.0000 </r>
       <r>   29.4954    0.0000 </r>
       <r>   30.7947    0.0000 </r>
       <r>   31.4912    0.0000 </r>
       <r>   34.2502    0.0000 </r>
       <r>   34.2502    0.0000 </r>
       <r>   34.7531    0.0000 </r>
       <r>   36.1768    0.0000 </r>
       <r>   37.0939    0.0000 </r>
       <r>   37.0939    0.0000 </r>
       <r>   39.6135    0.0000 </r>
       <r>   39.6598    0.0000 </r>
       <r>   40.7934    0.0000 </r>
       <r>   41.0137    0.0000 </r>
      </set>
      <set comment="kpoint 20">
       <r>    3.4186    1.0000 </r>
       <r>    4.1549    1.0000 </r>
       <r>    4.2035    1.0000 </r>
       <r>    4.2035    1.0000 </r>
       <r>    4.5290    1.0000 </r>
       <r>    4.5290    1.0000 </r>
       <r>    4.6611    1.0000 </r>
       <r>    5.6855    1.0000 </r>
       <r>    6.2539    1.0000 </r>
       <r>    6.2617    1.0000 </r>
       <r>    6.9868    1.0000 </r>
       <r>    6.9868    1.0000 </r>
       <r>    7.0243    1.0000 </r>
       <r>    7.2066    1.0000 </r>
       <r>    7.5915    1.0000 </r>
       <r>    7.6725    1.0000 </r>
       <r>    7.7564    1.0000 </r>
       <r>    7.7564    1.0000 </r>
       <r>    8.5871    1.0000 </r>
       <r>    8.5935    1.0000 </r>
       <r>    8.5935    1.0000 </r>
       <r>   12.4066   -0.0000 </r>
       <r>   12.4066   -0.0000 </r>
       <r>   14.9191    0.0000 </r>
       <r>   18.7483    0.0000 </r>
       <r>   21.0966    0.0000 </r>
       <r>   21.0966    0.0000 </r>
       <r>   21.4867    0.0000 </r>
       <r>   23.5645    0.0000 </r>
       <r>   23.5645    0.0000 </r>
       <r>   24.9034    0.0000 </r>
       <r>   24.9034    0.0000 </r>
       <r>   25.6951    0.0000 </r>
       <r>   26.9399    0.0000 </r>
       <r>   28.9882    0.0000 </r>
       <r>   30.6440    0.0000 </r>
       <r>   31.4373    0.0000 </r>
       <r>   31.4373    0.0000 </r>
       <r>   32.5707    0.0000 </r>
       <r>   34.7421    0.0000 </r>
       <r>   35.7143    0.0000 </r>
       <r>   35.7143    0.0000 </r>
       <r>   35.8027    0.0000 </r>
       <r>   37.8104    0.0000 </r>
       <r>   38.7547    0.0000 </r>
       <r>   39.4092    0.0000 </r>
       <r>   41.1949    0.0000 </r>
       <r>   41.2581    0.0000 </r>
      </set>
      <set comment="kpoint 21">
       <r>    3.9094    1.0000 </r>
       <r>    4.3943    1.0000 </r>
       <r>    4.4054    1.0000 </r>
       <r>    4.5119    1.0000 </r>
       <r>    4.8279    1.0000 </r>
       <r>    4.9016    1.0000 </r>
       <r>    5.0195    1.0000 </r>
       <r>    5.5733    1.0000 </r>
       <r>    6.2770    1.0000 </r>
       <r>    6.2812    1.0000 </r>
       <r>    6.4107    1.0000 </r>
       <r>    6.4681    1.0000 </r>
       <r>    6.5384    1.0000 </r>
       <r>    7.2393    1.0000 </r>
       <r>    7.3900    1.0000 </r>
       <r>    7.4116    1.0000 </r>
       <r>    7.5404    1.0000 </r>
       <r>    7.9102    1.0000 </r>
       <r>    8.4129    1.0000 </r>
       <r>    8.4746    1.0000 </r>
       <r>    8.4828    1.0000 </r>
       <r>   10.7163    1.0000 </r>
       <r>   13.4732   -0.0000 </r>
       <r>   15.8651    0.0000 </r>
       <r>   17.3842    0.0000 </r>
       <r>   19.7399    0.0000 </r>
       <r>   21.7860    0.0000 </r>
       <r>   22.0902    0.0000 </r>
       <r>   23.8489    0.0000 </r>
       <r>   24.1563    0.0000 </r>
       <r>   25.7014    0.0000 </r>
       <r>   25.8486    0.0000 </r>
       <r>   25.9282    0.0000 </r>
       <r>   26.0766    0.0000 </r>
       <r>   28.6397    0.0000 </r>
       <r>   31.1096    0.0000 </r>
       <r>   31.3542    0.0000 </r>
       <r>   31.8077    0.0000 </r>
       <r>   32.6191    0.0000 </r>
       <r>   33.8100    0.0000 </r>
       <r>   35.9504    0.0000 </r>
       <r>   36.4869    0.0000 </r>
       <r>   37.0771    0.0000 </r>
       <r>   37.9961    0.0000 </r>
       <r>   39.3541    0.0000 </r>
       <r>   40.1391    0.0000 </r>
       <r>   40.3763    0.0000 </r>
       <r>   40.4971    0.0000 </r>
      </set>
      <set comment="kpoint 22">
       <r>    4.3611    1.0000 </r>
       <r>    4.5120    1.0000 </r>
       <r>    4.7645    1.0000 </r>
       <r>    4.8958    1.0000 </r>
       <r>    5.0915    1.0000 </r>
       <r>    5.1713    1.0000 </r>
       <r>    5.1915    1.0000 </r>
       <r>    5.4068    1.0000 </r>
       <r>    5.8627    1.0000 </r>
       <r>    5.9894    1.0000 </r>
       <r>    6.1212    1.0000 </r>
       <r>    6.1622    1.0000 </r>
       <r>    6.6597    1.0000 </r>
       <r>    6.9981    1.0000 </r>
       <r>    7.2197    1.0000 </r>
       <r>    7.2838    1.0000 </r>
       <r>    7.6404    1.0000 </r>
       <r>    8.1049    1.0000 </r>
       <r>    8.4110    1.0000 </r>
       <r>    8.4139    1.0000 </r>
       <r>    8.4192    1.0000 </r>
       <r>    9.3307    1.0000 </r>
       <r>   14.5931    0.0000 </r>
       <r>   15.6944    0.0000 </r>
       <r>   17.4097    0.0000 </r>
       <r>   18.5090    0.0000 </r>
       <r>   22.3202    0.0000 </r>
       <r>   23.1080    0.0000 </r>
       <r>   23.2493    0.0000 </r>
       <r>   24.4678    0.0000 </r>
       <r>   24.5070    0.0000 </r>
       <r>   25.2544    0.0000 </r>
       <r>   27.0349    0.0000 </r>
       <r>   28.0278    0.0000 </r>
       <r>   28.3877    0.0000 </r>
       <r>   30.3430    0.0000 </r>
       <r>   31.5867    0.0000 </r>
       <r>   32.4223    0.0000 </r>
       <r>   32.5869    0.0000 </r>
       <r>   33.5153    0.0000 </r>
       <r>   36.5115    0.0000 </r>
       <r>   36.6734    0.0000 </r>
       <r>   37.2881    0.0000 </r>
       <r>   37.6604    0.0000 </r>
       <r>   38.0461    0.0000 </r>
       <r>   39.3918    0.0000 </r>
       <r>   40.2865    0.0000 </r>
       <r>   41.0504    0.0000 </r>
      </set>
      <set comment="kpoint 23">
       <r>    4.2152    1.0000 </r>
       <r>    4.5443    1.0000 </r>
       <r>    4.6329    1.0000 </r>
       <r>    4.6329    1.0000 </r>
       <r>    5.2064    1.0000 </r>
       <r>    5.2064    1.0000 </r>
       <r>    5.3012    1.0000 </r>
       <r>    5.7024    1.0000 </r>
       <r>    5.9940    1.0000 </r>
       <r>    5.9940    1.0000 </r>
       <r>    6.2585    1.0000 </r>
       <r>    6.2892    1.0000 </r>
       <r>    6.4294    1.0000 </r>
       <r>    7.1338    1.0000 </r>
       <r>    7.1835    1.0000 </r>
       <r>    7.2505    1.0000 </r>
       <r>    7.2505    1.0000 </r>
       <r>    8.2451    1.0000 </r>
       <r>    8.2451    1.0000 </r>
       <r>    8.2777    1.0000 </r>
       <r>    8.4365    1.0000 </r>
       <r>   11.7188    0.3396 </r>
       <r>   11.7188    0.3396 </r>
       <r>   15.3102    0.0000 </r>
       <r>   17.2482    0.0000 </r>
       <r>   20.6599    0.0000 </r>
       <r>   20.6599    0.0000 </r>
       <r>   22.1911    0.0000 </r>
       <r>   24.2971    0.0000 </r>
       <r>   24.8796    0.0000 </r>
       <r>   24.8796    0.0000 </r>
       <r>   26.3704    0.0000 </r>
       <r>   26.3704    0.0000 </r>
       <r>   27.7709    0.0000 </r>
       <r>   27.9179    0.0000 </r>
       <r>   29.9739    0.0000 </r>
       <r>   31.6968    0.0000 </r>
       <r>   32.5345    0.0000 </r>
       <r>   32.5345    0.0000 </r>
       <r>   34.2185    0.0000 </r>
       <r>   35.9934    0.0000 </r>
       <r>   36.6725    0.0000 </r>
       <r>   36.6725    0.0000 </r>
       <r>   37.5140    0.0000 </r>
       <r>   40.0568    0.0000 </r>
       <r>   40.2568    0.0000 </r>
       <r>   40.5284    0.0000 </r>
       <r>   40.5284    0.0000 </r>
      </set>
      <set comment="kpoint 24">
       <r>    4.4878    1.0000 </r>
       <r>    4.6395    1.0000 </r>
       <r>    4.7718    1.0000 </r>
       <r>    4.8845    1.0000 </r>
       <r>    5.2732    1.0000 </r>
       <r>    5.3493    1.0000 </r>
       <r>    5.6177    1.0000 </r>
       <r>    5.7333    1.0000 </r>
       <r>    5.8062    1.0000 </r>
       <r>    5.9347    1.0000 </r>
       <r>    6.0433    1.0000 </r>
       <r>    6.1341    1.0000 </r>
       <r>    6.5907    1.0000 </r>
       <r>    6.8964    1.0000 </r>
       <r>    6.9671    1.0000 </r>
       <r>    7.0537    1.0000 </r>
       <r>    7.4483    1.0000 </r>
       <r>    7.8895    1.0000 </r>
       <r>    8.1220    1.0000 </r>
       <r>    8.1350    1.0000 </r>
       <r>    9.1915    1.0000 </r>
       <r>   10.2669    1.0000 </r>
       <r>   12.8105   -0.0000 </r>
       <r>   14.0055   -0.0000 </r>
       <r>   18.2366    0.0000 </r>
       <r>   19.3857    0.0000 </r>
       <r>   21.7679    0.0000 </r>
       <r>   22.8508    0.0000 </r>
       <r>   22.9889    0.0000 </r>
       <r>   23.7762    0.0000 </r>
       <r>   25.8307    0.0000 </r>
       <r>   26.8240    0.0000 </r>
       <r>   26.9609    0.0000 </r>
       <r>   27.7757    0.0000 </r>
       <r>   28.6731    0.0000 </r>
       <r>   30.5157    0.0000 </r>
       <r>   31.1525    0.0000 </r>
       <r>   32.7457    0.0000 </r>
       <r>   32.8216    0.0000 </r>
       <r>   33.6669    0.0000 </r>
       <r>   35.8542    0.0000 </r>
       <r>   36.3092    0.0000 </r>
       <r>   36.5122    0.0000 </r>
       <r>   37.9913    0.0000 </r>
       <r>   38.5261    0.0000 </r>
       <r>   39.8685    0.0000 </r>
       <r>   40.8196    0.0000 </r>
       <r>   41.3061    0.0000 </r>
      </set>
      <set comment="kpoint 25">
       <r>    4.6125    1.0000 </r>
       <r>    4.7436    1.0000 </r>
       <r>    4.7436    1.0000 </r>
       <r>    4.7702    1.0000 </r>
       <r>    5.4810    1.0000 </r>
       <r>    5.5624    1.0000 </r>
       <r>    5.5624    1.0000 </r>
       <r>    5.7303    1.0000 </r>
       <r>    6.1018    1.0000 </r>
       <r>    6.1018    1.0000 </r>
       <r>    6.2484    1.0000 </r>
       <r>    6.2661    1.0000 </r>
       <r>    6.5321    1.0000 </r>
       <r>    6.7366    1.0000 </r>
       <r>    6.7582    1.0000 </r>
       <r>    6.7582    1.0000 </r>
       <r>    7.4567    1.0000 </r>
       <r>    7.7647    1.0000 </r>
       <r>    7.7647    1.0000 </r>
       <r>    7.8715    1.0000 </r>
       <r>   10.1342    1.0000 </r>
       <r>   11.3199    1.0000 </r>
       <r>   11.3199    1.0000 </r>
       <r>   12.5445   -0.0000 </r>
       <r>   19.2758    0.0000 </r>
       <r>   20.4501    0.0000 </r>
       <r>   20.4501    0.0000 </r>
       <r>   21.6535    0.0000 </r>
       <r>   23.6294    0.0000 </r>
       <r>   24.6457    0.0000 </r>
       <r>   24.6457    0.0000 </r>
       <r>   25.6816    0.0000 </r>
       <r>   29.1301    0.0000 </r>
       <r>   29.1301    0.0000 </r>
       <r>   29.7035    0.0000 </r>
       <r>   30.2550    0.0000 </r>
       <r>   30.5834    0.0000 </r>
       <r>   32.4977    0.0000 </r>
       <r>   32.4977    0.0000 </r>
       <r>   33.4501    0.0000 </r>
       <r>   35.4543    0.0000 </r>
       <r>   36.2399    0.0000 </r>
       <r>   36.2399    0.0000 </r>
       <r>   37.5843    0.0000 </r>
       <r>   38.9734    0.0000 </r>
       <r>   39.5935    0.0000 </r>
       <r>   39.8196    0.0000 </r>
       <r>   39.8196    0.0000 </r>
      </set>
      <set comment="kpoint 26">
       <r>    3.6407    1.0000 </r>
       <r>    4.2628    1.0000 </r>
       <r>    4.2628    1.0000 </r>
       <r>    4.2628    1.0000 </r>
       <r>    4.8493    1.0000 </r>
       <r>    4.8493    1.0000 </r>
       <r>    4.8493    1.0000 </r>
       <r>    5.9103    1.0000 </r>
       <r>    6.2285    1.0000 </r>
       <r>    6.2285    1.0000 </r>
       <r>    6.7543    1.0000 </r>
       <r>    6.7543    1.0000 </r>
       <r>    6.7543    1.0000 </r>
       <r>    7.3366    1.0000 </r>
       <r>    7.3366    1.0000 </r>
       <r>    7.3366    1.0000 </r>
       <r>    7.4754    1.0000 </r>
       <r>    7.4754    1.0000 </r>
       <r>    8.6503    1.0000 </r>
       <r>    8.6503    1.0000 </r>
       <r>    8.6503    1.0000 </r>
       <r>   13.0461   -0.0000 </r>
       <r>   13.0461   -0.0000 </r>
       <r>   13.0461   -0.0000 </r>
       <r>   19.4026    0.0000 </r>
       <r>   19.4026    0.0000 </r>
       <r>   19.4026    0.0000 </r>
       <r>   23.7554    0.0000 </r>
       <r>   23.7554    0.0000 </r>
       <r>   23.7554    0.0000 </r>
       <r>   25.4913    0.0000 </r>
       <r>   26.3363    0.0000 </r>
       <r>   26.3363    0.0000 </r>
       <r>   26.3363    0.0000 </r>
       <r>   29.0152    0.0000 </r>
       <r>   30.4218    0.0000 </r>
       <r>   30.4218    0.0000 </r>
       <r>   30.4218    0.0000 </r>
       <r>   33.9576    0.0000 </r>
       <r>   33.9576    0.0000 </r>
       <r>   36.5884    0.0000 </r>
       <r>   37.6210    0.0000 </r>
       <r>   37.6210    0.0000 </r>
       <r>   37.9118    0.0000 </r>
       <r>   37.9118    0.0000 </r>
       <r>   37.9118    0.0000 </r>
       <r>   40.9773    0.0000 </r>
       <r>   40.9773    0.0000 </r>
      </set>
      <set comment="kpoint 27">
       <r>    3.9347    1.0000 </r>
       <r>    4.3564    1.0000 </r>
       <r>    4.4465    1.0000 </r>
       <r>    4.4465    1.0000 </r>
       <r>    5.1547    1.0000 </r>
       <r>    5.1547    1.0000 </r>
       <r>    5.1735    1.0000 </r>
       <r>    6.0124    1.0000 </r>
       <r>    6.2431    1.0000 </r>
       <r>    6.2743    1.0000 </r>
       <r>    6.3690    1.0000 </r>
       <r>    6.3690    1.0000 </r>
       <r>    6.4217    1.0000 </r>
       <r>    6.9758    1.0000 </r>
       <r>    7.1228    1.0000 </r>
       <r>    7.1228    1.0000 </r>
       <r>    7.5929    1.0000 </r>
       <r>    7.8087    1.0000 </r>
       <r>    8.5548    1.0000 </r>
       <r>    8.5548    1.0000 </r>
       <r>    8.5981    1.0000 </r>
       <r>   11.2102    1.0000 </r>
       <r>   13.8699   -0.0000 </r>
       <r>   13.8699   -0.0000 </r>
       <r>   17.9813    0.0000 </r>
       <r>   17.9813    0.0000 </r>
       <r>   20.3651    0.0000 </r>
       <r>   24.0942    0.0000 </r>
       <r>   24.1244    0.0000 </r>
       <r>   24.1244    0.0000 </r>
       <r>   26.1108    0.0000 </r>
       <r>   26.3753    0.0000 </r>
       <r>   26.3753    0.0000 </r>
       <r>   27.3790    0.0000 </r>
       <r>   28.7995    0.0000 </r>
       <r>   30.3089    0.0000 </r>
       <r>   30.8948    0.0000 </r>
       <r>   30.8948    0.0000 </r>
       <r>   32.3112    0.0000 </r>
       <r>   34.8966    0.0000 </r>
       <r>   35.6676    0.0000 </r>
       <r>   37.7297    0.0000 </r>
       <r>   38.2174    0.0000 </r>
       <r>   38.4216    0.0000 </r>
       <r>   38.8522    0.0000 </r>
       <r>   38.8522    0.0000 </r>
       <r>   40.3057    0.0000 </r>
       <r>   40.9767    0.0000 </r>
      </set>
      <set comment="kpoint 28">
       <r>    4.2051    1.0000 </r>
       <r>    4.3558    1.0000 </r>
       <r>    4.6985    1.0000 </r>
       <r>    4.6985    1.0000 </r>
       <r>    5.1785    1.0000 </r>
       <r>    5.1785    1.0000 </r>
       <r>    5.5903    1.0000 </r>
       <r>    5.9796    1.0000 </r>
       <r>    6.0538    1.0000 </r>
       <r>    6.1511    1.0000 </r>
       <r>    6.2434    1.0000 </r>
       <r>    6.2434    1.0000 </r>
       <r>    6.4173    1.0000 </r>
       <r>    6.6570    1.0000 </r>
       <r>    6.9600    1.0000 </r>
       <r>    6.9600    1.0000 </r>
       <r>    8.1409    1.0000 </r>
       <r>    8.3467    1.0000 </r>
       <r>    8.4188    1.0000 </r>
       <r>    8.4495    1.0000 </r>
       <r>    8.4495    1.0000 </r>
       <r>    9.6076    1.0000 </r>
       <r>   14.6054    0.0000 </r>
       <r>   14.6054    0.0000 </r>
       <r>   16.9837    0.0000 </r>
       <r>   16.9837    0.0000 </r>
       <r>   21.5172    0.0000 </r>
       <r>   22.7715    0.0000 </r>
       <r>   24.7237    0.0000 </r>
       <r>   24.7237    0.0000 </r>
       <r>   25.5465    0.0000 </r>
       <r>   25.5465    0.0000 </r>
       <r>   27.8677    0.0000 </r>
       <r>   28.5243    0.0000 </r>
       <r>   28.7797    0.0000 </r>
       <r>   30.4679    0.0000 </r>
       <r>   30.9027    0.0000 </r>
       <r>   32.0250    0.0000 </r>
       <r>   32.0250    0.0000 </r>
       <r>   32.6876    0.0000 </r>
       <r>   37.4256    0.0000 </r>
       <r>   37.5697    0.0000 </r>
       <r>   37.5697    0.0000 </r>
       <r>   38.4512    0.0000 </r>
       <r>   38.5503    0.0000 </r>
       <r>   39.3912    0.0000 </r>
       <r>   39.3924    0.0000 </r>
       <r>   39.7754    0.0000 </r>
      </set>
      <set comment="kpoint 29">
       <r>    4.0118    1.0000 </r>
       <r>    4.4096    1.0000 </r>
       <r>    4.4096    1.0000 </r>
       <r>    4.4524    1.0000 </r>
       <r>    5.3433    1.0000 </r>
       <r>    5.4163    1.0000 </r>
       <r>    5.4163    1.0000 </r>
       <r>    6.1117    1.0000 </r>
       <r>    6.2023    1.0000 </r>
       <r>    6.3123    1.0000 </r>
       <r>    6.3123    1.0000 </r>
       <r>    6.4935    1.0000 </r>
       <r>    6.6038    1.0000 </r>
       <r>    6.7932    1.0000 </r>
       <r>    6.8067    1.0000 </r>
       <r>    6.8067    1.0000 </r>
       <r>    7.6011    1.0000 </r>
       <r>    8.2344    1.0000 </r>
       <r>    8.4868    1.0000 </r>
       <r>    8.5279    1.0000 </r>
       <r>    8.5279    1.0000 </r>
       <r>   11.9622   -0.0006 </r>
       <r>   11.9622   -0.0006 </r>
       <r>   14.1507   -0.0000 </r>
       <r>   16.8395    0.0000 </r>
       <r>   18.8818    0.0000 </r>
       <r>   18.8818    0.0000 </r>
       <r>   22.6024    0.0000 </r>
       <r>   24.5157    0.0000 </r>
       <r>   26.3364    0.0000 </r>
       <r>   26.3364    0.0000 </r>
       <r>   27.2114    0.0000 </r>
       <r>   27.2114    0.0000 </r>
       <r>   28.3268    0.0000 </r>
       <r>   28.3722    0.0000 </r>
       <r>   29.6812    0.0000 </r>
       <r>   30.8845    0.0000 </r>
       <r>   30.8845    0.0000 </r>
       <r>   32.0523    0.0000 </r>
       <r>   35.0982    0.0000 </r>
       <r>   35.9329    0.0000 </r>
       <r>   36.5349    0.0000 </r>
       <r>   38.4153    0.0000 </r>
       <r>   38.4153    0.0000 </r>
       <r>   39.2389    0.0000 </r>
       <r>   39.8051    0.0000 </r>
       <r>   39.8461    0.0000 </r>
       <r>   40.9314    0.0000 </r>
      </set>
      <set comment="kpoint 30">
       <r>    4.1395    1.0000 </r>
       <r>    4.2892    1.0000 </r>
       <r>    4.4852    1.0000 </r>
       <r>    4.4932    1.0000 </r>
       <r>    5.3813    1.0000 </r>
       <r>    5.4016    1.0000 </r>
       <r>    5.7304    1.0000 </r>
       <r>    5.9740    1.0000 </r>
       <r>    6.2577    1.0000 </r>
       <r>    6.3333    1.0000 </r>
       <r>    6.4634    1.0000 </r>
       <r>    6.5788    1.0000 </r>
       <r>    6.6219    1.0000 </r>
       <r>    6.6322    1.0000 </r>
       <r>    6.6506    1.0000 </r>
       <r>    6.7260    1.0000 </r>
       <r>    7.9534    1.0000 </r>
       <r>    8.3362    1.0000 </r>
       <r>    8.3732    1.0000 </r>
       <r>    8.3867    1.0000 </r>
       <r>    9.0307    1.0000 </r>
       <r>   10.3058    1.0000 </r>
       <r>   12.8444   -0.0000 </r>
       <r>   13.7187   -0.0000 </r>
       <r>   16.8462    0.0000 </r>
       <r>   17.6773    0.0000 </r>
       <r>   19.9884    0.0000 </r>
       <r>   21.2361    0.0000 </r>
       <r>   25.1371    0.0000 </r>
       <r>   25.9586    0.0000 </r>
       <r>   27.1529    0.0000 </r>
       <r>   27.3828    0.0000 </r>
       <r>   27.9122    0.0000 </r>
       <r>   27.9214    0.0000 </r>
       <r>   28.9387    0.0000 </r>
       <r>   30.6100    0.0000 </r>
       <r>   30.8058    0.0000 </r>
       <r>   31.5962    0.0000 </r>
       <r>   31.6095    0.0000 </r>
       <r>   33.3276    0.0000 </r>
       <r>   36.9727    0.0000 </r>
       <r>   37.4718    0.0000 </r>
       <r>   37.6192    0.0000 </r>
       <r>   37.8465    0.0000 </r>
       <r>   38.1186    0.0000 </r>
       <r>   39.3400    0.0000 </r>
       <r>   40.3555    0.0000 </r>
       <r>   40.6071    0.0000 </r>
      </set>
      <set comment="kpoint 31">
       <r>    4.1709    1.0000 </r>
       <r>    4.2920    1.0000 </r>
       <r>    4.2920    1.0000 </r>
       <r>    4.3577    1.0000 </r>
       <r>    5.5610    1.0000 </r>
       <r>    5.6677    1.0000 </r>
       <r>    5.6677    1.0000 </r>
       <r>    5.8721    1.0000 </r>
       <r>    6.2221    1.0000 </r>
       <r>    6.3424    1.0000 </r>
       <r>    6.3424    1.0000 </r>
       <r>    6.4058    1.0000 </r>
       <r>    6.8930    1.0000 </r>
       <r>    6.8930    1.0000 </r>
       <r>    6.9184    1.0000 </r>
       <r>    7.0425    1.0000 </r>
       <r>    7.8765    1.0000 </r>
       <r>    8.1623    1.0000 </r>
       <r>    8.1623    1.0000 </r>
       <r>    8.2033    1.0000 </r>
       <r>    9.9871    1.0000 </r>
       <r>   11.2581    1.0000 </r>
       <r>   11.2581    1.0000 </r>
       <r>   12.4194   -0.0000 </r>
       <r>   17.6019    0.0000 </r>
       <r>   18.6812    0.0000 </r>
       <r>   18.6812    0.0000 </r>
       <r>   19.8745    0.0000 </r>
       <r>   25.7566    0.0000 </r>
       <r>   26.5555    0.0000 </r>
       <r>   26.5555    0.0000 </r>
       <r>   27.2169    0.0000 </r>
       <r>   29.0579    0.0000 </r>
       <r>   29.0579    0.0000 </r>
       <r>   29.3551    0.0000 </r>
       <r>   30.0621    0.0000 </r>
       <r>   30.6630    0.0000 </r>
       <r>   31.8712    0.0000 </r>
       <r>   31.8712    0.0000 </r>
       <r>   33.0803    0.0000 </r>
       <r>   36.6478    0.0000 </r>
       <r>   37.2441    0.0000 </r>
       <r>   37.2441    0.0000 </r>
       <r>   38.0247    0.0000 </r>
       <r>   38.1150    0.0000 </r>
       <r>   38.9989    0.0000 </r>
       <r>   39.1295    0.0000 </r>
       <r>   39.1295    0.0000 </r>
      </set>
      <set comment="kpoint 32">
       <r>    3.9138    1.0000 </r>
       <r>    4.2622    1.0000 </r>
       <r>    4.2622    1.0000 </r>
       <r>    4.2622    1.0000 </r>
       <r>    5.5293    1.0000 </r>
       <r>    5.5293    1.0000 </r>
       <r>    5.5293    1.0000 </r>
       <r>    6.0867    1.0000 </r>
       <r>    6.0867    1.0000 </r>
       <r>    6.4702    1.0000 </r>
       <r>    6.4702    1.0000 </r>
       <r>    6.4702    1.0000 </r>
       <r>    6.7667    1.0000 </r>
       <r>    6.7667    1.0000 </r>
       <r>    6.7667    1.0000 </r>
       <r>    7.5432    1.0000 </r>
       <r>    8.0019    1.0000 </r>
       <r>    8.0019    1.0000 </r>
       <r>    8.5904    1.0000 </r>
       <r>    8.5904    1.0000 </r>
       <r>    8.5904    1.0000 </r>
       <r>   12.3143   -0.0000 </r>
       <r>   12.3143   -0.0000 </r>
       <r>   12.3143   -0.0000 </r>
       <r>   17.4959    0.0000 </r>
       <r>   17.4959    0.0000 </r>
       <r>   17.4959    0.0000 </r>
       <r>   21.0617    0.0000 </r>
       <r>   26.5685    0.0000 </r>
       <r>   26.5685    0.0000 </r>
       <r>   26.5685    0.0000 </r>
       <r>   28.1058    0.0000 </r>
       <r>   29.0432    0.0000 </r>
       <r>   29.0432    0.0000 </r>
       <r>   29.0432    0.0000 </r>
       <r>   29.7085    0.0000 </r>
       <r>   29.7085    0.0000 </r>
       <r>   29.7085    0.0000 </r>
       <r>   33.1787    0.0000 </r>
       <r>   33.1787    0.0000 </r>
       <r>   36.9865    0.0000 </r>
       <r>   36.9865    0.0000 </r>
       <r>   38.2379    0.0000 </r>
       <r>   39.1491    0.0000 </r>
[...]
       <r>   37.6426    0.0000 </r>
       <r>   38.0692    0.0000 </r>
       <r>   38.0692    0.0000 </r>
       <r>   38.3938    0.0000 </r>
       <r>   38.6806    0.0000 </r>
       <r>   39.6169    0.0000 </r>
       <r>   39.6175    0.0000 </r>
      </set>
      <set comment="kpoint 34">
       <r>    3.8855    1.0000 </r>
       <r>    3.9759    1.0000 </r>
       <r>    3.9759    1.0000 </r>
       <r>    4.0185    1.0000 </r>
       <r>    5.7089    1.0000 </r>
       <r>    5.7714    1.0000 </r>
       <r>    5.7714    1.0000 </r>
       <r>    5.9260    1.0000 </r>
       <r>    6.0099    1.0000 </r>
       <r>    6.1037    1.0000 </r>
       <r>    6.1037    1.0000 </r>
       <r>    6.1313    1.0000 </r>
       <r>    7.5806    1.0000 </r>
       <r>    7.6056    1.0000 </r>
       <r>    7.6056    1.0000 </r>
       <r>    7.9693    1.0000 </r>
       <r>    8.2387    1.0000 </r>
       <r>    8.4548    1.0000 </r>
       <r>    8.4587    1.0000 </r>
       <r>    8.4587    1.0000 </r>
       <r>    9.8098    1.0000 </r>
       <r>   11.1335    1.0000 </r>
       <r>   11.1335    1.0000 </r>
       <r>   11.9305   -0.0026 </r>
       <r>   16.6609    0.0000 </r>
       <r>   17.3492    0.0000 </r>
       <r>   17.3492    0.0000 </r>
       <r>   18.3881    0.0000 </r>
       <r>   27.0543    0.0000 </r>
       <r>   27.2857    0.0000 </r>
       <r>   27.2857    0.0000 </r>
       <r>   27.4866    0.0000 </r>
       <r>   29.7579    0.0000 </r>
       <r>   29.9605    0.0000 </r>
       <r>   29.9605    0.0000 </r>
       <r>   30.8608    0.0000 </r>
       <r>   31.0094    0.0000 </r>
       <r>   31.4062    0.0000 </r>
       <r>   31.4062    0.0000 </r>
       <r>   32.4744    0.0000 </r>
       <r>   37.5145    0.0000 </r>
       <r>   37.5639    0.0000 </r>
       <r>   37.8290    0.0000 </r>
       <r>   37.8290    0.0000 </r>
       <r>   38.3596    0.0000 </r>
       <r>   38.3717    0.0000 </r>
       <r>   38.5311    0.0000 </r>
       <r>   38.5311    0.0000 </r>
      </set>
      <set comment="kpoint 35">
       <r>    3.7667    1.0000 </r>
       <r>    3.8141    1.0000 </r>
       <r>    3.8141    1.0000 </r>
       <r>    3.8141    1.0000 </r>
       <r>    5.8441    1.0000 </r>
       <r>    5.8441    1.0000 </r>
       <r>    5.8441    1.0000 </r>
       <r>    5.9209    1.0000 </r>
       <r>    5.9209    1.0000 </r>
       <r>    5.9630    1.0000 </r>
       <r>    5.9630    1.0000 </r>
       <r>    5.9630    1.0000 </r>
       <r>    8.1721    1.0000 </r>
       <r>    8.1721    1.0000 </r>
       <r>    8.1721    1.0000 </r>
       <r>    8.4793    1.0000 </r>
       <r>    8.4793    1.0000 </r>
       <r>    8.5553    1.0000 </r>
       <r>    8.5553    1.0000 </r>
       <r>    8.5553    1.0000 </r>
       <r>   10.0412    1.0000 </r>
       <r>   10.9932    1.0000 </r>
       <r>   10.9932    1.0000 </r>
       <r>   10.9932    1.0000 </r>
       <r>   16.6250    0.0000 </r>
       <r>   16.6250    0.0000 </r>
       <r>   16.6250    0.0000 </r>
       <r>   17.2717    0.0000 </r>
       <r>   27.2306    0.0000 </r>
       <r>   27.2306    0.0000 </r>
       <r>   27.2306    0.0000 </r>
       <r>   27.2958    0.0000 </r>
       <r>   31.1196    0.0000 </r>
       <r>   31.1196    0.0000 </r>
       <r>   31.1196    0.0000 </r>
       <r>   31.2351    0.0000 </r>
       <r>   31.2351    0.0000 </r>
       <r>   31.2351    0.0000 </r>
       <r>   31.7992    0.0000 </r>
       <r>   31.7992    0.0000 </r>
       <r>   37.5581    0.0000 </r>
       <r>   37.5581    0.0000 </r>
       <r>   37.8626    0.0000 </r>
       <r>   37.8626    0.0000 </r>
       <r>   37.8626    0.0000 </r>
       <r>   37.9729    0.0000 </r>
       <r>   37.9729    0.0000 </r>
       <r>   37.9729    0.0000 </r>
      </set>
     </set>
    </set>
   </array>
  </eigenvalues>
  <separator name="orbital magnetization" >
   <v name="MAGDIPOLOUT">      0.00000000      0.00000000      0.00000000</v>
  </separator>
  <dos>
   <i name="efermi">     11.69942041 </i>
   <total>
    <array>
     <dimension dim="1">gridpoints</dimension>
     <dimension dim="2">spin</dimension>
     <field>energy</field>
     <field>total</field>
     <field>integrated</field>
     <set>
      <set comment="spin 1">
       <r>     0.1649     0.0000     0.0000 </r>
       <r>     0.3154     0.0000     0.0000 </r>
       <r>     0.4658     0.0000     0.0000 </r>
       <r>     0.6163     0.0000     0.0000 </r>
       <r>     0.7667     0.0000     0.0000 </r>
       <r>     0.9172     0.0000     0.0000 </r>
       <r>     1.0677     0.0000     0.0000 </r>
       <r>     1.2181     0.0000     0.0000 </r>
       <r>     1.3686    -0.0000    -0.0000 </r>
       <r>     1.5190    -0.0000    -0.0000 </r>
       <r>     1.6695    -0.0000    -0.0000 </r>
       <r>     1.8199    -0.0000    -0.0000 </r>
       <r>     1.9704    -0.0000    -0.0000 </r>
       <r>     2.1208    -0.0005    -0.0001 </r>
       <r>     2.2713     0.0140     0.0020 </r>
       <r>     2.4217     0.0963     0.0165 </r>
       <r>     2.5722     0.2116     0.0484 </r>
       <r>     2.7227     0.1592     0.0723 </r>
       <r>     2.8731     0.1220     0.0907 </r>
       <r>     3.0236     0.4923     0.1647 </r>
       <r>     3.1740     0.3903     0.2235 </r>
       <r>     3.3245     0.0683     0.2337 </r>
       <r>     3.4749     0.5836     0.3215 </r>
       <r>     3.6254     0.6188     0.4146 </r>
       <r>     3.7758     1.3650     0.6200 </r>
       <r>     3.9263     3.5370     1.1522 </r>
       <r>     4.0767     6.5566     2.1386 </r>
       <r>     4.2272     6.6485     3.1389 </r>
       <r>     4.3776    10.9957     4.7933 </r>
       <r>     4.5281    11.0461     6.4552 </r>
       <r>     4.6786     8.3775     7.7156 </r>
       <r>     4.8290     8.9474     9.0618 </r>
       <r>     4.9795     5.8889     9.9478 </r>
       <r>     5.1299     4.6345    10.6451 </r>
       <r>     5.2804     9.2417    12.0355 </r>
       <r>     5.4308     7.4747    13.1601 </r>
       <r>     5.5813     5.2587    13.9513 </r>
       <r>     5.7317     7.6895    15.1082 </r>
       <r>     5.8822     8.0399    16.3179 </r>
       <r>     6.0326     8.6462    17.6187 </r>
       <r>     6.1831     9.7429    19.0846 </r>
       <r>     6.3336    14.1227    21.2094 </r>
       <r>     6.4840     8.9602    22.5575 </r>
       <r>     6.6345     9.3999    23.9718 </r>
       <r>     6.7849     6.9753    25.0212 </r>
       <r>     6.9354     5.7021    25.8791 </r>
       <r>     7.0858     9.0277    27.2374 </r>
       <r>     7.2363     7.6626    28.3903 </r>
       <r>     7.3867     8.5401    29.6752 </r>
       <r>     7.5372     9.4877    31.1026 </r>
       <r>     7.6876     8.1108    32.3229 </r>
       <r>     7.8381     5.8449    33.2023 </r>
       <r>     7.9885     8.4974    34.4808 </r>
       <r>     8.1390     5.6777    35.3350 </r>
       <r>     8.2895     7.1593    36.4122 </r>
       <r>     8.4399    12.0877    38.2308 </r>
       <r>     8.5904    12.2050    40.0671 </r>
       <r>     8.7408     7.1490    41.1427 </r>
       <r>     8.8913     2.2457    41.4806 </r>
       <r>     9.0417     1.0866    41.6441 </r>
       <r>     9.1922     0.9300    41.7840 </r>
       <r>     9.3426     1.7625    42.0492 </r>
       <r>     9.4931     0.4371    42.1149 </r>
       <r>     9.6435     0.7374    42.2259 </r>
       <r>     9.7940     0.2546    42.2642 </r>
       <r>     9.9445     0.7472    42.3766 </r>
       <r>    10.0949     0.6164    42.4694 </r>
       <r>    10.2454     1.0773    42.6314 </r>
       <r>    10.3958     1.7479    42.8944 </r>
       <r>    10.5463     0.3216    42.9428 </r>
       <r>    10.6967     0.9381    43.0839 </r>
       <r>    10.8472     0.5814    43.1714 </r>
       <r>    10.9976     0.1723    43.1974 </r>
       <r>    11.1481     1.0251    43.3516 </r>
       <r>    11.2985     2.0872    43.6656 </r>
       <r>    11.4490     1.1334    43.8361 </r>
       <r>    11.5994     0.4290    43.9007 </r>
       <r>    11.7499     1.0483    44.0584 </r>
       <r>    11.9004     0.4013    44.1188 </r>
       <r>    12.0508     1.1334    44.2893 </r>
       <r>    12.2013     0.3430    44.3409 </r>
       <r>    12.3517     0.6556    44.4396 </r>
       <r>    12.5022     1.3834    44.6477 </r>
       <r>    12.6526     1.2698    44.8388 </r>
       <r>    12.8031     1.4576    45.0581 </r>
       <r>    12.9535     1.3899    45.2672 </r>
       <r>    13.1040     0.4614    45.3366 </r>
       <r>    13.2544     0.4709    45.4074 </r>
       <r>    13.4049     0.4238    45.4712 </r>
       <r>    13.5554     0.9580    45.6153 </r>
       <r>    13.7058     0.4110    45.6772 </r>
       <r>    13.8563     1.2366    45.8632 </r>
       <r>    14.0067     1.4622    46.0832 </r>
       <r>    14.1572     1.6262    46.3279 </r>
       <r>    14.3076     0.4102    46.3896 </r>
       <r>    14.4581     0.0157    46.3920 </r>
       <r>    14.6085     1.4277    46.6068 </r>
       <r>    14.7590     0.9611    46.7514 </r>
       <r>    14.9094     0.1497    46.7739 </r>
       <r>    15.0599     0.6241    46.8678 </r>
       <r>    15.2104     0.5058    46.9439 </r>
       <r>    15.3608     1.0898    47.1079 </r>
       <r>    15.5113     0.4673    47.1782 </r>
       <r>    15.6617     0.2389    47.2141 </r>
       <r>    15.8122     1.2020    47.3950 </r>
       <r>    15.9626     0.8114    47.5170 </r>
       <r>    16.1131     0.2171    47.5497 </r>
       <r>    16.2635     0.1349    47.5700 </r>
       <r>    16.4140     0.3767    47.6267 </r>
       <r>    16.5644     1.0508    47.7848 </r>
       <r>    16.7149     1.7684    48.0509 </r>
       <r>    16.8653     1.1844    48.2291 </r>
       <r>    17.0158     1.2844    48.4223 </r>
       <r>    17.1663     0.4708    48.4931 </r>
       <r>    17.3167     1.1510    48.6663 </r>
       <r>    17.4672     2.5483    49.0497 </r>
       <r>    17.6176     0.8391    49.1759 </r>
       <r>    17.7681     1.5134    49.4036 </r>
       <r>    17.9185     0.5919    49.4927 </r>
       <r>    18.0690     1.6259    49.7373 </r>
       <r>    18.2194     0.2821    49.7798 </r>
       <r>    18.3699     0.7098    49.8866 </r>
       <r>    18.5203     1.4672    50.1073 </r>
       <r>    18.6708     1.0344    50.2630 </r>
       <r>    18.8213     1.4069    50.4746 </r>
       <r>    18.9717     1.1835    50.6527 </r>
       <r>    19.1222     0.4875    50.7260 </r>
       <r>    19.2726     0.7110    50.8330 </r>
       <r>    19.4231     1.3471    51.0357 </r>
       <r>    19.5735     0.6864    51.1390 </r>
       <r>    19.7240     0.7078    51.2455 </r>
       <r>    19.8744     1.3013    51.4412 </r>
       <r>    20.0249     1.3262    51.6408 </r>
       <r>    20.1753     1.2149    51.8235 </r>
       <r>    20.3258     1.2637    52.0137 </r>
       <r>    20.4762     2.9712    52.4607 </r>
       <r>    20.6267     0.9330    52.6011 </r>
       <r>    20.7772     1.6372    52.8474 </r>
       <r>    20.9276     0.0953    52.8617 </r>
       <r>    21.0781     1.6096    53.1039 </r>
       <r>    21.2285     3.5432    53.6370 </r>
       <r>    21.3790     1.2290    53.8219 </r>
       <r>    21.5294     1.3411    54.0237 </r>
       <r>    21.6799     1.9768    54.3211 </r>
       <r>    21.8303     2.4498    54.6897 </r>
       <r>    21.9808     1.9802    54.9876 </r>
       <r>    22.1312     1.6158    55.2307 </r>
       <r>    22.2817     1.2088    55.4126 </r>
       <r>    22.4322     1.2897    55.6066 </r>
       <r>    22.5826     1.5469    55.8394 </r>
       <r>    22.7331     1.3617    56.0443 </r>
       <r>    22.8835     2.2635    56.3848 </r>
       <r>    23.0340     2.0345    56.6909 </r>
       <r>    23.1844     1.4167    56.9041 </r>
       <r>    23.3349     2.2043    57.2357 </r>
       <r>    23.4853     1.0872    57.3993 </r>
       <r>    23.6358     2.8333    57.8256 </r>
       <r>    23.7862     1.9866    58.1244 </r>
       <r>    23.9367     2.4991    58.5005 </r>
       <r>    24.0872     2.0168    58.8039 </r>
       <r>    24.2376     3.2746    59.2966 </r>
       <r>    24.3881     0.9217    59.4353 </r>
       <r>    24.5385     2.3898    59.7948 </r>
       <r>    24.6890     1.7639    60.0602 </r>
       <r>    24.8394     1.2159    60.2431 </r>
       <r>    24.9899     2.5365    60.6248 </r>
       <r>    25.1403     1.0595    60.7842 </r>
       <r>    25.2908     2.0942    61.0993 </r>
       <r>    25.4412     0.8548    61.2279 </r>
       <r>    25.5917     1.1046    61.3941 </r>
       <r>    25.7421     2.1944    61.7242 </r>
       <r>    25.8926     3.8860    62.3089 </r>
       <r>    26.0431     2.8379    62.7358 </r>
       <r>    26.1935     1.6184    62.9793 </r>
       <r>    26.3440     1.9265    63.2692 </r>
       <r>    26.4944     2.5869    63.6584 </r>
       <r>    26.6449     1.5027    63.8845 </r>
       <r>    26.7953     1.0006    64.0350 </r>
       <r>    26.9458     2.1935    64.3651 </r>
       <r>    27.0962     2.2540    64.7042 </r>
       <r>    27.2467     3.1491    65.1780 </r>
       <r>    27.3971     2.3579    65.5327 </r>
       <r>    27.5476     1.5129    65.7603 </r>
       <r>    27.6981     0.9051    65.8965 </r>
       <r>    27.8485     2.9142    66.3350 </r>
       <r>    27.9990     3.3763    66.8430 </r>
       <r>    28.1494     2.0459    67.1508 </r>
       <r>    28.2999     0.7236    67.2596 </r>
       <r>    28.4503     2.5711    67.6465 </r>
       <r>    28.6008     2.0073    67.9485 </r>
       <r>    28.7512     2.7042    68.3553 </r>
       <r>    28.9017     0.9440    68.4974 </r>
       <r>    29.0521     2.0396    68.8042 </r>
       <r>    29.2026     2.5509    69.1880 </r>
       <r>    29.3530     1.0668    69.3485 </r>
       <r>    29.5035     0.7032    69.4543 </r>
       <r>    29.6540     0.4641    69.5242 </r>
       <r>    29.8044     1.7648    69.7897 </r>
       <r>    29.9549     0.9572    69.9337 </r>
       <r>    30.1053     1.6507    70.1820 </r>
       <r>    30.2558     1.0787    70.3443 </r>
       <r>    30.4062     1.8616    70.6244 </r>
       <r>    30.5567     1.8399    70.9012 </r>
       <r>    30.7071     2.7503    71.3150 </r>
       <r>    30.8576     4.5748    72.0033 </r>
       <r>    31.0080     3.4437    72.5215 </r>
       <r>    31.1585     2.6270    72.9167 </r>
       <r>    31.3090     3.2894    73.4116 </r>
       <r>    31.4594     3.0310    73.8676 </r>
       <r>    31.6099     3.8281    74.4436 </r>
       <r>    31.7603     2.8588    74.8737 </r>
       <r>    31.9108     2.1796    75.2016 </r>
       <r>    32.0612     2.4122    75.5645 </r>
       <r>    32.2117     1.3247    75.7638 </r>
       <r>    32.3621     0.8133    75.8862 </r>
       <r>    32.5126     4.2649    76.5279 </r>
       <r>    32.6630     4.5410    77.2111 </r>
       <r>    32.8135     3.8750    77.7941 </r>
       <r>    32.9639     2.6478    78.1925 </r>
       <r>    33.1144     0.6873    78.2959 </r>
       <r>    33.2649     0.8336    78.4213 </r>
       <r>    33.4153     1.3793    78.6289 </r>
       <r>    33.5658     1.8489    78.9070 </r>
       <r>    33.7162     2.3581    79.2618 </r>
       <r>    33.8667     1.8126    79.5345 </r>
       <r>    34.0171     2.1724    79.8614 </r>
       <r>    34.1676     0.5994    79.9516 </r>
       <r>    34.3180     1.9877    80.2506 </r>
       <r>    34.4685     0.4504    80.3184 </r>
       <r>    34.6189     0.7822    80.4361 </r>
       <r>    34.7694     1.0057    80.5874 </r>
       <r>    34.9199     0.9827    80.7352 </r>
       <r>    35.0703     0.8605    80.8647 </r>
       <r>    35.2208     0.7917    80.9838 </r>
       <r>    35.3712     0.1123    81.0007 </r>
       <r>    35.5217     1.3081    81.1975 </r>
       <r>    35.6721     2.5731    81.5846 </r>
       <r>    35.8226     3.3561    82.0896 </r>
       <r>    35.9730     2.2630    82.4301 </r>
       <r>    36.1235     0.6722    82.5312 </r>
       <r>    36.2739     1.6699    82.7824 </r>
       <r>    36.4244     1.4269    82.9971 </r>
       <r>    36.5749     3.1942    83.4777 </r>
       <r>    36.7253     2.4612    83.8480 </r>
       <r>    36.8758     0.3140    83.8952 </r>
       <r>    37.0262     1.2532    84.0838 </r>
       <r>    37.1767     2.3053    84.4306 </r>
       <r>    37.3271     2.1671    84.7566 </r>
       <r>    37.4776     2.1140    85.0747 </r>
       <r>    37.6280     5.4554    85.8955 </r>
       <r>    37.7785     3.6647    86.4469 </r>
       <r>    37.9289     3.2656    86.9382 </r>
       <r>    38.0794     5.1287    87.7098 </r>
       <r>    38.2298     2.2204    88.0439 </r>
       <r>    38.3803     1.1738    88.2205 </r>
       <r>    38.5308     3.3429    88.7235 </r>
       <r>    38.6812     1.4562    88.9425 </r>
       <r>    38.8317     0.8889    89.0763 </r>
       <r>    38.9821     1.7101    89.3336 </r>
       <r>    39.1326     1.4917    89.5580 </r>
       <r>    39.2830     1.5540    89.7918 </r>
       <r>    39.4335     4.8579    90.5227 </r>
       <r>    39.5839     2.1412    90.8449 </r>
       <r>    39.7344     3.1324    91.3162 </r>
       <r>    39.8848     4.1281    91.9372 </r>
       <r>    40.0353     2.4805    92.3104 </r>
       <r>    40.1858     2.9575    92.7554 </r>
       <r>    40.3362     5.0563    93.5162 </r>
       <r>    40.4867     3.4599    94.0367 </r>
       <r>    40.6371     2.2648    94.3775 </r>
       <r>    40.7876     0.6055    94.4686 </r>
       <r>    40.9380     1.7836    94.7369 </r>
       <r>    41.0885     2.4479    95.1052 </r>
       <r>    41.2389     1.5050    95.3316 </r>
       <r>    41.3894     1.4276    95.5464 </r>
       <r>    41.5398     1.5921    95.7860 </r>
       <r>    41.6903     0.7510    95.8990 </r>
       <r>    41.8407     0.0573    95.9076 </r>
       <r>    41.9912     0.1259    95.9265 </r>
       <r>    42.1417    -0.0039    95.9259 </r>
       <r>    42.2921    -0.0002    95.9259 </r>
       <r>    42.4426    -0.0036    95.9254 </r>
       <r>    42.5930     0.0639    95.9350 </r>
       <r>    42.7435     0.3075    95.9813 </r>
       <r>    42.8939     0.0873    95.9944 </r>
       <r>    43.0444     0.0200    95.9974 </r>
       <r>    43.1948     0.0009    95.9975 </r>
       <r>    43.3453     0.0167    96.0001 </r>
       <r>    43.4957    -0.0003    96.0000 </r>
       <r>    43.6462    -0.0000    96.0000 </r>
       <r>    43.7967    -0.0000    96.0000 </r>
       <r>    43.9471    -0.0000    96.0000 </r>
       <r>    44.0976     0.0000    96.0000 </r>
       <r>    44.2480     0.0000    96.0000 </r>
       <r>    44.3985     0.0000    96.0000 </r>
       <r>    44.5489     0.0000    96.0000 </r>
       <r>    44.6994     0.0000    96.0000 </r>
       <r>    44.8498     0.0000    96.0000 </r>
       <r>    45.0003     0.0000    96.0000 </r>
       <r>    45.1507     0.0000    96.0000 </r>
       <r>    45.3012     0.0000    96.0000 </r>
      </set>
     </set>
    </array>
   </total>
  </dos>
 </calculation>
 <structure name="finalpos" >
  <crystal>
   <varray name="basis" >
    <v>       3.81733333       0.00000000       0.00000000 </v>
    <v>       0.00000000       3.81733333       0.00000000 </v>
    <v>       0.00000000       0.00000000       3.81733333 </v>
   </varray>
   <i name="volume">     55.62631027 </i>
   <varray name="rec_basis" >
    <v>       0.26196298       0.00000000       0.00000000 </v>
    <v>       0.00000000       0.26196298       0.00000000 </v>
    <v>       0.00000000       0.00000000       0.26196298 </v>
   </varray>
  </crystal>
  <varray name="positions" >
   <v>       0.00000000       0.00000000       0.00000000 </v>
   <v>       0.00000000       0.50000000       0.50000000 </v>
   <v>       0.50000000       0.00000000       0.50000000 </v>
   <v>       0.50000000       0.50000000       0.00000000 </v>
  </varray>
 </structure>
</modeling>
