----- GAMESS execution script 'rungms' -----
This job is running on host crcfe02.crc.nd.edu
under operating system Linux at Sun Sep 29 10:55:51 EDT 2019
Available scratch disk space (Kbyte units) at beginning of the job is
Filesystem      1K-blocks  Used  Available Use% Mounted on
AFS            2147483647     0 2147483647   0% /afs
GAMESS temporary binary files will be written to /afs/crc.nd.edu/user/c/cdrisko
GAMESS supplementary output files will be written to /afs/crc.nd.edu/user/c/cdrisko/scr
Copying input file SO2.inp to your run's scratch directory...

 Distributed Data Interface kickoff program.
 Initiating 1 compute processes on 1 nodes to run the following command:
 /afs/crc.nd.edu/x86_64_linux/g/gamess/nov-2017/gamess/gamess.00.x SO2 

          ******************************************************
          *         GAMESS VERSION = 11 NOV 2017 (R3)         *
          *             FROM IOWA STATE UNIVERSITY             *
          * M.W.SCHMIDT, K.K.BALDRIDGE, J.A.BOATZ, S.T.ELBERT, *
          *   M.S.GORDON, J.H.JENSEN, S.KOSEKI, N.MATSUNAGA,   *
          *          K.A.NGUYEN, S.J.SU, T.L.WINDUS,           *
          *       TOGETHER WITH M.DUPUIS, J.A.MONTGOMERY       *
          *         J.COMPUT.CHEM.  14, 1347-1363(1993)        *
          **************** 64 BIT INTEL VERSION ****************

  SINCE 1993, STUDENTS AND POSTDOCS WORKING AT IOWA STATE UNIVERSITY
  AND ALSO IN THEIR VARIOUS JOBS AFTER LEAVING ISU HAVE MADE IMPORTANT
  CONTRIBUTIONS TO THE CODE:
     IVANA ADAMOVIC, CHRISTINE AIKENS, YURI ALEXEEV, POOJA ARORA,
     ANDREY ASADCHEV, ROB BELL, PRADIPTA BANDYOPADHYAY, JONATHAN BENTZ,
     BRETT BODE, KURT BRORSEN, CALEB CARLIN, GALINA CHABAN, WEI CHEN,
     CHEOL HO CHOI, PAUL DAY, ALBERT DEFUSCO, NUWAN DESILVA, TIM DUDLEY,
     DMITRI FEDOROV, ALEX FINDLATER, GRAHAM FLETCHER, MARK FREITAG,
     KURT GLAESEMANN, ANASTASIA GUININA,
     DAN KEMP, GRANT MERRILL, NORIYUKI MINEZAWA, JONATHAN MULLIN,
     TAKESHI NAGATA, SEAN NEDD, HEATHER NETZLOFF, BOSILJKA NJEGIC, RYAN OLSON,
     MIKE PAK, BUU PHAM,
     SPENCER PRUITT, LUKE ROSKOP, JIM SHOEMAKER, LYUDMILA SLIPCHENKO,
     TONY SMITH, SAROM SOK LEANG, JIE SONG, TETSUYA TAKETSUGU, SIMON WEBB,
     PENG XU, SOOHAENG YOO, FEDERICO ZAHARIEV

  ADDITIONAL CODE HAS BEEN PROVIDED BY COLLABORATORS IN OTHER GROUPS:
     IOWA STATE UNIVERSITY:
          JOE IVANIC, AARON WEST, LAIMUTIS BYTAUTAS, KLAUS RUEDENBERG
     UNIVERSITY OF TOKYO: KIMIHIKO HIRAO, TAKAHITO NAKAJIMA,
          TAKAO TSUNEDA, MUNEAKI KAMIYA, SUSUMU YANAGISAWA,
          KIYOSHI YAGI, MAHITO CHIBA, SEIKEN TOKURA, NAOAKI KAWAKAMI
     UNIVERSITY OF AARHUS: FRANK JENSEN
     UNIVERSITY OF IOWA: VISVALDAS KAIRYS, HUI LI
     NATIONAL INST. OF STANDARDS AND TECHNOLOGY: WALT STEVENS, DAVID GARMER
     UNIVERSITY OF PISA: BENEDETTA MENNUCCI, JACOPO TOMASI
     UNIVERSITY OF MEMPHIS: HENRY KURTZ, PRAKASHAN KORAMBATH
     UNIVERSITY OF ALBERTA: TOBY ZENG, MARIUSZ KLOBUKOWSKI
     UNIVERSITY OF NEW ENGLAND: MARK SPACKMAN
     MIE UNIVERSITY: HIROAKI UMEDA
     NAT. INST. OF ADVANCED INDUSTRIAL SCIENCE AND TECHNOLOGY: KAZUO KITAURA
     MICHIGAN STATE UNIVERSITY:
          KAROL KOWALSKI, MARTA WLOCH, JEFFREY GOUR, JESSE LUTZ,
          WEI LI, PIOTR PIECUCH
     UNIVERSITY OF SILESIA: MONIKA MUSIAL, STANISLAW KUCHARSKI
     FACULTES UNIVERSITAIRES NOTRE-DAME DE LA PAIX:
          OLIVIER QUINET, BENOIT CHAMPAGNE
     UNIVERSITY OF CALIFORNIA - SANTA BARBARA: BERNARD KIRTMAN
     INSTITUTE FOR MOLECULAR SCIENCE:
          KAZUYA ISHIMURA, MICHIO KATOUDA, AND SHIGERU NAGASE
     UNIVERSITY OF NOTRE DAME: ANNA POMOGAEVA, DAN CHIPMAN
     KYUSHU UNIVERSITY:
          HARUYUKI NAKANO,
          FENG LONG GU, JACEK KORCHOWIEC, MARCIN MAKOWSKI, AND YURIKO AOKI,
          HIROTOSHI MORI AND EISAKU MIYOSHI
     PENNSYLVANIA STATE UNIVERSITY:
          TZVETELIN IORDANOV, CHET SWALINA, JONATHAN SKONE,
          SHARON HAMMES-SCHIFFER
     WASEDA UNIVERSITY:
          MASATO KOBAYASHI, TOMOKO AKAMA, TSUGUKI TOUMA,
          TAKESHI YOSHIKAWA, YASUHIRO IKABATA, JUNJI SEINO,
          YUYA NAKAJIMA, HIROMI NAKAI
     NANJING UNIVERSITY: SHUHUA LI
     UNIVERSITY OF NEBRASKA:
          PEIFENG SU, DEJUN SI, NANDUN THELLAMUREGE, YALI WANG, HUI LI
     UNIVERSITY OF ZURICH: ROBERTO PEVERATI, KIM BALDRIDGE
     N. COPERNICUS UNIVERSITY AND JACKSON STATE UNIVERSITY:
          MARIA BARYSZ
     UNIVERSITY OF COPENHAGEN: Jimmy Kromann, CASPER STEINMANN
     TOKYO INSTITUTE OF TECHNOLOGY: HIROYA NAKATA
     NAGOYA UNIVERSITY: YOSHIO NISHIMOTO, STEPHAN IRLE
     MOSCOW STATE UNIVERSITY: VLADIMIR MIRONOV

 EXECUTION OF GAMESS BEGUN Sun Sep 29 10:55:51 2019

            ECHO OF THE FIRST FEW INPUT CARDS -
 INPUT CARD> $BASIS GBASIS=PCSEG-1 $END                                                     
 INPUT CARD> $CONTRL COORD=ZMT ISPHER=1 RUNTYP=ENERGY DFTTYP=PBE MULT=1 $END                
 INPUT CARD>                                                                                
 INPUT CARD> $DATA                                                                          
 INPUT CARD>Title SO2 single-point calculation template with Z-Matrix                       
 INPUT CARD>C1                                                                              
 INPUT CARD>S                                                                               
 INPUT CARD>O 1 1.75                                                                        
 INPUT CARD>O 1 1.75 2 130                                                                  
 INPUT CARD> $END                                                                           
    1000000 WORDS OF MEMORY AVAILABLE

     BASIS OPTIONS
     -------------
     GBASIS=PCSEG-1      IGAUSS=       0      POLAR=NONE    
     NDFUNC=       0     NFFUNC=       0     DIFFSP=       F
     NPFUNC=       0      DIFFS=       F     BASNAM=        


     RUN TITLE
     ---------
 Title SO2 single-point calculation template with Z-Matrix                       

 THE POINT GROUP OF THE MOLECULE IS C1      
 THE ORDER OF THE PRINCIPAL AXIS IS     0

 YOUR FULLY SUBSTITUTED Z-MATRIX IS
 S   
 O      1   1.7500000
 O      1   1.7500000  2  130.0000

 THE MOMENTS OF INERTIA ARE (AMU-ANGSTROM**2)
 IXX=     8.746   IYY=    80.471   IZZ=    89.217

 ATOM      ATOMIC                      COORDINATES (BOHR)
           CHARGE         X                   Y                   Z
 S          16.0     0.0000000000       -0.6989975474        0.0000000000
 O           8.0     2.9971784116        0.6986096988        0.0000000000
 O           8.0    -2.9971784116        0.6986096988        0.0000000000

          INTERNUCLEAR DISTANCES (ANGS.)
          ------------------------------

                1 S          2 O          3 O     

   1 S       0.0000000    1.7500000 *  1.7500000 *
   2 O       1.7500000 *  0.0000000    3.1720773  
   3 O       1.7500000 *  3.1720773    0.0000000  

  * ... LESS THAN  3.000


     ATOMIC BASIS SET
     ----------------
 THE CONTRACTED PRIMITIVE FUNCTIONS HAVE BEEN UNNORMALIZED
 THE CONTRACTED BASIS FUNCTIONS ARE NOW NORMALIZED TO UNITY

  SHELL TYPE  PRIMITIVE        EXPONENT          CONTRACTION COEFFICIENT(S)

 S         

      1   S       1         49299.4000000    0.000677492991
      1   S       2          7395.8400000    0.005232317766
      1   S       3          1683.3000000    0.026769459077
      1   S       4           476.1440000    0.102869580705
      1   S       5           154.3290000    0.286438127414
      1   S       6            55.0288000    0.454278639081
      1   S       7            20.5029000    0.271743121997

      2   S       8            45.9596000   -0.088421914560
      2   S       9             4.9274000    0.564350486135
      2   S      10             1.9179900    0.505415953466

      3   S      11             0.3684980    1.000000000000

      4   S      12             0.1291650    1.000000000000

      5   P      13           451.6620000    0.003707705453
      5   P      14           106.0980000    0.029219352245
      5   P      15            33.6996000    0.124444551509
      5   P      16            12.3054000    0.321808587656
      5   P      17             4.7141200    0.462822172957
      5   P      18             1.7810500    0.266513371364

      6   P      19             0.8722350    0.349265132972
      6   P      20             0.3102780    0.717115018770

      7   P      21             0.1001940    1.000000000000

      8   D      22             0.5500000    1.000000000000

 O         

      9   S      23          2288.6400000    0.005451138222
      9   S      24           344.4160000    0.040718922842
      9   S      25            78.2538000    0.181369420873
      9   S      26            21.7195000    0.465536820246
      9   S      27             6.5590700    0.451211321214

     10   S      28            10.4656000   -0.150211201174
     10   S      29             0.9643510    1.052867983385

     11   S      30             0.2851270    1.000000000000

     12   P      31            17.0590000    0.068749256972
     12   P      32             3.6899900    0.351671941499
     12   P      33             0.9929960    0.724532099722

     13   P      34             0.2449240    1.000000000000

     14   D      35             1.0000000    1.000000000000

 O         

     15   S      36          2288.6400000    0.005451138222
     15   S      37           344.4160000    0.040718922842
     15   S      38            78.2538000    0.181369420873
     15   S      39            21.7195000    0.465536820246
     15   S      40             6.5590700    0.451211321214

     16   S      41            10.4656000   -0.150211201174
     16   S      42             0.9643510    1.052867983385

     17   S      43             0.2851270    1.000000000000

     18   P      44            17.0590000    0.068749256972
     18   P      45             3.6899900    0.351671941499
     18   P      46             0.9929960    0.724532099722

     19   P      47             0.2449240    1.000000000000

     20   D      48             1.0000000    1.000000000000

 TOTAL NUMBER OF BASIS SET SHELLS             =   20
 NUMBER OF CARTESIAN GAUSSIAN BASIS FUNCTIONS =   49
 NOTE: THIS RUN WILL RESTRICT THE MO VARIATION SPACE TO SPHERICAL HARMONICS.
 THE NUMBER OF ORBITALS KEPT IN THE VARIATIONAL SPACE WILL BE PRINTED LATER.
 NUMBER OF ELECTRONS                          =   32
 CHARGE OF MOLECULE                           =    0
 SPIN MULTIPLICITY                            =    1
 NUMBER OF OCCUPIED ORBITALS (ALPHA)          =   16
 NUMBER OF OCCUPIED ORBITALS (BETA )          =   16
 TOTAL NUMBER OF ATOMS                        =    3
 THE NUCLEAR REPULSION ENERGY IS       88.0877803145

     LEBEDEV GRID-BASED DFT OPTIONS
     ------------------------------
     DFTTYP=PBE     
     NRAD  =      96     NLEB  =     302
     NRAD0 =      24     NLEB0 =     110
     SWOFF =    5.00E-03 (PURE SCF -> DFT)
     SWITCH=    3.00E-04 (COARSE -> TIGHT GRID)
     THRESH=    0.00E+00 GTHRE=    1.00E+00

 GRIMME'S EMPIRICAL DISPERSION CORRECTION= F

     $CONTRL OPTIONS
     ---------------
 SCFTYP=RHF          RUNTYP=ENERGY       EXETYP=RUN     
 MPLEVL=       0     CITYP =NONE         CCTYP =NONE         VBTYP =NONE    
 DFTTYP=PBE          TDDFT =NONE    
 MULT  =       1     ICHARG=       0     NZVAR =       0     COORD =ZMT     
 PP    =NONE         RELWFN=NONE         LOCAL =NONE         NUMGRD=       F
 ISPHER=       1     NOSYM =       0     MAXIT =      30     UNITS =ANGS    
 PLTORB=       F     MOLPLT=       F     AIMPAC=       F     FRIEND=        
 NPRINT=       7     IREST =       0     GEOM  =INPUT   
 NORMF =       0     NORMP =       0     ITOL  =      20     ICUT  =       9
 INTTYP=BEST         GRDTYP=BEST         QMTTOL= 1.0E-06

     $SYSTEM OPTIONS
     ---------------
  REPLICATED MEMORY=     1000000 WORDS (ON EVERY NODE).
 DISTRIBUTED MEMDDI=           0 MILLION WORDS IN AGGREGATE,
 MEMDDI DISTRIBUTED OVER   1 PROCESSORS IS           0 WORDS/PROCESSOR.
 TOTAL MEMORY REQUESTED ON EACH PROCESSOR=     1000000 WORDS.
 TIMLIM=      525600.00 MINUTES, OR     365.0 DAYS.
 PARALL= F  BALTYP=  DLB     KDIAG=    0  COREFL= F
 MXSEQ2=     300 MXSEQ3=     150  mem10=         0

          ----------------
          PROPERTIES INPUT
          ----------------

     MOMENTS            FIELD           POTENTIAL          DENSITY
 IEMOM =       1   IEFLD =       0   IEPOT =       0   IEDEN =       0
 WHERE =COMASS     WHERE =NUCLEI     WHERE =NUCLEI     WHERE =NUCLEI  
 OUTPUT=BOTH       OUTPUT=BOTH       OUTPUT=BOTH       OUTPUT=BOTH    
 IEMINT=       0   IEFINT=       0                     IEDINT=       0
                                                       MORB  =       0
          EXTRAPOLATION IN EFFECT
          DIIS IN EFFECT
 ORBITAL PRINTING OPTION: NPREO=     1    49     2     1

     -------------------------------
     INTEGRAL TRANSFORMATION OPTIONS
     -------------------------------
     NWORD  =            0
     CUTOFF = 1.0E-09     MPTRAN =       0
     DIRTRF =       F     AOINTS =DUP     

          ----------------------
          INTEGRAL INPUT OPTIONS
          ----------------------
 NOPK  =       1 NORDER=       0 SCHWRZ=       F

   --- ENCODED Z MATRIX ---
 COORD  TYPE   I   J   K   L   M   N
    1      1    2   1
    2      1    3   1
    3      2    3   1   2

 THE DETERMINANT OF THE G MATRIX IS 10**(    -4)

 THE DETERMINANT OF THE G MATRIX IS 10**(    -4)
 * * * WARNING * * *
 YOUR B MATRIX HAS A SMALL DETERMINANT.
 THIS SUGGESTS YOU MAY HAVE BADLY CHOSEN COORDINATES.

     ------------------------------------------
     THE POINT GROUP IS C1 , NAXIS= 0, ORDER= 1
     ------------------------------------------

 -- VARIATIONAL SPACE WILL BE RESTRICTED TO PURE SPHERICAL HARMONICS ONLY --
 AFTER EXCLUDING CONTAMINANT COMBINATIONS FROM THE CARTESIAN GAUSSIAN BASIS
 SET, THE NUMBER OF SPHERICAL HARMONICS KEPT IN THE VARIATION SPACE IS   46

     DIMENSIONS OF THE SYMMETRY SUBSPACES ARE
 A   =   46

 ..... DONE SETTING UP THE RUN .....
 STEP CPU TIME =     0.03 TOTAL CPU TIME =          0.0 (      0.0 MIN)
 TOTAL WALL CLOCK TIME=          0.0 SECONDS, CPU UTILIZATION IS   100.00%

          ********************
          1 ELECTRON INTEGRALS
          ********************
 ...... END OF ONE-ELECTRON INTEGRALS ......
 STEP CPU TIME =     0.00 TOTAL CPU TIME =          0.0 (      0.0 MIN)
 TOTAL WALL CLOCK TIME=          0.0 SECONDS, CPU UTILIZATION IS   100.00%

          -------------
          GUESS OPTIONS
          -------------
          GUESS =HUCKEL            NORB  =       0          NORDER=       0
          MIX   =       F          PRTMO =       F          PUNMO =       F
          TOLZ  = 1.0E-08          TOLE  = 1.0E-05
          SYMDEN=       F          PURIFY=       F

 INITIAL GUESS ORBITALS GENERATED BY HUCKEL   ROUTINE.
 HUCKEL GUESS REQUIRES     21634 WORDS.

 STATISTICS FOR GENERATION OF SYMMETRY ORBITAL -Q- MATRIX
 NUMBER OF CARTESIAN ATOMIC ORBITALS=         49
 NUMBER OF SPHERICAL CONTAMINANTS DROPPED=     3
 NUMBER OF LINEARLY DEPENDENT MOS DROPPED=     0
 TOTAL NUMBER OF MOS IN VARIATION SPACE=      46

 SYMMETRIES FOR INITIAL GUESS ORBITALS FOLLOW.   BOTH SET(S).
    16 ORBITALS ARE OCCUPIED (    7 CORE ORBITALS).
     8=A        9=A       10=A       11=A       12=A       13=A       14=A   
    15=A       16=A       17=A       18=A       19=A       20=A       21=A   
    22=A       23=A       24=A       25=A       26=A   
 ...... END OF INITIAL ORBITAL SELECTION ......
 STEP CPU TIME =     0.01 TOTAL CPU TIME =          0.0 (      0.0 MIN)
 TOTAL WALL CLOCK TIME=          0.0 SECONDS, CPU UTILIZATION IS   100.00%

                    ----------------------
                    AO INTEGRAL TECHNOLOGY
                    ----------------------
     S,P,L SHELL ROTATED AXIS INTEGRALS, REPROGRAMMED BY
        KAZUYA ISHIMURA (IMS) AND JOSE SIERRA (SYNSTAR).
     S,P,D,L SHELL ROTATED AXIS INTEGRALS PROGRAMMED BY
        KAZUYA ISHIMURA (INSTITUTE FOR MOLECULAR SCIENCE).
     S,P,D,F,G SHELL TO TOTAL QUARTET ANGULAR MOMENTUM SUM 5,
        ERIC PROGRAM BY GRAHAM FLETCHER (ELORET AND NASA ADVANCED
        SUPERCOMPUTING DIVISION, AMES RESEARCH CENTER).
     S,P,D,F,G,L SHELL GENERAL RYS QUADRATURE PROGRAMMED BY
        MICHEL DUPUIS (PACIFIC NORTHWEST NATIONAL LABORATORY).

          --------------------
          2 ELECTRON INTEGRALS
          --------------------

 THE -PK- OPTION IS OFF, THE INTEGRALS ARE NOT IN SUPERMATRIX FORM.
 STORING   15000 INTEGRALS/RECORD ON DISK, USING 12 BYTES/INTEGRAL.
 TWO ELECTRON INTEGRAL EVALUATION REQUIRES   90606 WORDS OF MEMORY.
 II,JST,KST,LST =  1  1  1  1 NREC =         1 INTLOC =    1
 II,JST,KST,LST =  2  1  1  1 NREC =         1 INTLOC =    2
 II,JST,KST,LST =  3  1  1  1 NREC =         1 INTLOC =    7
 II,JST,KST,LST =  4  1  1  1 NREC =         1 INTLOC =   22
 II,JST,KST,LST =  5  1  1  1 NREC =         1 INTLOC =   56
 II,JST,KST,LST =  6  1  1  1 NREC =         1 INTLOC =  125
 II,JST,KST,LST =  7  1  1  1 NREC =         1 INTLOC =  329
 II,JST,KST,LST =  8  1  1  1 NREC =         1 INTLOC =  776
 II,JST,KST,LST =  9  1  1  1 NREC =         1 INTLOC = 2864
 II,JST,KST,LST = 10  1  1  1 NREC =         1 INTLOC = 4774
 II,JST,KST,LST = 11  1  1  1 NREC =         1 INTLOC = 7419
 II,JST,KST,LST = 12  1  1  1 NREC =         1 INTLOC =10521
 II,JST,KST,LST = 13  1  1  1 NREC =         2 INTLOC = 6325
 II,JST,KST,LST = 14  1  1  1 NREC =         3 INTLOC = 6519
 II,JST,KST,LST = 15  1  1  1 NREC =         6 INTLOC = 8136
 II,JST,KST,LST = 16  1  1  1 NREC =         6 INTLOC =14501
 II,JST,KST,LST = 17  1  1  1 NREC =         7 INTLOC = 9252
 II,JST,KST,LST = 18  1  1  1 NREC =         8 INTLOC = 7392
 II,JST,KST,LST = 19  1  1  1 NREC =        10 INTLOC =10400
 II,JST,KST,LST = 20  1  1  1 NREC =        14 INTLOC =  624
 TOTAL NUMBER OF NONZERO TWO-ELECTRON INTEGRALS =              307327
         21 INTEGRAL RECORDS WERE STORED ON DISK FILE  8.
  ...... END OF TWO-ELECTRON INTEGRALS .....
 STEP CPU TIME =     0.08 TOTAL CPU TIME =          0.1 (      0.0 MIN)
 TOTAL WALL CLOCK TIME=          0.1 SECONDS, CPU UTILIZATION IS    92.86%

          --------------------------
               R-PBE SCF CALCULATION
          --------------------------

     NUCLEAR ENERGY =        88.0877803145
     MAXIT =   30     NPUNCH=    2
     EXTRAP=T  DAMP=F  SHIFT=F  RSTRCT=F  DIIS=T  DEM=F  SOSCF=F
         DENSITY MATRIX CONVERGENCE THRESHOLD=  1.00E-05
     COARSE -> FINE DFT GRID SWITCH THRESHOLD=  3.00E-04 (SWITCH IN $DFT)
                   HF -> DFT SWITCH THRESHOLD=  5.00E-03 (SWOFF IN $DFT)
     MEMORY REQUIRED FOR RHF ITERS=    183108 WORDS.

 DFT CODE IS SWITCHING FROM THE FINE GRID NRAD= 96,  NLEB=  302
                      TO THE COARSE GRID NRAD0= 24, NLEB0=  110

     EXCHANGE FUNCTIONAL   =PBE       
     CORRELATION FUNCTIONAL=PBE       
     DFT THRESHOLD         =.460E-07
     GRID CHANGE THRESHOLD =.300E-03
 FOR AN EULER-MACLAURIN QUADRATURE USING  96 RADIAL POINTS:
 SMALLEST GAUSSIAN PRIMITIVE EXPONENT=        0.1001940000 OF TYPE -P-
 ON ATOM NUMBER   1 HAS RADIAL NORMALIZATION=  1.000000
  LARGEST GAUSSIAN PRIMITIVE EXPONENT=    49299.4000000000 OF TYPE -S-
 ON ATOM NUMBER   1 HAS RADIAL NORMALIZATION=  1.000000
 DFT IS SWITCHED OFF, PERFORMING PURE SCF UNTIL SWOFF THRESHOLD IS REACHED.

 ITER EX DEM     TOTAL ENERGY        E CHANGE  DENSITY CHANGE    DIIS ERROR
   1  0  0     -545.8944842967  -545.8944842967   0.787034092   0.772339125
          * * *   INITIATING DIIS PROCEDURE   * * *
   2  1  0     -546.2269125306    -0.3324282339   0.941574377   0.409568082
   3  2  0     -546.0517502383     0.1751622923   0.429754375   0.476066902
   4  3  0     -546.9249907703    -0.8732405319   0.049398716   0.014508226
   5  4  0     -546.9270247460    -0.0020339758   0.017354191   0.010638574
   6  5  0     -546.9275519775    -0.0005272314   0.012064767   0.003283700
   7  6  0     -546.9277756661    -0.0002236886   0.010770598   0.001746758
   8  7  0     -546.9278601640    -0.0000844979   0.005513546   0.000964175
   9  8  0     -546.9278778077    -0.0000176437   0.002747724   0.000341148
 CONVERGED TO SWOFF, SO DFT CALCULATION IS NOW SWITCHED ON.
          * * *   INITIATING DIIS PROCEDURE   * * *
  10  9  0     -548.1047940984    -1.1769162907   0.586862585   0.102750973
  11 10  0     -548.0744058872     0.0303882112   0.501331381   0.170048539
  12 11  0     -548.0821185240    -0.0077126369   0.154383501   0.177908937
  13 12  0     -548.1619638847    -0.0798453606   0.036436752   0.015494690
  14 13  0     -548.1629285312    -0.0009646466   0.004004378   0.002482993
  15 14  0     -548.1629476700    -0.0000191388   0.000972004   0.000435234
  16 15  0     -548.1629477317    -0.0000000617   0.000531996   0.000685084
  17 16  0     -548.1629482347    -0.0000005030   0.000179470   0.000327012
 DFT CODE IS SWITCHING BACK TO THE FINE GRID
          * * *   INITIATING DIIS PROCEDURE   * * *
  18 17  0     -548.1673149581    -0.0043667234   0.023427897   0.012641305
  19 18  0     -548.1676179141    -0.0003029560   0.033048604   0.006356469
  20 19  0     -548.1667213894     0.0008965247   0.026187766   0.020349099
  21 20  0     -548.1677554035    -0.0010340141   0.000983911   0.000685025
  22 21  0     -548.1677536991     0.0000017044   0.001248806   0.001510265
  23 22  0     -548.1677558052    -0.0000021061   0.000514146   0.000870672
  24 23  0     -548.1677569011    -0.0000010959   0.000061731   0.000021710
  25 24  0     -548.1677569032    -0.0000000021   0.000013297   0.000007745
  26 25  0     -548.1677569033    -0.0000000001   0.000000648   0.000000474
  27 26  0     -548.1677569033    -0.0000000000   0.000000035   0.000000015

          -----------------
          DENSITY CONVERGED
          -----------------
     TIME TO FORM FOCK OPERATORS=       2.7 SECONDS (       0.1 SEC/ITER)
     TIME TO SOLVE SCF EQUATIONS=       0.0 SECONDS (       0.0 SEC/ITER)

 FINAL R-PBE ENERGY IS     -548.1677569033 AFTER  27 ITERATIONS
 DFT EXCHANGE + CORRELATION ENERGY =       -42.2056119189
 TOTAL ELECTRON NUMBER             =        32.0000049342

          ------------
          EIGENVECTORS
          ------------

                      1          2          3          4          5
                  -88.2321   -18.8334   -18.8334    -7.8453    -5.8718
                     A          A          A          A          A   
    1  S  1  S    0.997766   0.000005   0.000001  -0.308407  -0.000000
    2  S  1  S    0.008188  -0.000084  -0.000024   1.031883   0.000000
    3  S  1  S   -0.002797  -0.000882  -0.000250   0.027395   0.000000
    4  S  1  S    0.001101   0.005889   0.001666  -0.005827  -0.000000
    5  S  1  X   -0.000000   0.000049  -0.000174  -0.000000   0.994723
    6  S  1  Y    0.000092  -0.000117  -0.000033   0.009305  -0.000002
    7  S  1  Z    0.000000   0.000000   0.000000   0.000000   0.000000
    8  S  1  X    0.000000  -0.000410   0.001449  -0.000000   0.016977
    9  S  1  Y   -0.000149   0.000849   0.000240   0.000767  -0.000000
   10  S  1  Z    0.000000   0.000000   0.000000   0.000000   0.000000
   11  S  1  X    0.000000  -0.001143   0.004042  -0.000000  -0.002454
   12  S  1  Y    0.000038   0.002061   0.000583  -0.000148   0.000000
   13  S  1  Z    0.000000   0.000000   0.000000   0.000000   0.000000
   14  S  1 XX   -0.000116   0.000991   0.000280   0.000614  -0.000000
   15  S  1 YY    0.000039  -0.000215  -0.000061  -0.000268  -0.000000
   16  S  1 ZZ    0.000077  -0.000776  -0.000220  -0.000346   0.000000
   17  S  1 XY    0.000000  -0.000234   0.000826  -0.000000   0.001121
   18  S  1 XZ    0.000000   0.000000   0.000000   0.000000   0.000000
   19  S  1 YZ    0.000000   0.000000   0.000000   0.000000   0.000000
   20  O  2  S   -0.000004   0.484704   0.866958   0.000030  -0.000032
   21  O  2  S   -0.000087   0.016141   0.028869   0.000098  -0.000009
   22  O  2  S    0.000079  -0.007069  -0.012942  -0.000239  -0.000754
   23  O  2  X    0.000022  -0.000647  -0.000872   0.000146   0.000127
   24  O  2  Y    0.000014  -0.000092  -0.000477   0.000057   0.000080
   25  O  2  Z    0.000000   0.000000   0.000000   0.000000   0.000000
   26  O  2  X   -0.000210   0.002039   0.002292   0.000718   0.001070
   27  O  2  Y   -0.000111   0.000138   0.001466   0.000381   0.000528
   28  O  2  Z    0.000000   0.000000   0.000000   0.000000   0.000000
   29  O  2 XX    0.000117  -0.000233  -0.000214  -0.000346   0.000019
   30  O  2 YY   -0.000036   0.000092   0.000030   0.000102  -0.000027
   31  O  2 ZZ   -0.000081   0.000141   0.000184   0.000243   0.000009
   32  O  2 XY    0.000109  -0.000118  -0.000243  -0.000329  -0.000051
   33  O  2 XZ    0.000000   0.000000   0.000000   0.000000   0.000000
   34  O  2 YZ    0.000000   0.000000   0.000000   0.000000   0.000000
   35  O  3  S   -0.000004   0.866958  -0.484703   0.000030   0.000032
   36  O  3  S   -0.000087   0.028870  -0.016139   0.000098   0.000009
   37  O  3  S    0.000079  -0.012801   0.007322  -0.000239   0.000754
   38  O  3  X   -0.000022   0.001008  -0.000404  -0.000146   0.000127
   39  O  3  Y    0.000014  -0.000329   0.000358   0.000057  -0.000080
   40  O  3  Z    0.000000   0.000000   0.000000   0.000000   0.000000
   41  O  3  X    0.000210  -0.002938   0.000884  -0.000718   0.001070
   42  O  3  Y   -0.000111   0.000885  -0.001176   0.000381  -0.000528
   43  O  3  Z    0.000000   0.000000   0.000000   0.000000   0.000000
   44  O  3 XX    0.000117  -0.000311   0.000060  -0.000346  -0.000019
   45  O  3 YY   -0.000036   0.000095   0.000023   0.000102   0.000027
   46  O  3 ZZ   -0.000081   0.000216  -0.000083   0.000243  -0.000009
   47  O  3 XY   -0.000109   0.000228  -0.000145   0.000329  -0.000051
   48  O  3 XZ    0.000000   0.000000   0.000000   0.000000   0.000000
   49  O  3 YZ    0.000000   0.000000   0.000000   0.000000   0.000000

                      6          7          8          9         10
                   -5.8693    -5.8668    -0.9398    -0.8976    -0.6462
                     A          A          A          A          A   
    1  S  1  S    0.000000   0.002888   0.043131   0.000000   0.074294
    2  S  1  S    0.000000  -0.009914  -0.267280  -0.000000  -0.473467
    3  S  1  S    0.000000  -0.000171   0.380469   0.000001   0.717730
    4  S  1  S    0.000000   0.000694   0.090264  -0.000002   0.269226
    5  S  1  X    0.000000   0.000002   0.000000  -0.083945  -0.000000
    6  S  1  Y    0.000000   0.994964  -0.035692  -0.000000   0.013279
    7  S  1  Z    0.995019   0.000000   0.000000   0.000000   0.000000
    8  S  1  X    0.000000   0.000000   0.000000   0.190849   0.000000
    9  S  1  Y    0.000000   0.015825   0.081494  -0.000000  -0.027578
   10  S  1  Z    0.015744   0.000000   0.000000   0.000000   0.000000
   11  S  1  X    0.000000  -0.000000   0.000002  -0.001479  -0.000000
   12  S  1  Y    0.000000  -0.002915  -0.006185  -0.000001  -0.022150
   13  S  1  Z   -0.003128   0.000000   0.000000   0.000000   0.000000
   14  S  1 XX    0.000000  -0.000054   0.035889  -0.000000  -0.011059
   15  S  1 YY    0.000000   0.000513  -0.011549   0.000000   0.000834
   16  S  1 ZZ    0.000000  -0.000459  -0.024340   0.000000   0.010225
   17  S  1 XY    0.000000   0.000000   0.000000   0.040973   0.000000
   18  S  1 XZ   -0.000000   0.000000   0.000000   0.000000   0.000000
   19  S  1 YZ    0.000492   0.000000   0.000000   0.000000   0.000000
   20  O  2  S    0.000000  -0.000020  -0.145605  -0.168297   0.105771
   21  O  2  S    0.000000  -0.000038   0.299603   0.349775  -0.226571
   22  O  2  S    0.000000  -0.000232   0.296713   0.350027  -0.275032
   23  O  2  X    0.000000   0.000053  -0.073518  -0.063414  -0.099590
   24  O  2  Y    0.000000  -0.000014  -0.032163  -0.030247  -0.047146
   25  O  2  Z   -0.000056   0.000000   0.000000   0.000000   0.000000
   26  O  2  X    0.000000   0.000478  -0.037241  -0.027513  -0.047548
   27  O  2  Y    0.000000   0.000120  -0.015051  -0.014467  -0.018162
   28  O  2  Z   -0.000022   0.000000   0.000000   0.000000   0.000000
   29  O  2 XX    0.000000  -0.000091   0.008199   0.006303   0.004080
   30  O  2 YY    0.000000   0.000114  -0.004531  -0.003936   0.000004
   31  O  2 ZZ    0.000000  -0.000023  -0.003668  -0.002367  -0.004084
   32  O  2 XY    0.000000   0.000164   0.006269   0.005532   0.004098
   33  O  2 XZ    0.000185   0.000000   0.000000   0.000000   0.000000
   34  O  2 YZ    0.000082   0.000000   0.000000   0.000000   0.000000
   35  O  3  S    0.000000  -0.000020  -0.145606   0.168296   0.105772
   36  O  3  S    0.000000  -0.000038   0.299604  -0.349775  -0.226572
   37  O  3  S    0.000000  -0.000232   0.296717  -0.350023  -0.275032
   38  O  3  X    0.000000  -0.000053   0.073517  -0.063414   0.099591
   39  O  3  Y    0.000000  -0.000014  -0.032163   0.030247  -0.047146
   40  O  3  Z   -0.000056   0.000000   0.000000   0.000000   0.000000
   41  O  3  X    0.000000  -0.000478   0.037242  -0.027512   0.047548
   42  O  3  Y    0.000000   0.000120  -0.015051   0.014467  -0.018162
   43  O  3  Z   -0.000022   0.000000   0.000000   0.000000   0.000000
   44  O  3 XX    0.000000  -0.000091   0.008199  -0.006303   0.004080
   45  O  3 YY    0.000000   0.000114  -0.004531   0.003936   0.000004
   46  O  3 ZZ    0.000000  -0.000023  -0.003668   0.002367  -0.004084
   47  O  3 XY    0.000000  -0.000164  -0.006269   0.005532  -0.004098
   48  O  3 XZ   -0.000185   0.000000   0.000000   0.000000   0.000000
   49  O  3 YZ    0.000082   0.000000   0.000000   0.000000   0.000000

                     11         12         13         14         15
                   -0.4352    -0.3953    -0.3916    -0.3137    -0.3008
                     A          A          A          A          A   
    1  S  1  S    0.000000  -0.011741   0.000000   0.000000   0.000000
    2  S  1  S   -0.000000   0.075141   0.000000   0.000000  -0.000000
    3  S  1  S    0.000001  -0.097258   0.000000   0.000000  -0.000001
    4  S  1  S   -0.000003  -0.154533   0.000000   0.000000   0.000004
    5  S  1  X   -0.189877  -0.000000   0.000000   0.000000  -0.021338
    6  S  1  Y    0.000000  -0.221270   0.000000   0.000000   0.000001
    7  S  1  Z    0.000000   0.000000  -0.221326  -0.000000   0.000000
    8  S  1  X    0.510117   0.000000   0.000000   0.000000   0.058190
    9  S  1  Y   -0.000000   0.599737   0.000000   0.000000  -0.000002
   10  S  1  Z    0.000000   0.000000   0.603748   0.000001   0.000000
   11  S  1  X    0.026234   0.000003   0.000000   0.000000   0.096274
   12  S  1  Y   -0.000001   0.157984   0.000000   0.000000   0.000001
   13  S  1  Z    0.000000   0.000000   0.192343   0.000000   0.000000
   14  S  1 XX   -0.000000  -0.004577   0.000000   0.000000  -0.000000
   15  S  1 YY    0.000000   0.026624   0.000000   0.000000   0.000000
   16  S  1 ZZ    0.000000  -0.022047   0.000000   0.000000   0.000000
   17  S  1 XY    0.039665   0.000000   0.000000   0.000000  -0.076285
   18  S  1 XZ    0.000000   0.000000  -0.000000   0.082903   0.000000
   19  S  1 YZ    0.000000   0.000000   0.028843   0.000000   0.000000
   20  O  2  S    0.060306   0.020695   0.000000   0.000000   0.002385
   21  O  2  S   -0.131711  -0.044960   0.000000   0.000000  -0.001272
   22  O  2  S   -0.182420  -0.067763   0.000000   0.000000  -0.041790
   23  O  2  X   -0.309126  -0.265163   0.000000   0.000000   0.272476
   24  O  2  Y   -0.178534   0.124013   0.000000   0.000000  -0.384829
   25  O  2  Z    0.000000   0.000000   0.288288   0.472352   0.000000
   26  O  2  X   -0.172536  -0.168589   0.000000   0.000000   0.192359
   27  O  2  Y   -0.107114   0.081234   0.000000   0.000000  -0.266564
   28  O  2  Z    0.000000   0.000000   0.181135   0.335574   0.000000
   29  O  2 XX    0.007513   0.013622   0.000000   0.000000  -0.009692
   30  O  2 YY   -0.000322  -0.009430   0.000000   0.000000   0.009654
   31  O  2 ZZ   -0.007192  -0.004191   0.000000   0.000000   0.000038
   32  O  2 XY    0.010733  -0.003120   0.000000   0.000000   0.008056
   33  O  2 XZ    0.000000   0.000000  -0.013386  -0.012867   0.000000
   34  O  2 YZ    0.000000   0.000000  -0.006007  -0.006426   0.000000
   35  O  3  S   -0.060306   0.020695   0.000000   0.000000  -0.002385
   36  O  3  S    0.131709  -0.044962   0.000000   0.000000   0.001273
   37  O  3  S    0.182422  -0.067759   0.000000   0.000000   0.041788
   38  O  3  X   -0.309126   0.265164   0.000000   0.000000   0.272474
   39  O  3  Y    0.178534   0.124013   0.000000   0.000000   0.384832
   40  O  3  Z    0.000000   0.000000   0.288289  -0.472352   0.000000
   41  O  3  X   -0.172533   0.168591   0.000000   0.000000   0.192357
   42  O  3  Y    0.107114   0.081234   0.000000   0.000000   0.266567
   43  O  3  Z    0.000000   0.000000   0.181135  -0.335574   0.000000
   44  O  3 XX   -0.007513   0.013622   0.000000   0.000000   0.009692
   45  O  3 YY    0.000322  -0.009430   0.000000   0.000000  -0.009654
   46  O  3 ZZ    0.007192  -0.004191   0.000000   0.000000  -0.000038
   47  O  3 XY    0.010733   0.003120   0.000000   0.000000   0.008056
   48  O  3 XZ    0.000000   0.000000   0.013386  -0.012867   0.000000
   49  O  3 YZ    0.000000   0.000000  -0.006007   0.006426   0.000000

                     16         17         18         19         20
                   -0.2864    -0.2277    -0.1494    -0.0452     0.2194
                     A          A          A          A          A   
    1  S  1  S    0.019126   0.000000   0.024970   0.000000   0.000000
    2  S  1  S   -0.124334   0.000000  -0.166939  -0.000000   0.000000
    3  S  1  S    0.162505   0.000000   0.275975  -0.000001   0.000000
    4  S  1  S    0.300047   0.000000   0.303425   0.000002   0.000000
    5  S  1  X    0.000000   0.000000   0.000000  -0.236999   0.000000
    6  S  1  Y    0.063671   0.000000  -0.204721  -0.000000   0.000000
    7  S  1  Z    0.000000  -0.214637   0.000000   0.000000   0.252773
    8  S  1  X    0.000000   0.000000  -0.000000   0.728818   0.000000
    9  S  1  Y   -0.176682   0.000000   0.614051   0.000001   0.000000
   10  S  1  Z    0.000000   0.623121   0.000000   0.000000  -1.001342
   11  S  1  X   -0.000002   0.000000  -0.000009   0.678353   0.000000
   12  S  1  Y    0.009886   0.000000   0.341296   0.000002   0.000000
   13  S  1  Z    0.000000   0.231096   0.000000   0.000000   1.300633
   14  S  1 XX   -0.112011   0.000000  -0.094213  -0.000001   0.000000
   15  S  1 YY    0.065275   0.000000   0.007970   0.000000   0.000000
   16  S  1 ZZ    0.046735   0.000000   0.086243   0.000001   0.000000
   17  S  1 XY    0.000000   0.000000   0.000000  -0.149010   0.000000
   18  S  1 XZ    0.000000  -0.000000   0.000000   0.000000  -0.000000
   19  S  1 YZ    0.000000  -0.029202   0.000000   0.000000  -0.072286
   20  O  2  S   -0.000839   0.000000   0.029883   0.051114   0.000000
   21  O  2  S    0.005687   0.000000  -0.065335  -0.103343   0.000000
   22  O  2  S   -0.038175   0.000000  -0.180027  -0.383623   0.000000
   23  O  2  X    0.118145   0.000000   0.398786   0.218350   0.000000
   24  O  2  Y    0.447752   0.000000  -0.081260   0.264126   0.000000
   25  O  2  Z    0.000000  -0.399669   0.000000   0.000000  -0.073782
   26  O  2  X    0.089183   0.000000   0.324590   0.227060   0.000000
   27  O  2  Y    0.319322   0.000000  -0.059081   0.226661   0.000000
   28  O  2  Z    0.000000  -0.295967   0.000000   0.000000  -0.123650
   29  O  2 XX    0.001063   0.000000   0.001259  -0.003169   0.000000
   30  O  2 YY   -0.004695   0.000000  -0.002645   0.005070   0.000000
   31  O  2 ZZ    0.003632   0.000000   0.001386  -0.001902   0.000000
   32  O  2 XY   -0.010602   0.000000  -0.004016   0.005319   0.000000
   33  O  2 XZ    0.000000   0.001499   0.000000   0.000000   0.009475
   34  O  2 YZ    0.000000   0.000482   0.000000   0.000000   0.003380
   35  O  3  S   -0.000839   0.000000   0.029884  -0.051114   0.000000
   36  O  3  S    0.005687   0.000000  -0.065335   0.103339   0.000000
   37  O  3  S   -0.038177   0.000000  -0.180035   0.383625   0.000000
   38  O  3  X   -0.118148   0.000000  -0.398789   0.218343   0.000000
   39  O  3  Y    0.447750   0.000000  -0.081258  -0.264127   0.000000
   40  O  3  Z    0.000000  -0.399669   0.000000   0.000000  -0.073782
   41  O  3  X   -0.089185   0.000000  -0.324592   0.227060   0.000000
   42  O  3  Y    0.319319   0.000000  -0.059077  -0.226663   0.000000
   43  O  3  Z    0.000000  -0.295966   0.000000   0.000000  -0.123650
   44  O  3 XX    0.001063   0.000000   0.001259   0.003169   0.000000
   45  O  3 YY   -0.004695   0.000000  -0.002644  -0.005070   0.000000
   46  O  3 ZZ    0.003632   0.000000   0.001386   0.001902   0.000000
   47  O  3 XY    0.010602   0.000000   0.004016   0.005319   0.000000
   48  O  3 XZ    0.000000  -0.001499   0.000000   0.000000  -0.009475
   49  O  3 YZ    0.000000   0.000482   0.000000   0.000000   0.003380

                     21         22         23         24         25
                    0.2230     0.2281     0.2388     0.4710     0.4919
                     A          A          A          A          A   
    1  S  1  S    0.020083   0.000004  -0.063034   0.000000   0.000708
    2  S  1  S   -0.146503  -0.000026   0.466496   0.000000  -0.005301
    3  S  1  S    0.497807   0.000103  -1.840175   0.000000   0.026249
    4  S  1  S   -0.426499  -0.000120   2.113936   0.000000  -0.051857
    5  S  1  X   -0.000007   0.253152   0.000012   0.000000  -0.000000
    6  S  1  Y    0.245805   0.000004   0.047406   0.000000   0.026275
    7  S  1  Z    0.000000   0.000000   0.000000   0.000000   0.000000
    8  S  1  X    0.000027  -0.992056  -0.000046   0.000000   0.000000
    9  S  1  Y   -0.971613  -0.000018  -0.191590   0.000000  -0.103597
   10  S  1  Z    0.000000   0.000000   0.000000  -0.000000   0.000000
   11  S  1  X   -0.000041   1.546055   0.000075   0.000000  -0.000001
   12  S  1  Y    1.269642   0.000007   0.519278   0.000000   0.042051
   13  S  1  Z    0.000000   0.000000   0.000000   0.000000   0.000000
   14  S  1 XX    0.077990   0.000003  -0.106741   0.000000  -0.221929
   15  S  1 YY   -0.093339  -0.000002  -0.000153   0.000000   0.896572
   16  S  1 ZZ    0.015349  -0.000002   0.106894   0.000000  -0.674643
   17  S  1 XY    0.000001  -0.013014   0.000002   0.000000   0.000000
   18  S  1 XZ    0.000000   0.000000   0.000000   0.857149   0.000000
   19  S  1 YZ    0.000000   0.000000   0.000000  -0.000001   0.000000
   20  O  2  S    0.003718   0.016302   0.024559   0.000000  -0.002944
   21  O  2  S    0.010176   0.019319  -0.036892   0.000000   0.010233
   22  O  2  S   -0.126512  -0.489108  -0.388016   0.000000   0.007100
   23  O  2  X   -0.028675  -0.219373  -0.076624   0.000000   0.089838
   24  O  2  Y   -0.065473  -0.036677  -0.114384   0.000000  -0.206931
   25  O  2  Z    0.000000   0.000000   0.000000  -0.332775   0.000000
   26  O  2  X    0.036031   0.004983   0.180525   0.000000  -0.077807
   27  O  2  Y   -0.108822   0.067742   0.034506   0.000000   0.110271
   28  O  2  Z    0.000000   0.000000   0.000000   0.185230   0.000000
   29  O  2 XX   -0.011167  -0.023048  -0.025187   0.000000   0.023622
   30  O  2 YY    0.008007   0.006541   0.005479   0.000000  -0.011910
   31  O  2 ZZ    0.003160   0.016508   0.019708   0.000000  -0.011712
   32  O  2 XY    0.004218  -0.022801  -0.026185   0.000000  -0.028987
   33  O  2 XZ    0.000000   0.000000   0.000000  -0.048219   0.000000
   34  O  2 YZ    0.000000   0.000000   0.000000  -0.029500   0.000000
   35  O  3  S    0.003719  -0.016304   0.024558   0.000000  -0.002944
   36  O  3  S    0.010175  -0.019324  -0.036900   0.000000   0.010233
   37  O  3  S   -0.126536   0.489152  -0.387962   0.000000   0.007100
   38  O  3  X    0.028685  -0.219387   0.076598   0.000000  -0.089837
   39  O  3  Y   -0.065476   0.036684  -0.114381   0.000000  -0.206931
   40  O  3  Z    0.000000   0.000000   0.000000   0.332775   0.000000
   41  O  3  X   -0.036030   0.005008  -0.180518   0.000000   0.077807
   42  O  3  Y   -0.108818  -0.067753   0.034498   0.000000   0.110271
   43  O  3  Z    0.000000   0.000000   0.000000  -0.185230   0.000000
   44  O  3 XX   -0.011169   0.023050  -0.025185   0.000000   0.023622
   45  O  3 YY    0.008008  -0.006541   0.005479   0.000000  -0.011910
   46  O  3 ZZ    0.003161  -0.016510   0.019706   0.000000  -0.011712
   47  O  3 XY   -0.004217  -0.022803   0.026183   0.000000   0.028987
   48  O  3 XZ    0.000000   0.000000   0.000000  -0.048219   0.000000
   49  O  3 YZ    0.000000   0.000000   0.000000   0.029500   0.000000

                     26         27         28         29         30
                    0.4934     0.6056     0.6411     0.7962     0.8010
                     A          A          A          A          A   
    1  S  1  S    0.000000  -0.000000  -0.003646   0.000000   0.000000
    2  S  1  S    0.000000   0.000000   0.030134   0.000000  -0.000002
    3  S  1  S    0.000000   0.000001  -0.276462   0.000000   0.000009
    4  S  1  S    0.000000  -0.000008   0.818728   0.000000  -0.000006
    5  S  1  X    0.000000  -0.055166  -0.000000   0.000000  -0.049073
    6  S  1  Y    0.000000   0.000000  -0.039907   0.000000  -0.000000
    7  S  1  Z    0.020975   0.000000   0.000000   0.000000   0.000000
    8  S  1  X    0.000000   0.227829   0.000003   0.000000   0.295192
    9  S  1  Y    0.000000  -0.000002   0.166578   0.000000   0.000002
   10  S  1  Z   -0.082092   0.000000   0.000000  -0.000000   0.000000
   11  S  1  X    0.000000   0.420641   0.000006   0.000000  -0.247594
   12  S  1  Y    0.000000  -0.000002   0.227215   0.000000  -0.000001
   13  S  1  Z    0.038826   0.000000   0.000000   0.000000   0.000000
   14  S  1 XX    0.000000  -0.000005   0.850881   0.000000  -0.000007
   15  S  1 YY    0.000000   0.000000  -0.139671   0.000000   0.000003
   16  S  1 ZZ    0.000000   0.000004  -0.711211   0.000000   0.000004
   17  S  1 XY    0.000000   0.895421   0.000006   0.000000   0.322020
   18  S  1 XZ    0.000001   0.000000   0.000000  -0.530048   0.000000
   19  S  1 YZ    0.955351   0.000000   0.000000  -0.000000   0.000000
   20  O  2  S    0.000000   0.063588   0.071451   0.000000   0.010427
   21  O  2  S    0.000000  -0.277489  -0.333396   0.000000  -0.032176
   22  O  2  S    0.000000  -0.108623  -0.070780   0.000000   0.023165
   23  O  2  X    0.000000   0.101271  -0.108839   0.000000  -0.438736
   24  O  2  Y    0.000000  -0.216760   0.154044   0.000000   0.407127
   25  O  2  Z   -0.184657   0.000000   0.000000  -0.558102   0.000000
   26  O  2  X    0.000000   0.267939   0.513756   0.000000   0.681371
   27  O  2  Y    0.000000   0.348163   0.039393   0.000000  -0.458263
   28  O  2  Z    0.111363   0.000000   0.000000   0.738416   0.000000
   29  O  2 XX    0.000000   0.048582   0.001424   0.000000   0.044694
   30  O  2 YY    0.000000  -0.038946   0.020068   0.000000  -0.024990
   31  O  2 ZZ    0.000000  -0.009637  -0.021492   0.000000  -0.019705
   32  O  2 XY    0.000000  -0.005236   0.033292   0.000000   0.011762
   33  O  2 XZ   -0.032302   0.000000   0.000000   0.046983   0.000000
   34  O  2 YZ    0.002522   0.000000   0.000000   0.027095   0.000000
   35  O  3  S    0.000000  -0.063589   0.071450   0.000000  -0.010427
   36  O  3  S    0.000000   0.277490  -0.333394   0.000000   0.032182
   37  O  3  S    0.000000   0.108628  -0.070774   0.000000  -0.023168
   38  O  3  X    0.000000   0.101266   0.108832   0.000000  -0.438724
   39  O  3  Y    0.000000   0.216759   0.154045   0.000000  -0.407128
   40  O  3  Z   -0.184657   0.000000   0.000000   0.558101   0.000000
   41  O  3  X    0.000000   0.267951  -0.513742   0.000000   0.681359
   42  O  3  Y    0.000000  -0.348165   0.039389   0.000000   0.458261
   43  O  3  Z    0.111363   0.000000   0.000000  -0.738415   0.000000
   44  O  3 XX    0.000000  -0.048583   0.001423   0.000000  -0.044694
   45  O  3 YY    0.000000   0.038946   0.020069   0.000000   0.024989
   46  O  3 ZZ    0.000000   0.009637  -0.021492   0.000000   0.019704
   47  O  3 XY    0.000000  -0.005236  -0.033292   0.000000   0.011762
   48  O  3 XZ    0.032302   0.000000   0.000000   0.046983   0.000000
   49  O  3 YZ    0.002522   0.000000   0.000000  -0.027094   0.000000

                     31         32         33         34         35
                    0.8067     0.8243     0.8345     0.8426     1.4216
                     A          A          A          A          A   
    1  S  1  S   -0.017730  -0.000000   0.000000  -0.001574   0.000000
    2  S  1  S    0.144574   0.000001   0.000000   0.013017  -0.000001
    3  S  1  S   -0.586774  -0.000002   0.000000  -0.078243   0.000023
    4  S  1  S    0.032703   0.000003   0.000000   0.117415  -0.000087
    5  S  1  X   -0.000001   0.067938   0.000000  -0.000001  -0.071356
    6  S  1  Y    0.032192  -0.000000   0.000000  -0.010914   0.000002
    7  S  1  Z    0.000000   0.000000  -0.004736   0.000000   0.000000
    8  S  1  X    0.000004  -0.447509   0.000000   0.000003   0.387987
    9  S  1  Y   -0.220723  -0.000000   0.000000   0.051285  -0.000010
   10  S  1  Z    0.000000   0.000000   0.034883   0.000000   0.000000
   11  S  1  X   -0.000005   0.163366   0.000000  -0.000004   1.018185
   12  S  1  Y    0.171245   0.000000   0.000000  -0.403735  -0.000031
   13  S  1  Z    0.000000   0.000000  -0.501115   0.000000   0.000000
   14  S  1 XX    0.175069   0.000002   0.000000   0.490514  -0.000021
   15  S  1 YY    0.010675  -0.000001   0.000000  -0.433219   0.000004
   16  S  1 ZZ   -0.185744  -0.000001   0.000000  -0.057295   0.000017
   17  S  1 XY    0.000001   0.359509   0.000000   0.000001   0.346933
   18  S  1 XZ    0.000000   0.000000   0.000000   0.000000   0.000000
   19  S  1 YZ    0.000000   0.000000  -0.295799   0.000000   0.000000
   20  O  2  S   -0.018635  -0.015391   0.000000  -0.001200  -0.078501
   21  O  2  S    0.143470   0.140370   0.000000   0.066475   1.205880
   22  O  2  S   -0.132376  -0.153531   0.000000  -0.078573  -1.783792
   23  O  2  X    0.497371   0.431806   0.000000   0.327346  -0.057729
   24  O  2  Y    0.372682   0.420224   0.000000  -0.454676  -0.121716
   25  O  2  Z    0.000000   0.000000  -0.613219   0.000000   0.000000
   26  O  2  X   -0.641183  -0.535659   0.000000  -0.337878   0.402332
   27  O  2  Y   -0.469729  -0.550533   0.000000   0.717388   0.392003
   28  O  2  Z    0.000000   0.000000   0.856636   0.000000   0.000000
   29  O  2 XX   -0.028800   0.004778   0.000000  -0.020007   0.107156
   30  O  2 YY    0.017426  -0.020014   0.000000   0.031111  -0.035566
   31  O  2 ZZ    0.011374   0.015236   0.000000  -0.011104  -0.071590
   32  O  2 XY   -0.014102  -0.034609   0.000000   0.055374   0.102082
   33  O  2 XZ    0.000000   0.000000   0.031881   0.000000   0.000000
   34  O  2 YZ    0.000000   0.000000   0.007202   0.000000   0.000000
   35  O  3  S   -0.018634   0.015391   0.000000  -0.001200   0.078509
   36  O  3  S    0.143464  -0.140375   0.000000   0.066475  -1.206004
   37  O  3  S   -0.132373   0.153534   0.000000  -0.078575   1.783975
   38  O  3  X   -0.497378   0.431805   0.000000  -0.327352  -0.057746
   39  O  3  Y    0.372676  -0.420224   0.000000  -0.454681   0.121713
   40  O  3  Z    0.000000   0.000000  -0.613221   0.000000   0.000000
   41  O  3  X    0.641193  -0.535660   0.000000   0.337888   0.402405
   42  O  3  Y   -0.469720   0.550535   0.000000   0.717393  -0.392011
   43  O  3  Z    0.000000   0.000000   0.856637   0.000000   0.000000
   44  O  3 XX   -0.028801  -0.004778   0.000000  -0.020008  -0.107170
   45  O  3 YY    0.017427   0.020014   0.000000   0.031111   0.035570
   46  O  3 ZZ    0.011374  -0.015236   0.000000  -0.011103   0.071600
   47  O  3 XY    0.014102  -0.034609   0.000000  -0.055374   0.102091
   48  O  3 XZ    0.000000   0.000000  -0.031881   0.000000   0.000000
   49  O  3 YZ    0.000000   0.000000   0.007202   0.000000   0.000000

                     36         37         38         39         40
                    1.4431     2.0796     2.0800     2.0827     2.0855
                     A          A          A          A          A   
    1  S  1  S   -0.000755  -0.000000   0.000000   0.000000  -0.000614
    2  S  1  S    0.006802   0.000000   0.000000   0.000000   0.004627
    3  S  1  S    0.344416  -0.000000   0.000000   0.000000  -0.016785
    4  S  1  S   -1.543497   0.000000   0.000000   0.000000   0.016033
    5  S  1  X    0.000003  -0.004264   0.000000   0.000000   0.000000
    6  S  1  Y    0.039526   0.000000   0.000000   0.000000   0.002627
    7  S  1  Z    0.000000   0.000000  -0.000000  -0.011876   0.000000
    8  S  1  X   -0.000017   0.013840   0.000000   0.000000  -0.000000
    9  S  1  Y   -0.214462  -0.000000   0.000000   0.000000  -0.009519
   10  S  1  Z    0.000000   0.000000   0.000000   0.035142   0.000000
   11  S  1  X   -0.000062   0.021356   0.000000   0.000000  -0.000000
   12  S  1  Y   -0.543683   0.000000   0.000000   0.000000   0.006149
   13  S  1  Z    0.000000   0.000000   0.000000   0.025238   0.000000
   14  S  1 XX   -0.379574   0.000000   0.000000   0.000000   0.014312
   15  S  1 YY    0.070148   0.000000   0.000000   0.000000   0.028182
   16  S  1 ZZ    0.309426  -0.000000   0.000000   0.000000  -0.042494
   17  S  1 XY   -0.000019  -0.038195   0.000000   0.000000   0.000000
   18  S  1 XZ    0.000000   0.000000   0.029850  -0.000001   0.000000
   19  S  1 YZ    0.000000   0.000000  -0.000000   0.004882   0.000000
   20  O  2  S    0.074163  -0.001503   0.000000   0.000000   0.000900
   21  O  2  S   -1.164892   0.015205   0.000000   0.000000   0.000091
   22  O  2  S    1.701383  -0.021072   0.000000   0.000000  -0.008560
   23  O  2  X    0.166113   0.000696   0.000000   0.000000   0.004767
   24  O  2  Y   -0.022465  -0.010923   0.000000   0.000000   0.001477
   25  O  2  Z    0.000000   0.000000   0.005253   0.013454   0.000000
   26  O  2  X   -0.688322  -0.002362   0.000000   0.000000  -0.000576
   27  O  2  Y   -0.090115   0.016106   0.000000   0.000000  -0.001416
   28  O  2  Z    0.000000   0.000000  -0.008267  -0.022071   0.000000
   29  O  2 XX   -0.142517   0.250770   0.000000   0.000000  -0.069898
   30  O  2 YY    0.046765   0.332875   0.000000   0.000000  -0.530704
   31  O  2 ZZ    0.095753  -0.583645   0.000000   0.000000   0.600603
   32  O  2 XY   -0.097209  -0.396724   0.000000   0.000000   0.261528
   33  O  2 XZ    0.000000   0.000000   0.414567  -0.039046   0.000000
   34  O  2 YZ    0.000000   0.000000  -0.572936   0.706574   0.000000
   35  O  3  S    0.074155   0.001503   0.000000   0.000000   0.000900
   36  O  3  S   -1.164764  -0.015205   0.000000   0.000000   0.000091
   37  O  3  S    1.701189   0.021071   0.000000   0.000000  -0.008561
   38  O  3  X   -0.166109   0.000696   0.000000   0.000000  -0.004767
   39  O  3  Y   -0.022479   0.010923   0.000000   0.000000   0.001476
   40  O  3  Z    0.000000   0.000000  -0.005252   0.013454   0.000000
   41  O  3  X    0.688283  -0.002362   0.000000   0.000000   0.000576
   42  O  3  Y   -0.090071  -0.016106   0.000000   0.000000  -0.001416
   43  O  3  Z    0.000000   0.000000   0.008267  -0.022071   0.000000
   44  O  3 XX   -0.142506  -0.250772   0.000000   0.000000  -0.069893
   45  O  3 YY    0.046761  -0.332885   0.000000   0.000000  -0.530697
   46  O  3 ZZ    0.095745   0.583657   0.000000   0.000000   0.600591
   47  O  3 XY    0.097199  -0.396730   0.000000   0.000000  -0.261521
   48  O  3 XZ    0.000000   0.000000   0.414571   0.039032   0.000000
   49  O  3 YZ    0.000000   0.000000   0.572959   0.706555   0.000000

                     41         42         43         44         45
                    2.1006     2.1042     2.1493     2.1559     2.4539
                     A          A          A          A          A   
    1  S  1  S    0.000000   0.000000   0.000000  -0.003991  -0.022217
    2  S  1  S    0.000000  -0.000000   0.000000   0.029434   0.162348
    3  S  1  S    0.000000   0.000000   0.000000  -0.033071  -0.248100
    4  S  1  S    0.000000  -0.000000   0.000000  -0.179061  -0.663964
    5  S  1  X    0.000000  -0.035554   0.000000  -0.000000  -0.000001
    6  S  1  Y    0.000000  -0.000000   0.000000   0.042611   0.073899
    7  S  1  Z   -0.029403   0.000000  -0.000000   0.000000   0.000000
    8  S  1  X    0.000000   0.142383   0.000000   0.000000   0.000003
    9  S  1  Y    0.000000   0.000000   0.000000  -0.148217  -0.334583
   10  S  1  Z    0.085721   0.000000   0.000000   0.000000   0.000000
   11  S  1  X    0.000000   0.046037   0.000000  -0.000001  -0.000002
   12  S  1  Y    0.000000   0.000000   0.000000  -0.135455  -0.093647
   13  S  1  Z    0.079387   0.000000   0.000000   0.000000   0.000000
   14  S  1 XX    0.000000  -0.000000   0.000000   0.109174  -0.542809
   15  S  1 YY    0.000000   0.000000   0.000000  -0.183147   0.193917
   16  S  1 ZZ    0.000000  -0.000000   0.000000   0.073972   0.348892
   17  S  1 XY    0.000000  -0.128946   0.000000  -0.000000   0.000001
   18  S  1 XZ   -0.000000   0.000000   0.276695   0.000000   0.000000
   19  S  1 YZ    0.141266   0.000000   0.000000   0.000000   0.000000
   20  O  2  S    0.000000  -0.004816   0.000000   0.008135   0.012579
   21  O  2  S    0.000000   0.076538   0.000000  -0.138242  -0.432339
   22  O  2  S    0.000000  -0.112756   0.000000   0.215557   0.751633
   23  O  2  X    0.000000  -0.018918   0.000000   0.061825   0.080899
   24  O  2  Y    0.000000  -0.040356   0.000000  -0.029531   0.040009
   25  O  2  Z    0.041142   0.000000   0.034801   0.000000   0.000000
   26  O  2  X    0.000000   0.043093   0.000000  -0.153399  -0.446666
   27  O  2  Y    0.000000   0.071165   0.000000   0.055577  -0.213149
   28  O  2  Z   -0.077198   0.000000  -0.069499   0.000000   0.000000
   29  O  2 XX    0.000000   0.334333   0.000000   0.559658   0.445814
   30  O  2 YY    0.000000  -0.572296   0.000000  -0.465247  -0.071009
   31  O  2 ZZ    0.000000   0.237963   0.000000  -0.094411  -0.374805
   32  O  2 XY    0.000000  -0.414681   0.000000  -0.383867   0.561740
   33  O  2 XZ    0.710122   0.000000   0.577434   0.000000   0.000000
   34  O  2 YZ    0.042374   0.000000   0.416086   0.000000   0.000000
   35  O  3  S    0.000000   0.004816   0.000000   0.008135   0.012579
   36  O  3  S    0.000000  -0.076538   0.000000  -0.138242  -0.432340
   37  O  3  S    0.000000   0.112756   0.000000   0.215557   0.751634
   38  O  3  X    0.000000  -0.018918   0.000000  -0.061825  -0.080899
   39  O  3  Y    0.000000   0.040356   0.000000  -0.029531   0.040009
   40  O  3  Z    0.041142   0.000000  -0.034801   0.000000   0.000000
   41  O  3  X    0.000000   0.043092   0.000000   0.153399   0.446669
   42  O  3  Y    0.000000  -0.071165   0.000000   0.055577  -0.213149
   43  O  3  Z   -0.077198   0.000000   0.069499   0.000000   0.000000
   44  O  3 XX    0.000000  -0.334334   0.000000   0.559657   0.445818
   45  O  3 YY    0.000000   0.572298   0.000000  -0.465246  -0.071011
   46  O  3 ZZ    0.000000  -0.237963   0.000000  -0.094411  -0.374807
   47  O  3 XY    0.000000  -0.414682   0.000000   0.383865  -0.561743
   48  O  3 XZ   -0.710122   0.000000   0.577433   0.000000   0.000000
   49  O  3 YZ    0.042378   0.000000  -0.416086   0.000000   0.000000

                     46
                    2.4720
                     A   
    1  S  1  S    0.000000
    2  S  1  S   -0.000001
    3  S  1  S    0.000002
    4  S  1  S    0.000001
    5  S  1  X   -0.161602
    6  S  1  Y   -0.000000
    7  S  1  Z    0.000000
    8  S  1  X    0.711436
    9  S  1  Y    0.000001
   10  S  1  Z    0.000000
   11  S  1  X    0.158033
   12  S  1  Y   -0.000000
   13  S  1  Z    0.000000
   14  S  1 XX    0.000002
   15  S  1 YY   -0.000001
   16  S  1 ZZ   -0.000001
   17  S  1 XY    0.462169
   18  S  1 XZ    0.000000
   19  S  1 YZ    0.000000
   20  O  2  S   -0.010187
   21  O  2  S    0.374519
   22  O  2  S   -0.655789
   23  O  2  X   -0.067899
   24  O  2  Y   -0.030309
   25  O  2  Z    0.000000
   26  O  2  X    0.406451
   27  O  2  Y    0.185691
   28  O  2  Z    0.000000
   29  O  2 XX   -0.602990
   30  O  2 YY    0.262829
   31  O  2 ZZ    0.340161
   32  O  2 XY   -0.436084
   33  O  2 XZ    0.000000
   34  O  2 YZ    0.000000
   35  O  3  S    0.010187
   36  O  3  S   -0.374516
   37  O  3  S    0.655785
   38  O  3  X   -0.067898
   39  O  3  Y    0.030309
   40  O  3  Z    0.000000
   41  O  3  X    0.406448
   42  O  3  Y   -0.185689
   43  O  3  Z    0.000000
   44  O  3 XX    0.602988
   45  O  3 YY   -0.262829
   46  O  3 ZZ   -0.340159
   47  O  3 XY   -0.436080
   48  O  3 XZ    0.000000
   49  O  3 YZ    0.000000
 ...... END OF RHF CALCULATION ......
 STEP CPU TIME =     2.73 TOTAL CPU TIME =          2.9 (      0.0 MIN)
 TOTAL WALL CLOCK TIME=          2.9 SECONDS, CPU UTILIZATION IS    98.28%

     ---------------------------------------------------------------------
     PROPERTIES FOR THE PBE      DFT FUNCTIONAL (RHF  TYPE) DENSITY MATRIX
     ---------------------------------------------------------------------

          -----------------
          ENERGY COMPONENTS
          -----------------

         WAVEFUNCTION NORMALIZATION =       1.0000000000

                ONE ELECTRON ENERGY =    -930.6097175827
                TWO ELECTRON ENERGY =     294.3541803649
           NUCLEAR REPULSION ENERGY =      88.0877803145
                                      ------------------
                       TOTAL ENERGY =    -548.1677569033

 ELECTRON-ELECTRON POTENTIAL ENERGY =     294.3541803649
  NUCLEUS-ELECTRON POTENTIAL ENERGY =   -1477.2420207595
   NUCLEUS-NUCLEUS POTENTIAL ENERGY =      88.0877803145
                                      ------------------
             TOTAL POTENTIAL ENERGY =   -1094.8000600801
               TOTAL KINETIC ENERGY =     546.6323031768
                 VIRIAL RATIO (V/T) =       2.0028089334

          ---------------------------------------
          MULLIKEN AND LOWDIN POPULATION ANALYSES
          ---------------------------------------

     ATOMIC MULLIKEN POPULATION IN EACH MOLECULAR ORBITAL

                      1          2          3          4          5

                  2.000000   2.000000   2.000000   2.000000   2.000000

    1             1.999986   0.000665   0.000756   2.000407   2.000327
    2             0.000007   0.476133   1.523157  -0.000204  -0.000163
    3             0.000007   1.523202   0.476087  -0.000204  -0.000163

                      6          7          8          9         10

                  2.000000   2.000000   2.000000   2.000000   2.000000

    1             2.000003   2.000062   0.541575   0.194447   1.240000
    2            -0.000001  -0.000031   0.729208   0.902781   0.379999
    3            -0.000001  -0.000031   0.729217   0.902772   0.380001

                     11         12         13         14         15

                  2.000000   2.000000   2.000000   2.000000   2.000000

    1             0.613193   1.134677   1.165894   0.040344   0.079666
    2             0.693406   0.432660   0.417052   0.979828   0.960164
    3             0.693401   0.432663   0.417053   0.979828   0.960170

                     16

                  2.000000

    1             0.265221
    2             0.867394
    3             0.867385

               ----- POPULATIONS IN EACH AO -----
                             MULLIKEN      LOWDIN
              1  S  1  S      1.99985     1.99930
              2  S  1  S      1.99289     1.89037
              3  S  1  S      1.38032     0.71265
              4  S  1  S      0.54158     0.46716
              5  S  1  X      1.99332     1.95641
              6  S  1  Y      1.99446     1.96432
              7  S  1  Z      1.99398     1.96161
              8  S  1  X      0.79240     0.68441
              9  S  1  Y      0.97482     0.89594
             10  S  1  Z      0.89457     0.81494
             11  S  1  X      0.04310     0.21116
             12  S  1  Y      0.20064     0.32956
             13  S  1  Z      0.27324     0.37798
             14  S  1 XX      0.02380     0.29492
             15  S  1 YY      0.07422     0.30088
             16  S  1 ZZ      0.05958     0.30486
             17  S  1 XY      0.04034     0.07159
             18  S  1 XZ      0.00411     0.04688
             19  S  1 YZ      0.00000     0.00396
             20  O  2  S      1.99574     1.97313
             21  O  2  S      0.97233     0.71582
             22  O  2  S      0.99126     0.56431
             23  O  2  X      0.77432     0.73463
             24  O  2  Y      1.08101     1.04986
             25  O  2  Z      0.83263     0.80153
             26  O  2  X      0.46584     0.56482
             27  O  2  Y      0.67663     0.72048
             28  O  2  Z      0.56169     0.59246
             29  O  2 XX      0.00127     0.21322
             30  O  2 YY      0.00317     0.20561
             31  O  2 ZZ      0.00293     0.21137
             32  O  2 XY      0.00210     0.00498
             33  O  2 XZ      0.00046     0.00273
             34  O  2 YZ      0.00000     0.00059
             35  O  3  S      1.99574     1.97313
             36  O  3  S      0.97233     0.71582
             37  O  3  S      0.99126     0.56431
             38  O  3  X      0.77432     0.73463
             39  O  3  Y      1.08101     1.04986
             40  O  3  Z      0.83263     0.80153
             41  O  3  X      0.46584     0.56482
             42  O  3  Y      0.67663     0.72048
             43  O  3  Z      0.56169     0.59246
             44  O  3 XX      0.00127     0.21322
             45  O  3 YY      0.00317     0.20561
             46  O  3 ZZ      0.00293     0.21137
             47  O  3 XY      0.00210     0.00498
             48  O  3 XZ      0.00046     0.00273
             49  O  3 YZ      0.00000     0.00059

          ----- MULLIKEN ATOMIC OVERLAP POPULATIONS -----
          (OFF-DIAGONAL ELEMENTS NEED TO BE MULTIPLIED BY 2)

             1           2           3

    1   14.8088209
    2    0.2342008   8.1341291
    3    0.2342008  -0.0069408   8.1341285

          TOTAL MULLIKEN AND LOWDIN ATOMIC POPULATIONS
       ATOM         MULL.POP.    CHARGE          LOW.POP.     CHARGE
    1 S            15.277223    0.722777        15.288914    0.711086
    2 O             8.361389   -0.361389         8.355543   -0.355543
    3 O             8.361388   -0.361388         8.355543   -0.355543

          MULLIKEN SPHERICAL HARMONIC POPULATIONS
       ATOM           S       P       D      F      G      H      I    TOTAL
    1 S             5.91    9.16    0.20   0.00   0.00   0.00   0.00   15.28
    2 O             3.96    4.39    0.01   0.00   0.00   0.00   0.00    8.36
    3 O             3.96    4.39    0.01   0.00   0.00   0.00   0.00    8.36

          -------------------------------
          BOND ORDER AND VALENCE ANALYSIS     BOND ORDER THRESHOLD=0.050
          -------------------------------

                   BOND                       BOND                       BOND
  ATOM PAIR DIST  ORDER      ATOM PAIR DIST  ORDER      ATOM PAIR DIST  ORDER
    1   2  1.750  1.638        1   3  1.750  1.638        2   3  3.172  0.498

                       TOTAL       BONDED        FREE
      ATOM            VALENCE     VALENCE     VALENCE
    1 S                 3.276       3.276       0.000
    2 O                 2.136       2.136      -0.000
    3 O                 2.136       2.136      -0.000

          ---------------------
          ELECTROSTATIC MOMENTS
          ---------------------

 POINT   1           X           Y           Z (BOHR)    CHARGE
                 0.000000    0.000000    0.000000        0.00 (A.U.)
         DX          DY          DZ         /D/  (DEBYE)
     0.000000   -1.682433    0.000000    1.682433
 ...... END OF PROPERTY EVALUATION ......
 STEP CPU TIME =     0.01 TOTAL CPU TIME =          2.9 (      0.0 MIN)
 TOTAL WALL CLOCK TIME=          2.9 SECONDS, CPU UTILIZATION IS    98.29%
                580000  WORDS OF DYNAMIC MEMORY USED
 EXECUTION OF GAMESS TERMINATED NORMALLY Sun Sep 29 10:55:54 2019
 DDI: 263640 bytes (0.3 MB / 0 MWords) used by master data server.

 ----------------------------------------
 CPU timing information for all processes
 ========================================
 0: 2.796 + 0.82 = 2.879
 ----------------------------------------
 ddikick.x: exited gracefully.
----- accounting info -----
Files used on the master node crcfe02.crc.nd.edu were:
-rw-r--r-- 1 cdrisko campus     208 Sep 29 10:55 /afs/crc.nd.edu/user/c/cdrisko/SO2.F05
-rw-r--r-- 1 cdrisko campus   37566 Sep 29 10:55 /afs/crc.nd.edu/user/c/cdrisko/SO2.F07
-rw-r--r-- 1 cdrisko campus 3780336 Sep 29 10:55 /afs/crc.nd.edu/user/c/cdrisko/SO2.F08
-rw-r--r-- 1 cdrisko campus 1766880 Sep 29 10:55 /afs/crc.nd.edu/user/c/cdrisko/SO2.F10
Sun Sep 29 10:55:57 EDT 2019
0.447u 0.243s 0:06.58 10.3%	0+0k 0+24io 0pf+0w
