----- GAMESS execution script 'rungms' -----
This job is running on host crcfe01.crc.nd.edu
under operating system Linux at Thu Oct 17 12:46:00 EDT 2019
Available scratch disk space (Kbyte units) at beginning of the job is
Filesystem      1K-blocks  Used  Available Use% Mounted on
AFS            2147483647     0 2147483647   0% /afs
GAMESS temporary binary files will be written to /afs/crc.nd.edu/user/c/cdrisko
GAMESS supplementary output files will be written to /afs/crc.nd.edu/user/c/cdrisko/scr
Copying input file acetaldehyde.inp to your run's scratch directory...

 Distributed Data Interface kickoff program.
 Initiating 1 compute processes on 1 nodes to run the following command:
 /afs/crc.nd.edu/x86_64_linux/g/gamess/nov-2017/gamess/gamess.00.x acetaldehyde 

          ******************************************************
          *         GAMESS VERSION = 11 NOV 2017 (R3)         *
          *             FROM IOWA STATE UNIVERSITY             *
          * M.W.SCHMIDT, K.K.BALDRIDGE, J.A.BOATZ, S.T.ELBERT, *
          *   M.S.GORDON, J.H.JENSEN, S.KOSEKI, N.MATSUNAGA,   *
          *          K.A.NGUYEN, S.J.SU, T.L.WINDUS,           *
          *       TOGETHER WITH M.DUPUIS, J.A.MONTGOMERY       *
          *         J.COMPUT.CHEM.  14, 1347-1363(1993)        *
          **************** 64 BIT INTEL VERSION ****************

  SINCE 1993, STUDENTS AND POSTDOCS WORKING AT IOWA STATE UNIVERSITY
  AND ALSO IN THEIR VARIOUS JOBS AFTER LEAVING ISU HAVE MADE IMPORTANT
  CONTRIBUTIONS TO THE CODE:
     IVANA ADAMOVIC, CHRISTINE AIKENS, YURI ALEXEEV, POOJA ARORA,
     ANDREY ASADCHEV, ROB BELL, PRADIPTA BANDYOPADHYAY, JONATHAN BENTZ,
     BRETT BODE, KURT BRORSEN, CALEB CARLIN, GALINA CHABAN, WEI CHEN,
     CHEOL HO CHOI, PAUL DAY, ALBERT DEFUSCO, NUWAN DESILVA, TIM DUDLEY,
     DMITRI FEDOROV, ALEX FINDLATER, GRAHAM FLETCHER, MARK FREITAG,
     KURT GLAESEMANN, ANASTASIA GUININA,
     DAN KEMP, GRANT MERRILL, NORIYUKI MINEZAWA, JONATHAN MULLIN,
     TAKESHI NAGATA, SEAN NEDD, HEATHER NETZLOFF, BOSILJKA NJEGIC, RYAN OLSON,
     MIKE PAK, BUU PHAM,
     SPENCER PRUITT, LUKE ROSKOP, JIM SHOEMAKER, LYUDMILA SLIPCHENKO,
     TONY SMITH, SAROM SOK LEANG, JIE SONG, TETSUYA TAKETSUGU, SIMON WEBB,
     PENG XU, SOOHAENG YOO, FEDERICO ZAHARIEV

  ADDITIONAL CODE HAS BEEN PROVIDED BY COLLABORATORS IN OTHER GROUPS:
     IOWA STATE UNIVERSITY:
          JOE IVANIC, AARON WEST, LAIMUTIS BYTAUTAS, KLAUS RUEDENBERG
     UNIVERSITY OF TOKYO: KIMIHIKO HIRAO, TAKAHITO NAKAJIMA,
          TAKAO TSUNEDA, MUNEAKI KAMIYA, SUSUMU YANAGISAWA,
          KIYOSHI YAGI, MAHITO CHIBA, SEIKEN TOKURA, NAOAKI KAWAKAMI
     UNIVERSITY OF AARHUS: FRANK JENSEN
     UNIVERSITY OF IOWA: VISVALDAS KAIRYS, HUI LI
     NATIONAL INST. OF STANDARDS AND TECHNOLOGY: WALT STEVENS, DAVID GARMER
     UNIVERSITY OF PISA: BENEDETTA MENNUCCI, JACOPO TOMASI
     UNIVERSITY OF MEMPHIS: HENRY KURTZ, PRAKASHAN KORAMBATH
     UNIVERSITY OF ALBERTA: TOBY ZENG, MARIUSZ KLOBUKOWSKI
     UNIVERSITY OF NEW ENGLAND: MARK SPACKMAN
     MIE UNIVERSITY: HIROAKI UMEDA
     NAT. INST. OF ADVANCED INDUSTRIAL SCIENCE AND TECHNOLOGY: KAZUO KITAURA
     MICHIGAN STATE UNIVERSITY:
          KAROL KOWALSKI, MARTA WLOCH, JEFFREY GOUR, JESSE LUTZ,
          WEI LI, PIOTR PIECUCH
     UNIVERSITY OF SILESIA: MONIKA MUSIAL, STANISLAW KUCHARSKI
     FACULTES UNIVERSITAIRES NOTRE-DAME DE LA PAIX:
          OLIVIER QUINET, BENOIT CHAMPAGNE
     UNIVERSITY OF CALIFORNIA - SANTA BARBARA: BERNARD KIRTMAN
     INSTITUTE FOR MOLECULAR SCIENCE:
          KAZUYA ISHIMURA, MICHIO KATOUDA, AND SHIGERU NAGASE
     UNIVERSITY OF NOTRE DAME: ANNA POMOGAEVA, DAN CHIPMAN
     KYUSHU UNIVERSITY:
          HARUYUKI NAKANO,
          FENG LONG GU, JACEK KORCHOWIEC, MARCIN MAKOWSKI, AND YURIKO AOKI,
          HIROTOSHI MORI AND EISAKU MIYOSHI
     PENNSYLVANIA STATE UNIVERSITY:
          TZVETELIN IORDANOV, CHET SWALINA, JONATHAN SKONE,
          SHARON HAMMES-SCHIFFER
     WASEDA UNIVERSITY:
          MASATO KOBAYASHI, TOMOKO AKAMA, TSUGUKI TOUMA,
          TAKESHI YOSHIKAWA, YASUHIRO IKABATA, JUNJI SEINO,
          YUYA NAKAJIMA, HIROMI NAKAI
     NANJING UNIVERSITY: SHUHUA LI
     UNIVERSITY OF NEBRASKA:
          PEIFENG SU, DEJUN SI, NANDUN THELLAMUREGE, YALI WANG, HUI LI
     UNIVERSITY OF ZURICH: ROBERTO PEVERATI, KIM BALDRIDGE
     N. COPERNICUS UNIVERSITY AND JACKSON STATE UNIVERSITY:
          MARIA BARYSZ
     UNIVERSITY OF COPENHAGEN: Jimmy Kromann, CASPER STEINMANN
     TOKYO INSTITUTE OF TECHNOLOGY: HIROYA NAKATA
     NAGOYA UNIVERSITY: YOSHIO NISHIMOTO, STEPHAN IRLE
     MOSCOW STATE UNIVERSITY: VLADIMIR MIRONOV

 EXECUTION OF GAMESS BEGUN Thu Oct 17 12:46:00 2019

            ECHO OF THE FIRST FEW INPUT CARDS -
 INPUT CARD> $CONTRL SCFTYP=RHF DFTTYP=B3LYP RUNTYP=ENERGY                                  
 INPUT CARD>       ISPHER=1 MULT=1 COORD=ZMT NZVAR=15 $END                                  
 INPUT CARD> $BASIS GBASIS=N31 NGAUSS=6 NDFUNC=1 $END                                       
 INPUT CARD> $STATPT IFREEZ(1)=9 $END                                                       
 INPUT CARD> $DATA                                                                          
 INPUT CARD>Title Single Point Energy Calculation of Acetaldehyde                           
 INPUT CARD>C1                                                                              
 INPUT CARD>C                                                                               
 INPUT CARD>C      1   1.5086892                                                            
 INPUT CARD>O      2   1.2107245  1  124.7161                                               
 INPUT CARD>H      2   1.1145804  1  114.7739  3  180.0000  0                               
 INPUT CARD>H      1   1.0926781  2  110.5176  3  70.      0                                
 INPUT CARD>H      1   1.0983769  2  109.8265  3  121.4889  0                               
 INPUT CARD>H      1   1.0983769  2  109.8265  3 -121.4889  0                               
 INPUT CARD> $END                                                                           
    1000000 WORDS OF MEMORY AVAILABLE

     BASIS OPTIONS
     -------------
     GBASIS=N31          IGAUSS=       6      POLAR=POPN31  
     NDFUNC=       1     NFFUNC=       0     DIFFSP=       F
     NPFUNC=       0      DIFFS=       F     BASNAM=        


     RUN TITLE
     ---------
 Title Single Point Energy Calculation of Acetaldehyde                           

 THE POINT GROUP OF THE MOLECULE IS C1      
 THE ORDER OF THE PRINCIPAL AXIS IS     0

 YOUR FULLY SUBSTITUTED Z-MATRIX IS
 C   
 C      1   1.5086892
 O      2   1.2107245  1  124.7161
 H      2   1.1145804  1  114.7739  3  180.0000  0
 H      1   1.0926781  2  110.5176  3   70.0000  0
 H      1   1.0983769  2  109.8265  3  121.4889  0
 H      1   1.0983769  2  109.8265  3 -121.4889  0

 THE MOMENTS OF INERTIA ARE (AMU-ANGSTROM**2)
 IXX=     8.555   IYY=    51.710   IZZ=    55.622

 ATOM      ATOMIC                      COORDINATES (BOHR)
           CHARGE         X                   Y                   Z
 C           6.0    -2.3701003725        0.3457882095        0.1741571890
 C           6.0     0.2425712601       -0.7630117910       -0.0955887890
 O           8.0     2.1872342726        0.4336578541        0.0490686295
 H           1.0     0.2881254501       -2.8384646121       -0.4515606748
 H           1.0    -2.8243834588        1.5322372486       -1.4536086011
 H           1.0    -3.4727339841       -0.0239443724       -1.5450701170
 H           1.0    -3.3718687623       -0.5844814717        1.7359843263

          INTERNUCLEAR DISTANCES (ANGS.)
          ------------------------------

                1 C          2 C          3 O          4 H          5 H     

   1 C       0.0000000    1.5086892 *  2.4129941 *  2.2198436 *  1.0926781 *
   2 C       1.5086892 *  0.0000000    1.2107245 *  1.1145804 *  2.1507392 *
   3 O       2.4129941 *  1.2107245 *  0.0000000    2.0194911 *  2.8290564 *
   4 H       2.2198436 *  1.1145804 *  2.0194911 *  0.0000000    2.8884958 *
   5 H       1.0926781 *  2.1507392 *  2.8290564 *  2.8884958 *  0.0000000  
   6 H       1.0983769 *  2.1463151 *  3.1210656    2.5522231 *  0.8934206 *
   7 H       1.0983769 *  2.1463151 *  3.1210656    2.5522231 *  2.0463320 *

                6 H          7 H     

   1 C       1.0983769 *  1.0983769 *
   2 C       2.1463151 *  2.1463151 *
   3 O       3.1210656    3.1210656  
   4 H       2.5522231 *  2.5522231 *
   5 H       0.8934206 *  2.0463320 *
   6 H       0.0000000    1.7622233 *
   7 H       1.7622233 *  0.0000000  

  * ... LESS THAN  3.000


     ATOMIC BASIS SET
     ----------------
 THE CONTRACTED PRIMITIVE FUNCTIONS HAVE BEEN UNNORMALIZED
 THE CONTRACTED BASIS FUNCTIONS ARE NOW NORMALIZED TO UNITY

  SHELL TYPE  PRIMITIVE        EXPONENT          CONTRACTION COEFFICIENT(S)

 C         

      1   S       1          3047.5248800    0.001834737132
      1   S       2           457.3695180    0.014037322813
      1   S       3           103.9486850    0.068842622264
      1   S       4            29.2101553    0.232184443216
      1   S       5             9.2866630    0.467941348435
      1   S       6             3.1639270    0.362311985337

      2   L       7             7.8682723   -0.119332419775    0.068999066591
      2   L       8             1.8812885   -0.160854151696    0.316423960957
      2   L       9             0.5442493    1.143456437840    0.744308290898

      3   L      10             0.1687145    1.000000000000    1.000000000000

      4   D      11             0.8000000    1.000000000000

 C         

      5   S      12          3047.5248800    0.001834737132
      5   S      13           457.3695180    0.014037322813
      5   S      14           103.9486850    0.068842622264
      5   S      15            29.2101553    0.232184443216
      5   S      16             9.2866630    0.467941348435
      5   S      17             3.1639270    0.362311985337

      6   L      18             7.8682723   -0.119332419775    0.068999066591
      6   L      19             1.8812885   -0.160854151696    0.316423960957
      6   L      20             0.5442493    1.143456437840    0.744308290898

      7   L      21             0.1687145    1.000000000000    1.000000000000

      8   D      22             0.8000000    1.000000000000

 O         

      9   S      23          5484.6716600    0.001831074430
      9   S      24           825.2349460    0.013950172200
      9   S      25           188.0469580    0.068445078098
      9   S      26            52.9645000    0.232714335992
      9   S      27            16.8975704    0.470192897984
      9   S      28             5.7996353    0.358520852987

     10   L      29            15.5396162   -0.110777549525    0.070874268231
     10   L      30             3.5999336   -0.148026262701    0.339752839147
     10   L      31             1.0137618    1.130767015354    0.727158577316

     11   L      32             0.2700058    1.000000000000    1.000000000000

     12   D      33             0.8000000    1.000000000000

 H         

     13   S      34            18.7311370    0.033494604338
     13   S      35             2.8253944    0.234726953484
     13   S      36             0.6401217    0.813757326146

     14   S      37             0.1612778    1.000000000000

 H         

     15   S      38            18.7311370    0.033494604338
     15   S      39             2.8253944    0.234726953484
     15   S      40             0.6401217    0.813757326146

     16   S      41             0.1612778    1.000000000000

 H         

     17   S      42            18.7311370    0.033494604338
     17   S      43             2.8253944    0.234726953484
     17   S      44             0.6401217    0.813757326146

     18   S      45             0.1612778    1.000000000000

 H         

     19   S      46            18.7311370    0.033494604338
     19   S      47             2.8253944    0.234726953484
     19   S      48             0.6401217    0.813757326146

     20   S      49             0.1612778    1.000000000000

 TOTAL NUMBER OF BASIS SET SHELLS             =   20
 NUMBER OF CARTESIAN GAUSSIAN BASIS FUNCTIONS =   53
 NOTE: THIS RUN WILL RESTRICT THE MO VARIATION SPACE TO SPHERICAL HARMONICS.
 THE NUMBER OF ORBITALS KEPT IN THE VARIATIONAL SPACE WILL BE PRINTED LATER.
 NUMBER OF ELECTRONS                          =   24
 CHARGE OF MOLECULE                           =    0
 SPIN MULTIPLICITY                            =    1
 NUMBER OF OCCUPIED ORBITALS (ALPHA)          =   12
 NUMBER OF OCCUPIED ORBITALS (BETA )          =   12
 TOTAL NUMBER OF ATOMS                        =    7
 THE NUCLEAR REPULSION ENERGY IS       69.5888082434

     LEBEDEV GRID-BASED DFT OPTIONS
     ------------------------------
     DFTTYP=B3LYP   
     NRAD  =      96     NLEB  =     302
     NRAD0 =      24     NLEB0 =     110
     SWOFF =    5.00E-03 (PURE SCF -> DFT)
     SWITCH=    3.00E-04 (COARSE -> TIGHT GRID)
     THRESH=    0.00E+00 GTHRE=    1.00E+00

 GRIMME'S EMPIRICAL DISPERSION CORRECTION= F

     $CONTRL OPTIONS
     ---------------
 SCFTYP=RHF          RUNTYP=ENERGY       EXETYP=RUN     
 MPLEVL=       0     CITYP =NONE         CCTYP =NONE         VBTYP =NONE    
 DFTTYP=B3LYP        TDDFT =NONE    
 MULT  =       1     ICHARG=       0     NZVAR =      15     COORD =ZMT     
 PP    =NONE         RELWFN=NONE         LOCAL =NONE         NUMGRD=       F
 ISPHER=       1     NOSYM =       0     MAXIT =      30     UNITS =ANGS    
 PLTORB=       F     MOLPLT=       F     AIMPAC=       F     FRIEND=        
 NPRINT=       7     IREST =       0     GEOM  =INPUT   
 NORMF =       0     NORMP =       0     ITOL  =      20     ICUT  =       9
 INTTYP=BEST         GRDTYP=BEST         QMTTOL= 1.0E-06

     $SYSTEM OPTIONS
     ---------------
  REPLICATED MEMORY=     1000000 WORDS (ON EVERY NODE).
 DISTRIBUTED MEMDDI=           0 MILLION WORDS IN AGGREGATE,
 MEMDDI DISTRIBUTED OVER   1 PROCESSORS IS           0 WORDS/PROCESSOR.
 TOTAL MEMORY REQUESTED ON EACH PROCESSOR=     1000000 WORDS.
 TIMLIM=      525600.00 MINUTES, OR     365.0 DAYS.
 PARALL= F  BALTYP=  DLB     KDIAG=    0  COREFL= F
 MXSEQ2=     300 MXSEQ3=     150  mem10=         0

          ----------------
          PROPERTIES INPUT
          ----------------

     MOMENTS            FIELD           POTENTIAL          DENSITY
 IEMOM =       1   IEFLD =       0   IEPOT =       0   IEDEN =       0
 WHERE =COMASS     WHERE =NUCLEI     WHERE =NUCLEI     WHERE =NUCLEI  
 OUTPUT=BOTH       OUTPUT=BOTH       OUTPUT=BOTH       OUTPUT=BOTH    
 IEMINT=       0   IEFINT=       0                     IEDINT=       0
                                                       MORB  =       0
          EXTRAPOLATION IN EFFECT
          DIIS IN EFFECT
 ORBITAL PRINTING OPTION: NPREO=     1    53     2     1

     -------------------------------
     INTEGRAL TRANSFORMATION OPTIONS
     -------------------------------
     NWORD  =            0
     CUTOFF = 1.0E-09     MPTRAN =       0
     DIRTRF =       F     AOINTS =DUP     

          ----------------------
          INTEGRAL INPUT OPTIONS
          ----------------------
 NOPK  =       1 NORDER=       0 SCHWRZ=       T

   --- ENCODED Z MATRIX ---
 COORD  TYPE   I   J   K   L   M   N
    1      1    2   1
    2      1    3   2
    3      2    3   2   1
    4      1    4   2
    5      2    4   2   1
    6      3    4   2   1   3
    7      1    5   1
    8      2    5   1   2
    9      3    5   1   2   3
   10      1    6   1
   11      2    6   1   2
   12      3    6   1   2   3
   13      1    7   1
   14      2    7   1   2
   15      3    7   1   2   3

 THE DETERMINANT OF THE G MATRIX IS 10**(    -8)


                     --------------------
                     INTERNAL COORDINATES
                     --------------------

                 - - ATOMS - -         COORDINATE      COORDINATE
 NO.   TYPE    I  J  K  L  M  N        (BOHR,RAD)       (ANG,DEG)
 ----------------------------------------------------------------
   1 STRETCH   2  1                     2.8510092       1.5086892
   2 STRETCH   3  2                     2.2879376       1.2107245
   3 BEND      3  2  1                  2.1767066     124.7161000
   4 STRETCH   4  2                     2.1062515       1.1145804
   5 BEND      4  2  1                  2.0031825     114.7739000
   6 TORSION   4  2  1  3               3.1415927     180.0000000
   7 STRETCH   5  1                     2.0648622       1.0926781
   8 BEND      5  1  2                  1.9288960     110.5176000
   9 TORSION   5  1  2  3               1.2217305      70.0000000
  10 STRETCH   6  1                     2.0756314       1.0983769
  11 BEND      6  1  2                  1.9168340     109.8265000
  12 TORSION   6  1  2  3               2.1203813     121.4889000
  13 STRETCH   7  1                     2.0756314       1.0983769
  14 BEND      7  1  2                  1.9168340     109.8265000
  15 TORSION   7  1  2  3              -2.1203813    -121.4889000

     ------------------------------------------
     THE POINT GROUP IS C1 , NAXIS= 0, ORDER= 1
     ------------------------------------------

 -- VARIATIONAL SPACE WILL BE RESTRICTED TO PURE SPHERICAL HARMONICS ONLY --
 AFTER EXCLUDING CONTAMINANT COMBINATIONS FROM THE CARTESIAN GAUSSIAN BASIS
 SET, THE NUMBER OF SPHERICAL HARMONICS KEPT IN THE VARIATION SPACE IS   50

     DIMENSIONS OF THE SYMMETRY SUBSPACES ARE
 A   =   50

 ..... DONE SETTING UP THE RUN .....
 STEP CPU TIME =     0.01 TOTAL CPU TIME =          0.0 (      0.0 MIN)
 TOTAL WALL CLOCK TIME=          0.0 SECONDS, CPU UTILIZATION IS    50.00%

          ********************
          1 ELECTRON INTEGRALS
          ********************
 ...... END OF ONE-ELECTRON INTEGRALS ......
 STEP CPU TIME =     0.00 TOTAL CPU TIME =          0.0 (      0.0 MIN)
 TOTAL WALL CLOCK TIME=          0.0 SECONDS, CPU UTILIZATION IS    33.33%

          -------------
          GUESS OPTIONS
          -------------
          GUESS =HUCKEL            NORB  =       0          NORDER=       0
          MIX   =       F          PRTMO =       F          PUNMO =       F
          TOLZ  = 1.0E-08          TOLE  = 1.0E-05
          SYMDEN=       F          PURIFY=       F

 INITIAL GUESS ORBITALS GENERATED BY HUCKEL   ROUTINE.
 HUCKEL GUESS REQUIRES     27154 WORDS.

 STATISTICS FOR GENERATION OF SYMMETRY ORBITAL -Q- MATRIX
 NUMBER OF CARTESIAN ATOMIC ORBITALS=         53
 NUMBER OF SPHERICAL CONTAMINANTS DROPPED=     3
 NUMBER OF LINEARLY DEPENDENT MOS DROPPED=     0
 TOTAL NUMBER OF MOS IN VARIATION SPACE=      50

 SYMMETRIES FOR INITIAL GUESS ORBITALS FOLLOW.   BOTH SET(S).
    12 ORBITALS ARE OCCUPIED (    3 CORE ORBITALS).
     4=A        5=A        6=A        7=A        8=A        9=A       10=A   
    11=A       12=A       13=A       14=A       15=A       16=A       17=A   
    18=A       19=A       20=A       21=A       22=A   
 ...... END OF INITIAL ORBITAL SELECTION ......
 STEP CPU TIME =     0.01 TOTAL CPU TIME =          0.0 (      0.0 MIN)
 TOTAL WALL CLOCK TIME=          0.0 SECONDS, CPU UTILIZATION IS    66.67%

                    ----------------------
                    AO INTEGRAL TECHNOLOGY
                    ----------------------
     S,P,L SHELL ROTATED AXIS INTEGRALS, REPROGRAMMED BY
        KAZUYA ISHIMURA (IMS) AND JOSE SIERRA (SYNSTAR).
     S,P,D,L SHELL ROTATED AXIS INTEGRALS PROGRAMMED BY
        KAZUYA ISHIMURA (INSTITUTE FOR MOLECULAR SCIENCE).
     S,P,D,F,G SHELL TO TOTAL QUARTET ANGULAR MOMENTUM SUM 5,
        ERIC PROGRAM BY GRAHAM FLETCHER (ELORET AND NASA ADVANCED
        SUPERCOMPUTING DIVISION, AMES RESEARCH CENTER).
     S,P,D,F,G,L SHELL GENERAL RYS QUADRATURE PROGRAMMED BY
        MICHEL DUPUIS (PACIFIC NORTHWEST NATIONAL LABORATORY).

          --------------------
          2 ELECTRON INTEGRALS
          --------------------

 THE -PK- OPTION IS OFF, THE INTEGRALS ARE NOT IN SUPERMATRIX FORM.
 STORING   15000 INTEGRALS/RECORD ON DISK, USING 12 BYTES/INTEGRAL.
 TWO ELECTRON INTEGRAL EVALUATION REQUIRES   90606 WORDS OF MEMORY.
 SCHWARZ INEQUALITY OVERHEAD:      1430 INTEGRALS, T=        0.00
 II,JST,KST,LST =  1  1  1  1 NREC =         1 INTLOC =    1
 II,JST,KST,LST =  2  1  1  1 NREC =         1 INTLOC =    2
 II,JST,KST,LST =  3  1  1  1 NREC =         1 INTLOC =   34
 II,JST,KST,LST =  4  1  1  1 NREC =         1 INTLOC =  214
 II,JST,KST,LST =  5  1  1  1 NREC =         1 INTLOC = 1189
 II,JST,KST,LST =  6  1  1  1 NREC =         1 INTLOC = 3238
 II,JST,KST,LST =  7  1  1  1 NREC =         2 INTLOC =  987
 II,JST,KST,LST =  8  1  1  1 NREC =         3 INTLOC = 8246
 II,JST,KST,LST =  9  1  1  1 NREC =         7 INTLOC = 6184
 II,JST,KST,LST = 10  1  1  1 NREC =         8 INTLOC = 3678
 II,JST,KST,LST = 11  1  1  1 NREC =        13 INTLOC = 1353
 II,JST,KST,LST = 12  1  1  1 NREC =        20 INTLOC =  136
 II,JST,KST,LST = 13  1  1  1 NREC =        34 INTLOC =11290
 II,JST,KST,LST = 14  1  1  1 NREC =        37 INTLOC =14299
 II,JST,KST,LST = 15  1  1  1 NREC =        41 INTLOC = 5883
 II,JST,KST,LST = 16  1  1  1 NREC =        44 INTLOC =14268
 II,JST,KST,LST = 17  1  1  1 NREC =        48 INTLOC =12663
 II,JST,KST,LST = 18  1  1  1 NREC =        52 INTLOC =11835
 II,JST,KST,LST = 19  1  1  1 NREC =        57 INTLOC = 2585
 II,JST,KST,LST = 20  1  1  1 NREC =        61 INTLOC = 9279
 SCHWARZ INEQUALITY TEST SKIPPED         819 INTEGRAL BLOCKS.
 TOTAL NUMBER OF NONZERO TWO-ELECTRON INTEGRALS =              983067
         66 INTEGRAL RECORDS WERE STORED ON DISK FILE  8.
  ...... END OF TWO-ELECTRON INTEGRALS .....
 STEP CPU TIME =     0.15 TOTAL CPU TIME =          0.2 (      0.0 MIN)
 TOTAL WALL CLOCK TIME=          0.2 SECONDS, CPU UTILIZATION IS    89.47%

          --------------------------
             R-B3LYP SCF CALCULATION
          --------------------------

     NUCLEAR ENERGY =        69.5888082434
     MAXIT =   30     NPUNCH=    2
     EXTRAP=T  DAMP=F  SHIFT=F  RSTRCT=F  DIIS=T  DEM=F  SOSCF=F
         DENSITY MATRIX CONVERGENCE THRESHOLD=  1.00E-05
     COARSE -> FINE DFT GRID SWITCH THRESHOLD=  3.00E-04 (SWITCH IN $DFT)
                   HF -> DFT SWITCH THRESHOLD=  5.00E-03 (SWOFF IN $DFT)
     MEMORY REQUIRED FOR RHF ITERS=    307426 WORDS.

 DFT CODE IS SWITCHING FROM THE FINE GRID NRAD= 96,  NLEB=  302
                      TO THE COARSE GRID NRAD0= 24, NLEB0=  110

     EXCHANGE FUNCTIONAL   =B88&HFX   
     CORRELATION FUNCTIONAL=LYP88&VWN5
     DFT THRESHOLD         =.197E-07
     GRID CHANGE THRESHOLD =.300E-03
 FOR AN EULER-MACLAURIN QUADRATURE USING  96 RADIAL POINTS:
 SMALLEST GAUSSIAN PRIMITIVE EXPONENT=        0.1612777588 OF TYPE -S-
 ON ATOM NUMBER   4 HAS RADIAL NORMALIZATION=  1.000000
  LARGEST GAUSSIAN PRIMITIVE EXPONENT=     5484.6716600000 OF TYPE -S-
 ON ATOM NUMBER   3 HAS RADIAL NORMALIZATION=  1.000000
 DFT IS SWITCHED OFF, PERFORMING PURE SCF UNTIL SWOFF THRESHOLD IS REACHED.

 ITER EX DEM     TOTAL ENERGY        E CHANGE  DENSITY CHANGE    DIIS ERROR
   1  0  0     -152.2756322838  -152.2756322838   0.260667478   0.524085098
          * * *   INITIATING DIIS PROCEDURE   * * *
   2  1  0     -152.7153416285    -0.4397093447   0.135485956   0.093028596
   3  2  0     -152.7462141862    -0.0308725577   0.069718980   0.077471078
   4  3  0     -152.7678487798    -0.0216345936   0.025365375   0.009281948
   5  4  0     -152.7687478428    -0.0008990630   0.008086032   0.002918407
   6  5  0     -152.7688306005    -0.0000827577   0.004229832   0.000718776
 CONVERGED TO SWOFF, SO DFT CALCULATION IS NOW SWITCHED ON.
          * * *   INITIATING DIIS PROCEDURE   * * *
   7  6  0     -153.5925991707    -0.8237685702   0.076628124   0.050126656
   8  7  0     -153.6032441365    -0.0106449658   0.056284090   0.027111722
   9  8  0     -153.6006762563     0.0025678802   0.042327907   0.037293393
  10  9  0     -153.6064258414    -0.0057495851   0.007257734   0.009129178
  11 10  0     -153.6066040047    -0.0001781633   0.002077239   0.000812796
  12 11  0     -153.6066084698    -0.0000044651   0.000394785   0.000195625
  13 12  0     -153.6066087061    -0.0000002363   0.000071551   0.000061418
 DFT CODE IS SWITCHING BACK TO THE FINE GRID
          * * *   INITIATING DIIS PROCEDURE   * * *
  14 13  0     -153.6062124949     0.0003962111   0.002178946   0.001856906
  15 14  0     -153.6062207124    -0.0000082174   0.000991499   0.000346482
  16 15  0     -153.6062199578     0.0000007546   0.000601102   0.000500747
  17 16  0     -153.6062212404    -0.0000012826   0.000075505   0.000056521
  18 17  0     -153.6062212551    -0.0000000147   0.000043637   0.000027524
  19 18  0     -153.6062212583    -0.0000000032   0.000012346   0.000005257
  20 19  0     -153.6062212585    -0.0000000002   0.000002103   0.000001448
  21 20  0     -153.6062212585    -0.0000000000   0.000000138   0.000000109

          -----------------
          DENSITY CONVERGED
          -----------------
     TIME TO FORM FOCK OPERATORS=       5.9 SECONDS (       0.3 SEC/ITER)
     TIME TO SOLVE SCF EQUATIONS=       0.0 SECONDS (       0.0 SEC/ITER)

 FINAL R-B3LYP ENERGY IS     -153.6062212585 AFTER  21 ITERATIONS
 DFT EXCHANGE + CORRELATION ENERGY =       -16.8175058603
 TOTAL ELECTRON NUMBER             =        23.9999942222

          ------------
          EIGENVECTORS
          ------------

                      1          2          3          4          5
                  -19.1424   -10.2710   -10.1882    -1.0400    -0.7979
                     A          A          A          A          A   
    1  C  1  S   -0.000007   0.000960   0.995131  -0.018408  -0.171174
    2  C  1  S   -0.000484  -0.001015   0.036032   0.035687   0.334837
    3  C  1  X   -0.000257  -0.000945  -0.000390   0.023704  -0.030475
    4  C  1  Y    0.000070   0.000373  -0.000890  -0.005142  -0.018987
    5  C  1  Z    0.000006   0.000000  -0.001303  -0.005857  -0.121835
    6  C  1  S    0.000613   0.005590  -0.027752   0.015923   0.253669
    7  C  1  X   -0.001143   0.002719  -0.000551   0.004439  -0.013634
    8  C  1  Y   -0.001559  -0.002050   0.003389   0.005758  -0.013097
    9  C  1  Z   -0.000011  -0.000183   0.002170  -0.001722  -0.026345
   10  C  1 XX   -0.000374  -0.000988  -0.000005   0.004609  -0.004403
   11  C  1 YY    0.000362   0.000272  -0.000120  -0.003288  -0.012981
   12  C  1 ZZ    0.000012   0.000716   0.000126  -0.001322   0.017384
   13  C  1 XY   -0.000168   0.000685  -0.000030  -0.002085  -0.003497
   14  C  1 XZ   -0.000032   0.000192   0.000108  -0.000524   0.009673
   15  C  1 YZ    0.000097  -0.000166  -0.000277  -0.000774  -0.010945
   16  C  2  S    0.000231   0.995151  -0.000914  -0.117273  -0.052614
   17  C  2  S    0.000032   0.035736  -0.001162   0.223752   0.102973
   18  C  2  X   -0.000048   0.001699   0.000448   0.155388  -0.139327
   19  C  2  Y   -0.000231   0.001325  -0.000428   0.099194  -0.001077
   20  C  2  Z   -0.000036   0.000202  -0.000099   0.011677  -0.007296
   21  C  2  S    0.008889  -0.016158   0.005725   0.085697   0.083473
   22  C  2  X    0.005224   0.005875  -0.004220  -0.013553  -0.026804
   23  C  2  Y    0.005102   0.002455   0.000839  -0.017529  -0.001445
   24  C  2  Z    0.000649   0.000201   0.000016  -0.003010  -0.003585
   25  C  2 XX   -0.000541   0.001331  -0.000878   0.016630   0.004379
   26  C  2 YY    0.000262  -0.000166   0.000425  -0.001641  -0.000415
   27  C  2 ZZ    0.000280  -0.001165   0.000452  -0.014990  -0.003964
   28  C  2 XY   -0.000788   0.001272   0.000705   0.022481  -0.011639
   29  C  2 XZ   -0.000097   0.000136   0.000201   0.002654  -0.000404
   30  C  2 YZ    0.000014   0.000160  -0.000035   0.001847  -0.000088
   31  O  3  S    0.995115  -0.000049  -0.000026  -0.194565   0.041073
   32  O  3  S    0.029436   0.000445  -0.000622   0.429859  -0.093191
   33  O  3  X   -0.001951   0.000965   0.000152  -0.139143  -0.003691
   34  O  3  Y   -0.001193   0.000529  -0.000033  -0.085336   0.015923
   35  O  3  Z   -0.000159   0.000053  -0.000028  -0.010893  -0.000343
   36  O  3  S   -0.019420  -0.005828   0.001750   0.375057  -0.094904
   37  O  3  X    0.005083   0.003654  -0.000443  -0.040835  -0.003434
   38  O  3  Y    0.002754   0.002713  -0.000567  -0.024197   0.002463
   39  O  3  Z    0.000338   0.000368   0.000001  -0.003452   0.000202
   40  O  3 XX   -0.000184  -0.001107   0.000007   0.005837   0.001840
   41  O  3 YY    0.000104   0.000006   0.000209  -0.003037  -0.001058
   42  O  3 ZZ    0.000081   0.001101  -0.000216  -0.002800  -0.000783
   43  O  3 XY   -0.000116  -0.001502   0.000102   0.010086  -0.000548
   44  O  3 XZ   -0.000012  -0.000175   0.000006   0.001523   0.000067
   45  O  3 YZ    0.000005  -0.000170   0.000073  -0.000272   0.000081
   46  H  4  S   -0.000234  -0.000973  -0.000482   0.027881   0.031361
   47  H  4  S    0.001196   0.004937   0.000619  -0.011993   0.002414
   48  H  5  S    0.000099  -0.000426  -0.000925   0.009381   0.194738
   49  H  5  S    0.000186   0.000881   0.002646   0.000397   0.049846
   50  H  6  S   -0.000037  -0.000407  -0.000691   0.008685   0.201249
   51  H  6  S   -0.000592   0.000319   0.005172  -0.000239   0.050115
   52  H  7  S   -0.000077  -0.000506  -0.000805   0.005556   0.085666
   53  H  7  S   -0.000642   0.000567   0.005189   0.000736   0.013224

                      6          7          8          9         10
                   -0.6081    -0.5093    -0.4683    -0.4231    -0.3735
                     A          A          A          A          A   
    1  C  1  S   -0.000179  -0.074765   0.007574   0.005372   0.010581
    2  C  1  S   -0.007779   0.142147  -0.011108  -0.018396  -0.017578
    3  C  1  X    0.177794   0.014446   0.264611   0.184599   0.060717
    4  C  1  Y   -0.130119  -0.112578   0.085481  -0.046316   0.064997
    5  C  1  Z    0.149142   0.280626  -0.115017  -0.101652  -0.073603
    6  C  1  S    0.016211   0.208309  -0.025050   0.014163  -0.041400
    7  C  1  X    0.050785  -0.008653   0.115617   0.099204   0.033588
    8  C  1  Y   -0.031892  -0.041210   0.048097  -0.034505   0.036101
    9  C  1  Z    0.030693   0.089122  -0.049111  -0.051524  -0.022449
   10  C  1 XX    0.008935   0.005892   0.007156  -0.001460  -0.000714
   11  C  1 YY    0.006808   0.001457  -0.004118   0.003713   0.000266
   12  C  1 ZZ   -0.015743  -0.007348  -0.003038  -0.002253   0.000448
   13  C  1 XY   -0.006943   0.008001  -0.008624  -0.009767  -0.007317
   14  C  1 XZ   -0.015544  -0.013541  -0.002405  -0.003273   0.013285
   15  C  1 YZ    0.005229  -0.008725   0.003273   0.008456  -0.001702
   16  C  2  S   -0.140202   0.049378  -0.037674   0.012766  -0.004584
   17  C  2  S    0.293010  -0.105350   0.088379  -0.040025   0.010108
   18  C  2  X   -0.131522  -0.125021  -0.105153  -0.340771  -0.035057
   19  C  2  Y   -0.136529   0.189517   0.335701  -0.104522  -0.076534
   20  C  2  Z    0.011914   0.127485   0.004727  -0.083443   0.329956
   21  C  2  S    0.255282  -0.108014   0.049815   0.008999   0.018321
   22  C  2  X   -0.056849  -0.022033  -0.057565  -0.059733  -0.006749
   23  C  2  Y   -0.069118   0.070821   0.087154  -0.010028  -0.043898
   24  C  2  Z    0.001181   0.057661  -0.014501  -0.044786   0.198144
   25  C  2 XX   -0.006867   0.006409  -0.001728  -0.009367  -0.002791
   26  C  2 YY    0.010253  -0.009711   0.000617   0.007458  -0.000205
   27  C  2 ZZ   -0.003386   0.003302   0.001111   0.001909   0.002996
   28  C  2 XY   -0.007757   0.001038   0.000285  -0.011269  -0.006898
   29  C  2 XZ   -0.004607  -0.004697   0.001285  -0.002534   0.024473
   30  C  2 YZ    0.004724   0.001700  -0.002688  -0.001636   0.013720
   31  O  3  S    0.072578  -0.034703   0.042516  -0.069908  -0.004849
   32  O  3  S   -0.172164   0.079565  -0.098348   0.151587   0.009266
   33  O  3  X   -0.070576   0.022240  -0.279091   0.359166   0.053961
   34  O  3  Y   -0.065182   0.151180   0.104249   0.313383  -0.038271
   35  O  3  Z    0.005059   0.082503  -0.016462  -0.034528   0.493981
   36  O  3  S   -0.188678   0.118553  -0.148044   0.301460   0.027897
   37  O  3  X   -0.047152   0.010301  -0.153049   0.184803   0.028654
   38  O  3  Y   -0.035364   0.077452   0.058700   0.168621  -0.025947
   39  O  3  Z    0.001679   0.040553  -0.007099  -0.020491   0.308520
   40  O  3 XX    0.003562   0.004961   0.019659  -0.007987  -0.001641
   41  O  3 YY    0.001547  -0.007541  -0.014235  -0.003187   0.004485
   42  O  3 ZZ   -0.005109   0.002580  -0.005423   0.011174  -0.002844
   43  O  3 XY    0.006899  -0.008355  -0.001099  -0.017297   0.001944
   44  O  3 XZ   -0.000428  -0.005746   0.001886   0.002197  -0.026717
   45  O  3 YZ    0.000486  -0.004228  -0.000270   0.000320  -0.016378
   46  H  4  S    0.166592  -0.150876  -0.135497   0.051863   0.020096
   47  H  4  S    0.065476  -0.090599  -0.121203   0.054188   0.015765
   48  H  5  S   -0.166615  -0.131943   0.028933  -0.015966   0.066964
   49  H  5  S   -0.082252  -0.076822   0.033935  -0.007368   0.048729
   50  H  6  S   -0.147927  -0.104885  -0.050492  -0.021624   0.026889
   51  H  6  S   -0.075214  -0.085000  -0.049934  -0.016699   0.027419
   52  H  7  S    0.036168   0.211489  -0.158275  -0.106885  -0.095669
   53  H  7  S    0.024464   0.133639  -0.105163  -0.082714  -0.087493

                     11         12         13         14         15
                   -0.2698    -0.2475    -0.0241     0.0646     0.1093
                     A          A          A          A          A   
    1  C  1  S   -0.050981   0.026877   0.021451  -0.133650   0.003436
    2  C  1  S    0.110399  -0.051175  -0.022862   0.174486   0.027353
    3  C  1  X    0.136544  -0.177649   0.031985  -0.186850   0.094561
    4  C  1  Y    0.408325   0.186460  -0.040091   0.075067   0.136543
    5  C  1  Z    0.158332   0.085943   0.016468  -0.120503   0.298813
    6  C  1  S    0.196054  -0.233237  -0.239111   1.948401  -0.405644
    7  C  1  X    0.049681  -0.147783   0.036685  -0.493735   0.078344
    8  C  1  Y    0.242920   0.161445  -0.103670   0.145584   0.282524
    9  C  1  Z    0.119234   0.083289   0.152524  -0.393402   0.905772
   10  C  1 XX   -0.003053  -0.001683   0.001648   0.008061   0.017192
   11  C  1 YY    0.003376   0.003733   0.003403  -0.009096  -0.006357
   12  C  1 ZZ   -0.000322  -0.002049  -0.005051   0.001034  -0.010835
   13  C  1 XY   -0.011310   0.003427  -0.007179  -0.000417   0.005667
   14  C  1 XZ   -0.010861   0.001463   0.029255   0.021697   0.005121
   15  C  1 YZ   -0.026369  -0.009493  -0.007071   0.005932   0.025922
   16  C  2  S    0.003767   0.000812  -0.004018   0.007673   0.010640
   17  C  2  S   -0.013483  -0.016702   0.010999   0.028489  -0.036023
   18  C  2  X    0.007177   0.082994  -0.002593   0.018643  -0.011965
   19  C  2  Y   -0.050594  -0.136344  -0.076894  -0.039690   0.116841
   20  C  2  Z   -0.003948  -0.018476   0.492218   0.043902  -0.037706
   21  C  2  S    0.064127   0.064252   0.022941  -0.182193   0.025578
   22  C  2  X    0.068883  -0.055883   0.001053   0.047704  -0.022727
   23  C  2  Y    0.000163   0.035849  -0.090967  -0.059850   0.348529
   24  C  2  Z    0.001650   0.016054   0.526023   0.127585  -0.190584
   25  C  2 XX   -0.000485  -0.040408  -0.000392   0.003426  -0.004188
   26  C  2 YY    0.001371   0.041525   0.003234   0.006703   0.000769
   27  C  2 ZZ   -0.000886  -0.001117  -0.002842  -0.010130   0.003419
   28  C  2 XY   -0.021148   0.014475   0.004536  -0.002829  -0.010244
   29  C  2 XZ   -0.010688   0.000371  -0.025031  -0.001360  -0.006148
   30  C  2 YZ   -0.001180   0.007107  -0.016696   0.004073   0.015692
   31  O  3  S    0.005576   0.001815  -0.000299  -0.006168   0.010695
   32  O  3  S   -0.011518  -0.006271  -0.000312   0.014788  -0.020870
   33  O  3  X    0.192955  -0.261506  -0.010338  -0.034549   0.056698
   34  O  3  Y   -0.146972   0.469490   0.065752   0.031146  -0.034277
   35  O  3  Z   -0.096789   0.053547  -0.425797  -0.051176   0.014565
   36  O  3  S   -0.064816  -0.004755   0.007257   0.061515  -0.152446
   37  O  3  X    0.143082  -0.184406  -0.013448  -0.057668   0.111907
   38  O  3  Y   -0.089590   0.334546   0.067986   0.021986  -0.050757
   39  O  3  Z   -0.070138   0.034143  -0.440787  -0.059913   0.068344
   40  O  3 XX   -0.009600   0.011849   0.000075   0.002758  -0.001774
   41  O  3 YY    0.008761  -0.011928  -0.000495   0.000420   0.000683
   42  O  3 ZZ    0.000839   0.000079   0.000420  -0.003178   0.001091
   43  O  3 XY    0.000133  -0.008080   0.000356   0.001387  -0.003447
   44  O  3 XZ    0.002745  -0.000390  -0.000078  -0.000126  -0.004728
   45  O  3 YZ    0.003279  -0.001611  -0.000186   0.001763   0.003634
   46  H  4  S    0.025486   0.191162  -0.010921   0.044410   0.020100
   47  H  4  S    0.022151   0.305818  -0.031828   0.045770   0.454079
   48  H  5  S    0.142512   0.062921   0.053223  -0.114057  -0.182054
   49  H  5  S    0.305217   0.134352   0.230216  -1.260531  -0.627114
   50  H  6  S   -0.199029  -0.030117   0.095683   0.032238   0.135465
   51  H  6  S   -0.378943  -0.043829   0.219458  -0.605504   1.855329
   52  H  7  S   -0.002935   0.040499  -0.079197  -0.121737  -0.109542
   53  H  7  S    0.002670   0.078303  -0.189274  -0.873228  -0.691692

                     16         17         18         19         20
                    0.1340     0.1805     0.2580     0.2898     0.5306
                     A          A          A          A          A   
    1  C  1  S    0.022912  -0.052625  -0.073450  -0.026525  -0.008972
    2  C  1  S   -0.007279   0.061279   0.047188   0.052878   0.038203
    3  C  1  X   -0.164903  -0.051873   0.130977   0.182807   0.456271
    4  C  1  Y   -0.035483  -0.290415  -0.055390   0.120314  -0.521029
    5  C  1  Z    0.161424   0.241987   0.023046   0.045144  -0.249060
    6  C  1  S   -0.384800   0.852660   1.694692  -0.149753   0.045845
    7  C  1  X   -0.540742  -0.100551   1.671020   0.710119  -0.528260
    8  C  1  Y    0.016634  -1.134183  -0.525514   0.530935   0.485208
    9  C  1  Z    0.640321   0.926861  -0.035944   0.044494   0.245773
   10  C  1 XX    0.009660  -0.007575  -0.032178  -0.037244   0.001229
   11  C  1 YY    0.002094   0.015609  -0.007282   0.025591   0.007367
   12  C  1 ZZ   -0.011753  -0.008034   0.039460   0.011653  -0.008597
   13  C  1 XY   -0.012581   0.002958   0.020833  -0.008387  -0.007032
   14  C  1 XZ   -0.001103  -0.010073   0.000154  -0.002037   0.013670
   15  C  1 YZ    0.002845  -0.012521  -0.007764   0.000328   0.043984
   16  C  2  S   -0.111909   0.062986   0.045031   0.064127   0.038254
   17  C  2  S    0.163928  -0.068161  -0.091669  -0.041759  -0.015601
   18  C  2  X   -0.071507   0.025566   0.378956   0.041860  -0.037660
   19  C  2  Y   -0.270882   0.063464  -0.287563  -0.276337   0.023847
   20  C  2  Z   -0.078780  -0.009510  -0.058082  -0.072906  -0.686345
   21  C  2  S    1.769862  -1.119156  -0.812800  -1.782068   0.180306
   22  C  2  X   -0.264053   0.142769   1.802094  -1.468122   0.212833
   23  C  2  Y   -0.563562   0.262910  -0.750378  -1.444527  -0.167405
   24  C  2  Z   -0.252565  -0.233648  -0.232953  -0.202567   0.740108
   25  C  2 XX   -0.002877   0.013619  -0.006096   0.000479   0.071412
   26  C  2 YY   -0.003882  -0.006282   0.003719   0.010924  -0.008210
   27  C  2 ZZ    0.006760  -0.007337   0.002377  -0.011402  -0.063202
   28  C  2 XY    0.004265   0.012440  -0.011462  -0.000891  -0.023938
   29  C  2 XZ   -0.001287  -0.004818  -0.004729  -0.003597  -0.011152
   30  C  2 YZ    0.003126   0.004863   0.004368   0.009222   0.001155
   31  O  3  S    0.006904  -0.018472   0.032392  -0.098999  -0.006889
   32  O  3  S   -0.017322   0.045711  -0.050304   0.138999   0.043958
   33  O  3  X    0.027265  -0.082240  -0.050658  -0.150579  -0.090088
   34  O  3  Y    0.084336  -0.047348   0.144632  -0.074106   0.025460
   35  O  3  Z    0.041678   0.041961   0.025895  -0.012961  -0.034744
   36  O  3  S   -0.047863   0.167108  -0.641955   2.042401  -0.104914
   37  O  3  X    0.018098  -0.124977  -0.001412  -0.816781  -0.039162
   38  O  3  Y    0.145869  -0.090955   0.442536  -0.385942   0.075128
   39  O  3  Z    0.078358   0.067726   0.089728  -0.033727  -0.059454
   40  O  3 XX   -0.004428   0.002485  -0.011910   0.023122  -0.015914
   41  O  3 YY   -0.001446   0.000288   0.009088   0.003959   0.007604
   42  O  3 ZZ    0.005875  -0.002773   0.002822  -0.027080   0.008310
   43  O  3 XY    0.003840   0.001998  -0.011681   0.039020  -0.019818
   44  O  3 XZ   -0.000499  -0.002259  -0.003048   0.004856   0.038027
   45  O  3 YZ   -0.000639   0.000339   0.002360   0.007099   0.027142
   46  H  4  S   -0.074550   0.038335   0.010926   0.074720   0.066142
   47  H  4  S   -1.657218   0.704698  -0.818920  -0.640890  -0.015682
   48  H  5  S   -0.011785   0.063736   0.038044   0.067408  -0.123902
   49  H  5  S    0.522205   1.757753  -0.199747  -0.485870   0.202742
   50  H  6  S   -0.003331  -0.067095   0.122270  -0.009099   0.097376
   51  H  6  S    0.087799  -0.827059   0.351308   0.662263  -0.098922
   52  H  7  S   -0.026331   0.028598   0.093812  -0.015661  -0.214024
   53  H  7  S   -0.786199  -1.706206   0.045096   0.330978   0.009543

                     21         22         23         24         25
                    0.5387     0.5848     0.6608     0.6733     0.7080
                     A          A          A          A          A   
    1  C  1  S    0.031873   0.015928  -0.069194  -0.014181   0.001747
    2  C  1  S   -0.129992  -0.258518  -0.080688  -0.094570   0.145951
    3  C  1  X   -0.585262  -0.523453   0.006905  -0.186171   0.165372
    4  C  1  Y    0.307271  -0.448038   0.144012   0.197364   0.080644
    5  C  1  Z    0.108749  -0.472014   0.080950  -0.180821  -0.413120
    6  C  1  S   -0.158490  -0.436467  -0.204446   0.802235  -0.341466
    7  C  1  X    0.742222   0.590596  -0.780887   0.587505  -0.204407
    8  C  1  Y   -0.362091   0.633543  -0.152282  -0.413069  -0.309774
    9  C  1  Z    0.127503   0.952139  -0.662861   0.521252   1.478325
   10  C  1 XX   -0.009769  -0.035147  -0.056588  -0.023451  -0.033575
   11  C  1 YY   -0.022816   0.002656   0.100200   0.055592  -0.000285
   12  C  1 ZZ    0.032585   0.032491  -0.043612  -0.032141   0.033860
   13  C  1 XY   -0.006283   0.023740   0.058336  -0.090798  -0.045888
   14  C  1 XZ    0.023579   0.041361  -0.040309   0.005777   0.055350
   15  C  1 YZ   -0.022067   0.066140   0.044332   0.025864  -0.011514
   16  C  2  S   -0.040099  -0.001998  -0.008729   0.036417  -0.042252
   17  C  2  S   -0.003323  -0.296817  -0.549603  -0.600554   0.086566
   18  C  2  X   -0.040198   0.133373   0.617226  -0.672101   0.501504
   19  C  2  Y    0.251008  -0.163019  -0.282795  -0.073687   0.576106
   20  C  2  Z   -0.677736   0.235284  -0.198627   0.036993   0.158936
   21  C  2  S   -0.239457   0.126207   1.284012   0.136516   0.694187
   22  C  2  X   -0.238115  -0.749241  -0.795664   1.145924  -0.426448
   23  C  2  Y   -0.195035   0.139503   0.790307  -0.794965  -1.010240
   24  C  2  Z    0.733179  -0.523886   0.592580  -0.368153  -0.686636
   25  C  2 XX   -0.075481  -0.017166   0.021464   0.073832  -0.021786
   26  C  2 YY    0.006425  -0.018050  -0.057604  -0.083608  -0.065066
   27  C  2 ZZ    0.069055   0.035216   0.036140   0.009776   0.086852
   28  C  2 XY    0.037214   0.033795   0.004718   0.127529  -0.057989
   29  C  2 XZ   -0.007894   0.010577   0.033519   0.012908  -0.040376
   30  C  2 YZ   -0.017245   0.007079  -0.056919  -0.009561   0.016346
   31  O  3  S    0.006905  -0.001035   0.025933  -0.026094   0.026799
   32  O  3  S   -0.058850  -0.059600  -0.118301   0.101769  -0.101599
   33  O  3  X    0.105937   0.105724   0.031366  -0.367862   0.078582
   34  O  3  Y   -0.042551  -0.173630  -0.022077   0.019195   0.307303
   35  O  3  Z   -0.045971  -0.011744  -0.045466   0.024678   0.095648
   36  O  3  S    0.196240   0.360118  -0.235024  -0.191534   0.184717
   37  O  3  X    0.010522  -0.069548   0.278380  -0.185682   0.211984
   38  O  3  Y   -0.062332  -0.089267   0.078509   0.014025   0.120102
   39  O  3  Z   -0.072972   0.073398  -0.060329   0.042711   0.095324
   40  O  3 XX    0.025829   0.000949  -0.044034  -0.068533   0.054612
   41  O  3 YY   -0.028625  -0.002406   0.032497  -0.000683  -0.019429
   42  O  3 ZZ    0.002795   0.001457   0.011537   0.069215  -0.035183
   43  O  3 XY    0.001969  -0.008157   0.026429  -0.092008   0.091525
   44  O  3 XZ    0.041282  -0.024573   0.021068  -0.017223  -0.004118
   45  O  3 YZ    0.023760  -0.000938  -0.007231  -0.004063   0.022189
   46  H  4  S   -0.059475   0.016850  -0.386214  -0.480546  -0.328678
   47  H  4  S    0.013577   0.078788   0.505235  -0.320207  -0.480723
   48  H  5  S    0.238713  -0.200488  -0.419259   0.006510   0.250378
   49  H  5  S    0.064891   0.235592   0.216380   0.227349   0.547599
   50  H  6  S    0.210486   0.250208  -0.492682  -0.171951   0.042065
   51  H  6  S    0.078003   0.188969  -0.329502   0.286102   0.144444
   52  H  7  S    0.040049  -0.167311  -0.293826  -0.276758  -0.207226
   53  H  7  S   -0.136822   0.111896   0.023796  -0.021251  -0.598364

                     26         27         28         29         30
                    0.7721     0.8124     0.8418     0.8672     0.9100
                     A          A          A          A          A   
    1  C  1  S    0.030392  -0.014769  -0.040876   0.011079   0.013076
    2  C  1  S    0.109108   0.463733   0.582350  -0.247067  -0.836606
    3  C  1  X    0.366261  -0.191235  -0.052615   0.125284   0.362367
    4  C  1  Y    0.426488   0.168578   0.495486  -0.109538   0.243261
    5  C  1  Z   -0.415240  -0.814233  -0.062691   0.136038  -0.140071
    6  C  1  S   -1.052155  -0.758943  -0.774278  -0.109544   1.435422
    7  C  1  X   -1.501513   0.387500   0.110238  -0.650229  -0.859454
    8  C  1  Y   -1.450272  -0.333408  -1.118923   0.435788  -0.444206
    9  C  1  Z    1.710396   1.242376   0.363921  -0.210559   0.245368
   10  C  1 XX   -0.033624   0.026703   0.086792  -0.081048  -0.015057
   11  C  1 YY   -0.025070   0.005205  -0.041887   0.024623  -0.037011
   12  C  1 ZZ    0.058694  -0.031907  -0.044905   0.056426   0.052068
   13  C  1 XY   -0.005076   0.033821   0.036210   0.012948   0.099595
   14  C  1 XZ    0.081391  -0.154668   0.078804   0.005780  -0.014910
   15  C  1 YZ   -0.058392  -0.044196   0.126816  -0.055798  -0.006656
   16  C  2  S    0.003946   0.013650   0.030533   0.041107  -0.022349
   17  C  2  S    0.059801   0.085205  -0.119609  -0.983632  -1.079061
   18  C  2  X    0.080332  -0.067088  -0.040037   0.192855  -0.042510
   19  C  2  Y   -0.621215   0.124524   0.227496   0.436955   0.083942
   20  C  2  Z   -0.081074  -0.049479   0.032298   0.076745   0.008605
   21  C  2  S    0.739704  -0.144437   0.198347   3.138450   1.106605
   22  C  2  X   -0.390504   0.207558   0.394116  -0.301342  -0.340430
   23  C  2  Y    2.627536  -0.115827  -0.148862  -0.385252  -0.371145
   24  C  2  Z   -0.083718  -0.028653  -0.102653  -0.050043  -0.071158
   25  C  2 XX    0.047972  -0.005739  -0.032059   0.025630  -0.128894
   26  C  2 YY   -0.030759   0.058615   0.096650   0.048794   0.044563
   27  C  2 ZZ   -0.017213  -0.052876  -0.064591  -0.074425   0.084330
   28  C  2 XY    0.057390  -0.026929  -0.014765   0.133531  -0.080263
   29  C  2 XZ   -0.049981   0.064431  -0.012606   0.007087   0.011522
   30  C  2 YZ    0.055191  -0.017420   0.034008   0.030259  -0.016795
   31  O  3  S    0.014335  -0.002348  -0.004321   0.034734  -0.040555
   32  O  3  S    0.009267   0.031532   0.064746  -0.141639   0.170484
   33  O  3  X   -0.135648   0.005440  -0.046323  -0.373168   0.378363
   34  O  3  Y   -0.206618  -0.001988  -0.051195  -0.334417   0.221652
   35  O  3  Z    0.056229  -0.173600   0.168933  -0.085139  -0.006608
   36  O  3  S   -0.801455  -0.057526  -0.225033  -0.559348   0.206730
   37  O  3  X    0.487808   0.000500   0.068891   0.833778  -0.805543
   38  O  3  Y   -0.041356   0.008671   0.083951   0.543829  -0.474456
   39  O  3  Z    0.028831   0.141739  -0.149809   0.112166  -0.023285
   40  O  3 XX   -0.083707   0.015271   0.017490  -0.012675   0.003342
   41  O  3 YY    0.018321  -0.011542  -0.022761  -0.044742  -0.025623
   42  O  3 ZZ    0.065385  -0.003729   0.005271   0.057417   0.022280
   43  O  3 XY   -0.010087  -0.005573  -0.011206  -0.070820  -0.009006
   44  O  3 XZ   -0.011273  -0.013124   0.004496  -0.010684  -0.002528
   45  O  3 YZ    0.024452   0.000026  -0.003790  -0.016736  -0.010274
   46  H  4  S    0.010572   0.297482   0.513370   0.522970   0.116629
   47  H  4  S    1.423458  -0.312753  -0.702286  -1.399792  -0.676357
   48  H  5  S    0.366401  -0.206108  -0.694757   0.323620  -0.139514
   49  H  5  S    0.990973   0.494254   2.000807  -0.778329   0.328442
   50  H  6  S    0.215149  -0.694479   0.362505  -0.081941   0.249156
   51  H  6  S   -0.453354   1.471151  -1.040472   0.067994  -0.934368
   52  H  7  S    0.004311   0.492768  -0.439062   0.041842   0.377723
   53  H  7  S   -1.351240  -0.911509   0.350439  -0.166114  -1.200251

                     31         32         33         34         35
                    0.9612     1.0030     1.0704     1.0917     1.5035
                     A          A          A          A          A   
    1  C  1  S    0.008867   0.001412  -0.065448  -0.019726  -0.003967
    2  C  1  S   -0.847009   0.361412  -1.569344  -0.512318  -0.047169
    3  C  1  X    0.169571  -0.004501  -0.076128   0.084036   0.019681
    4  C  1  Y    0.288626   0.024054   0.085158   0.172880   0.026973
    5  C  1  Z   -0.109701   0.095133  -0.042620  -0.040838   0.070537
    6  C  1  S    2.004406  -0.929313   4.452502   2.519650   0.216158
    7  C  1  X    0.199012  -0.220279   0.766813   0.728461  -0.083661
    8  C  1  Y   -0.307015  -0.213575  -1.337970  -0.709382  -0.438548
    9  C  1  Z   -0.109443   0.229877   0.035090   0.102392   0.239993
   10  C  1 XX   -0.020149   0.013439   0.035454   0.049402  -0.069563
   11  C  1 YY   -0.017768  -0.033747   0.153917   0.057494  -0.136614
   12  C  1 ZZ    0.037918   0.020308  -0.189371  -0.106896   0.206178
   13  C  1 XY    0.030276  -0.016901   0.049024  -0.033983  -0.063403
   14  C  1 XZ   -0.084363   0.070738   0.049418   0.019461  -0.135676
   15  C  1 YZ    0.107537   0.030603   0.029226   0.025279   0.239900
   16  C  2  S    0.010218  -0.002361   0.026715   0.014277   0.002964
   17  C  2  S    0.592648  -0.112947   0.728793   0.321845   0.081546
   18  C  2  X    0.002553   0.014931  -0.048268  -0.162730  -0.010196
   19  C  2  Y    0.023515  -0.055817  -0.047767   0.269306   0.020935
   20  C  2  Z    0.012610   0.109111   0.004753   0.060601  -0.152755
   21  C  2  S   -1.079514   0.382541  -3.123314  -1.330899  -0.279868
   22  C  2  X    0.347014  -0.182270   1.417225   1.607026   0.194612
   23  C  2  Y   -0.434110   0.484063   0.096999  -1.677950   0.239443
   24  C  2  Z   -0.048686  -0.617124  -0.169255  -0.439850   0.067678
   25  C  2 XX    0.033999  -0.008991  -0.101881   0.104772   0.029223
   26  C  2 YY   -0.000834  -0.008617   0.168004  -0.080965  -0.131177
   27  C  2 ZZ   -0.033165   0.017609  -0.066123  -0.023807   0.101954
   28  C  2 XY    0.079446  -0.001282   0.019810  -0.056780  -0.069838
   29  C  2 XZ    0.081598  -0.091104  -0.044505  -0.041422   0.504660
   30  C  2 YZ   -0.052744   0.034961   0.087571   0.009782   0.343026
   31  O  3  S    0.022166  -0.004477   0.012596   0.002725   0.003359
   32  O  3  S   -0.157314   0.056502  -0.173634  -0.030196  -0.032544
   33  O  3  X   -0.380503   0.011311  -0.025568   0.429021   0.039525
   34  O  3  Y   -0.036727   0.194787   0.206755  -0.654182   0.023377
   35  O  3  Z   -0.195402  -0.864017  -0.000468  -0.169651  -0.125289
   36  O  3  S    0.195048  -0.148976   0.186295   0.062884  -0.066053
   37  O  3  X    0.522398   0.027980  -0.043389  -0.845637  -0.045787
   38  O  3  Y    0.231482  -0.324170  -0.303999   1.281271   0.009708
   39  O  3  Z    0.228377   1.220757   0.039746   0.332503  -0.094304
   40  O  3 XX    0.020643  -0.009334   0.094119  -0.057871  -0.042732
   41  O  3 YY    0.016822  -0.016887  -0.019598   0.092637   0.042566
   42  O  3 ZZ   -0.037466   0.026220  -0.074521  -0.034766   0.000166
   43  O  3 XY    0.007019  -0.002137  -0.031836   0.050816   0.075552
   44  O  3 XZ    0.004940   0.031350  -0.013050   0.011653  -0.415031
   45  O  3 YZ   -0.011015   0.032952   0.036302   0.038071  -0.207139
   46  H  4  S   -0.312043   0.070466   0.386978  -0.089353   0.106292
   47  H  4  S    0.216703   0.097701   0.090596  -0.774411   0.118653
   48  H  5  S   -0.572975   0.063123   0.135008  -0.020962   0.209898
   49  H  5  S    0.626761   0.416343  -0.018496   0.264567   0.270227
   50  H  6  S    0.466180   0.124350  -0.450453  -0.066696  -0.026691
   51  H  6  S   -0.970296  -0.308578  -0.407034  -0.267902  -0.207178
   52  H  7  S    0.520879  -0.250798  -0.505465  -0.118277  -0.203705
   53  H  7  S   -0.724246   0.320399  -0.577562  -0.269886  -0.115618

                     36         37         38         39         40
                    1.5777     1.6161     1.6891     1.7873     1.8172
                     A          A          A          A          A   
    1  C  1  S   -0.008905   0.020244   0.012217  -0.013219  -0.007993
    2  C  1  S   -0.109302   0.279682  -0.280325  -0.534294   0.221962
    3  C  1  X    0.032280  -0.008419  -0.206453  -0.179357   0.145771
    4  C  1  Y    0.049696   0.003225   0.056118   0.062138  -0.014166
    5  C  1  Z   -0.007117  -0.003503   0.015556   0.069631   0.036367
    6  C  1  S    0.471012  -1.038681  -0.154290   0.985653  -0.080543
    7  C  1  X   -0.058449   0.076036  -0.226643   0.186409  -0.266206
    8  C  1  Y   -0.693313   0.589706  -0.076574  -0.149106  -0.136759
    9  C  1  Z    0.773123  -0.023820   0.188256  -0.526544  -0.119542
   10  C  1 XX   -0.173347   0.012270   0.392927   0.009655  -0.300823
   11  C  1 YY   -0.147749   0.042666  -0.472199  -0.213941  -0.041912
   12  C  1 ZZ    0.321096  -0.054936   0.079272   0.204286   0.342735
   13  C  1 XY   -0.166392  -0.109240  -0.020885  -0.329053  -0.109838
   14  C  1 XZ   -0.236971   0.009611  -0.020597  -0.209135  -0.239558
   15  C  1 YZ    0.193668  -0.007143  -0.087692   0.096487   0.237952
   16  C  2  S    0.005277  -0.019832  -0.004336   0.022147  -0.014678
   17  C  2  S    0.166309  -0.179564  -0.447657   0.023674   0.047929
   18  C  2  X   -0.016267  -0.084317   0.126904   0.060715   0.044405
   19  C  2  Y   -0.016146  -0.001397  -0.046817   0.058626  -0.073638
   20  C  2  Z    0.106443  -0.005105  -0.010248   0.052092   0.048404
   21  C  2  S   -0.751528  -1.537168   1.236852  -0.574592   0.435726
   22  C  2  X    0.226252  -1.792356  -0.383686   0.130869   0.416888
   23  C  2  Y    0.343968  -1.129715   0.216337   0.581298   0.037302
   24  C  2  Z   -0.269561  -0.096194  -0.022901   0.308564   0.102199
   25  C  2 XX    0.017608  -0.035490   0.176663   0.260652  -0.119786
   26  C  2 YY    0.110223   0.063429   0.161548  -0.362813   0.241661
   27  C  2 ZZ   -0.127831  -0.027939  -0.338211   0.102161  -0.121875
   28  C  2 XY   -0.050171  -0.271063  -0.300602  -0.068168   0.175005
   29  C  2 XZ    0.243412  -0.087745   0.002556  -0.180701  -0.048392
   30  C  2 YZ   -0.588652   0.093835   0.038997  -0.051765   0.009712
   31  O  3  S    0.009592   0.032873  -0.014320   0.000581   0.006302
   32  O  3  S   -0.206621  -1.633726   0.349077   0.076740   0.079687
   33  O  3  X    0.085285   0.068157  -0.167141  -0.074709   0.163484
   34  O  3  Y    0.021298   0.086214   0.016249   0.152595  -0.094494
   35  O  3  Z    0.002129   0.014076  -0.002167   0.083957   0.023522
   36  O  3  S    0.236867   3.928843  -0.580396  -0.263162  -0.517222
   37  O  3  X   -0.168627  -1.102348   0.342283   0.184654  -0.029327
   38  O  3  Y   -0.095541  -0.719831   0.018350  -0.199302   0.253749
   39  O  3  Z    0.096554  -0.099016   0.013241  -0.132109  -0.020716
   40  O  3 XX   -0.031524  -0.129871   0.017280  -0.336497   0.374908
   41  O  3 YY    0.034664   0.125413   0.481551  -0.025621  -0.178786
   42  O  3 ZZ   -0.003141   0.004459  -0.498831   0.362118  -0.196122
   43  O  3 XY   -0.047566  -0.191048  -0.141515   0.305123  -0.290926
   44  O  3 XZ    0.314112  -0.056552  -0.007824  -0.058390  -0.214027
   45  O  3 YZ   -0.270831   0.073750   0.106670   0.426517   0.563199
   46  H  4  S    0.204813  -0.051180  -0.172595   0.517168  -0.248824
   47  H  4  S    0.183976  -0.241327  -0.104713   0.195216   0.038412
   48  H  5  S    0.259599  -0.064925   0.114838  -0.107852   0.024160
   49  H  5  S    0.353788  -0.003153   0.012982  -0.230340   0.102048
   50  H  6  S    0.002236   0.125662  -0.048205  -0.096009  -0.055859
   51  H  6  S   -0.040341   0.145261  -0.087292  -0.183184  -0.136794
   52  H  7  S   -0.345723   0.178852  -0.089090  -0.003940  -0.085834
   53  H  7  S   -0.407069   0.215162  -0.209595   0.033018   0.028976

                     41         42         43         44         45
                    1.8791     2.0488     2.0670     2.1735     2.2899
                     A          A          A          A          A   
    1  C  1  S   -0.006376  -0.047213   0.000002  -0.073941  -0.013054
    2  C  1  S    0.034659  -0.348420   0.160709  -0.427971  -0.112590
    3  C  1  X    0.013363   0.018077   0.031879   0.055317   0.023801
    4  C  1  Y   -0.114085  -0.054437  -0.018212  -0.005138  -0.027776
    5  C  1  Z    0.023527  -0.034491  -0.009831  -0.019455  -0.060238
    6  C  1  S    0.217571   1.672475  -0.372895   2.301265   0.514600
    7  C  1  X    0.229005   0.424833  -0.359299   0.534054   0.209067
    8  C  1  Y    0.071211   0.145882   0.087798  -0.294264   0.194236
    9  C  1  Z    0.347713  -0.996307  -0.146644  -0.241813  -0.521359
   10  C  1 XX    0.365110   0.043744  -0.330950  -0.102617   0.097094
   11  C  1 YY   -0.408194  -0.545376   0.065390  -0.286400  -0.135579
   12  C  1 ZZ    0.043084   0.501633   0.265560   0.389016   0.038485
   13  C  1 XY    0.660205  -0.149726   0.391270  -0.182168  -0.232703
   14  C  1 XZ   -0.124695   0.135368   0.094228   0.051546   0.953814
   15  C  1 YZ    0.122364   0.230609   0.112191  -0.874408   0.317309
   16  C  2  S    0.009443   0.020671   0.006876   0.040952   0.016637
   17  C  2  S    0.110364   0.193301   0.272798   0.436328   0.055416
   18  C  2  X   -0.201804  -0.009550  -0.291856  -0.093768   0.019285
   19  C  2  Y   -0.024261  -0.060339   0.156633  -0.004463  -0.016930
   20  C  2  Z    0.053899   0.005123   0.046640  -0.079945  -0.078224
   21  C  2  S   -0.808391  -1.188251  -0.269564  -2.006165  -0.428119
   22  C  2  X   -0.333854   0.466849  -0.252200   0.717333   0.099201
   23  C  2  Y   -1.064278  -0.818202   0.360827  -0.798796  -0.242763
   24  C  2  Z   -0.254850   0.287920   0.167765  -0.224309   0.008204
   25  C  2 XX   -0.313943  -0.195501  -0.171425  -0.305219  -0.088736
   26  C  2 YY    0.230867   0.000426  -0.423069   0.038725   0.046132
   27  C  2 ZZ    0.083076   0.195075   0.594494   0.266494   0.042604
   28  C  2 XY   -0.204155   0.028827   0.040948  -0.066885  -0.114456
   29  C  2 XZ    0.057135  -0.358935  -0.058217   0.022918   0.193746
   30  C  2 YZ   -0.129245   0.482150  -0.068964  -0.213135  -0.386365
   31  O  3  S   -0.015469  -0.005342  -0.007900  -0.010597  -0.006016
   32  O  3  S   -0.197708  -0.062673   0.011594  -0.041634   0.045257
   33  O  3  X   -0.165787  -0.010238  -0.139133  -0.071773  -0.065373
   34  O  3  Y   -0.167482  -0.114779  -0.000118  -0.128389  -0.047535
   35  O  3  Z   -0.011880   0.049554   0.022240  -0.058808  -0.012280
   36  O  3  S    1.236256   0.453233   0.233975   0.602892   0.142666
   37  O  3  X   -0.336529  -0.261562   0.064299  -0.314434  -0.044576
   38  O  3  Y    0.016663   0.178245  -0.199280   0.124413   0.041598
   39  O  3  Z    0.012995  -0.155786  -0.086868   0.154879   0.037725
   40  O  3 XX   -0.149286   0.097083  -0.194378   0.047472   0.040507
   41  O  3 YY   -0.210236  -0.162530   0.614540  -0.075828  -0.092077
   42  O  3 ZZ    0.359522   0.065447  -0.420162   0.028356   0.051570
   43  O  3 XY    0.153321  -0.069634  -0.104412  -0.031764  -0.009274
   44  O  3 XZ   -0.053394   0.364726   0.084392  -0.281301  -0.228969
   45  O  3 YZ    0.197686  -0.321014   0.145574  -0.043839   0.134109
   46  H  4  S   -0.306725  -0.159070   0.425581   0.020728   0.028417
   47  H  4  S   -0.299576  -0.169147   0.135325  -0.142790  -0.066793
   48  H  5  S    0.332058  -0.240646  -0.011815  -0.731265  -0.058199
   49  H  5  S    0.036036  -0.380357  -0.023384   0.191501  -0.327353
   50  H  6  S   -0.124817  -0.576156  -0.206206  -0.075874  -0.587113
   51  H  6  S    0.118418  -0.066164   0.013491  -0.306794   0.206078
   52  H  7  S   -0.287778   0.131276  -0.047823  -0.503127   0.575387
   53  H  7  S   -0.015655   0.186212   0.068194   0.026464  -0.004359

                     46         47         48         49         50
                    2.3481     2.5202     2.5917     2.8599     2.9501
                     A          A          A          A          A   
    1  C  1  S    0.016348   0.048468  -0.007042   0.029420  -0.010511
    2  C  1  S    0.169532   0.075378  -0.036844  -0.104908   0.083515
    3  C  1  X   -0.101270  -0.271968  -0.004361  -0.227385   0.097174
    4  C  1  Y    0.024672   0.059353   0.002446   0.160204  -0.051021
    5  C  1  Z    0.002571   0.015172   0.022906   0.033056  -0.016481
    6  C  1  S   -0.899674  -1.432135   0.175767  -0.227873   0.047004
    7  C  1  X   -0.613868  -0.847162   0.022450  -0.194003   0.168042
    8  C  1  Y    0.327194   0.195724  -0.005588   0.164786   0.027777
    9  C  1  Z   -0.193572   0.024186  -0.062639  -0.002687   0.059834
   10  C  1 XX   -0.374527  -0.779549  -0.041329  -0.237898   0.079482
   11  C  1 YY   -0.095121   0.486221   0.033456  -0.049710   0.011924
   12  C  1 ZZ    0.469648   0.293327   0.007873   0.287608  -0.091406
   13  C  1 XY    0.313874   0.072529  -0.047638   0.499645  -0.184005
   14  C  1 XZ    0.280385   0.061818   0.159657   0.121386  -0.051906
   15  C  1 YZ   -0.161822   0.029323  -0.233194  -0.103302   0.032683
   16  C  2  S   -0.072566  -0.028225   0.001131  -0.043852  -0.029290
   17  C  2  S   -0.146091  -0.035626   0.034785  -0.323556  -1.333245
   18  C  2  X   -0.217106  -0.234862  -0.013809  -0.381517  -1.070159
   19  C  2  Y    0.172348   0.050416  -0.033434  -0.167748  -0.674766
   20  C  2  Z    0.003062   0.005700   0.234448  -0.016723  -0.081781
   21  C  2  S    1.155217   1.627641  -0.128613   0.116771  -1.705876
   22  C  2  X   -0.317370  -0.718059   0.057376  -0.326472  -0.692502
   23  C  2  Y    0.474909   0.803397  -0.086035  -0.540722  -0.524848
   24  C  2  Z    0.136562   0.165499   0.250955  -0.068759  -0.085482
   25  C  2 XX    0.359310  -0.112418   0.020761   0.905801  -0.677549
   26  C  2 YY    0.331428   0.373642  -0.098240  -0.791828   0.226702
   27  C  2 ZZ   -0.690738  -0.261224   0.077480  -0.113974   0.450847
   28  C  2 XY    0.470712  -0.864987  -0.141780  -0.518646  -0.431784
   29  C  2 XZ    0.029136  -0.182168   0.874798  -0.115023  -0.034274
   30  C  2 YZ    0.123365   0.146628   0.430737  -0.115169  -0.035070
   31  O  3  S    0.026832  -0.020672  -0.000626  -0.010076  -0.061498
   32  O  3  S   -0.365475   0.580665   0.000568  -0.336796  -0.679180
   33  O  3  X    0.321811  -0.344164  -0.004055  -0.008433  -0.247407
   34  O  3  Y    0.234047  -0.160197  -0.004179   0.044997  -0.170935
   35  O  3  Z    0.028803  -0.016827  -0.012689   0.007510  -0.022962
   36  O  3  S   -0.132066  -0.726607   0.028923   1.007540   3.081272
   37  O  3  X    0.027693   0.498811  -0.027179  -0.664646  -1.492639
   38  O  3  Y   -0.296471  -0.000811   0.074086   0.062808  -0.986955
   39  O  3  Z   -0.034183  -0.003664  -0.447330   0.024973  -0.115925
   40  O  3 XX   -0.322916  -0.173615   0.026262   0.839373   0.701395
   41  O  3 YY    0.280470   0.023410  -0.150282  -0.657714   0.005414
   42  O  3 ZZ    0.042447   0.150205   0.124020  -0.181659  -0.706809
   43  O  3 XY    0.371649   0.122854  -0.104536  -0.074876   1.165686
   44  O  3 XZ   -0.006471   0.005685   0.814508  -0.042328   0.145905
   45  O  3 YZ    0.035799  -0.045368   0.529810  -0.086756   0.103584
   46  H  4  S   -0.149095  -0.254539  -0.011323   0.256274  -0.024231
   47  H  4  S    0.131389   0.335837   0.001201  -0.422317   0.012813
   48  H  5  S   -0.200147  -0.071440  -0.152128  -0.059847   0.020009
   49  H  5  S   -0.072185   0.053771   0.051663   0.021416   0.052494
   50  H  6  S   -0.220868   0.033061  -0.002847  -0.106897   0.045906
   51  H  6  S    0.046472  -0.080863  -0.031869   0.007968   0.012804
   52  H  7  S   -0.033487   0.037811  -0.036627  -0.103276   0.024834
   53  H  7  S    0.122426  -0.033332  -0.004016   0.039410   0.005055
 ...... END OF RHF CALCULATION ......
 STEP CPU TIME =     6.01 TOTAL CPU TIME =          6.2 (      0.1 MIN)
 TOTAL WALL CLOCK TIME=          6.2 SECONDS, CPU UTILIZATION IS    99.20%

     ---------------------------------------------------------------------
     PROPERTIES FOR THE B3LYP    DFT FUNCTIONAL (RHF  TYPE) DENSITY MATRIX
     ---------------------------------------------------------------------

          -----------------
          ENERGY COMPONENTS
          -----------------

         WAVEFUNCTION NORMALIZATION =       1.0000000000

                ONE ELECTRON ENERGY =    -345.6460858310
                TWO ELECTRON ENERGY =     122.4510563291
           NUCLEAR REPULSION ENERGY =      69.5888082434
                                      ------------------
                       TOTAL ENERGY =    -153.6062212585

 ELECTRON-ELECTRON POTENTIAL ENERGY =     122.4510563291
  NUCLEUS-ELECTRON POTENTIAL ENERGY =    -498.5035585990
   NUCLEUS-NUCLEUS POTENTIAL ENERGY =      69.5888082434
                                      ------------------
             TOTAL POTENTIAL ENERGY =    -306.4636940264
               TOTAL KINETIC ENERGY =     152.8574727680
                 VIRIAL RATIO (V/T) =       2.0048983440

          ---------------------------------------
          MULLIKEN AND LOWDIN POPULATION ANALYSES
          ---------------------------------------

     ATOMIC MULLIKEN POPULATION IN EACH MOLECULAR ORBITAL

                      1          2          3          4          5

                  2.000000   2.000000   2.000000   2.000000   2.000000

    1            -0.000031   0.001260   1.996060   0.020138   1.042835
    2             0.002255   2.000556   0.001509   0.526996   0.239508
    3             1.997747  -0.002762   0.000011   1.452260   0.048761
    4             0.000030   0.000892   0.000016  -0.001003   0.007633
    5             0.000001   0.000027   0.000460   0.000763   0.290229
    6            -0.000001   0.000010   0.000975   0.000502   0.310193
    7            -0.000001   0.000017   0.000969   0.000345   0.060841

                      6          7          8          9         10

                  2.000000   2.000000   2.000000   2.000000   2.000000

    1             0.396735   0.665755   0.509453   0.259496   0.065876
    2             0.818807   0.428516   0.576139   0.419103   0.639083
    3             0.225096   0.203468   0.523682   1.205103   1.205625
    4             0.226497   0.177894   0.166224   0.026719   0.002786
    5             0.179366   0.097582   0.007796   0.001144   0.020207
    6             0.139459   0.066777   0.022364   0.002734   0.001916
    7             0.014041   0.360008   0.194342   0.085701   0.064508

                     11         12

                  2.000000   2.000000

    1             1.188894   0.331665
    2             0.037154   0.104512
    3             0.266719   1.206423
    4             0.003252   0.291094
    5             0.200406   0.042647
    6             0.303407   0.003614
    7             0.000168   0.020045

               ----- POPULATIONS IN EACH AO -----
                             MULLIKEN      LOWDIN
              1  C  1  S      1.99625     1.97961
              2  C  1  S      0.66752     0.36101
              3  C  1  X      0.68655     0.61606
              4  C  1  Y      0.81231     0.75683
              5  C  1  Z      0.66339     0.58706
              6  C  1  S      0.58854     0.33407
              7  C  1  X      0.28341     0.40113
              8  C  1  Y      0.46679     0.62599
              9  C  1  Z      0.27603     0.44173
             10  C  1 XX      0.00711     0.14761
             11  C  1 YY      0.00254     0.12702
             12  C  1 ZZ      0.00643     0.17224
             13  C  1 XY      0.01114     0.01132
             14  C  1 XZ      0.01012     0.02118
             15  C  1 YZ      0.00000     0.01528
             16  C  2  S      1.99654     1.97460
             17  C  2  S      0.70649     0.36531
             18  C  2  X      0.74006     0.64582
             19  C  2  Y      0.74224     0.64547
             20  C  2  Z      0.46334     0.41639
             21  C  2  S      0.46395     0.31197
             22  C  2  X      0.10687     0.28457
             23  C  2  Y      0.20052     0.37631
             24  C  2  Z      0.28739     0.33368
             25  C  2 XX      0.00474     0.21763
             26  C  2 YY      0.04087     0.19330
             27  C  2 ZZ      0.02487     0.10623
             28  C  2 XY      0.01207     0.05069
             29  C  2 XZ      0.00418     0.02289
             30  C  2 YZ      0.00000     0.00738
             31  O  3  S      1.99730     1.97774
             32  O  3  S      0.92993     0.72209
             33  O  3  X      1.00113     0.93876
             34  O  3  Y      1.08741     1.03922
             35  O  3  Z      0.76540     0.71420
             36  O  3  S      0.93011     0.46995
             37  O  3  X      0.49447     0.57185
             38  O  3  Y      0.59302     0.65583
             39  O  3  Z      0.50554     0.54486
             40  O  3 XX      0.00233     0.18380
             41  O  3 YY      0.00721     0.17430
             42  O  3 ZZ      0.00720     0.17392
             43  O  3 XY      0.00803     0.01577
             44  O  3 XZ      0.00306     0.01070
             45  O  3 YZ      0.00000     0.00410
             46  H  4  S      0.53487     0.50430
             47  H  4  S      0.36716     0.39169
             48  H  5  S      0.53134     0.45539
             49  H  5  S      0.30929     0.30695
             50  H  6  S      0.54910     0.48957
             51  H  6  S      0.30285     0.30856
             52  H  7  S      0.50236     0.45082
             53  H  7  S      0.29863     0.34524

          ----- MULLIKEN ATOMIC OVERLAP POPULATIONS -----
          (OFF-DIAGONAL ELEMENTS NEED TO BE MULTIPLIED BY 2)

             1           2           3           4           5

    1    5.4425591
    2    0.3375360   4.5524804
    3   -0.0750200   0.5997242   7.8721706
    4   -0.1383699   0.3524323  -0.0655339   0.7418911
    5    0.3286911  -0.0122828  -0.0059023   0.0096092   0.7225693
    6    0.2186438  -0.0152121   0.0057534  -0.0051990  -0.1896881
    7    0.3640965  -0.0205407   0.0009400   0.0072022  -0.0123695

             6           7

    6    0.8552840
    7   -0.0176311   0.4792869

          TOTAL MULLIKEN AND LOWDIN ATOMIC POPULATIONS
       ATOM         MULL.POP.    CHARGE          LOW.POP.     CHARGE
    1 C             6.478137   -0.478137         6.598158   -0.598158
    2 C             5.794137    0.205863         5.952225    0.047775
    3 O             8.332132   -0.332132         8.197099   -0.197099
    4 H             0.902032    0.097968         0.895991    0.104009
    5 H             0.840627    0.159373         0.762334    0.237666
    6 H             0.851951    0.148049         0.798129    0.201871
    7 H             0.800984    0.199016         0.796064    0.203936

          MULLIKEN SPHERICAL HARMONIC POPULATIONS
       ATOM           S       P       D      F      G      H      I    TOTAL
    1 C             3.25    3.19    0.04   0.00   0.00   0.00   0.00    6.48
    2 C             3.17    2.54    0.09   0.00   0.00   0.00   0.00    5.79
    3 O             3.86    4.45    0.03   0.00   0.00   0.00   0.00    8.33
    4 H             0.90    0.00    0.00   0.00   0.00   0.00   0.00    0.90
    5 H             0.84    0.00    0.00   0.00   0.00   0.00   0.00    0.84
    6 H             0.85    0.00    0.00   0.00   0.00   0.00   0.00    0.85
    7 H             0.80    0.00    0.00   0.00   0.00   0.00   0.00    0.80

          -------------------------------
          BOND ORDER AND VALENCE ANALYSIS     BOND ORDER THRESHOLD=0.050
          -------------------------------

                   BOND                       BOND                       BOND
  ATOM PAIR DIST  ORDER      ATOM PAIR DIST  ORDER      ATOM PAIR DIST  ORDER
    1   2  1.509  1.012        1   5  1.093  0.869        1   6  1.098  0.811
    1   7  1.098  0.925        2   3  1.211  2.030        2   4  1.115  0.887

                       TOTAL       BONDED        FREE
      ATOM            VALENCE     VALENCE     VALENCE
    1 C                 3.620       3.620       0.000
    2 C                 3.937       3.937      -0.000
    3 O                 2.107       2.107      -0.000
    4 H                 0.923       0.923      -0.000
    5 H                 0.933       0.933       0.000
    6 H                 0.870       0.870      -0.000
    7 H                 0.938       0.938      -0.000

          ---------------------
          ELECTROSTATIC MOMENTS
          ---------------------

 POINT   1           X           Y           Z (BOHR)    CHARGE
                -0.000000    0.000000    0.000000        0.00 (A.U.)
         DX          DY          DZ         /D/  (DEBYE)
    -2.858563   -1.275208   -1.002407    3.286694
 ...... END OF PROPERTY EVALUATION ......
 STEP CPU TIME =     0.01 TOTAL CPU TIME =          6.2 (      0.1 MIN)
 TOTAL WALL CLOCK TIME=          6.2 SECONDS, CPU UTILIZATION IS    99.36%
                580000  WORDS OF DYNAMIC MEMORY USED
 EXECUTION OF GAMESS TERMINATED NORMALLY Thu Oct 17 12:46:06 2019
 DDI: 263640 bytes (0.3 MB / 0 MWords) used by master data server.

 ----------------------------------------
 CPU timing information for all processes
 ========================================
 0: 6.36 + 0.163 = 6.199
 ----------------------------------------
 ddikick.x: exited gracefully.
----- accounting info -----
Files used on the master node crcfe01.crc.nd.edu were:
-rw-r--r-- 1 cdrisko campus      489 Oct 17 12:46 /afs/crc.nd.edu/user/c/cdrisko/acetaldehyde.F05
-rw-r--r-- 1 cdrisko campus    45118 Oct 17 12:46 /afs/crc.nd.edu/user/c/cdrisko/acetaldehyde.F07
-rw-r--r-- 1 cdrisko campus 11881056 Oct 17 12:46 /afs/crc.nd.edu/user/c/cdrisko/acetaldehyde.F08
-rw-r--r-- 1 cdrisko campus  1799600 Oct 17 12:46 /afs/crc.nd.edu/user/c/cdrisko/acetaldehyde.F10
Thu Oct 17 12:46:10 EDT 2019
0.456u 0.530s 0:10.06 9.7%	0+0k 0+16io 0pf+0w
