----- GAMESS execution script 'rungms' -----
This job is running on host crcfe02.crc.nd.edu
under operating system Linux at Sun Sep 29 10:50:42 EDT 2019
Available scratch disk space (Kbyte units) at beginning of the job is
Filesystem      1K-blocks  Used  Available Use% Mounted on
AFS            2147483647     0 2147483647   0% /afs
GAMESS temporary binary files will be written to /afs/crc.nd.edu/user/c/cdrisko
GAMESS supplementary output files will be written to /afs/crc.nd.edu/user/c/cdrisko/scr
Copying input file SO2.inp to your run's scratch directory...

 Distributed Data Interface kickoff program.
 Initiating 1 compute processes on 1 nodes to run the following command:
 /afs/crc.nd.edu/x86_64_linux/g/gamess/nov-2017/gamess/gamess.00.x SO2 

          ******************************************************
          *         GAMESS VERSION = 11 NOV 2017 (R3)         *
          *             FROM IOWA STATE UNIVERSITY             *
          * M.W.SCHMIDT, K.K.BALDRIDGE, J.A.BOATZ, S.T.ELBERT, *
          *   M.S.GORDON, J.H.JENSEN, S.KOSEKI, N.MATSUNAGA,   *
          *          K.A.NGUYEN, S.J.SU, T.L.WINDUS,           *
          *       TOGETHER WITH M.DUPUIS, J.A.MONTGOMERY       *
          *         J.COMPUT.CHEM.  14, 1347-1363(1993)        *
          **************** 64 BIT INTEL VERSION ****************

  SINCE 1993, STUDENTS AND POSTDOCS WORKING AT IOWA STATE UNIVERSITY
  AND ALSO IN THEIR VARIOUS JOBS AFTER LEAVING ISU HAVE MADE IMPORTANT
  CONTRIBUTIONS TO THE CODE:
     IVANA ADAMOVIC, CHRISTINE AIKENS, YURI ALEXEEV, POOJA ARORA,
     ANDREY ASADCHEV, ROB BELL, PRADIPTA BANDYOPADHYAY, JONATHAN BENTZ,
     BRETT BODE, KURT BRORSEN, CALEB CARLIN, GALINA CHABAN, WEI CHEN,
     CHEOL HO CHOI, PAUL DAY, ALBERT DEFUSCO, NUWAN DESILVA, TIM DUDLEY,
     DMITRI FEDOROV, ALEX FINDLATER, GRAHAM FLETCHER, MARK FREITAG,
     KURT GLAESEMANN, ANASTASIA GUININA,
     DAN KEMP, GRANT MERRILL, NORIYUKI MINEZAWA, JONATHAN MULLIN,
     TAKESHI NAGATA, SEAN NEDD, HEATHER NETZLOFF, BOSILJKA NJEGIC, RYAN OLSON,
     MIKE PAK, BUU PHAM,
     SPENCER PRUITT, LUKE ROSKOP, JIM SHOEMAKER, LYUDMILA SLIPCHENKO,
     TONY SMITH, SAROM SOK LEANG, JIE SONG, TETSUYA TAKETSUGU, SIMON WEBB,
     PENG XU, SOOHAENG YOO, FEDERICO ZAHARIEV

  ADDITIONAL CODE HAS BEEN PROVIDED BY COLLABORATORS IN OTHER GROUPS:
     IOWA STATE UNIVERSITY:
          JOE IVANIC, AARON WEST, LAIMUTIS BYTAUTAS, KLAUS RUEDENBERG
     UNIVERSITY OF TOKYO: KIMIHIKO HIRAO, TAKAHITO NAKAJIMA,
          TAKAO TSUNEDA, MUNEAKI KAMIYA, SUSUMU YANAGISAWA,
          KIYOSHI YAGI, MAHITO CHIBA, SEIKEN TOKURA, NAOAKI KAWAKAMI
     UNIVERSITY OF AARHUS: FRANK JENSEN
     UNIVERSITY OF IOWA: VISVALDAS KAIRYS, HUI LI
     NATIONAL INST. OF STANDARDS AND TECHNOLOGY: WALT STEVENS, DAVID GARMER
     UNIVERSITY OF PISA: BENEDETTA MENNUCCI, JACOPO TOMASI
     UNIVERSITY OF MEMPHIS: HENRY KURTZ, PRAKASHAN KORAMBATH
     UNIVERSITY OF ALBERTA: TOBY ZENG, MARIUSZ KLOBUKOWSKI
     UNIVERSITY OF NEW ENGLAND: MARK SPACKMAN
     MIE UNIVERSITY: HIROAKI UMEDA
     NAT. INST. OF ADVANCED INDUSTRIAL SCIENCE AND TECHNOLOGY: KAZUO KITAURA
     MICHIGAN STATE UNIVERSITY:
          KAROL KOWALSKI, MARTA WLOCH, JEFFREY GOUR, JESSE LUTZ,
          WEI LI, PIOTR PIECUCH
     UNIVERSITY OF SILESIA: MONIKA MUSIAL, STANISLAW KUCHARSKI
     FACULTES UNIVERSITAIRES NOTRE-DAME DE LA PAIX:
          OLIVIER QUINET, BENOIT CHAMPAGNE
     UNIVERSITY OF CALIFORNIA - SANTA BARBARA: BERNARD KIRTMAN
     INSTITUTE FOR MOLECULAR SCIENCE:
          KAZUYA ISHIMURA, MICHIO KATOUDA, AND SHIGERU NAGASE
     UNIVERSITY OF NOTRE DAME: ANNA POMOGAEVA, DAN CHIPMAN
     KYUSHU UNIVERSITY:
          HARUYUKI NAKANO,
          FENG LONG GU, JACEK KORCHOWIEC, MARCIN MAKOWSKI, AND YURIKO AOKI,
          HIROTOSHI MORI AND EISAKU MIYOSHI
     PENNSYLVANIA STATE UNIVERSITY:
          TZVETELIN IORDANOV, CHET SWALINA, JONATHAN SKONE,
          SHARON HAMMES-SCHIFFER
     WASEDA UNIVERSITY:
          MASATO KOBAYASHI, TOMOKO AKAMA, TSUGUKI TOUMA,
          TAKESHI YOSHIKAWA, YASUHIRO IKABATA, JUNJI SEINO,
          YUYA NAKAJIMA, HIROMI NAKAI
     NANJING UNIVERSITY: SHUHUA LI
     UNIVERSITY OF NEBRASKA:
          PEIFENG SU, DEJUN SI, NANDUN THELLAMUREGE, YALI WANG, HUI LI
     UNIVERSITY OF ZURICH: ROBERTO PEVERATI, KIM BALDRIDGE
     N. COPERNICUS UNIVERSITY AND JACKSON STATE UNIVERSITY:
          MARIA BARYSZ
     UNIVERSITY OF COPENHAGEN: Jimmy Kromann, CASPER STEINMANN
     TOKYO INSTITUTE OF TECHNOLOGY: HIROYA NAKATA
     NAGOYA UNIVERSITY: YOSHIO NISHIMOTO, STEPHAN IRLE
     MOSCOW STATE UNIVERSITY: VLADIMIR MIRONOV

 EXECUTION OF GAMESS BEGUN Sun Sep 29 10:50:43 2019

            ECHO OF THE FIRST FEW INPUT CARDS -
 INPUT CARD> $BASIS GBASIS=PCSEG-1 $END                                                     
 INPUT CARD> $CONTRL COORD=ZMT ISPHER=1 RUNTYP=ENERGY DFTTYP=PBE MULT=1 $END                
 INPUT CARD>                                                                                
 INPUT CARD> $DATA                                                                          
 INPUT CARD>Title SO2 single-point calculation template with Z-Matrix                       
 INPUT CARD>C1                                                                              
 INPUT CARD>S                                                                               
 INPUT CARD>O 1 1.55                                                                        
 INPUT CARD>O 1 1.55 2 150                                                                  
 INPUT CARD> $END                                                                           
    1000000 WORDS OF MEMORY AVAILABLE

     BASIS OPTIONS
     -------------
     GBASIS=PCSEG-1      IGAUSS=       0      POLAR=NONE    
     NDFUNC=       0     NFFUNC=       0     DIFFSP=       F
     NPFUNC=       0      DIFFS=       F     BASNAM=        


     RUN TITLE
     ---------
 Title SO2 single-point calculation template with Z-Matrix                       

 THE POINT GROUP OF THE MOLECULE IS C1      
 THE ORDER OF THE PRINCIPAL AXIS IS     0

 YOUR FULLY SUBSTITUTED Z-MATRIX IS
 S   
 O      1   1.5500000
 O      1   1.5500000  2  150.0000

 THE MOMENTS OF INERTIA ARE (AMU-ANGSTROM**2)
 IXX=     2.573   IYY=    71.707   IZZ=    74.281

 ATOM      ATOMIC                      COORDINATES (BOHR)
           CHARGE         X                   Y                   Z
 S          16.0     0.0000000000       -0.3791554235        0.0000000000
 O           8.0     2.8292694610        0.3789450438        0.0000000000
 O           8.0    -2.8292694610        0.3789450438        0.0000000000

          INTERNUCLEAR DISTANCES (ANGS.)
          ------------------------------

                1 S          2 O          3 O     

   1 S       0.0000000    1.5500000 *  1.5500000 *
   2 O       1.5500000 *  0.0000000    2.9943701 *
   3 O       1.5500000 *  2.9943701 *  0.0000000  

  * ... LESS THAN  3.000


     ATOMIC BASIS SET
     ----------------
 THE CONTRACTED PRIMITIVE FUNCTIONS HAVE BEEN UNNORMALIZED
 THE CONTRACTED BASIS FUNCTIONS ARE NOW NORMALIZED TO UNITY

  SHELL TYPE  PRIMITIVE        EXPONENT          CONTRACTION COEFFICIENT(S)

 S         

      1   S       1         49299.4000000    0.000677492991
      1   S       2          7395.8400000    0.005232317766
      1   S       3          1683.3000000    0.026769459077
      1   S       4           476.1440000    0.102869580705
      1   S       5           154.3290000    0.286438127414
      1   S       6            55.0288000    0.454278639081
      1   S       7            20.5029000    0.271743121997

      2   S       8            45.9596000   -0.088421914560
      2   S       9             4.9274000    0.564350486135
      2   S      10             1.9179900    0.505415953466

      3   S      11             0.3684980    1.000000000000

      4   S      12             0.1291650    1.000000000000

      5   P      13           451.6620000    0.003707705453
      5   P      14           106.0980000    0.029219352245
      5   P      15            33.6996000    0.124444551509
      5   P      16            12.3054000    0.321808587656
      5   P      17             4.7141200    0.462822172957
      5   P      18             1.7810500    0.266513371364

      6   P      19             0.8722350    0.349265132972
      6   P      20             0.3102780    0.717115018770

      7   P      21             0.1001940    1.000000000000

      8   D      22             0.5500000    1.000000000000

 O         

      9   S      23          2288.6400000    0.005451138222
      9   S      24           344.4160000    0.040718922842
      9   S      25            78.2538000    0.181369420873
      9   S      26            21.7195000    0.465536820246
      9   S      27             6.5590700    0.451211321214

     10   S      28            10.4656000   -0.150211201174
     10   S      29             0.9643510    1.052867983385

     11   S      30             0.2851270    1.000000000000

     12   P      31            17.0590000    0.068749256972
     12   P      32             3.6899900    0.351671941499
     12   P      33             0.9929960    0.724532099722

     13   P      34             0.2449240    1.000000000000

     14   D      35             1.0000000    1.000000000000

 O         

     15   S      36          2288.6400000    0.005451138222
     15   S      37           344.4160000    0.040718922842
     15   S      38            78.2538000    0.181369420873
     15   S      39            21.7195000    0.465536820246
     15   S      40             6.5590700    0.451211321214

     16   S      41            10.4656000   -0.150211201174
     16   S      42             0.9643510    1.052867983385

     17   S      43             0.2851270    1.000000000000

     18   P      44            17.0590000    0.068749256972
     18   P      45             3.6899900    0.351671941499
     18   P      46             0.9929960    0.724532099722

     19   P      47             0.2449240    1.000000000000

     20   D      48             1.0000000    1.000000000000

 TOTAL NUMBER OF BASIS SET SHELLS             =   20
 NUMBER OF CARTESIAN GAUSSIAN BASIS FUNCTIONS =   49
 NOTE: THIS RUN WILL RESTRICT THE MO VARIATION SPACE TO SPHERICAL HARMONICS.
 THE NUMBER OF ORBITALS KEPT IN THE VARIATIONAL SPACE WILL BE PRINTED LATER.
 NUMBER OF ELECTRONS                          =   32
 CHARGE OF MOLECULE                           =    0
 SPIN MULTIPLICITY                            =    1
 NUMBER OF OCCUPIED ORBITALS (ALPHA)          =   16
 NUMBER OF OCCUPIED ORBITALS (BETA )          =   16
 TOTAL NUMBER OF ATOMS                        =    3
 THE NUCLEAR REPULSION ENERGY IS       98.7099374508

     LEBEDEV GRID-BASED DFT OPTIONS
     ------------------------------
     DFTTYP=PBE     
     NRAD  =      96     NLEB  =     302
     NRAD0 =      24     NLEB0 =     110
     SWOFF =    5.00E-03 (PURE SCF -> DFT)
     SWITCH=    3.00E-04 (COARSE -> TIGHT GRID)
     THRESH=    0.00E+00 GTHRE=    1.00E+00

 GRIMME'S EMPIRICAL DISPERSION CORRECTION= F

     $CONTRL OPTIONS
     ---------------
 SCFTYP=RHF          RUNTYP=ENERGY       EXETYP=RUN     
 MPLEVL=       0     CITYP =NONE         CCTYP =NONE         VBTYP =NONE    
 DFTTYP=PBE          TDDFT =NONE    
 MULT  =       1     ICHARG=       0     NZVAR =       0     COORD =ZMT     
 PP    =NONE         RELWFN=NONE         LOCAL =NONE         NUMGRD=       F
 ISPHER=       1     NOSYM =       0     MAXIT =      30     UNITS =ANGS    
 PLTORB=       F     MOLPLT=       F     AIMPAC=       F     FRIEND=        
 NPRINT=       7     IREST =       0     GEOM  =INPUT   
 NORMF =       0     NORMP =       0     ITOL  =      20     ICUT  =       9
 INTTYP=BEST         GRDTYP=BEST         QMTTOL= 1.0E-06

     $SYSTEM OPTIONS
     ---------------
  REPLICATED MEMORY=     1000000 WORDS (ON EVERY NODE).
 DISTRIBUTED MEMDDI=           0 MILLION WORDS IN AGGREGATE,
 MEMDDI DISTRIBUTED OVER   1 PROCESSORS IS           0 WORDS/PROCESSOR.
 TOTAL MEMORY REQUESTED ON EACH PROCESSOR=     1000000 WORDS.
 TIMLIM=      525600.00 MINUTES, OR     365.0 DAYS.
 PARALL= F  BALTYP=  DLB     KDIAG=    0  COREFL= F
 MXSEQ2=     300 MXSEQ3=     150  mem10=         0

          ----------------
          PROPERTIES INPUT
          ----------------

     MOMENTS            FIELD           POTENTIAL          DENSITY
 IEMOM =       1   IEFLD =       0   IEPOT =       0   IEDEN =       0
 WHERE =COMASS     WHERE =NUCLEI     WHERE =NUCLEI     WHERE =NUCLEI  
 OUTPUT=BOTH       OUTPUT=BOTH       OUTPUT=BOTH       OUTPUT=BOTH    
 IEMINT=       0   IEFINT=       0                     IEDINT=       0
                                                       MORB  =       0
          EXTRAPOLATION IN EFFECT
          DIIS IN EFFECT
 ORBITAL PRINTING OPTION: NPREO=     1    49     2     1

     -------------------------------
     INTEGRAL TRANSFORMATION OPTIONS
     -------------------------------
     NWORD  =            0
     CUTOFF = 1.0E-09     MPTRAN =       0
     DIRTRF =       F     AOINTS =DUP     

          ----------------------
          INTEGRAL INPUT OPTIONS
          ----------------------
 NOPK  =       1 NORDER=       0 SCHWRZ=       F

   --- ENCODED Z MATRIX ---
 COORD  TYPE   I   J   K   L   M   N
    1      1    2   1
    2      1    3   1
    3      2    3   1   2

 THE DETERMINANT OF THE G MATRIX IS 10**(    -4)

 THE DETERMINANT OF THE G MATRIX IS 10**(    -4)
 * * * WARNING * * *
 YOUR B MATRIX HAS A SMALL DETERMINANT.
 THIS SUGGESTS YOU MAY HAVE BADLY CHOSEN COORDINATES.

     ------------------------------------------
     THE POINT GROUP IS C1 , NAXIS= 0, ORDER= 1
     ------------------------------------------

 -- VARIATIONAL SPACE WILL BE RESTRICTED TO PURE SPHERICAL HARMONICS ONLY --
 AFTER EXCLUDING CONTAMINANT COMBINATIONS FROM THE CARTESIAN GAUSSIAN BASIS
 SET, THE NUMBER OF SPHERICAL HARMONICS KEPT IN THE VARIATION SPACE IS   46

     DIMENSIONS OF THE SYMMETRY SUBSPACES ARE
 A   =   46

 ..... DONE SETTING UP THE RUN .....
 STEP CPU TIME =     0.04 TOTAL CPU TIME =          0.0 (      0.0 MIN)
 TOTAL WALL CLOCK TIME=          0.0 SECONDS, CPU UTILIZATION IS    80.00%

          ********************
          1 ELECTRON INTEGRALS
          ********************
 ...... END OF ONE-ELECTRON INTEGRALS ......
 STEP CPU TIME =     0.00 TOTAL CPU TIME =          0.0 (      0.0 MIN)
 TOTAL WALL CLOCK TIME=          0.0 SECONDS, CPU UTILIZATION IS    80.00%

          -------------
          GUESS OPTIONS
          -------------
          GUESS =HUCKEL            NORB  =       0          NORDER=       0
          MIX   =       F          PRTMO =       F          PUNMO =       F
          TOLZ  = 1.0E-08          TOLE  = 1.0E-05
          SYMDEN=       F          PURIFY=       F

 INITIAL GUESS ORBITALS GENERATED BY HUCKEL   ROUTINE.
 HUCKEL GUESS REQUIRES     21634 WORDS.

 STATISTICS FOR GENERATION OF SYMMETRY ORBITAL -Q- MATRIX
 NUMBER OF CARTESIAN ATOMIC ORBITALS=         49
 NUMBER OF SPHERICAL CONTAMINANTS DROPPED=     3
 NUMBER OF LINEARLY DEPENDENT MOS DROPPED=     0
 TOTAL NUMBER OF MOS IN VARIATION SPACE=      46

 SYMMETRIES FOR INITIAL GUESS ORBITALS FOLLOW.   BOTH SET(S).
    16 ORBITALS ARE OCCUPIED (    7 CORE ORBITALS).
     8=A        9=A       10=A       11=A       12=A       13=A       14=A   
    15=A       16=A       17=A       18=A       19=A       20=A       21=A   
    22=A       23=A       24=A       25=A       26=A   
 ...... END OF INITIAL ORBITAL SELECTION ......
 STEP CPU TIME =     0.00 TOTAL CPU TIME =          0.0 (      0.0 MIN)
 TOTAL WALL CLOCK TIME=          0.1 SECONDS, CPU UTILIZATION IS    66.67%

                    ----------------------
                    AO INTEGRAL TECHNOLOGY
                    ----------------------
     S,P,L SHELL ROTATED AXIS INTEGRALS, REPROGRAMMED BY
        KAZUYA ISHIMURA (IMS) AND JOSE SIERRA (SYNSTAR).
     S,P,D,L SHELL ROTATED AXIS INTEGRALS PROGRAMMED BY
        KAZUYA ISHIMURA (INSTITUTE FOR MOLECULAR SCIENCE).
     S,P,D,F,G SHELL TO TOTAL QUARTET ANGULAR MOMENTUM SUM 5,
        ERIC PROGRAM BY GRAHAM FLETCHER (ELORET AND NASA ADVANCED
        SUPERCOMPUTING DIVISION, AMES RESEARCH CENTER).
     S,P,D,F,G,L SHELL GENERAL RYS QUADRATURE PROGRAMMED BY
        MICHEL DUPUIS (PACIFIC NORTHWEST NATIONAL LABORATORY).

          --------------------
          2 ELECTRON INTEGRALS
          --------------------

 THE -PK- OPTION IS OFF, THE INTEGRALS ARE NOT IN SUPERMATRIX FORM.
 STORING   15000 INTEGRALS/RECORD ON DISK, USING 12 BYTES/INTEGRAL.
 TWO ELECTRON INTEGRAL EVALUATION REQUIRES   90606 WORDS OF MEMORY.
 II,JST,KST,LST =  1  1  1  1 NREC =         1 INTLOC =    1
 II,JST,KST,LST =  2  1  1  1 NREC =         1 INTLOC =    2
 II,JST,KST,LST =  3  1  1  1 NREC =         1 INTLOC =    7
 II,JST,KST,LST =  4  1  1  1 NREC =         1 INTLOC =   22
 II,JST,KST,LST =  5  1  1  1 NREC =         1 INTLOC =   56
 II,JST,KST,LST =  6  1  1  1 NREC =         1 INTLOC =  125
 II,JST,KST,LST =  7  1  1  1 NREC =         1 INTLOC =  329
 II,JST,KST,LST =  8  1  1  1 NREC =         1 INTLOC =  776
 II,JST,KST,LST =  9  1  1  1 NREC =         1 INTLOC = 2864
 II,JST,KST,LST = 10  1  1  1 NREC =         1 INTLOC = 4936
 II,JST,KST,LST = 11  1  1  1 NREC =         1 INTLOC = 7599
 II,JST,KST,LST = 12  1  1  1 NREC =         1 INTLOC =10716
 II,JST,KST,LST = 13  1  1  1 NREC =         2 INTLOC = 6617
 II,JST,KST,LST = 14  1  1  1 NREC =         3 INTLOC = 6884
 II,JST,KST,LST = 15  1  1  1 NREC =         6 INTLOC = 8826
 II,JST,KST,LST = 16  1  1  1 NREC =         7 INTLOC =  902
 II,JST,KST,LST = 17  1  1  1 NREC =         7 INTLOC =11637
 II,JST,KST,LST = 18  1  1  1 NREC =         8 INTLOC = 9941
 II,JST,KST,LST = 19  1  1  1 NREC =        11 INTLOC = 1254
 II,JST,KST,LST = 20  1  1  1 NREC =        14 INTLOC = 7524
 TOTAL NUMBER OF NONZERO TWO-ELECTRON INTEGRALS =              324145
         22 INTEGRAL RECORDS WERE STORED ON DISK FILE  8.
  ...... END OF TWO-ELECTRON INTEGRALS .....
 STEP CPU TIME =     0.11 TOTAL CPU TIME =          0.2 (      0.0 MIN)
 TOTAL WALL CLOCK TIME=          0.2 SECONDS, CPU UTILIZATION IS    88.24%

          --------------------------
               R-PBE SCF CALCULATION
          --------------------------

     NUCLEAR ENERGY =        98.7099374508
     MAXIT =   30     NPUNCH=    2
     EXTRAP=T  DAMP=F  SHIFT=F  RSTRCT=F  DIIS=T  DEM=F  SOSCF=F
         DENSITY MATRIX CONVERGENCE THRESHOLD=  1.00E-05
     COARSE -> FINE DFT GRID SWITCH THRESHOLD=  3.00E-04 (SWITCH IN $DFT)
                   HF -> DFT SWITCH THRESHOLD=  5.00E-03 (SWOFF IN $DFT)
     MEMORY REQUIRED FOR RHF ITERS=    183108 WORDS.

 DFT CODE IS SWITCHING FROM THE FINE GRID NRAD= 96,  NLEB=  302
                      TO THE COARSE GRID NRAD0= 24, NLEB0=  110

     EXCHANGE FUNCTIONAL   =PBE       
     CORRELATION FUNCTIONAL=PBE       
     DFT THRESHOLD         =.460E-07
     GRID CHANGE THRESHOLD =.300E-03
 FOR AN EULER-MACLAURIN QUADRATURE USING  96 RADIAL POINTS:
 SMALLEST GAUSSIAN PRIMITIVE EXPONENT=        0.1001940000 OF TYPE -P-
 ON ATOM NUMBER   1 HAS RADIAL NORMALIZATION=  1.000000
  LARGEST GAUSSIAN PRIMITIVE EXPONENT=    49299.4000000000 OF TYPE -S-
 ON ATOM NUMBER   1 HAS RADIAL NORMALIZATION=  1.000000
 DFT IS SWITCHED OFF, PERFORMING PURE SCF UNTIL SWOFF THRESHOLD IS REACHED.

 ITER EX DEM     TOTAL ENERGY        E CHANGE  DENSITY CHANGE    DIIS ERROR
   1  0  0     -545.9809782582  -545.9809782582   0.732966622   1.112032856
          * * *   INITIATING DIIS PROCEDURE   * * *
   2  1  0     -546.6478981747    -0.6669199165   0.681211036   0.302171336
   3  2  0     -546.7353302995    -0.0874321247   0.240067630   0.283575499
   4  3  0     -547.0038731748    -0.2685428754   0.050794571   0.019840277
   5  4  0     -547.0082034479    -0.0043302731   0.039119124   0.012762567
   6  5  0     -547.0099868099    -0.0017833620   0.031255176   0.008279014
   7  6  0     -547.0108363417    -0.0008495318   0.015610429   0.003032383
   8  7  0     -547.0109773354    -0.0001409937   0.001856199   0.000720445
 CONVERGED TO SWOFF, SO DFT CALCULATION IS NOW SWITCHED ON.
          * * *   INITIATING DIIS PROCEDURE   * * *
   9  8  0     -548.1812944722    -1.1703171368   0.377930961   0.103664543
  10  9  0     -548.1804024370     0.0008920352   0.325962339   0.111426970
  11 10  0     -548.1840475387    -0.0036451017   0.119479390   0.116603668
  12 11  0     -548.2232321183    -0.0391845796   0.030534577   0.016093296
  13 12  0     -548.2242649219    -0.0010328036   0.003026595   0.001422772
  14 13  0     -548.2242725389    -0.0000076170   0.001171609   0.000276894
  15 14  0     -548.2242731129    -0.0000005739   0.000113021   0.000049239
 DFT CODE IS SWITCHING BACK TO THE FINE GRID
          * * *   INITIATING DIIS PROCEDURE   * * *
  16 15  0     -548.2046914363     0.0195816765   0.007797472   0.009967731
  17 16  0     -548.2048947431    -0.0002033068   0.013444914   0.003418093
  18 17  0     -548.2047561339     0.0001386092   0.009468645   0.007354825
  19 18  0     -548.2049186564    -0.0001625226   0.002350511   0.001984190
  20 19  0     -548.2049166897     0.0000019667   0.001566852   0.002342000
  21 20  0     -548.2049280727    -0.0000113830   0.000126623   0.000076262
  22 21  0     -548.2049280986    -0.0000000259   0.000006942   0.000006400
  23 22  0     -548.2049280987    -0.0000000001   0.000000496   0.000000401
  24 23  0     -548.2049280987     0.0000000000   0.000000107   0.000000046

          -----------------
          DENSITY CONVERGED
          -----------------
     TIME TO FORM FOCK OPERATORS=       2.4 SECONDS (       0.1 SEC/ITER)
     TIME TO SOLVE SCF EQUATIONS=       0.0 SECONDS (       0.0 SEC/ITER)

 FINAL R-PBE ENERGY IS     -548.2049280987 AFTER  24 ITERATIONS
 DFT EXCHANGE + CORRELATION ENERGY =       -42.3884956735
 TOTAL ELECTRON NUMBER             =        31.9999951668

          ------------
          EIGENVECTORS
          ------------

                      1          2          3          4          5
                  -88.2301   -18.8219   -18.8219    -7.8399    -5.8669
                     A          A          A          A          A   
    1  S  1  S    0.997756  -0.000000  -0.000013  -0.308379  -0.000000
    2  S  1  S    0.008278  -0.000000  -0.000009   1.031743   0.000000
    3  S  1  S   -0.003095   0.000001   0.000354   0.027742   0.000000
    4  S  1  S    0.000674   0.000009   0.006096  -0.005209  -0.000000
    5  S  1  X   -0.000000  -0.000130   0.000000  -0.000000   0.994608
    6  S  1  Y    0.000117  -0.000000  -0.000047   0.012307  -0.000001
    7  S  1  Z    0.000000   0.000000   0.000000   0.000000   0.000000
    8  S  1  X    0.000000   0.002269  -0.000003   0.000000   0.017253
    9  S  1  Y   -0.000241   0.000001   0.000677   0.001127  -0.000000
   10  S  1  Z    0.000000   0.000000   0.000000   0.000000   0.000000
   11  S  1  X    0.000000   0.005702  -0.000009  -0.000000  -0.002318
   12  S  1  Y   -0.000010   0.000002   0.001432  -0.000234   0.000000
   13  S  1  Z    0.000000   0.000000   0.000000   0.000000   0.000000
   14  S  1 XX   -0.000425   0.000001   0.000349   0.001201  -0.000000
   15  S  1 YY    0.000191  -0.000000  -0.000081  -0.000614   0.000000
   16  S  1 ZZ    0.000234  -0.000000  -0.000268  -0.000586   0.000000
   17  S  1 XY    0.000000   0.000241  -0.000000  -0.000000   0.001254
   18  S  1 XZ    0.000000   0.000000   0.000000   0.000000   0.000000
   19  S  1 YZ    0.000000   0.000000   0.000000   0.000000   0.000000
   20  O  2  S   -0.000018   0.703349   0.701276  -0.000029  -0.000306
   21  O  2  S   -0.000186   0.024203   0.023537  -0.000046  -0.000037
   22  O  2  S    0.000520  -0.012676  -0.010607  -0.000674  -0.000837
   23  O  2  X   -0.000059  -0.000763  -0.000983   0.000261  -0.000383
   24  O  2  Y   -0.000019  -0.000272  -0.000040   0.000069  -0.000100
   25  O  2  Z    0.000000   0.000000   0.000000   0.000000   0.000000
   26  O  2  X   -0.000517   0.002166   0.002771   0.001089   0.001081
   27  O  2  Y   -0.000143   0.001192   0.000095   0.000337   0.000234
   28  O  2  Z    0.000000   0.000000   0.000000   0.000000   0.000000
   29  O  2 XX    0.000271  -0.000213  -0.000309  -0.000134   0.000802
   30  O  2 YY   -0.000115   0.000063   0.000145   0.000051  -0.000329
   31  O  2 ZZ   -0.000156   0.000150   0.000164   0.000083  -0.000473
   32  O  2 XY    0.000147  -0.000200  -0.000068  -0.000097   0.000483
   33  O  2 XZ    0.000000   0.000000   0.000000   0.000000   0.000000
   34  O  2 YZ    0.000000   0.000000   0.000000   0.000000   0.000000
   35  O  3  S   -0.000018  -0.701285   0.703339  -0.000029   0.000306
   36  O  3  S   -0.000186  -0.024133   0.023609  -0.000046   0.000037
   37  O  3  S    0.000520   0.012644  -0.010644  -0.000674   0.000837
   38  O  3  X    0.000059  -0.000761   0.000985  -0.000261  -0.000383
   39  O  3  Y   -0.000019   0.000272  -0.000041   0.000069   0.000100
   40  O  3  Z    0.000000   0.000000   0.000000   0.000000   0.000000
   41  O  3  X    0.000517   0.002157  -0.002778  -0.001089   0.001081
   42  O  3  Y   -0.000143  -0.001192   0.000098   0.000337  -0.000234
   43  O  3  Z    0.000000   0.000000   0.000000   0.000000   0.000000
   44  O  3 XX    0.000271   0.000212  -0.000310  -0.000134  -0.000802
   45  O  3 YY   -0.000115  -0.000063   0.000145   0.000051   0.000329
   46  O  3 ZZ   -0.000156  -0.000149   0.000165   0.000083   0.000473
   47  O  3 XY   -0.000147  -0.000200   0.000068   0.000097   0.000483
   48  O  3 XZ    0.000000   0.000000   0.000000   0.000000   0.000000
   49  O  3 YZ    0.000000   0.000000   0.000000   0.000000   0.000000

                      6          7          8          9         10
                   -5.8645    -5.8608    -1.0098    -0.9546    -0.6034
                     A          A          A          A          A   
    1  S  1  S    0.000000   0.003873   0.049248   0.000000   0.066531
    2  S  1  S    0.000000  -0.013357  -0.303122  -0.000000  -0.425884
    3  S  1  S    0.000000   0.000399   0.422699   0.000000   0.654786
    4  S  1  S    0.000000  -0.000119   0.075699   0.000004   0.234516
    5  S  1  X    0.000000   0.000001  -0.000000   0.124706  -0.000000
    6  S  1  Y    0.000000   0.995014  -0.034517  -0.000000   0.000361
    7  S  1  Z    0.995057   0.000000   0.000000   0.000000   0.000000
    8  S  1  X    0.000000   0.000000   0.000002  -0.276149   0.000000
    9  S  1  Y    0.000000   0.015491   0.078964   0.000001   0.008229
   10  S  1  Z    0.015624   0.000000   0.000000   0.000000   0.000000
   11  S  1  X    0.000000   0.000000   0.000003   0.015633  -0.000002
   12  S  1  Y    0.000000  -0.002902  -0.008068   0.000001  -0.015344
   13  S  1  Z   -0.002991   0.000000   0.000000   0.000000   0.000000
   14  S  1 XX    0.000000  -0.000513   0.065499   0.000001  -0.019200
   15  S  1 YY    0.000000   0.000962  -0.029072  -0.000000   0.005917
   16  S  1 ZZ    0.000000  -0.000449  -0.036427  -0.000001   0.013284
   17  S  1 XY    0.000000   0.000000   0.000000  -0.043723  -0.000000
   18  S  1 XZ    0.000000   0.000000   0.000000   0.000000   0.000000
   19  S  1 YZ    0.000803   0.000000   0.000000   0.000000   0.000000
   20  O  2  S    0.000000  -0.000090  -0.139127   0.161674   0.115704
   21  O  2  S    0.000000  -0.000065   0.286117  -0.334128  -0.246999
   22  O  2  S    0.000000   0.000149   0.255772  -0.308821  -0.324998
   23  O  2  X    0.000000  -0.000166  -0.100938   0.096598  -0.165753
   24  O  2  Y    0.000000  -0.000093  -0.021764   0.022501  -0.041787
   25  O  2  Z   -0.000055   0.000000   0.000000   0.000000   0.000000
   26  O  2  X    0.000000   0.000168  -0.036250   0.024302  -0.078018
   27  O  2  Y    0.000000  -0.000128  -0.004232   0.006535  -0.015184
   28  O  2  Z   -0.000120   0.000000   0.000000   0.000000   0.000000
   29  O  2 XX    0.000000   0.000252   0.009641  -0.009666   0.008492
   30  O  2 YY    0.000000  -0.000101  -0.005878   0.005339  -0.002921
   31  O  2 ZZ    0.000000  -0.000151  -0.003764   0.004326  -0.005571
   32  O  2 XY    0.000000   0.000239   0.001183  -0.004193   0.004745
   33  O  2 XZ    0.000088   0.000000   0.000000   0.000000   0.000000
   34  O  2 YZ    0.000005   0.000000   0.000000   0.000000   0.000000
   35  O  3  S    0.000000  -0.000090  -0.139127  -0.161674   0.115705
   36  O  3  S    0.000000  -0.000065   0.286115   0.334130  -0.247000
   37  O  3  S    0.000000   0.000149   0.255778   0.308816  -0.325000
   38  O  3  X    0.000000   0.000166   0.100938   0.096598   0.165753
   39  O  3  Y    0.000000  -0.000093  -0.021764  -0.022501  -0.041787
   40  O  3  Z   -0.000055   0.000000   0.000000   0.000000   0.000000
   41  O  3  X    0.000000  -0.000168   0.036252   0.024299   0.078018
   42  O  3  Y    0.000000  -0.000128  -0.004233  -0.006535  -0.015184
   43  O  3  Z   -0.000120   0.000000   0.000000   0.000000   0.000000
   44  O  3 XX    0.000000   0.000252   0.009641   0.009665   0.008492
   45  O  3 YY    0.000000  -0.000101  -0.005878  -0.005339  -0.002921
   46  O  3 ZZ    0.000000  -0.000151  -0.003764  -0.004326  -0.005571
   47  O  3 XY    0.000000  -0.000239  -0.001183  -0.004193  -0.004745
   48  O  3 XZ   -0.000088   0.000000   0.000000   0.000000   0.000000
   49  O  3 YZ    0.000005   0.000000   0.000000   0.000000   0.000000

                     11         12         13         14         15
                   -0.4505    -0.4258    -0.4199    -0.3386    -0.3303
                     A          A          A          A          A   
    1  S  1  S   -0.000000   0.000000  -0.009495   0.000000   0.000000
    2  S  1  S    0.000000   0.000000   0.060734   0.000000  -0.000000
    3  S  1  S   -0.000000   0.000000  -0.086409   0.000000   0.000001
    4  S  1  S   -0.000001   0.000000  -0.088633   0.000000  -0.000001
    5  S  1  X   -0.175699   0.000000   0.000000   0.000000   0.017769
    6  S  1  Y   -0.000000   0.000000  -0.207828   0.000000   0.000000
    7  S  1  Z    0.000000  -0.211266   0.000000   0.000000   0.000000
    8  S  1  X    0.472637   0.000000   0.000000   0.000000  -0.046212
    9  S  1  Y   -0.000000   0.000000   0.556225   0.000000  -0.000000
   10  S  1  Z    0.000000   0.567793   0.000000  -0.000000   0.000000
   11  S  1  X   -0.036276   0.000000   0.000001   0.000000  -0.053083
   12  S  1  Y   -0.000000   0.000000   0.138506   0.000000  -0.000000
   13  S  1  Z    0.000000   0.146472   0.000000  -0.000000   0.000000
   14  S  1 XX   -0.000000   0.000000  -0.029454   0.000000  -0.000000
   15  S  1 YY    0.000000   0.000000   0.044554   0.000000   0.000000
   16  S  1 ZZ    0.000000   0.000000  -0.015100   0.000000   0.000000
   17  S  1 XY    0.036516   0.000000   0.000000   0.000000   0.115474
   18  S  1 XZ    0.000000   0.000000   0.000000   0.120265   0.000000
   19  S  1 YZ    0.000000   0.034419   0.000000  -0.000000   0.000000
   20  O  2  S    0.071047   0.000000   0.009578   0.000000  -0.000889
   21  O  2  S   -0.153388   0.000000  -0.020942   0.000000   0.000541
   22  O  2  S   -0.225390   0.000000  -0.034251   0.000000   0.022266
   23  O  2  X   -0.361910   0.000000  -0.148386   0.000000  -0.158679
   24  O  2  Y   -0.111223   0.000000   0.273578   0.000000   0.435472
   25  O  2  Z    0.000000   0.309979   0.000000   0.463621   0.000000
   26  O  2  X   -0.179376   0.000000  -0.092114   0.000000  -0.108053
   27  O  2  Y   -0.062332   0.000000   0.168172   0.000000   0.306087
   28  O  2  Z    0.000000   0.188212   0.000000   0.326950   0.000000
   29  O  2 XX    0.013292   0.000000   0.012999   0.000000   0.005530
   30  O  2 YY   -0.004849   0.000000  -0.009587   0.000000  -0.006497
   31  O  2 ZZ   -0.008442   0.000000  -0.003412   0.000000   0.000966
   32  O  2 XY    0.009350   0.000000  -0.014732   0.000000  -0.017277
   33  O  2 XZ    0.000000  -0.019590   0.000000  -0.017745   0.000000
   34  O  2 YZ    0.000000  -0.004301   0.000000  -0.004235   0.000000
   35  O  3  S   -0.071046   0.000000   0.009578   0.000000   0.000889
   36  O  3  S    0.153386   0.000000  -0.020943   0.000000  -0.000541
   37  O  3  S    0.225391   0.000000  -0.034249   0.000000  -0.022266
   38  O  3  X   -0.361909   0.000000   0.148386   0.000000  -0.158679
   39  O  3  Y    0.111224   0.000000   0.273578   0.000000  -0.435471
   40  O  3  Z    0.000000   0.309979   0.000000  -0.463621   0.000000
   41  O  3  X   -0.179374   0.000000   0.092114   0.000000  -0.108053
   42  O  3  Y    0.062332   0.000000   0.168172   0.000000  -0.306087
   43  O  3  Z    0.000000   0.188212   0.000000  -0.326950   0.000000
   44  O  3 XX   -0.013292   0.000000   0.012999   0.000000  -0.005530
   45  O  3 YY    0.004849   0.000000  -0.009587   0.000000   0.006497
   46  O  3 ZZ    0.008442   0.000000  -0.003412   0.000000  -0.000966
   47  O  3 XY    0.009350   0.000000   0.014732   0.000000  -0.017277
   48  O  3 XZ    0.000000   0.019590   0.000000  -0.017745   0.000000
   49  O  3 YZ    0.000000  -0.004301   0.000000   0.004235   0.000000

                     16         17         18         19         20
                   -0.2584    -0.1829    -0.1328     0.0995     0.2156
                     A          A          A          A          A   
    1  S  1  S    0.028790   0.000000   0.019429  -0.000000   0.000000
    2  S  1  S   -0.186961   0.000000  -0.129257   0.000001   0.000000
    3  S  1  S    0.236091   0.000000   0.180030  -0.000005   0.000000
    4  S  1  S    0.544083   0.000000   0.431095  -0.000006   0.000000
    5  S  1  X   -0.000000   0.000000  -0.000000  -0.153129   0.000000
    6  S  1  Y    0.097946   0.000000  -0.206398   0.000000   0.000000
    7  S  1  Z    0.000000  -0.228914   0.000000   0.000000   0.246814
    8  S  1  X    0.000001   0.000000   0.000001   0.485646   0.000000
    9  S  1  Y   -0.272751   0.000000   0.626797  -0.000002   0.000000
   10  S  1  Z    0.000000   0.677370   0.000000   0.000000  -0.977551
   11  S  1  X   -0.000002   0.000000  -0.000005   1.367006   0.000000
   12  S  1  Y   -0.040551   0.000000   0.355984  -0.000000   0.000000
   13  S  1  Z    0.000000   0.294861   0.000000   0.000000   1.315578
   14  S  1 XX   -0.174138   0.000000  -0.127036  -0.000005   0.000000
   15  S  1 YY    0.086040   0.000000   0.041500   0.000002   0.000000
   16  S  1 ZZ    0.088098   0.000000   0.085536   0.000003   0.000000
   17  S  1 XY   -0.000000   0.000000   0.000000  -0.144558   0.000000
   18  S  1 XZ    0.000000   0.000000   0.000000   0.000000   0.000000
   19  S  1 YZ    0.000000  -0.016388   0.000000   0.000000  -0.069625
   20  O  2  S    0.011378   0.000000   0.028822   0.075158   0.000000
   21  O  2  S   -0.029269   0.000000  -0.067609  -0.144901   0.000000
   22  O  2  S   -0.087487   0.000000  -0.187611  -0.752242   0.000000
   23  O  2  X    0.283127   0.000000   0.321197   0.141890   0.000000
   24  O  2  Y    0.324852   0.000000  -0.242343   0.173856   0.000000
   25  O  2  Z    0.000000  -0.394689   0.000000   0.000000  -0.060254
   26  O  2  X    0.199836   0.000000   0.268943   0.246549   0.000000
   27  O  2  Y    0.234868   0.000000  -0.200104   0.174583   0.000000
   28  O  2  Z    0.000000  -0.314607   0.000000   0.000000  -0.125857
   29  O  2 XX   -0.002527   0.000000   0.000547  -0.007269   0.000000
   30  O  2 YY    0.000419   0.000000  -0.001398   0.006107   0.000000
   31  O  2 ZZ    0.002109   0.000000   0.000850   0.001161   0.000000
   32  O  2 XY   -0.005441   0.000000  -0.002123   0.004872   0.000000
   33  O  2 XZ    0.000000   0.000609   0.000000   0.000000   0.017770
   34  O  2 YZ    0.000000  -0.000545   0.000000   0.000000   0.003116
   35  O  3  S    0.011379   0.000000   0.028822  -0.075157   0.000000
   36  O  3  S   -0.029269   0.000000  -0.067610   0.144889   0.000000
   37  O  3  S   -0.087489   0.000000  -0.187615   0.752260   0.000000
   38  O  3  X   -0.283127   0.000000  -0.321198   0.141885   0.000000
   39  O  3  Y    0.324853   0.000000  -0.242343  -0.173857   0.000000
   40  O  3  Z    0.000000  -0.394689   0.000000   0.000000  -0.060254
   41  O  3  X   -0.199836   0.000000  -0.268943   0.246562   0.000000
   42  O  3  Y    0.234869   0.000000  -0.200103  -0.174586   0.000000
   43  O  3  Z    0.000000  -0.314607   0.000000   0.000000  -0.125856
   44  O  3 XX   -0.002527   0.000000   0.000547   0.007269   0.000000
   45  O  3 YY    0.000419   0.000000  -0.001398  -0.006108   0.000000
   46  O  3 ZZ    0.002109   0.000000   0.000850  -0.001162   0.000000
   47  O  3 XY    0.005441   0.000000   0.002123   0.004872   0.000000
   48  O  3 XZ    0.000000  -0.000609   0.000000   0.000000  -0.017770
   49  O  3 YZ    0.000000  -0.000545   0.000000   0.000000   0.003116

                     21         22         23         24         25
                    0.2213     0.2425     0.3085     0.5072     0.5081
                     A          A          A          A          A   
    1  S  1  S   -0.007377  -0.069101   0.000001   0.000000   0.000707
    2  S  1  S    0.054735   0.505959  -0.000004   0.000000  -0.004874
    3  S  1  S   -0.251655  -1.893638   0.000015   0.000000   0.005235
    4  S  1  S    0.395381   2.137696  -0.000006   0.000000   0.031718
    5  S  1  X   -0.000001  -0.000003  -0.320051   0.000000  -0.000000
    6  S  1  Y    0.243085  -0.040316  -0.000001   0.000000   0.022342
    7  S  1  Z    0.000000   0.000000   0.000000   0.022837   0.000000
    8  S  1  X    0.000005   0.000012   1.222574   0.000000   0.000000
    9  S  1  Y   -0.958099   0.169743   0.000003   0.000000  -0.089104
   10  S  1  Z    0.000000   0.000000   0.000000  -0.091686   0.000000
   11  S  1  X   -0.000003  -0.000007  -1.221220   0.000000   0.000000
   12  S  1  Y    1.334557  -0.082030  -0.000002   0.000000   0.081008
   13  S  1  Z    0.000000   0.000000   0.000000   0.073479   0.000000
   14  S  1 XX    0.086152   0.022004   0.000005   0.000000  -0.029392
   15  S  1 YY   -0.102126  -0.007154  -0.000002   0.000000   0.861351
   16  S  1 ZZ    0.015974  -0.014850  -0.000003   0.000000  -0.831959
   17  S  1 XY    0.000000   0.000001  -0.201516   0.000000   0.000000
   18  S  1 XZ    0.000000   0.000000   0.000000  -0.000001   0.000000
   19  S  1 YZ    0.000000   0.000000   0.000000   0.979667   0.000000
   20  O  2  S    0.008642   0.014895   0.009024   0.000000   0.002494
   21  O  2  S    0.003008  -0.007950  -0.081624   0.000000  -0.008501
   22  O  2  S   -0.207023  -0.371235   0.306694   0.000000  -0.015710
   23  O  2  X   -0.059911  -0.147206   0.307818   0.000000   0.033738
   24  O  2  Y   -0.073842  -0.061386   0.129640   0.000000  -0.127417
   25  O  2  Z    0.000000   0.000000   0.000000  -0.125218   0.000000
   26  O  2  X    0.054310   0.114369   0.164198   0.000000   0.002752
   27  O  2  Y   -0.110073   0.038025   0.039675   0.000000   0.049169
   28  O  2  Z    0.000000   0.000000   0.000000   0.044492   0.000000
   29  O  2 XX   -0.022976  -0.033398   0.032993   0.000000   0.007225
   30  O  2 YY    0.013156   0.013658  -0.009870   0.000000   0.017788
   31  O  2 ZZ    0.009820   0.019740  -0.023123   0.000000  -0.025013
   32  O  2 XY    0.008503  -0.020688   0.031351   0.000000  -0.023179
   33  O  2 XZ    0.000000   0.000000   0.000000  -0.023681   0.000000
   34  O  2 YZ    0.000000   0.000000   0.000000   0.024870   0.000000
   35  O  3  S    0.008643   0.014895  -0.009025   0.000000   0.002494
   36  O  3  S    0.003005  -0.007956   0.081632   0.000000  -0.008501
   37  O  3  S   -0.207020  -0.371229  -0.306705   0.000000  -0.015709
   38  O  3  X    0.059911   0.147206   0.307820   0.000000  -0.033739
   39  O  3  Y   -0.073843  -0.061387  -0.129638   0.000000  -0.127417
   40  O  3  Z    0.000000   0.000000   0.000000  -0.125219   0.000000
   41  O  3  X   -0.054305  -0.114359   0.164187   0.000000  -0.002752
   42  O  3  Y   -0.110074   0.038023  -0.039672   0.000000   0.049169
   43  O  3  Z    0.000000   0.000000   0.000000   0.044492   0.000000
   44  O  3 XX   -0.022976  -0.033398  -0.032993   0.000000   0.007225
   45  O  3 YY    0.013156   0.013658   0.009870   0.000000   0.017788
   46  O  3 ZZ    0.009820   0.019740   0.023123   0.000000  -0.025013
   47  O  3 XY   -0.008503   0.020688   0.031351   0.000000   0.023179
   48  O  3 XZ    0.000000   0.000000   0.000000   0.023681   0.000000
   49  O  3 YZ    0.000000   0.000000   0.000000   0.024869   0.000000

                     26         27         28         29         30
                    0.5230     0.6003     0.6677     0.7610     0.7746
                     A          A          A          A          A   
    1  S  1  S    0.000000  -0.000000   0.017572  -0.000000   0.000000
    2  S  1  S    0.000000   0.000000  -0.141648   0.000000   0.000000
    3  S  1  S    0.000000  -0.000001   0.531585  -0.000002   0.000000
    4  S  1  S    0.000000  -0.000009   0.794662  -0.000007   0.000000
    5  S  1  X    0.000000  -0.141682  -0.000001  -0.053975   0.000000
    6  S  1  Y    0.000000   0.000000  -0.051773   0.000000   0.000000
    7  S  1  Z    0.000000   0.000000   0.000000   0.000000   0.000000
    8  S  1  X    0.000000   0.682269   0.000006   0.447190   0.000000
    9  S  1  Y    0.000000  -0.000001   0.282893  -0.000001   0.000000
   10  S  1  Z   -0.000000   0.000000   0.000000   0.000000  -0.000000
   11  S  1  X    0.000000   0.189218   0.000008  -0.200667   0.000000
   12  S  1  Y    0.000000  -0.000001   0.053459  -0.000000   0.000000
   13  S  1  Z    0.000000   0.000000   0.000000   0.000000  -0.000000
   14  S  1 XX    0.000000  -0.000003   0.667086  -0.000002   0.000000
   15  S  1 YY    0.000000   0.000001  -0.291557   0.000001   0.000000
   16  S  1 ZZ    0.000000   0.000002  -0.375530   0.000001   0.000000
   17  S  1 XY    0.000000   0.788235   0.000004   0.216022   0.000000
   18  S  1 XZ    0.843286   0.000000   0.000000   0.000000  -0.557857
   19  S  1 YZ    0.000001   0.000000   0.000000   0.000000  -0.000000
   20  O  2  S    0.000000   0.056595   0.072257   0.007994   0.000000
   21  O  2  S    0.000000  -0.198898  -0.255396   0.032874   0.000000
   22  O  2  S    0.000000  -0.257660  -0.310543  -0.123948   0.000000
   23  O  2  X    0.000000   0.051775  -0.336522  -0.458427   0.000000
   24  O  2  Y    0.000000  -0.325149   0.002025   0.381837   0.000000
   25  O  2  Z   -0.387027   0.000000   0.000000   0.000000  -0.528823
   26  O  2  X    0.000000   0.499052   1.008838   0.796959   0.000000
   27  O  2  Y    0.000000   0.324993   0.199355  -0.428814   0.000000
   28  O  2  Z    0.144776   0.000000   0.000000   0.000000   0.774524
   29  O  2 XX    0.000000   0.044199   0.008149   0.041106   0.000000
   30  O  2 YY    0.000000  -0.037253   0.001716  -0.022557   0.000000
   31  O  2 ZZ    0.000000  -0.006946  -0.009865  -0.018549   0.000000
   32  O  2 XY    0.000000  -0.033972   0.016210   0.000948   0.000000
   33  O  2 XZ   -0.061289   0.000000   0.000000   0.000000   0.064275
   34  O  2 YZ   -0.023388   0.000000   0.000000   0.000000   0.022436
   35  O  3  S    0.000000  -0.056596   0.072256  -0.007996   0.000000
   36  O  3  S    0.000000   0.198895  -0.255394  -0.032862   0.000000
   37  O  3  S    0.000000   0.257670  -0.310532   0.123943   0.000000
   38  O  3  X    0.000000   0.051769   0.336509  -0.458437   0.000000
   39  O  3  Y    0.000000   0.325150   0.002023  -0.381833   0.000000
   40  O  3  Z    0.387027   0.000000   0.000000   0.000000   0.528822
   41  O  3  X    0.000000   0.499066  -1.008814   0.796977   0.000000
   42  O  3  Y    0.000000  -0.324995   0.199356   0.428807   0.000000
   43  O  3  Z   -0.144776   0.000000   0.000000   0.000000  -0.774523
   44  O  3 XX    0.000000  -0.044199   0.008149  -0.041107   0.000000
   45  O  3 YY    0.000000   0.037253   0.001716   0.022557   0.000000
   46  O  3 ZZ    0.000000   0.006946  -0.009865   0.018549   0.000000
   47  O  3 XY    0.000000  -0.033972  -0.016210   0.000948   0.000000
   48  O  3 XZ   -0.061289   0.000000   0.000000   0.000000   0.064275
   49  O  3 YZ    0.023388   0.000000   0.000000   0.000000  -0.022436

                     31         32         33         34         35
                    0.8280     0.8407     0.8530     1.0178     1.3898
                     A          A          A          A          A   
    1  S  1  S   -0.000000   0.003958   0.000000  -0.000716  -0.004623
    2  S  1  S    0.000000  -0.035103   0.000000   0.021052   0.047945
    3  S  1  S   -0.000000   0.192728   0.000000  -0.429158  -0.034072
    4  S  1  S   -0.000000   0.001770   0.000000   0.671495  -1.553741
    5  S  1  X   -0.001460  -0.000000   0.000000  -0.000000  -0.000002
    6  S  1  Y   -0.000000  -0.000035   0.000000  -0.035164   0.026315
    7  S  1  Z    0.000000   0.000000   0.003340   0.000000   0.000000
    8  S  1  X   -0.217439  -0.000001   0.000000   0.000000   0.000014
    9  S  1  Y    0.000000   0.004674   0.000000   0.099757  -0.195337
   10  S  1  Z    0.000000   0.000000  -0.032182   0.000000   0.000000
   11  S  1  X    0.134771   0.000000   0.000000   0.000006   0.000014
   12  S  1  Y    0.000002  -0.560434   0.000000  -0.002880  -0.384662
   13  S  1  Z    0.000000   0.000000  -0.589390   0.000000   0.000000
   14  S  1 XX   -0.000001   0.092327   0.000000   0.978587  -0.305340
   15  S  1 YY    0.000001  -0.206850   0.000000  -0.452039   0.105840
   16  S  1 ZZ   -0.000000   0.114524   0.000000  -0.526549   0.199500
   17  S  1 XY    0.606085   0.000004   0.000000   0.000001   0.000001
   18  S  1 XZ    0.000000   0.000000   0.000000   0.000000   0.000000
   19  S  1 YZ    0.000000   0.000000  -0.184783   0.000000   0.000000
   20  O  2  S   -0.003010  -0.011950   0.000000   0.030687   0.075522
   21  O  2  S    0.052089   0.127746   0.000000  -0.029335  -1.208575
   22  O  2  S   -0.117657  -0.102615   0.000000  -0.389484   1.839912
   23  O  2  X    0.418875   0.070384   0.000000   0.537801   0.115986
   24  O  2  Y    0.374883  -0.614503   0.000000   0.128851  -0.070813
   25  O  2  Z    0.000000   0.000000  -0.627182   0.000000   0.000000
   26  O  2  X   -0.432874  -0.052964   0.000000  -0.229301  -0.718938
   27  O  2  Y   -0.581515   0.908349   0.000000   0.061952   0.035690
   28  O  2  Z    0.000000   0.000000   0.924109   0.000000   0.000000
   29  O  2 XX    0.012055  -0.001270   0.000000  -0.018851  -0.141747
   30  O  2 YY   -0.029606   0.001398   0.000000   0.031205   0.065568
   31  O  2 ZZ    0.017551  -0.000128   0.000000  -0.012354   0.076179
   32  O  2 XY   -0.074914   0.035241   0.000000   0.065455  -0.029612
   33  O  2 XZ    0.000000   0.000000   0.034445   0.000000   0.000000
   34  O  2 YZ    0.000000   0.000000   0.000459   0.000000   0.000000
   35  O  3  S    0.003011  -0.011951   0.000000   0.030688   0.075525
   36  O  3  S   -0.052097   0.127748   0.000000  -0.029348  -1.208627
   37  O  3  S    0.117665  -0.102616   0.000000  -0.389465   1.839988
   38  O  3  X    0.418880  -0.070382   0.000000  -0.537797  -0.115989
   39  O  3  Y   -0.374878  -0.614508   0.000000   0.128852  -0.070811
   40  O  3  Z    0.000000   0.000000  -0.627183   0.000000   0.000000
   41  O  3  X   -0.432879   0.052963   0.000000   0.229297   0.718958
   42  O  3  Y    0.581507   0.908356   0.000000   0.061949   0.035680
   43  O  3  Z    0.000000   0.000000   0.924110   0.000000   0.000000
   44  O  3 XX   -0.012055  -0.001270   0.000000  -0.018850  -0.141752
   45  O  3 YY    0.029606   0.001398   0.000000   0.031205   0.065570
   46  O  3 ZZ   -0.017551  -0.000128   0.000000  -0.012354   0.076182
   47  O  3 XY   -0.074913  -0.035242   0.000000  -0.065455   0.029616
   48  O  3 XZ    0.000000   0.000000  -0.034445   0.000000   0.000000
   49  O  3 YZ    0.000000   0.000000   0.000459   0.000000   0.000000

                     36         37         38         39         40
                    1.5289     2.0574     2.0574     2.0691     2.0733
                     A          A          A          A          A   
    1  S  1  S   -0.000000  -0.000000   0.000000   0.000000   0.000935
    2  S  1  S    0.000002   0.000000   0.000000   0.000000  -0.007982
    3  S  1  S   -0.000006  -0.000000   0.000000   0.000000   0.033148
    4  S  1  S   -0.000022   0.000000   0.000000   0.000000  -0.012403
    5  S  1  X    0.074384  -0.000099   0.000000   0.000000   0.000000
    6  S  1  Y    0.000000   0.000000   0.000000   0.000000  -0.007885
    7  S  1  Z    0.000000   0.000000  -0.000000  -0.022925   0.000000
    8  S  1  X   -0.550850   0.002451   0.000000   0.000000  -0.000000
    9  S  1  Y   -0.000003  -0.000000   0.000000   0.000000   0.031248
   10  S  1  Z    0.000000   0.000000   0.000000   0.081175   0.000000
   11  S  1  X   -1.279573  -0.009790   0.000000   0.000000   0.000000
   12  S  1  Y   -0.000006  -0.000000   0.000000   0.000000  -0.005441
   13  S  1  Z    0.000000   0.000000   0.000000   0.008462   0.000000
   14  S  1 XX   -0.000001   0.000000   0.000000   0.000000  -0.026783
   15  S  1 YY    0.000000   0.000000   0.000000   0.000000  -0.060839
   16  S  1 ZZ    0.000001  -0.000000   0.000000   0.000000   0.087622
   17  S  1 XY   -0.158452   0.022275   0.000000   0.000000   0.000000
   18  S  1 XZ    0.000000   0.000000  -0.020694   0.000000   0.000000
   19  S  1 YZ    0.000000   0.000000  -0.000000  -0.047975   0.000000
   20  O  2  S    0.074122   0.000766   0.000000   0.000000  -0.001929
   21  O  2  S   -1.281566  -0.006225   0.000000   0.000000   0.015533
   22  O  2  S    2.137442   0.006648   0.000000   0.000000  -0.008579
   23  O  2  X   -0.002489  -0.000294   0.000000   0.000000  -0.014420
   24  O  2  Y    0.089131   0.005348   0.000000   0.000000  -0.000266
   25  O  2  Z    0.000000   0.000000  -0.004024   0.017884   0.000000
   26  O  2  X   -0.412308   0.004524   0.000000   0.000000   0.014853
   27  O  2  Y   -0.304463  -0.008001   0.000000   0.000000  -0.000138
   28  O  2  Z    0.000000   0.000000   0.006870  -0.029041   0.000000
   29  O  2 XX   -0.141771  -0.084066   0.000000   0.000000  -0.019481
   30  O  2 YY    0.059887  -0.528544  -0.000000   0.000000   0.614125
   31  O  2 ZZ    0.081885   0.612609   0.000000   0.000000  -0.594644
   32  O  2 XY   -0.090230   0.242937   0.000000   0.000000  -0.113682
   33  O  2 XZ    0.000000   0.000000  -0.255898   0.091376   0.000000
   34  O  2 YZ    0.000000  -0.000000   0.659286   0.702397   0.000000
   35  O  3  S   -0.074119  -0.000766   0.000000   0.000000  -0.001929
   36  O  3  S    1.281520   0.006225   0.000000   0.000000   0.015533
   37  O  3  S   -2.137377  -0.006648   0.000000   0.000000  -0.008578
   38  O  3  X   -0.002498  -0.000294   0.000000   0.000000   0.014420
   39  O  3  Y   -0.089132  -0.005348   0.000000   0.000000  -0.000266
   40  O  3  Z    0.000000   0.000000   0.004024   0.017884   0.000000
   41  O  3  X   -0.412279   0.004524   0.000000   0.000000  -0.014852
   42  O  3  Y    0.304463   0.008001   0.000000   0.000000  -0.000138
   43  O  3  Z    0.000000   0.000000  -0.006870  -0.029041   0.000000
   44  O  3 XX    0.141763   0.084066   0.000000   0.000000  -0.019481
   45  O  3 YY   -0.059882   0.528542   0.000000   0.000000   0.614126
   46  O  3 ZZ   -0.081881  -0.612608  -0.000000   0.000000  -0.594645
   47  O  3 XY   -0.090229   0.242937   0.000000   0.000000   0.113683
   48  O  3 XZ    0.000000   0.000000  -0.255898  -0.091375   0.000000
   49  O  3 YZ    0.000000   0.000000  -0.659284   0.702399   0.000000

                     41         42         43         44         45
                    2.1069     2.1649     2.2437     2.2973     2.6806
                     A          A          A          A          A   
    1  S  1  S    0.000000   0.005407  -0.000000   0.000000   0.000000
    2  S  1  S    0.000000  -0.046047   0.000000   0.000000  -0.000000
    3  S  1  S    0.000000   0.160285  -0.000001   0.000000   0.000002
    4  S  1  S    0.000000   0.108403   0.000001   0.000000  -0.000002
    5  S  1  X    0.000000   0.000000   0.047330   0.000000  -0.227018
    6  S  1  Y    0.000000  -0.064975   0.000000   0.000000  -0.000000
    7  S  1  Z   -0.055993   0.000000   0.000000   0.000000   0.000000
    8  S  1  X    0.000000  -0.000000  -0.258796   0.000000   1.248176
    9  S  1  Y    0.000000   0.254055  -0.000000   0.000000   0.000000
   10  S  1  Z    0.197666   0.000000   0.000000  -0.000000   0.000000
   11  S  1  X    0.000000   0.000002  -0.027207   0.000000   0.196071
   12  S  1  Y    0.000000   0.083762   0.000000   0.000000  -0.000000
   13  S  1  Z    0.052045   0.000000   0.000000  -0.000000   0.000000
   14  S  1 XX    0.000000  -0.139098  -0.000000   0.000000  -0.000001
   15  S  1 YY    0.000000   0.186414   0.000000   0.000000   0.000000
   16  S  1 ZZ    0.000000  -0.047317  -0.000000   0.000000   0.000001
   17  S  1 XY    0.000000   0.000000   0.377429   0.000000   0.422585
   18  S  1 XZ    0.000000   0.000000   0.000000   0.474817   0.000000
   19  S  1 YZ    0.149965   0.000000   0.000000  -0.000000   0.000000
   20  O  2  S    0.000000  -0.010625   0.008756   0.000000  -0.004950
   21  O  2  S    0.000000   0.157578  -0.138958   0.000000   0.476583
   22  O  2  S    0.000000  -0.212991   0.193411   0.000000  -1.037973
   23  O  2  X    0.000000  -0.082646   0.052836   0.000000  -0.020481
   24  O  2  Y    0.000000   0.040940   0.055757   0.000000  -0.013452
   25  O  2  Z    0.054178   0.000000   0.000000   0.038338   0.000000
   26  O  2  X    0.000000   0.169527  -0.096033   0.000000   0.636062
   27  O  2  Y    0.000000  -0.104431  -0.157312   0.000000   0.152194
   28  O  2  Z   -0.108605   0.000000   0.000000  -0.145486   0.000000
   29  O  2 XX    0.000000  -0.422514  -0.185579   0.000000  -0.764566
   30  O  2 YY    0.000000   0.282340   0.318363   0.000000   0.396389
   31  O  2 ZZ    0.000000   0.140174  -0.132785   0.000000   0.368177
   32  O  2 XY    0.000000   0.574808   0.650129   0.000000  -0.207998
   33  O  2 XZ    0.712540   0.000000   0.000000   0.687555   0.000000
   34  O  2 YZ   -0.086524   0.000000   0.000000   0.262966   0.000000
   35  O  3  S    0.000000  -0.010625  -0.008756   0.000000   0.004950
   36  O  3  S    0.000000   0.157576   0.138958   0.000000  -0.476582
   37  O  3  S    0.000000  -0.212987  -0.193411   0.000000   1.037973
   38  O  3  X    0.000000   0.082646   0.052836   0.000000  -0.020481
   39  O  3  Y    0.000000   0.040940  -0.055757   0.000000   0.013452
   40  O  3  Z    0.054178   0.000000   0.000000  -0.038338   0.000000
   41  O  3  X    0.000000  -0.169527  -0.096033   0.000000   0.636061
   42  O  3  Y    0.000000  -0.104432   0.157312   0.000000  -0.152194
   43  O  3  Z   -0.108605   0.000000   0.000000   0.145486   0.000000
   44  O  3 XX    0.000000  -0.422515   0.185580   0.000000   0.764566
   45  O  3 YY    0.000000   0.282340  -0.318364   0.000000  -0.396389
   46  O  3 ZZ    0.000000   0.140174   0.132784   0.000000  -0.368177
   47  O  3 XY    0.000000  -0.574807   0.650129   0.000000  -0.207999
   48  O  3 XZ   -0.712540   0.000000   0.000000   0.687555   0.000000
   49  O  3 YZ   -0.086524   0.000000   0.000000  -0.262966   0.000000

                     46
                    2.7446
                     A   
    1  S  1  S   -0.036844
    2  S  1  S    0.297468
    3  S  1  S   -0.807438
    4  S  1  S   -0.858552
    5  S  1  X    0.000000
    6  S  1  Y    0.057233
    7  S  1  Z    0.000000
    8  S  1  X    0.000000
    9  S  1  Y   -0.329919
   10  S  1  Z    0.000000
   11  S  1  X   -0.000004
   12  S  1  Y   -0.050335
   13  S  1  Z    0.000000
   14  S  1 XX   -0.847288
   15  S  1 YY    0.397641
   16  S  1 ZZ    0.449646
   17  S  1 XY   -0.000001
   18  S  1 XZ    0.000000
   19  S  1 YZ    0.000000
   20  O  2  S   -0.003360
   21  O  2  S   -0.475181
   22  O  2  S    1.117346
   23  O  2  X   -0.029182
   24  O  2  Y   -0.013664
   25  O  2  Z    0.000000
   26  O  2  X   -0.674025
   27  O  2  Y   -0.201349
   28  O  2  Z    0.000000
   29  O  2 XX    0.675299
   30  O  2 YY   -0.254899
   31  O  2 ZZ   -0.420399
   32  O  2 XY    0.483990
   33  O  2 XZ    0.000000
   34  O  2 YZ    0.000000
   35  O  3  S   -0.003360
   36  O  3  S   -0.475178
   37  O  3  S    1.117340
   38  O  3  X    0.029181
   39  O  3  Y   -0.013665
   40  O  3  Z    0.000000
   41  O  3  X    0.674025
   42  O  3  Y   -0.201348
   43  O  3  Z    0.000000
   44  O  3 XX    0.675298
   45  O  3 YY   -0.254899
   46  O  3 ZZ   -0.420399
   47  O  3 XY   -0.483990
   48  O  3 XZ    0.000000
   49  O  3 YZ    0.000000
 ...... END OF RHF CALCULATION ......
 STEP CPU TIME =     2.48 TOTAL CPU TIME =          2.6 (      0.0 MIN)
 TOTAL WALL CLOCK TIME=          2.7 SECONDS, CPU UTILIZATION IS    98.13%

     ---------------------------------------------------------------------
     PROPERTIES FOR THE PBE      DFT FUNCTIONAL (RHF  TYPE) DENSITY MATRIX
     ---------------------------------------------------------------------

          -----------------
          ENERGY COMPONENTS
          -----------------

         WAVEFUNCTION NORMALIZATION =       1.0000000000

                ONE ELECTRON ENERGY =    -951.5307493473
                TWO ELECTRON ENERGY =     304.6158837978
           NUCLEAR REPULSION ENERGY =      98.7099374508
                                      ------------------
                       TOTAL ENERGY =    -548.2049280987

 ELECTRON-ELECTRON POTENTIAL ENERGY =     304.6158837978
  NUCLEUS-ELECTRON POTENTIAL ENERGY =   -1498.6577130727
   NUCLEUS-NUCLEUS POTENTIAL ENERGY =      98.7099374508
                                      ------------------
             TOTAL POTENTIAL ENERGY =   -1095.3318918241
               TOTAL KINETIC ENERGY =     547.1269637254
                 VIRIAL RATIO (V/T) =       2.0019702271

          ---------------------------------------
          MULLIKEN AND LOWDIN POPULATION ANALYSES
          ---------------------------------------

     ATOMIC MULLIKEN POPULATION IN EACH MOLECULAR ORBITAL

                      1          2          3          4          5

                  2.000000   2.000000   2.000000   2.000000   2.000000

    1             1.999942   0.001310   0.000751   2.000929   2.000301
    2             0.000029   1.002282   0.996688  -0.000465  -0.000151
    3             0.000029   0.996408   1.002561  -0.000465  -0.000151

                      6          7          8          9         10

                  2.000000   2.000000   2.000000   2.000000   2.000000

    1             2.000015   2.000011   0.659281   0.347207   0.920209
    2            -0.000008  -0.000006   0.670357   0.826399   0.539894
    3            -0.000008  -0.000006   0.670362   0.826394   0.539897

                     11         12         13         14         15

                  2.000000   2.000000   2.000000   2.000000   2.000000

    1             0.449396   1.031718   1.021030   0.090222   0.104748
    2             0.775304   0.484141   0.489485   0.954889   0.947627
    3             0.775301   0.484141   0.489485   0.954889   0.947626

                     16

                  2.000000

    1             0.754158
    2             0.622920
    3             0.622922

               ----- POPULATIONS IN EACH AO -----
                             MULLIKEN      LOWDIN
              1  S  1  S      1.99982     1.99928
              2  S  1  S      1.99253     1.88837
              3  S  1  S      1.33794     0.67597
              4  S  1  S      0.64763     0.50639
              5  S  1  X      1.99396     1.95681
              6  S  1  Y      1.99461     1.96427
              7  S  1  Z      1.99380     1.95951
              8  S  1  X      0.80926     0.66917
              9  S  1  Y      0.96463     0.88269
             10  S  1  Z      0.83089     0.74426
             11  S  1  X     -0.00357     0.18803
             12  S  1  Y      0.18761     0.30951
             13  S  1  Z      0.20174     0.30966
             14  S  1 XX      0.05767     0.35794
             15  S  1 YY      0.17386     0.33019
             16  S  1 ZZ      0.10332     0.33337
             17  S  1 XY      0.09022     0.12195
             18  S  1 XZ      0.00530     0.10834
             19  S  1 YZ      0.00000     0.00504
             20  O  2  S      1.99563     1.97282
             21  O  2  S      0.96325     0.70616
             22  O  2  S      0.93404     0.53121
             23  O  2  X      0.87550     0.83735
             24  O  2  Y      1.04671     1.01375
             25  O  2  Z      0.85766     0.82081
             26  O  2  X      0.39714     0.53869
             27  O  2  Y      0.64598     0.68182
             28  O  2  Z      0.57626     0.60911
             29  O  2 XX      0.00181     0.21303
             30  O  2 YY      0.00558     0.20097
             31  O  2 ZZ      0.00471     0.20475
             32  O  2 XY      0.00483     0.00749
             33  O  2 XZ      0.00028     0.00630
             34  O  2 YZ      0.00000     0.00037
             35  O  3  S      1.99563     1.97282
             36  O  3  S      0.96325     0.70616
             37  O  3  S      0.93405     0.53121
             38  O  3  X      0.87550     0.83735
             39  O  3  Y      1.04671     1.01375
             40  O  3  Z      0.85766     0.82081
             41  O  3  X      0.39714     0.53869
             42  O  3  Y      0.64598     0.68182
             43  O  3  Z      0.57626     0.60911
             44  O  3 XX      0.00181     0.21303
             45  O  3 YY      0.00558     0.20097
             46  O  3 ZZ      0.00471     0.20475
             47  O  3 XY      0.00483     0.00749
             48  O  3 XZ      0.00028     0.00630
             49  O  3 YZ      0.00000     0.00037

          ----- MULLIKEN ATOMIC OVERLAP POPULATIONS -----
          (OFF-DIAGONAL ELEMENTS NEED TO BE MULTIPLIED BY 2)

             1           2           3

    1   14.9492771
    2    0.2159776   8.0876669
    3    0.2159738   0.0057407   8.0876716

          TOTAL MULLIKEN AND LOWDIN ATOMIC POPULATIONS
       ATOM         MULL.POP.    CHARGE          LOW.POP.     CHARGE
    1 S            15.381229    0.618771        15.310738    0.689262
    2 O             8.309385   -0.309385         8.344631   -0.344631
    3 O             8.309386   -0.309386         8.344631   -0.344631

          MULLIKEN SPHERICAL HARMONIC POPULATIONS
       ATOM           S       P       D      F      G      H      I    TOTAL
    1 S             5.98    8.97    0.43   0.00   0.00   0.00   0.00   15.38
    2 O             3.89    4.40    0.02   0.00   0.00   0.00   0.00    8.31
    3 O             3.89    4.40    0.02   0.00   0.00   0.00   0.00    8.31

          -------------------------------
          BOND ORDER AND VALENCE ANALYSIS     BOND ORDER THRESHOLD=0.050
          -------------------------------

                   BOND                       BOND                       BOND
  ATOM PAIR DIST  ORDER      ATOM PAIR DIST  ORDER      ATOM PAIR DIST  ORDER
    1   2  1.550  1.809        1   3  1.550  1.809        2   3  2.994  0.364

                       TOTAL       BONDED        FREE
      ATOM            VALENCE     VALENCE     VALENCE
    1 S                 3.619       3.619      -0.000
    2 O                 2.174       2.174       0.000
    3 O                 2.174       2.174       0.000

          ---------------------
          ELECTROSTATIC MOMENTS
          ---------------------

 POINT   1           X           Y           Z (BOHR)    CHARGE
                 0.000000    0.000000    0.000000        0.00 (A.U.)
         DX          DY          DZ         /D/  (DEBYE)
     0.000001   -0.468674    0.000000    0.468674
 ...... END OF PROPERTY EVALUATION ......
 STEP CPU TIME =     0.00 TOTAL CPU TIME =          2.6 (      0.0 MIN)
 TOTAL WALL CLOCK TIME=          2.7 SECONDS, CPU UTILIZATION IS    97.77%
                580000  WORDS OF DYNAMIC MEMORY USED
 EXECUTION OF GAMESS TERMINATED NORMALLY Sun Sep 29 10:50:45 2019
 DDI: 263640 bytes (0.3 MB / 0 MWords) used by master data server.

 ----------------------------------------
 CPU timing information for all processes
 ========================================
 0: 2.559 + 0.87 = 2.646
 ----------------------------------------
 ddikick.x: exited gracefully.
----- accounting info -----
Files used on the master node crcfe02.crc.nd.edu were:
-rw-r--r-- 1 cdrisko campus     208 Sep 29 10:50 /afs/crc.nd.edu/user/c/cdrisko/SO2.F05
-rw-r--r-- 1 cdrisko campus   37566 Sep 29 10:50 /afs/crc.nd.edu/user/c/cdrisko/SO2.F07
-rw-r--r-- 1 cdrisko campus 3960352 Sep 29 10:50 /afs/crc.nd.edu/user/c/cdrisko/SO2.F08
-rw-r--r-- 1 cdrisko campus 1766880 Sep 29 10:50 /afs/crc.nd.edu/user/c/cdrisko/SO2.F10
Sun Sep 29 10:50:48 EDT 2019
0.463u 0.219s 0:06.33 10.5%	0+0k 0+24io 0pf+0w
