   4   4   0   0
  0.1237793E+02  0.3672000E-09  0.3672000E-09  0.3672000E-09  0.5000000E-15
  1.000000000000000E-004
  CAR 
 unknown system                          
     53.33762635     -0.35110341  301     16.23534478      1.00000000
     -0.351  0.0000E+00  0.0000E+00
     -0.172  0.0000E+00  0.0000E+00
      0.007  0.0000E+00  0.0000E+00
      0.186  0.0000E+00  0.0000E+00
      0.365  0.0000E+00  0.0000E+00
      0.544  0.0000E+00  0.0000E+00
      0.723  0.0000E+00  0.0000E+00
      0.902  0.0000E+00  0.0000E+00
      1.081  0.0000E+00  0.0000E+00
      1.260 -0.4523E-31 -0.8095E-32
      1.439 -0.1140E-19 -0.2040E-20
      1.617 -0.4193E-11 -0.7505E-12
      1.796 -0.2124E-05 -0.3801E-06
      1.975 -0.5266E-03 -0.9462E-04
      2.154  0.1180E-01  0.2018E-02
      2.333  0.7716E-01  0.1583E-01
      2.512  0.1580E+00  0.4411E-01
      2.691  0.1334E+00  0.6798E-01
      2.870  0.8243E-01  0.8273E-01
      3.049  0.2614E+00  0.1295E+00
      3.228  0.4202E+00  0.2047E+00
      3.407  0.9438E-01  0.2216E+00
      3.586  0.1402E+00  0.2467E+00
      3.765  0.4715E+00  0.3311E+00
      3.944  0.3559E+00  0.3948E+00
      4.123  0.5420E+00  0.4918E+00
      4.302  0.4179E-01  0.4992E+00
      4.481  0.1032E+01  0.6839E+00
      4.660  0.3571E+00  0.7478E+00
      4.839  0.1667E+00  0.7776E+00
      5.018  0.1649E+01  0.1073E+01
      5.197  0.1654E+01  0.1369E+01
      5.376  0.3785E+01  0.2046E+01
      5.555  0.1708E+01  0.2352E+01
      5.734  0.4717E+01  0.3196E+01
      5.913  0.5122E+01  0.4112E+01
      6.092  0.4350E+01  0.4891E+01
      6.271  0.6780E+01  0.6104E+01
      6.449  0.4618E+01  0.6931E+01
      6.628  0.3945E+01  0.7637E+01
      6.807  0.4150E+01  0.8379E+01
      6.986  0.5558E+01  0.9374E+01
      7.165  0.3271E+01  0.9959E+01
      7.344  0.1493E+01  0.1023E+02
      7.523  0.4061E+01  0.1095E+02
      7.702  0.5480E+01  0.1193E+02
      7.881  0.4318E+01  0.1271E+02
      8.060  0.5158E+01  0.1363E+02
      8.239  0.3616E+01  0.1428E+02
      8.418  0.3389E+01  0.1488E+02
      8.597  0.6968E+01  0.1613E+02
      8.776  0.4517E+01  0.1694E+02
      8.955  0.3879E+01  0.1763E+02
      9.134  0.7267E+01  0.1893E+02
      9.313  0.6809E+01  0.2015E+02
      9.492  0.7135E+01  0.2143E+02
      9.671  0.6922E+01  0.2267E+02
      9.850  0.5841E+01  0.2371E+02
     10.029  0.4301E+01  0.2448E+02
     10.208  0.4323E+01  0.2526E+02
     10.387  0.3777E+01  0.2593E+02
     10.566  0.2912E+01  0.2645E+02
     10.745  0.5433E+01  0.2743E+02
     10.924  0.2063E+01  0.2779E+02
     11.102  0.5564E+01  0.2879E+02
     11.281  0.5664E+01  0.2980E+02
     11.460  0.5336E+01  0.3076E+02
     11.639  0.4347E+01  0.3154E+02
     11.818  0.3890E+01  0.3223E+02
     11.997  0.2716E+01  0.3272E+02
     12.176  0.3112E+01  0.3328E+02
     12.355  0.4103E+01  0.3401E+02
     12.534  0.5224E+01  0.3495E+02
     12.713  0.2600E+01  0.3541E+02
     12.892  0.3361E+01  0.3601E+02
     13.071  0.4094E+01  0.3675E+02
     13.250  0.3678E+01  0.3740E+02
     13.429  0.6753E+01  0.3861E+02
     13.608  0.5616E+01  0.3962E+02
     13.787  0.5446E+01  0.4059E+02
     13.966  0.5400E+01  0.4156E+02
     14.145  0.3932E+01  0.4226E+02
     14.324  0.6378E+00  0.4238E+02
     14.503  0.1880E+00  0.4241E+02
     14.682  0.4944E+00  0.4250E+02
     14.861  0.1483E+01  0.4276E+02
     15.040  0.2317E+01  0.4318E+02
     15.219  0.7742E+00  0.4332E+02
     15.398  0.7025E+00  0.4344E+02
     15.577  0.7798E+00  0.4358E+02
     15.756  0.2297E-01  0.4359E+02
     15.934  0.7045E+00  0.4371E+02
     16.113  0.8461E+00  0.4386E+02
     16.292  0.1257E+01  0.4409E+02
     16.471  0.1644E+01  0.4438E+02
     16.650  0.3231E+00  0.4444E+02
     16.829  0.1068E+01  0.4463E+02
     17.008  0.4193E+00  0.4471E+02
     17.187  0.1588E+01  0.4499E+02
     17.366  0.8127E+00  0.4514E+02
     17.545  0.1366E+01  0.4538E+02
     17.724  0.2954E+00  0.4543E+02
     17.903  0.3355E+00  0.4549E+02
     18.082  0.7641E+00  0.4563E+02
     18.261  0.9799E+00  0.4581E+02
     18.440  0.1439E+01  0.4606E+02
     18.619  0.6145E+00  0.4617E+02
     18.798  0.8711E+00  0.4633E+02
     18.977  0.4950E+00  0.4642E+02
     19.156  0.1182E+01  0.4663E+02
     19.335  0.2731E+00  0.4668E+02
     19.514  0.6099E+00  0.4679E+02
     19.693  0.1286E+01  0.4702E+02
     19.872  0.7147E+00  0.4715E+02
     20.051  0.9320E+00  0.4731E+02
     20.230  0.3533E+00  0.4738E+02
     20.409  0.3637E+00  0.4744E+02
     20.588 -0.4458E-01  0.4743E+02
     20.766  0.1380E+01  0.4768E+02
     20.945  0.1309E+01  0.4791E+02
     21.124  0.3050E+01  0.4846E+02
     21.303  0.6765E+00  0.4858E+02
     21.482  0.7159E+00  0.4871E+02
     21.661  0.1926E+00  0.4874E+02
     21.840  0.1295E+01  0.4897E+02
     22.019  0.2161E+01  0.4936E+02
     22.198  0.1873E+01  0.4970E+02
     22.377  0.1939E+00  0.4973E+02
     22.556  0.5048E+00  0.4982E+02
     22.735  0.1259E+01  0.5005E+02
     22.914  0.8948E+00  0.5021E+02
     23.093  0.1674E+01  0.5051E+02
     23.272  0.1816E+01  0.5083E+02
     23.451  0.1070E+01  0.5102E+02
     23.630  0.7817E+00  0.5116E+02
     23.809  0.2951E+00  0.5122E+02
     23.988  0.1223E+01  0.5143E+02
     24.167  0.5652E+00  0.5154E+02
     24.346  0.7264E+00  0.5167E+02
     24.525  0.1158E+01  0.5187E+02
     24.704  0.2177E+01  0.5226E+02
     24.883  0.1085E+01  0.5246E+02
     25.062  0.1232E+01  0.5268E+02
     25.241  0.1458E+01  0.5294E+02
     25.419  0.7871E+00  0.5308E+02
     25.598  0.8284E+00  0.5323E+02
     25.777  0.5765E+00  0.5333E+02
     25.956  0.1313E+01  0.5357E+02
     26.135  0.1531E+01  0.5384E+02
     26.314  0.1294E+01  0.5407E+02
     26.493  0.2919E+01  0.5459E+02
     26.672  0.7821E+00  0.5473E+02
     26.851  0.7267E+00  0.5486E+02
     27.030  0.3680E+00  0.5493E+02
     27.209  0.1499E+01  0.5520E+02
     27.388  0.2368E+01  0.5562E+02
     27.567  0.2366E+01  0.5604E+02
     27.746  0.2098E+01  0.5642E+02
     27.925  0.6778E+00  0.5654E+02
     28.104  0.2547E+01  0.5700E+02
     28.283  0.8366E+00  0.5715E+02
     28.462  0.1148E+01  0.5735E+02
     28.641  0.1452E+01  0.5761E+02
     28.820  0.2697E+01  0.5810E+02
     28.999  0.8497E+00  0.5825E+02
     29.178  0.4559E+01  0.5906E+02
     29.357  0.8256E+00  0.5921E+02
     29.536  0.1011E+01  0.5939E+02
     29.715  0.2838E+01  0.5990E+02
     29.894  0.2219E+01  0.6030E+02
     30.073  0.3079E+01  0.6085E+02
     30.251  0.4492E+01  0.6165E+02
     30.430  0.1918E+01  0.6200E+02
     30.609  0.1720E+01  0.6230E+02
     30.788  0.3430E+01  0.6292E+02
     30.967  0.4486E+01  0.6372E+02
     31.146  0.2171E+01  0.6411E+02
     31.325  0.1852E+01  0.6444E+02
     31.504  0.2515E+01  0.6489E+02
     31.683  0.2537E+01  0.6534E+02
     31.862  0.2949E+01  0.6587E+02
     32.041  0.1515E+01  0.6614E+02
     32.220  0.3411E+01  0.6675E+02
     32.399  0.2345E+01  0.6717E+02
     32.578  0.1427E+01  0.6743E+02
     32.757  0.2629E+01  0.6790E+02
     32.936  0.2208E+01  0.6829E+02
     33.115  0.2987E+01  0.6883E+02
     33.294  0.1970E+01  0.6918E+02
     33.473  0.1204E+01  0.6940E+02
     33.652  0.9941E+00  0.6957E+02
     33.831  0.1345E+01  0.6981E+02
     34.010  0.3433E+00  0.6988E+02
     34.189  0.1456E+01  0.7014E+02
     34.368  0.1375E+01  0.7038E+02
     34.547  0.3795E+00  0.7045E+02
     34.726  0.1474E+01  0.7071E+02
     34.904  0.1232E+01  0.7094E+02
     35.083  0.1845E+01  0.7127E+02
     35.262  0.1435E+01  0.7152E+02
     35.441  0.4485E+01  0.7232E+02
     35.620  0.3390E+01  0.7293E+02
     35.799  0.1592E+01  0.7322E+02
     35.978  0.1940E+01  0.7356E+02
     36.157  0.2232E+01  0.7396E+02
     36.336  0.1477E+01  0.7423E+02
     36.515  0.3104E+01  0.7478E+02
     36.694  0.5060E+01  0.7569E+02
     36.873  0.1553E+01  0.7597E+02
     37.052  0.2393E+01  0.7639E+02
     37.231  0.1283E+01  0.7662E+02
     37.410  0.4861E+01  0.7749E+02
     37.589  0.1144E+01  0.7770E+02
     37.768  0.1480E+01  0.7796E+02
     37.947  0.2235E+01  0.7836E+02
     38.126  0.8569E+00  0.7852E+02
     38.305  0.1950E+01  0.7887E+02
     38.484  0.3845E+00  0.7894E+02
     38.663  0.3783E+01  0.7961E+02
     38.842  0.5332E+00  0.7971E+02
     39.021  0.1194E+01  0.7992E+02
     39.200  0.4305E+00  0.8000E+02
     39.379  0.1391E+01  0.8025E+02
     39.558  0.1322E+01  0.8048E+02
     39.736  0.1120E+01  0.8068E+02
     39.915  0.3815E+00  0.8075E+02
     40.094  0.8533E+00  0.8091E+02
     40.273  0.1312E+01  0.8114E+02
     40.452  0.1439E+01  0.8140E+02
     40.631  0.2118E+01  0.8178E+02
     40.810  0.2983E+01  0.8231E+02
     40.989  0.2765E+01  0.8281E+02
     41.168  0.3039E+01  0.8335E+02
     41.347  0.1497E+01  0.8362E+02
     41.526  0.2090E+01  0.8399E+02
     41.705  0.3017E+01  0.8453E+02
     41.884  0.9745E+00  0.8471E+02
     42.063  0.2104E+01  0.8508E+02
     42.242  0.2882E+01  0.8560E+02
     42.421  0.9643E+00  0.8577E+02
     42.600  0.5955E+00  0.8588E+02
     42.779  0.1017E+01  0.8606E+02
     42.958  0.2030E+01  0.8642E+02
     43.137  0.2713E+01  0.8691E+02
     43.316  0.2925E+01  0.8743E+02
     43.495  0.4344E+01  0.8821E+02
     43.674  0.3014E+01  0.8875E+02
     43.853  0.1128E+01  0.8895E+02
     44.032  0.1878E+01  0.8929E+02
     44.211  0.4183E+00  0.8936E+02
     44.390  0.3072E+01  0.8991E+02
     44.568  0.5057E+01  0.9082E+02
     44.747  0.1907E+01  0.9116E+02
     44.926  0.4556E+01  0.9197E+02
     45.105  0.3177E+01  0.9254E+02
     45.284  0.1767E+01  0.9286E+02
     45.463  0.3839E+01  0.9354E+02
     45.642  0.3153E+01  0.9411E+02
     45.821  0.4146E+01  0.9485E+02
     46.000  0.3082E+01  0.9540E+02
     46.179  0.1270E+01  0.9563E+02
     46.358  0.1184E+01  0.9584E+02
     46.537  0.3699E+00  0.9591E+02
     46.716  0.1949E+00  0.9594E+02
     46.895  0.3263E-01  0.9595E+02
     47.074 -0.5368E-02  0.9595E+02
     47.253  0.1310E+00  0.9597E+02
     47.432  0.5888E-01  0.9598E+02
     47.611 -0.1389E-02  0.9598E+02
     47.790 -0.9347E-07  0.9598E+02
     47.969 -0.6985E-14  0.9598E+02
     48.148 -0.8854E-25  0.9598E+02
     48.327 -0.1153E-14  0.9598E+02
     48.506 -0.2224E-07  0.9598E+02
     48.685 -0.4937E-03  0.9598E+02
     48.864  0.2241E-01  0.9598E+02
     49.043  0.7276E-01  0.9600E+02
     49.221 -0.2695E-02  0.9600E+02
     49.400 -0.1968E-05  0.9600E+02
     49.579 -0.1159E-11  0.9600E+02
     49.758  0.0000E+00  0.9600E+02
     49.937 -0.4007E-41  0.9600E+02
     50.116 -0.1105E-27  0.9600E+02
     50.295 -0.4768E-17  0.9600E+02
     50.474 -0.2932E-09  0.9600E+02
     50.653 -0.2307E-04  0.9600E+02
     50.832  0.9199E-03  0.9600E+02
     51.011  0.1496E-01  0.9600E+02
     51.190 -0.5219E-03  0.9600E+02
     51.369 -0.2124E-05  0.9600E+02
     51.548 -0.4193E-11  0.9600E+02
     51.727  0.0000E+00  0.9600E+02
     51.906  0.0000E+00  0.9600E+02
     52.085  0.0000E+00  0.9600E+02
     52.264  0.0000E+00  0.9600E+02
     52.443  0.0000E+00  0.9600E+02
     52.622  0.0000E+00  0.9600E+02
     52.801  0.0000E+00  0.9600E+02
     52.980  0.0000E+00  0.9600E+02
     53.159  0.0000E+00  0.9600E+02
     53.338  0.0000E+00  0.9600E+02
