    4    4    1    1
  0.1237793E+02  0.3672000E-09  0.3672000E-09  0.3672000E-09  0.5000000E-15
  1.000000000000000E-004
  CAR 
 unknown system                          
     44     35     48
 
  0.0000000E+00  0.0000000E+00  0.0000000E+00  0.1371742E-02
    1        2.089293   1.000000
    2        5.035124   1.000000
    3        5.035124   1.000000
    4        5.035124   1.000000
    5        5.545027   1.000000
    6        5.545027   1.000000
    7        5.545027   1.000000
    8        8.987952   1.000000
    9        8.987952   1.000000
   10        8.987952   1.000000
   11       11.623253   1.000000
   12       11.623253   1.000000
   13       13.656436   1.000000
   14       13.656436   1.000000
   15       13.656436   1.000000
   16       14.289503   1.000000
   17       14.289503   1.000000
   18       14.289503   1.000000
   19       14.289503   1.000000
   20       14.289503   1.000000
   21       14.289503   1.000000
   22       15.982878   1.001036
   23       15.982878   1.001036
   24       15.982878   1.001036
   25       24.884261   0.000000
   26       24.884261   0.000000
   27       24.884261   0.000000
   28       26.699308   0.000000
   29       26.699308   0.000000
   30       26.699308   0.000000
   31       26.699308   0.000000
   32       26.699308   0.000000
   33       26.699308   0.000000
   34       29.301485   0.000000
   35       35.217390   0.000000
   36       35.217390   0.000000
   37       35.217390   0.000000
   38       36.910303   0.000000
   39       36.910303   0.000000
   40       36.910303   0.000000
   41       40.883894   0.000000
   42       40.883894   0.000000
   43       40.883894   0.000000
   44       41.313186   0.000000
   45       45.245454   0.000000
   46       45.245454   0.000000
   47       45.245454   0.000000
   48       50.897230   0.000000
 
  0.1111111E+00  0.0000000E+00  0.0000000E+00  0.8230453E-02
    1        2.286085   1.000000
    2        5.127089   1.000000
    3        5.180925   1.000000
    4        5.180925   1.000000
    5        5.626622   1.000000
    6        5.677117   1.000000
    7        5.677117   1.000000
    8        8.850390   1.000000
    9        9.093761   1.000000
   10        9.093761   1.000000
   11       11.468169   1.000000
   12       11.677117   1.000000
   13       13.137292   1.000000
   14       13.137292   1.000000
   15       13.423245   1.000000
   16       13.423245   1.000000
   17       13.585974   1.000000
   18       14.013603   1.000000
   19       14.013603   1.000000
   20       14.290079   1.000000
   21       14.290079   1.000000
   22       15.074544   1.000000
   23       17.225259  -0.000000
   24       17.225259  -0.000000
   25       24.339430   0.000000
   26       24.339430   0.000000
   27       26.041884   0.000000
   28       26.581257   0.000000
   29       26.581257   0.000000
   30       27.080852   0.000000
   31       27.080852   0.000000
   32       27.179559   0.000000
   33       27.179559   0.000000
   34       29.628208   0.000000
   35       34.681483   0.000000
   36       35.305657   0.000000
   37       35.305657   0.000000
   38       36.645069   0.000000
   39       37.541534   0.000000
   40       37.541534   0.000000
   41       40.482588   0.000000
   42       40.723657   0.000000
   43       40.723657   0.000000
   44       42.508573   0.000000
   45       45.036509   0.000000
   46       45.036509   0.000000
   47       45.545467   0.000000
   48       48.896367   0.000000
 
  0.2222222E+00  0.0000000E+00  0.0000000E+00  0.8230453E-02
    1        2.858263   1.000000
    2        5.364064   1.000000
    3        5.590836   1.000000
    4        5.590836   1.000000
    5        5.866926   1.000000
    6        6.070884   1.000000
    7        6.070884   1.000000
    8        8.472240   1.000000
    9        9.408686   1.000000
   10        9.408686   1.000000
   11       11.044829   1.000000
   12       11.539373   1.000000
   13       11.539373   1.000000
   14       11.834466   1.000000
   15       12.782615   1.000000
   16       12.782615   1.000000
   17       13.212997   1.000000
   18       13.305775   1.000000
   19       13.305775   1.000000
   20       13.387013   1.000000
   21       14.291524   1.000000
   22       14.291524   1.000000
   23       19.081279   0.000000
   24       19.081279   0.000000
   25       23.510631   0.000000
   26       23.510631   0.000000
   27       26.185715   0.000000
   28       26.185715   0.000000
   29       27.520247   0.000000
   30       27.520247   0.000000
   31       28.486628   0.000000
   32       28.486628   0.000000
   33       28.643257   0.000000
   34       30.566480   0.000000
   35       33.820080   0.000000
   36       35.467581   0.000000
   37       35.467581   0.000000
   38       36.046486   0.000000
   39       39.294336   0.000000
   40       39.294336   0.000000
   41       39.352240   0.000000
   42       40.425264   0.000000
   43       40.425264   0.000000
   44       44.265275   0.000000
   45       44.265275   0.000000
   46       45.294049   0.000000
   47       46.146606   0.000000
   48       46.147502   0.000000
 
  0.3333333E+00  0.0000000E+00  0.0000000E+00  0.8230453E-02
    1        3.737038   1.000000
    2        5.595005   1.000000
    3        6.161435   1.000000
    4        6.161435   1.000000
    5        6.251836   1.000000
    6        6.719021   1.000000
    7        6.719021   1.000000
    8        7.936246   1.000000
    9        9.923407   1.000000
   10        9.923407   1.000000
   11       10.046290   1.000000
   12       10.046290   1.000000
   13       10.486602   1.000000
   14       11.392968   1.000000
   15       11.937257   1.000000
   16       11.937257   1.000000
   17       12.081824   1.000000
   18       12.395408   1.000000
   19       12.395408   1.000000
   20       13.092632   1.000000
   21       14.293234   1.000000
   22       14.293234   1.000000
   23       20.961571   0.000000
   24       20.961571   0.000000
   25       22.918514   0.000000
   26       22.918514   0.000000
   27       25.425457   0.000000
   28       25.425457   0.000000
   29       27.717055   0.000000
   30       27.717055   0.000000
   31       30.338884   0.000000
   32       30.338884   0.000000
   33       31.535900   0.000000
   34       32.004283   0.000000
   35       33.271428   0.000000
   36       35.317115   0.000000
   37       35.317115   0.000000
   38       35.709992   0.000000
   39       37.691440   0.000000
   40       40.350049   0.000000
   41       40.350049   0.000000
   42       41.774086   0.000000
   43       41.774086   0.000000
   44       42.985123   0.000000
   45       42.985123   0.000000
   46       44.092364   0.000000
   47       44.092365   0.000000
   48       44.710589   0.000000
 
  0.4444444E+00  0.0000000E+00  0.0000000E+00  0.8230453E-02
    1        4.743070   1.000000
    2        5.475602   1.000000
    3        6.639374   1.000000
    4        6.639374   1.000000
    5        6.755483   1.000000
    6        7.337008   1.000000
    7        7.609506   1.000000
    8        7.609506   1.000000
    9        8.725843   1.000000
   10        8.725843   1.000000
   11       10.057848   1.000000
   12       10.235448   1.000000
   13       10.619614   1.000000
   14       10.619614   1.000000
   15       11.275296   1.000000
   16       11.275296   1.000000
   17       11.463814   1.000000
   18       11.463814   1.000000
   19       12.396831   1.000000
   20       12.747309   1.000000
   21       14.294239   1.000000
   22       14.294239   1.000000
   23       22.633584   0.000000
   24       22.633584   0.000000
   25       22.728886   0.000000
   26       22.728886   0.000000
   27       24.255906   0.000000
   28       24.255906   0.000000
   29       27.770277   0.000000
   30       27.770277   0.000000
   31       32.418016   0.000000
   32       32.418016   0.000000
   33       33.019976   0.000000
   34       33.112842   0.000000
   35       33.792564   0.000000
   36       34.278753   0.000000
   37       34.278753   0.000000
   38       35.756784   0.000000
   39       37.272408   0.000000
   40       40.755606   0.000000
   41       40.755606   0.000000
   42       40.757837   0.000000
   43       41.687024   0.000000
   44       41.687024   0.000000
   45       43.519612   0.000000
   46       43.519612   0.000000
   47       44.216603   0.000000
   48       44.217402   0.000000
 
  0.1111111E+00  0.1111111E+00  0.0000000E+00  0.1646091E-01
    1        2.477854   1.000000
    2        5.274786   1.000000
    3        5.274786   1.000000
    4        5.295239   1.000000
    5        5.755971   1.000000
    6        5.755971   1.000000
    7        5.830220   1.000000
    8        8.789774   1.000000
    9        9.131333   1.000000
   10        9.182627   1.000000
   11       11.426162   1.000000
   12       11.642302   1.000000
   13       12.583004   1.000000
   14       12.685661   1.000000
   15       12.685661   1.000000
   16       13.220788   1.000000
   17       13.446617   1.000000
   18       13.446617   1.000000
   19       14.013109   1.000000
   20       14.013109   1.000000
   21       14.114762   1.000000
   22       16.396274  -0.022637
   23       16.396274  -0.022637
   24       18.049103  -0.000000
   25       23.665813   0.000000
   26       25.320665   0.000000
   27       25.320665   0.000000
   28       26.570911   0.000000
   29       27.057716   0.000000
   30       27.057716   0.000000
   31       27.594409   0.000000
   32       27.683777   0.000000
   33       27.683777   0.000000
   34       29.934613   0.000000
   35       33.768375   0.000000
   36       35.386596   0.000000
   37       36.069320   0.000000
   38       37.302524   0.000000
   39       37.302524   0.000000
   40       37.753400   0.000000
   41       40.346624   0.000000
   42       40.346624   0.000000
   43       40.845520   0.000000
   44       43.285576   0.000000
   45       44.920400   0.000000
   46       45.265440   0.000000
   47       45.265440   0.000000
   48       47.230108   0.000000
 
  0.2222222E+00  0.1111111E+00  0.0000000E+00  0.3292181E-01
    1        3.035291   1.000000
    2        5.517354   1.000000
    3        5.633898   1.000000
    4        5.691161   1.000000
    5        5.988005   1.000000
    6        6.141222   1.000000
    7        6.262690   1.000000
    8        8.467769   1.000000
    9        9.411821   1.000000
   10        9.434603   1.000000
   11       11.080051   1.000000
   12       11.134096   1.000000
   13       11.325255   1.000000
   14       11.716391   1.000000
   15       11.803502   1.000000
   16       12.651236   1.000000
   17       12.851614   1.000000
   18       13.205539   1.000000
   19       13.303106   1.000000
   20       14.011477   1.000000
   21       14.020930   1.000000
   22       14.877404   1.000000
   23       18.113501  -0.000000
   24       19.670761   0.000000
   25       22.646711   0.000000
   26       24.402545   0.000000
   27       26.248197   0.000000
   28       26.651042   0.000000
   29       27.263575   0.000000
   30       28.147754   0.000000
   31       28.351049   0.000000
   32       28.363756   0.000000
   33       29.401415   0.000000
   34       30.810818   0.000000
   35       32.789414   0.000000
   36       35.522527   0.000000
   37       36.713127   0.000000
   38       36.849775   0.000000
   39       38.193458   0.000000
   40       38.989587   0.000000
   41       39.281081   0.000000
   42       40.116746   0.000000
   43       41.589064   0.000000
   44       43.676785   0.000000
   45       44.331275   0.000000
   46       44.521675   0.000000
   47       45.738512   0.000000
   48       46.096062   0.000000
 
  0.3333333E+00  0.1111111E+00  0.0000000E+00  0.3292181E-01
    1        3.893022   1.000000
    2        5.754225   1.000000
    3        6.162727   1.000000
    4        6.274834   1.000000
    5        6.358929   1.000000
    6        6.773876   1.000000
    7        6.892318   1.000000
    8        7.967511   1.000000
    9        9.716503   1.000000
   10        9.732260   1.000000
   11        9.919106   1.000000
   12        9.967712   1.000000
   13       10.547841   1.000000
   14       10.694541   1.000000
   15       11.881054   1.000000
   16       12.048661   1.000000
   17       12.114236   1.000000
   18       12.390748   1.000000
   19       12.583604   1.000000
   20       13.699716   1.000000
   21       14.000825   1.000000
   22       14.008359   1.000000
   23       19.654297   0.000000
   24       21.454867   0.000000
   25       21.882406   0.000000
   26       23.925109   0.000000
   27       25.656056   0.000000
   28       25.876031   0.000000
   29       28.370470   0.000000
   30       28.691482   0.000000
   31       29.301345   0.000000
   32       30.172585   0.000000
   33       31.589593   0.000000
   34       32.132224   0.000000
   35       32.151252   0.000000
   36       35.343957   0.000000
   37       36.595237   0.000000
   38       36.929850   0.000000
   39       37.714986   0.000000
   40       38.675483   0.000000
   41       40.139423   0.000000
   42       40.555164   0.000000
   43       42.031400   0.000000
   44       43.073560   0.000000
   45       43.353402   0.000000
   46       44.246026   0.000000
   47       44.300503   0.000000
   48       45.335246   0.000000
 
  0.4444444E+00  0.1111111E+00  0.0000000E+00  0.3292181E-01
    1        4.884119   1.000000
    2        5.626493   1.000000
    3        6.707202   1.000000
    4        6.764455   1.000000
    5        6.842765   1.000000
    6        7.398789   1.000000
    7        7.610767   1.000000
    8        7.639475   1.000000
    9        8.516554   1.000000
   10        8.715799   1.000000
   11        9.665169   1.000000
   12        9.736756   1.000000
   13       10.613538   1.000000
   14       10.934159   1.000000
   15       11.293320   1.000000
   16       11.369120   1.000000
   17       11.457915   1.000000
   18       11.696131   1.000000
   19       12.524715   1.000000
   20       13.022274   1.000000
   21       13.999922   1.000000
   22       14.003999   1.000000
   23       20.737003   0.000000
   24       21.347509   0.000000
   25       23.181303   0.000000
   26       24.118002   0.000000
   27       24.698109   0.000000
   28       24.854615   0.000000
   29       28.514774   0.000000
   30       28.657150   0.000000
   31       30.998723   0.000000
   32       31.748268   0.000000
   33       32.178214   0.000000
   34       33.334400   0.000000
   35       33.423245   0.000000
   36       34.663500   0.000000
   37       35.156952   0.000000
   38       35.923544   0.000000
   39       38.566034   0.000000
   40       39.380473   0.000000
   41       40.280985   0.000000
   42       40.653161   0.000000
   43       41.046508   0.000000
   44       41.689855   0.000000
   45       43.377256   0.000000
   46       43.863503   0.000000
   47       43.928428   0.000000
   48       44.825252   0.000000
 
  0.2222222E+00  0.2222222E+00  0.0000000E+00  0.1646091E-01
    1        3.549447   1.000000
    2        5.836894   1.000000
    3        5.953343   1.000000
    4        5.953343   1.000000
    5        6.347320   1.000000
    6        6.347320   1.000000
    7        6.732162   1.000000
    8        8.345977   1.000000
    9        9.509511   1.000000
   10        9.549855   1.000000
   11       10.286940   1.000000
   12       10.286940   1.000000
   13       10.668995   1.000000
   14       10.972280   1.000000
   15       11.949935   1.000000
   16       12.254499   1.000000
   17       12.741457   1.000000
   18       12.741457   1.000000
   19       13.295935   1.000000
   20       13.295935   1.000000
   21       13.615252   1.000000
   22       16.440368  -0.006774
   23       16.440368  -0.006774
   24       21.033895   0.000000
   25       21.331117   0.000000
   26       25.987612   0.000000
   27       25.987612   0.000000
   28       26.012905   0.000000
   29       27.904111   0.000000
   30       27.904111   0.000000
   31       29.761195   0.000000
   32       29.761195   0.000000
   33       29.917944   0.000000
   34       31.496066   0.000000
   35       31.594111   0.000000
   36       35.584577   0.000000
   37       36.961409   0.000000
   38       38.417349   0.000000
   39       38.550863   0.000000
   40       38.550863   0.000000
   41       39.232433   0.000000
   42       39.232433   0.000000
   43       40.825609   0.000000
   44       43.281068   0.000000
   45       44.377923   0.000000
   46       44.914199   0.000000
   47       44.914199   0.000000
   48       45.706512   0.000000
 
  0.3333333E+00  0.2222222E+00  0.0000000E+00  0.3292181E-01
    1        4.342560   1.000000
    2        6.211064   1.000000
    3        6.251668   1.000000
    4        6.580815   1.000000
    5        6.673964   1.000000
    6        6.932569   1.000000
    7        7.303256   1.000000
    8        8.013507   1.000000
    9        9.030212   1.000000
   10        9.416750   1.000000
   11        9.520010   1.000000
   12        9.704307   1.000000
   13        9.966028   1.000000
   14       10.755601   1.000000
   15       11.672361   1.000000
   16       12.070290   1.000000
   17       12.262850   1.000000
   18       12.380979   1.000000
   19       12.428459   1.000000
   20       13.287558   1.000000
   21       13.393722   1.000000
   22       14.991670   1.000000
   23       17.816324  -0.000000
   24       20.324129   0.000000
   25       22.678215   0.000000
   26       25.139138   0.000000
   27       25.582497   0.000000
   28       27.074809   0.000000
   29       27.660387   0.000000
   30       29.640167   0.000000
   31       29.988330   0.000000
   32       30.754415   0.000000
   33       30.854940   0.000000
   34       31.572687   0.000000
   35       32.427739   0.000000
   36       35.404275   0.000000
   37       36.577171   0.000000
   38       37.561454   0.000000
   39       37.918395   0.000000
   40       38.897307   0.000000
   41       39.362396   0.000000
   42       39.512270   0.000000
   43       40.460723   0.000000
   44       43.331628   0.000000
   45       44.662206   0.000000
   46       44.939209   0.000000
   47       45.247673   0.000000
   48       45.623225   0.000000
 
  0.4444444E+00  0.2222222E+00  0.0000000E+00  0.3292181E-01
    1        5.280346   1.000000
    2        6.048542   1.000000
    3        6.843996   1.000000
    4        7.093638   1.000000
    5        7.124530   1.000000
    6        7.562423   1.000000
    7        7.702055   1.000000
    8        7.720568   1.000000
    9        8.048238   1.000000
   10        8.670250   1.000000
   11        9.003528   1.000000
   12        9.229369   1.000000
   13       10.622480   1.000000
   14       10.961068   1.000000
   15       11.248514   1.000000
   16       11.431457   1.000000
   17       11.452033   1.000000
   18       11.564577   1.000000
   19       13.097938   1.000000
   20       13.286010   1.000000
   21       13.308826   1.000000
   22       13.922079   1.000000
   23       18.861001  -0.000000
   24       19.602425   0.000000
   25       24.344202   0.000000
   26       24.881198   0.000000
   27       25.122548   0.000000
   28       25.857885   0.000000
   29       29.151009   0.000000
   30       30.097900   0.000000
   31       30.322827   0.000000
   32       30.765641   0.000000
   33       31.490194   0.000000
   34       32.768426   0.000000
   35       33.132946   0.000000
   36       35.056569   0.000000
   37       35.347733   0.000000
   38       36.445774   0.000000
   39       37.357500   0.000000
   40       38.586857   0.000000
   41       40.309466   0.000000
   42       40.665149   0.000000
   43       41.638857   0.000000
   44       42.013256   0.000000
   45       43.520469   0.000000
   46       43.535845   0.000000
   47       44.833030   0.000000
   48       45.701273   0.000000
 
  0.3333333E+00  0.3333333E+00  0.0000000E+00  0.1646091E-01
    1        5.028216   1.000000
    2        6.502888   1.000000
    3        6.889542   1.000000
    4        6.889542   1.000000
    5        7.176497   1.000000
    6        7.176497   1.000000
    7        7.773345   1.000000
    8        7.961157   1.000000
    9        8.412248   1.000000
   10        8.412248   1.000000
   11        9.215110   1.000000
   12        9.359635   1.000000
   13       10.207529   1.000000
   14       10.544959   1.000000
   15       11.288005   1.000000
   16       11.722654   1.000000
   17       11.722654   1.000000
   18       12.380669   1.000000
   19       12.380669   1.000000
   20       12.862786   1.000000
   21       13.128547   1.000000
   22       16.260771   0.292343
   23       16.260771   0.292343
   24       19.098730   0.000000
   25       24.238775   0.000000
   26       25.352456   0.000000
   27       26.328751   0.000000
   28       26.328751   0.000000
   29       28.705544   0.000000
   30       28.705544   0.000000
   31       29.657051   0.000000
   32       31.675402   0.000000
   33       31.675402   0.000000
   34       32.524308   0.000000
   35       33.074081   0.000000
   36       34.929667   0.000000
   37       35.596084   0.000000
   38       35.957752   0.000000
   39       38.521686   0.000000
   40       38.521686   0.000000
   41       39.164410   0.000000
   42       39.164410   0.000000
   43       41.291732   0.000000
   44       43.088293   0.000000
   45       44.196391   0.000000
   46       45.952947   0.000000
   47       46.266685   0.000000
   48       46.277192   0.000000
 
  0.4444444E+00  0.3333333E+00  0.0000000E+00  0.3292181E-01
    1        5.846034   1.000000
    2        6.615607   1.000000
    3        6.940280   1.000000
    4        7.471040   1.000000
    5        7.520974   1.000000
    6        7.671135   1.000000
    7        7.759549   1.000000
    8        7.825157   1.000000
    9        7.990563   1.000000
   10        8.459391   1.000000
   11        8.544955   1.000000
   12        8.982386   1.000000
   13       10.618510   1.000000
   14       10.727969   1.000000
   15       10.982615   1.000000
   16       11.120259   1.000000
   17       11.177957   1.000000
   18       11.484195   1.000000
   19       12.419796   1.000000
   20       12.553460   1.000000
   21       14.021495   1.000000
   22       15.040086   1.000000
   23       17.331196  -0.000000
   24       18.200750  -0.000000
   25       25.248183   0.000000
   26       25.521381   0.000000
   27       25.876346   0.000000
   28       27.413324   0.000000
   29       27.569082   0.000000
   30       28.685380   0.000000
   31       30.429031   0.000000
   32       31.850760   0.000000
   33       32.109421   0.000000
   34       32.897786   0.000000
   35       32.963220   0.000000
   36       34.165488   0.000000
   37       35.914888   0.000000
   38       36.253543   0.000000
   39       37.339465   0.000000
   40       37.823171   0.000000
   41       39.623890   0.000000
   42       40.230636   0.000000
   43       41.207783   0.000000
   44       41.520703   0.000000
   45       44.836273   0.000000
   46       45.708433   0.000000
   47       45.881526   0.000000
   48       45.990523   0.000000
 
  0.4444444E+00  0.4444444E+00  0.0000000E+00  0.1646091E-01
    1        6.449042   1.000000
    2        7.000181   1.000000
    3        7.000181   1.000000
    4        7.015336   1.000000
    5        7.891919   1.000000
    6        7.903524   1.000000
    7        7.903524   1.000000
    8        8.282022   1.000000
    9        8.288851   1.000000
   10        8.294357   1.000000
   11        8.294357   1.000000
   12        8.776566   1.000000
   13       10.386093   1.000000
   14       10.627773   1.000000
   15       10.677091   1.000000
   16       10.677091   1.000000
   17       11.042285   1.000000
   18       11.624491   1.000000
   19       11.624491   1.000000
   20       11.964742   1.000000
   21       15.051381   1.000000
   22       16.122106   1.033972
   23       16.122106   1.033972
   24       17.124212  -0.000000
   25       25.605098   0.000000
   26       26.370720   0.000000
   27       26.370720   0.000000
   28       27.450660   0.000000
   29       27.514139   0.000000
   30       29.074241   0.000000
   31       29.074241   0.000000
   32       30.606239   0.000000
   33       32.989246   0.000000
   34       32.989246   0.000000
   35       33.429610   0.000000
   36       33.445203   0.000000
   37       36.632177   0.000000
   38       37.367695   0.000000
   39       38.573027   0.000000
   40       38.573027   0.000000
   41       38.575772   0.000000
   42       38.575772   0.000000
   43       40.013195   0.000000
   44       40.157331   0.000000
   45       44.608029   0.000000
   46       45.298686   0.000000
   47       45.298686   0.000000
   48       45.615063   0.000000
 
  0.1111111E+00  0.1111111E+00  0.1111111E+00  0.1097394E-01
    1        2.662920   1.000000
    2        5.386399   1.000000
    3        5.386399   1.000000
    4        5.386399   1.000000
    5        5.909927   1.000000
    6        5.909927   1.000000
    7        5.909927   1.000000
    8        8.746018   1.000000
    9        9.207676   1.000000
   10        9.207676   1.000000
   11       11.507947   1.000000
   12       11.507947   1.000000
   13       12.214218   1.000000
   14       12.214218   1.000000
   15       12.214218   1.000000
   16       12.988535   1.000000
   17       12.988535   1.000000
   18       12.988535   1.000000
   19       14.064184   1.000000
   20       14.064184   1.000000
   21       14.064184   1.000000
   22       17.156767  -0.000000
   23       17.156767  -0.000000
   24       17.156767  -0.000000
   25       24.472395   0.000000
   26       24.472395   0.000000
   27       24.472395   0.000000
   28       27.387245   0.000000
   29       27.387245   0.000000
   30       27.387245   0.000000
   31       28.000220   0.000000
   32       28.000220   0.000000
   33       28.000220   0.000000
   34       30.214343   0.000000
   35       32.990418   0.000000
   36       36.157882   0.000000
   37       36.157882   0.000000
   38       37.482382   0.000000
   39       37.482382   0.000000
   40       37.482382   0.000000
   41       40.541436   0.000000
   42       40.541436   0.000000
   43       40.541436   0.000000
   44       43.639431   0.000000
   45       45.093776   0.000000
   46       45.093776   0.000000
   47       45.093776   0.000000
   48       46.688875   0.000000
 
  0.2222222E+00  0.1111111E+00  0.1111111E+00  0.3292181E-01
    1        3.200539   1.000000
    2        5.619338   1.000000
    3        5.719303   1.000000
    4        5.719303   1.000000
    5        6.146065   1.000000
    6        6.342127   1.000000
    7        6.342127   1.000000
    8        8.480585   1.000000
    9        9.417104   1.000000
   10        9.437256   1.000000
   11       10.974626   1.000000
   12       10.974626   1.000000
   13       11.167390   1.000000
   14       11.280182   1.000000
   15       11.744406   1.000000
   16       12.420594   1.000000
   17       12.519601   1.000000
   18       12.519601   1.000000
   19       13.864556   1.000000
   20       13.954266   1.000000
   21       13.954266   1.000000
   22       15.449993   1.000000
   23       18.614674  -0.000000
   24       18.614674  -0.000000
   25       23.324600   0.000000
   26       23.324600   0.000000
   27       26.122545   0.000000
   28       27.199013   0.000000
   29       27.199013   0.000000
   30       28.722386   0.000000
   31       28.722386   0.000000
   32       29.142933   0.000000
   33       29.379735   0.000000
   34       31.004848   0.000000
   35       31.995488   0.000000
   36       36.310568   0.000000
   37       36.928724   0.000000
   38       37.046115   0.000000
   39       37.824387   0.000000
   40       37.824387   0.000000
   41       39.727209   0.000000
   42       41.393821   0.000000
   43       41.393821   0.000000
   44       43.020657   0.000000
   45       44.530083   0.000000
   46       44.530083   0.000000
   47       45.164237   0.000000
   48       45.372993   0.000000
 
  0.3333333E+00  0.1111111E+00  0.1111111E+00  0.3292181E-01
    1        4.026976   1.000000
    2        5.842503   1.000000
    3        6.247567   1.000000
    4        6.247567   1.000000
    5        6.519787   1.000000
    6        6.956108   1.000000
    7        6.956108   1.000000
    8        8.027046   1.000000
    9        9.651219   1.000000
   10        9.689653   1.000000
   11        9.689653   1.000000
   12        9.818686   1.000000
   13       10.184761   1.000000
   14       10.926045   1.000000
   15       11.709495   1.000000
   16       11.879947   1.000000
   17       11.879947   1.000000
   18       12.109405   1.000000
   19       13.507363   1.000000
   20       13.786166   1.000000
   21       13.850637   1.000000
   22       13.850637   1.000000
   23       20.050953   0.000000
   24       20.050953   0.000000
   25       22.532421   0.000000
   26       22.532421   0.000000
   27       26.823707   0.000000
   28       26.823707   0.000000
   29       28.022243   0.000000
   30       28.997299   0.000000
   31       28.997299   0.000000
   32       30.843746   0.000000
   33       31.271426   0.000000
   34       31.538301   0.000000
   35       32.187144   0.000000
   36       36.075201   0.000000
   37       36.545406   0.000000
   38       36.985812   0.000000
   39       38.187991   0.000000
   40       38.187991   0.000000
   41       38.896215   0.000000
   42       41.792691   0.000000
   43       42.239776   0.000000
   44       42.239776   0.000000
   45       43.183833   0.000000
   46       44.538956   0.000000
   47       44.538956   0.000000
   48       44.908133   0.000000
 
  0.4444444E+00  0.1111111E+00  0.1111111E+00  0.3292181E-01
    1        4.984281   1.000000
    2        5.710755   1.000000