       N       E                     dE             d eps       ncg     rms          rms(c)
DAV:   1     0.201599256533E+03    0.20160E+03   -0.18894E+04  3384   0.745E+02
DAV:   2    -0.413685961148E+01   -0.20574E+03   -0.19686E+03  4824   0.197E+02
DAV:   3    -0.680054190813E+01   -0.26637E+01   -0.26622E+01  4272   0.219E+01
DAV:   4    -0.680963223558E+01   -0.90903E-02   -0.90902E-02  4824   0.144E+00
DAV:   5    -0.680969108021E+01   -0.58845E-04   -0.58845E-04  4080   0.110E-01    0.516E+01
DAV:   6    -0.607172688892E+01    0.73796E+00   -0.63184E-01  4488   0.440E+00    0.305E+01
DAV:   7    -0.587118977406E+01    0.20054E+00   -0.38160E-01  4200   0.339E+00    0.252E+00
DAV:   8    -0.585307267627E+01    0.18117E-01   -0.51772E-02  4224   0.122E+00    0.422E-01
DAV:   9    -0.585310663194E+01   -0.33956E-04   -0.18213E-04  4560   0.659E-02
   1 F= -.58531066E+01 E0= -.58530329E+01  d E =-.221046E-03
