----- GAMESS execution script 'rungms' -----
This job is running on host crcfe02.crc.nd.edu
under operating system Linux at Sun Sep 29 10:55:44 EDT 2019
Available scratch disk space (Kbyte units) at beginning of the job is
Filesystem      1K-blocks  Used  Available Use% Mounted on
AFS            2147483647     0 2147483647   0% /afs
GAMESS temporary binary files will be written to /afs/crc.nd.edu/user/c/cdrisko
GAMESS supplementary output files will be written to /afs/crc.nd.edu/user/c/cdrisko/scr
Copying input file SO2.inp to your run's scratch directory...

 Distributed Data Interface kickoff program.
 Initiating 1 compute processes on 1 nodes to run the following command:
 /afs/crc.nd.edu/x86_64_linux/g/gamess/nov-2017/gamess/gamess.00.x SO2 

          ******************************************************
          *         GAMESS VERSION = 11 NOV 2017 (R3)         *
          *             FROM IOWA STATE UNIVERSITY             *
          * M.W.SCHMIDT, K.K.BALDRIDGE, J.A.BOATZ, S.T.ELBERT, *
          *   M.S.GORDON, J.H.JENSEN, S.KOSEKI, N.MATSUNAGA,   *
          *          K.A.NGUYEN, S.J.SU, T.L.WINDUS,           *
          *       TOGETHER WITH M.DUPUIS, J.A.MONTGOMERY       *
          *         J.COMPUT.CHEM.  14, 1347-1363(1993)        *
          **************** 64 BIT INTEL VERSION ****************

  SINCE 1993, STUDENTS AND POSTDOCS WORKING AT IOWA STATE UNIVERSITY
  AND ALSO IN THEIR VARIOUS JOBS AFTER LEAVING ISU HAVE MADE IMPORTANT
  CONTRIBUTIONS TO THE CODE:
     IVANA ADAMOVIC, CHRISTINE AIKENS, YURI ALEXEEV, POOJA ARORA,
     ANDREY ASADCHEV, ROB BELL, PRADIPTA BANDYOPADHYAY, JONATHAN BENTZ,
     BRETT BODE, KURT BRORSEN, CALEB CARLIN, GALINA CHABAN, WEI CHEN,
     CHEOL HO CHOI, PAUL DAY, ALBERT DEFUSCO, NUWAN DESILVA, TIM DUDLEY,
     DMITRI FEDOROV, ALEX FINDLATER, GRAHAM FLETCHER, MARK FREITAG,
     KURT GLAESEMANN, ANASTASIA GUININA,
     DAN KEMP, GRANT MERRILL, NORIYUKI MINEZAWA, JONATHAN MULLIN,
     TAKESHI NAGATA, SEAN NEDD, HEATHER NETZLOFF, BOSILJKA NJEGIC, RYAN OLSON,
     MIKE PAK, BUU PHAM,
     SPENCER PRUITT, LUKE ROSKOP, JIM SHOEMAKER, LYUDMILA SLIPCHENKO,
     TONY SMITH, SAROM SOK LEANG, JIE SONG, TETSUYA TAKETSUGU, SIMON WEBB,
     PENG XU, SOOHAENG YOO, FEDERICO ZAHARIEV

  ADDITIONAL CODE HAS BEEN PROVIDED BY COLLABORATORS IN OTHER GROUPS:
     IOWA STATE UNIVERSITY:
          JOE IVANIC, AARON WEST, LAIMUTIS BYTAUTAS, KLAUS RUEDENBERG
     UNIVERSITY OF TOKYO: KIMIHIKO HIRAO, TAKAHITO NAKAJIMA,
          TAKAO TSUNEDA, MUNEAKI KAMIYA, SUSUMU YANAGISAWA,
          KIYOSHI YAGI, MAHITO CHIBA, SEIKEN TOKURA, NAOAKI KAWAKAMI
     UNIVERSITY OF AARHUS: FRANK JENSEN
     UNIVERSITY OF IOWA: VISVALDAS KAIRYS, HUI LI
     NATIONAL INST. OF STANDARDS AND TECHNOLOGY: WALT STEVENS, DAVID GARMER
     UNIVERSITY OF PISA: BENEDETTA MENNUCCI, JACOPO TOMASI
     UNIVERSITY OF MEMPHIS: HENRY KURTZ, PRAKASHAN KORAMBATH
     UNIVERSITY OF ALBERTA: TOBY ZENG, MARIUSZ KLOBUKOWSKI
     UNIVERSITY OF NEW ENGLAND: MARK SPACKMAN
     MIE UNIVERSITY: HIROAKI UMEDA
     NAT. INST. OF ADVANCED INDUSTRIAL SCIENCE AND TECHNOLOGY: KAZUO KITAURA
     MICHIGAN STATE UNIVERSITY:
          KAROL KOWALSKI, MARTA WLOCH, JEFFREY GOUR, JESSE LUTZ,
          WEI LI, PIOTR PIECUCH
     UNIVERSITY OF SILESIA: MONIKA MUSIAL, STANISLAW KUCHARSKI
     FACULTES UNIVERSITAIRES NOTRE-DAME DE LA PAIX:
          OLIVIER QUINET, BENOIT CHAMPAGNE
     UNIVERSITY OF CALIFORNIA - SANTA BARBARA: BERNARD KIRTMAN
     INSTITUTE FOR MOLECULAR SCIENCE:
          KAZUYA ISHIMURA, MICHIO KATOUDA, AND SHIGERU NAGASE
     UNIVERSITY OF NOTRE DAME: ANNA POMOGAEVA, DAN CHIPMAN
     KYUSHU UNIVERSITY:
          HARUYUKI NAKANO,
          FENG LONG GU, JACEK KORCHOWIEC, MARCIN MAKOWSKI, AND YURIKO AOKI,
          HIROTOSHI MORI AND EISAKU MIYOSHI
     PENNSYLVANIA STATE UNIVERSITY:
          TZVETELIN IORDANOV, CHET SWALINA, JONATHAN SKONE,
          SHARON HAMMES-SCHIFFER
     WASEDA UNIVERSITY:
          MASATO KOBAYASHI, TOMOKO AKAMA, TSUGUKI TOUMA,
          TAKESHI YOSHIKAWA, YASUHIRO IKABATA, JUNJI SEINO,
          YUYA NAKAJIMA, HIROMI NAKAI
     NANJING UNIVERSITY: SHUHUA LI
     UNIVERSITY OF NEBRASKA:
          PEIFENG SU, DEJUN SI, NANDUN THELLAMUREGE, YALI WANG, HUI LI
     UNIVERSITY OF ZURICH: ROBERTO PEVERATI, KIM BALDRIDGE
     N. COPERNICUS UNIVERSITY AND JACKSON STATE UNIVERSITY:
          MARIA BARYSZ
     UNIVERSITY OF COPENHAGEN: Jimmy Kromann, CASPER STEINMANN
     TOKYO INSTITUTE OF TECHNOLOGY: HIROYA NAKATA
     NAGOYA UNIVERSITY: YOSHIO NISHIMOTO, STEPHAN IRLE
     MOSCOW STATE UNIVERSITY: VLADIMIR MIRONOV

 EXECUTION OF GAMESS BEGUN Sun Sep 29 10:55:45 2019

            ECHO OF THE FIRST FEW INPUT CARDS -
 INPUT CARD> $BASIS GBASIS=PCSEG-1 $END                                                     
 INPUT CARD> $CONTRL COORD=ZMT ISPHER=1 RUNTYP=ENERGY DFTTYP=PBE MULT=1 $END                
 INPUT CARD>                                                                                
 INPUT CARD> $DATA                                                                          
 INPUT CARD>Title SO2 single-point calculation template with Z-Matrix                       
 INPUT CARD>C1                                                                              
 INPUT CARD>S                                                                               
 INPUT CARD>O 1 1.75                                                                        
 INPUT CARD>O 1 1.75 2 125                                                                  
 INPUT CARD> $END                                                                           
    1000000 WORDS OF MEMORY AVAILABLE

     BASIS OPTIONS
     -------------
     GBASIS=PCSEG-1      IGAUSS=       0      POLAR=NONE    
     NDFUNC=       0     NFFUNC=       0     DIFFSP=       F
     NPFUNC=       0      DIFFS=       F     BASNAM=        


     RUN TITLE
     ---------
 Title SO2 single-point calculation template with Z-Matrix                       

 THE POINT GROUP OF THE MOLECULE IS C1      
 THE ORDER OF THE PRINCIPAL AXIS IS     0

 YOUR FULLY SUBSTITUTED Z-MATRIX IS
 S   
 O      1   1.7500000
 O      1   1.7500000  2  125.0000

 THE MOMENTS OF INERTIA ARE (AMU-ANGSTROM**2)
 IXX=    10.441   IYY=    77.081   IZZ=    87.522

 ATOM      ATOMIC                      COORDINATES (BOHR)
           CHARGE         X                   Y                   Z
 S          16.0     0.0000000000       -0.7637179397        0.0000000000
 O           8.0     2.9333629900        0.7632941801        0.0000000000
 O           8.0    -2.9333629900        0.7632941801        0.0000000000

          INTERNUCLEAR DISTANCES (ANGS.)
          ------------------------------

                1 S          2 O          3 O     

   1 S       0.0000000    1.7500000 *  1.7500000 *
   2 O       1.7500000 *  0.0000000    3.1045379  
   3 O       1.7500000 *  3.1045379    0.0000000  

  * ... LESS THAN  3.000


     ATOMIC BASIS SET
     ----------------
 THE CONTRACTED PRIMITIVE FUNCTIONS HAVE BEEN UNNORMALIZED
 THE CONTRACTED BASIS FUNCTIONS ARE NOW NORMALIZED TO UNITY

  SHELL TYPE  PRIMITIVE        EXPONENT          CONTRACTION COEFFICIENT(S)

 S         

      1   S       1         49299.4000000    0.000677492991
      1   S       2          7395.8400000    0.005232317766
      1   S       3          1683.3000000    0.026769459077
      1   S       4           476.1440000    0.102869580705
      1   S       5           154.3290000    0.286438127414
      1   S       6            55.0288000    0.454278639081
      1   S       7            20.5029000    0.271743121997

      2   S       8            45.9596000   -0.088421914560
      2   S       9             4.9274000    0.564350486135
      2   S      10             1.9179900    0.505415953466

      3   S      11             0.3684980    1.000000000000

      4   S      12             0.1291650    1.000000000000

      5   P      13           451.6620000    0.003707705453
      5   P      14           106.0980000    0.029219352245
      5   P      15            33.6996000    0.124444551509
      5   P      16            12.3054000    0.321808587656
      5   P      17             4.7141200    0.462822172957
      5   P      18             1.7810500    0.266513371364

      6   P      19             0.8722350    0.349265132972
      6   P      20             0.3102780    0.717115018770

      7   P      21             0.1001940    1.000000000000

      8   D      22             0.5500000    1.000000000000

 O         

      9   S      23          2288.6400000    0.005451138222
      9   S      24           344.4160000    0.040718922842
      9   S      25            78.2538000    0.181369420873
      9   S      26            21.7195000    0.465536820246
      9   S      27             6.5590700    0.451211321214

     10   S      28            10.4656000   -0.150211201174
     10   S      29             0.9643510    1.052867983385

     11   S      30             0.2851270    1.000000000000

     12   P      31            17.0590000    0.068749256972
     12   P      32             3.6899900    0.351671941499
     12   P      33             0.9929960    0.724532099722

     13   P      34             0.2449240    1.000000000000

     14   D      35             1.0000000    1.000000000000

 O         

     15   S      36          2288.6400000    0.005451138222
     15   S      37           344.4160000    0.040718922842
     15   S      38            78.2538000    0.181369420873
     15   S      39            21.7195000    0.465536820246
     15   S      40             6.5590700    0.451211321214

     16   S      41            10.4656000   -0.150211201174
     16   S      42             0.9643510    1.052867983385

     17   S      43             0.2851270    1.000000000000

     18   P      44            17.0590000    0.068749256972
     18   P      45             3.6899900    0.351671941499
     18   P      46             0.9929960    0.724532099722

     19   P      47             0.2449240    1.000000000000

     20   D      48             1.0000000    1.000000000000

 TOTAL NUMBER OF BASIS SET SHELLS             =   20
 NUMBER OF CARTESIAN GAUSSIAN BASIS FUNCTIONS =   49
 NOTE: THIS RUN WILL RESTRICT THE MO VARIATION SPACE TO SPHERICAL HARMONICS.
 THE NUMBER OF ORBITALS KEPT IN THE VARIATIONAL SPACE WILL BE PRINTED LATER.
 NUMBER OF ELECTRONS                          =   32
 CHARGE OF MOLECULE                           =    0
 SPIN MULTIPLICITY                            =    1
 NUMBER OF OCCUPIED ORBITALS (ALPHA)          =   16
 NUMBER OF OCCUPIED ORBITALS (BETA )          =   16
 TOTAL NUMBER OF ATOMS                        =    3
 THE NUCLEAR REPULSION ENERGY IS       88.3200525057

     LEBEDEV GRID-BASED DFT OPTIONS
     ------------------------------
     DFTTYP=PBE     
     NRAD  =      96     NLEB  =     302
     NRAD0 =      24     NLEB0 =     110
     SWOFF =    5.00E-03 (PURE SCF -> DFT)
     SWITCH=    3.00E-04 (COARSE -> TIGHT GRID)
     THRESH=    0.00E+00 GTHRE=    1.00E+00

 GRIMME'S EMPIRICAL DISPERSION CORRECTION= F

     $CONTRL OPTIONS
     ---------------
 SCFTYP=RHF          RUNTYP=ENERGY       EXETYP=RUN     
 MPLEVL=       0     CITYP =NONE         CCTYP =NONE         VBTYP =NONE    
 DFTTYP=PBE          TDDFT =NONE    
 MULT  =       1     ICHARG=       0     NZVAR =       0     COORD =ZMT     
 PP    =NONE         RELWFN=NONE         LOCAL =NONE         NUMGRD=       F
 ISPHER=       1     NOSYM =       0     MAXIT =      30     UNITS =ANGS    
 PLTORB=       F     MOLPLT=       F     AIMPAC=       F     FRIEND=        
 NPRINT=       7     IREST =       0     GEOM  =INPUT   
 NORMF =       0     NORMP =       0     ITOL  =      20     ICUT  =       9
 INTTYP=BEST         GRDTYP=BEST         QMTTOL= 1.0E-06

     $SYSTEM OPTIONS
     ---------------
  REPLICATED MEMORY=     1000000 WORDS (ON EVERY NODE).
 DISTRIBUTED MEMDDI=           0 MILLION WORDS IN AGGREGATE,
 MEMDDI DISTRIBUTED OVER   1 PROCESSORS IS           0 WORDS/PROCESSOR.
 TOTAL MEMORY REQUESTED ON EACH PROCESSOR=     1000000 WORDS.
 TIMLIM=      525600.00 MINUTES, OR     365.0 DAYS.
 PARALL= F  BALTYP=  DLB     KDIAG=    0  COREFL= F
 MXSEQ2=     300 MXSEQ3=     150  mem10=         0

          ----------------
          PROPERTIES INPUT
          ----------------

     MOMENTS            FIELD           POTENTIAL          DENSITY
 IEMOM =       1   IEFLD =       0   IEPOT =       0   IEDEN =       0
 WHERE =COMASS     WHERE =NUCLEI     WHERE =NUCLEI     WHERE =NUCLEI  
 OUTPUT=BOTH       OUTPUT=BOTH       OUTPUT=BOTH       OUTPUT=BOTH    
 IEMINT=       0   IEFINT=       0                     IEDINT=       0
                                                       MORB  =       0
          EXTRAPOLATION IN EFFECT
          DIIS IN EFFECT
 ORBITAL PRINTING OPTION: NPREO=     1    49     2     1

     -------------------------------
     INTEGRAL TRANSFORMATION OPTIONS
     -------------------------------
     NWORD  =            0
     CUTOFF = 1.0E-09     MPTRAN =       0
     DIRTRF =       F     AOINTS =DUP     

          ----------------------
          INTEGRAL INPUT OPTIONS
          ----------------------
 NOPK  =       1 NORDER=       0 SCHWRZ=       F

   --- ENCODED Z MATRIX ---
 COORD  TYPE   I   J   K   L   M   N
    1      1    2   1
    2      1    3   1
    3      2    3   1   2

 THE DETERMINANT OF THE G MATRIX IS 10**(    -4)

 THE DETERMINANT OF THE G MATRIX IS 10**(    -4)
 * * * WARNING * * *
 YOUR B MATRIX HAS A SMALL DETERMINANT.
 THIS SUGGESTS YOU MAY HAVE BADLY CHOSEN COORDINATES.

     ------------------------------------------
     THE POINT GROUP IS C1 , NAXIS= 0, ORDER= 1
     ------------------------------------------

 -- VARIATIONAL SPACE WILL BE RESTRICTED TO PURE SPHERICAL HARMONICS ONLY --
 AFTER EXCLUDING CONTAMINANT COMBINATIONS FROM THE CARTESIAN GAUSSIAN BASIS
 SET, THE NUMBER OF SPHERICAL HARMONICS KEPT IN THE VARIATION SPACE IS   46

     DIMENSIONS OF THE SYMMETRY SUBSPACES ARE
 A   =   46

 ..... DONE SETTING UP THE RUN .....
 STEP CPU TIME =     0.03 TOTAL CPU TIME =          0.0 (      0.0 MIN)
 TOTAL WALL CLOCK TIME=          0.0 SECONDS, CPU UTILIZATION IS    80.00%

          ********************
          1 ELECTRON INTEGRALS
          ********************
 ...... END OF ONE-ELECTRON INTEGRALS ......
 STEP CPU TIME =     0.00 TOTAL CPU TIME =          0.0 (      0.0 MIN)
 TOTAL WALL CLOCK TIME=          0.0 SECONDS, CPU UTILIZATION IS    80.00%

          -------------
          GUESS OPTIONS
          -------------
          GUESS =HUCKEL            NORB  =       0          NORDER=       0
          MIX   =       F          PRTMO =       F          PUNMO =       F
          TOLZ  = 1.0E-08          TOLE  = 1.0E-05
          SYMDEN=       F          PURIFY=       F

 INITIAL GUESS ORBITALS GENERATED BY HUCKEL   ROUTINE.
 HUCKEL GUESS REQUIRES     21634 WORDS.

 STATISTICS FOR GENERATION OF SYMMETRY ORBITAL -Q- MATRIX
 NUMBER OF CARTESIAN ATOMIC ORBITALS=         49
 NUMBER OF SPHERICAL CONTAMINANTS DROPPED=     3
 NUMBER OF LINEARLY DEPENDENT MOS DROPPED=     0
 TOTAL NUMBER OF MOS IN VARIATION SPACE=      46

 SYMMETRIES FOR INITIAL GUESS ORBITALS FOLLOW.   BOTH SET(S).
    16 ORBITALS ARE OCCUPIED (    7 CORE ORBITALS).
     8=A        9=A       10=A       11=A       12=A       13=A       14=A   
    15=A       16=A       17=A       18=A       19=A       20=A       21=A   
    22=A       23=A       24=A       25=A       26=A   
 ...... END OF INITIAL ORBITAL SELECTION ......
 STEP CPU TIME =     0.00 TOTAL CPU TIME =          0.0 (      0.0 MIN)
 TOTAL WALL CLOCK TIME=          0.1 SECONDS, CPU UTILIZATION IS    66.67%

                    ----------------------
                    AO INTEGRAL TECHNOLOGY
                    ----------------------
     S,P,L SHELL ROTATED AXIS INTEGRALS, REPROGRAMMED BY
        KAZUYA ISHIMURA (IMS) AND JOSE SIERRA (SYNSTAR).
     S,P,D,L SHELL ROTATED AXIS INTEGRALS PROGRAMMED BY
        KAZUYA ISHIMURA (INSTITUTE FOR MOLECULAR SCIENCE).
     S,P,D,F,G SHELL TO TOTAL QUARTET ANGULAR MOMENTUM SUM 5,
        ERIC PROGRAM BY GRAHAM FLETCHER (ELORET AND NASA ADVANCED
        SUPERCOMPUTING DIVISION, AMES RESEARCH CENTER).
     S,P,D,F,G,L SHELL GENERAL RYS QUADRATURE PROGRAMMED BY
        MICHEL DUPUIS (PACIFIC NORTHWEST NATIONAL LABORATORY).

          --------------------
          2 ELECTRON INTEGRALS
          --------------------

 THE -PK- OPTION IS OFF, THE INTEGRALS ARE NOT IN SUPERMATRIX FORM.
 STORING   15000 INTEGRALS/RECORD ON DISK, USING 12 BYTES/INTEGRAL.
 TWO ELECTRON INTEGRAL EVALUATION REQUIRES   90606 WORDS OF MEMORY.
 II,JST,KST,LST =  1  1  1  1 NREC =         1 INTLOC =    1
 II,JST,KST,LST =  2  1  1  1 NREC =         1 INTLOC =    2
 II,JST,KST,LST =  3  1  1  1 NREC =         1 INTLOC =    7
 II,JST,KST,LST =  4  1  1  1 NREC =         1 INTLOC =   22
 II,JST,KST,LST =  5  1  1  1 NREC =         1 INTLOC =   56
 II,JST,KST,LST =  6  1  1  1 NREC =         1 INTLOC =  125
 II,JST,KST,LST =  7  1  1  1 NREC =         1 INTLOC =  329
 II,JST,KST,LST =  8  1  1  1 NREC =         1 INTLOC =  776
 II,JST,KST,LST =  9  1  1  1 NREC =         1 INTLOC = 2864
 II,JST,KST,LST = 10  1  1  1 NREC =         1 INTLOC = 4776
 II,JST,KST,LST = 11  1  1  1 NREC =         1 INTLOC = 7421
 II,JST,KST,LST = 12  1  1  1 NREC =         1 INTLOC =10523
 II,JST,KST,LST = 13  1  1  1 NREC =         2 INTLOC = 6327
 II,JST,KST,LST = 14  1  1  1 NREC =         3 INTLOC = 6519
 II,JST,KST,LST = 15  1  1  1 NREC =         6 INTLOC = 8148
 II,JST,KST,LST = 16  1  1  1 NREC =         6 INTLOC =14578
 II,JST,KST,LST = 17  1  1  1 NREC =         7 INTLOC = 9641
 II,JST,KST,LST = 18  1  1  1 NREC =         8 INTLOC = 7827
 II,JST,KST,LST = 19  1  1  1 NREC =        10 INTLOC =11812
 II,JST,KST,LST = 20  1  1  1 NREC =        14 INTLOC = 2319
 TOTAL NUMBER OF NONZERO TWO-ELECTRON INTEGRALS =              312176
         21 INTEGRAL RECORDS WERE STORED ON DISK FILE  8.
  ...... END OF TWO-ELECTRON INTEGRALS .....
 STEP CPU TIME =     0.10 TOTAL CPU TIME =          0.1 (      0.0 MIN)
 TOTAL WALL CLOCK TIME=          0.2 SECONDS, CPU UTILIZATION IS    87.50%

          --------------------------
               R-PBE SCF CALCULATION
          --------------------------

     NUCLEAR ENERGY =        88.3200525057
     MAXIT =   30     NPUNCH=    2
     EXTRAP=T  DAMP=F  SHIFT=F  RSTRCT=F  DIIS=T  DEM=F  SOSCF=F
         DENSITY MATRIX CONVERGENCE THRESHOLD=  1.00E-05
     COARSE -> FINE DFT GRID SWITCH THRESHOLD=  3.00E-04 (SWITCH IN $DFT)
                   HF -> DFT SWITCH THRESHOLD=  5.00E-03 (SWOFF IN $DFT)
     MEMORY REQUIRED FOR RHF ITERS=    183108 WORDS.

 DFT CODE IS SWITCHING FROM THE FINE GRID NRAD= 96,  NLEB=  302
                      TO THE COARSE GRID NRAD0= 24, NLEB0=  110

     EXCHANGE FUNCTIONAL   =PBE       
     CORRELATION FUNCTIONAL=PBE       
     DFT THRESHOLD         =.460E-07
     GRID CHANGE THRESHOLD =.300E-03
 FOR AN EULER-MACLAURIN QUADRATURE USING  96 RADIAL POINTS:
 SMALLEST GAUSSIAN PRIMITIVE EXPONENT=        0.1001940000 OF TYPE -P-
 ON ATOM NUMBER   1 HAS RADIAL NORMALIZATION=  1.000000
  LARGEST GAUSSIAN PRIMITIVE EXPONENT=    49299.4000000000 OF TYPE -S-
 ON ATOM NUMBER   1 HAS RADIAL NORMALIZATION=  1.000000
 DFT IS SWITCHED OFF, PERFORMING PURE SCF UNTIL SWOFF THRESHOLD IS REACHED.

 ITER EX DEM     TOTAL ENERGY        E CHANGE  DENSITY CHANGE    DIIS ERROR
   1  0  0     -545.9019354245  -545.9019354245   0.793425556   0.778228271
          * * *   INITIATING DIIS PROCEDURE   * * *
   2  1  0     -546.2350124039    -0.3330769794   0.923142868   0.408258797
   3  2  0     -546.0640457969     0.1709666070   0.423009411   0.477841481
   4  3  0     -546.9301672182    -0.8661214213   0.046863219   0.014060638
   5  4  0     -546.9321854535    -0.0020182353   0.016635473   0.010828617
   6  5  0     -546.9327194111    -0.0005339576   0.011856036   0.003495404
   7  6  0     -546.9329385091    -0.0002190980   0.009473410   0.001588173
   8  7  0     -546.9330116844    -0.0000731753   0.005222122   0.000939149
   9  8  0     -546.9330277118    -0.0000160274   0.002832593   0.000327834
 CONVERGED TO SWOFF, SO DFT CALCULATION IS NOW SWITCHED ON.
          * * *   INITIATING DIIS PROCEDURE   * * *
  10  9  0     -548.1111789486    -1.1781512367   0.581779403   0.102570640
  11 10  0     -548.0801304501     0.0310484985   0.502204237   0.169672162
  12 11  0     -548.0884913520    -0.0083609019   0.155186648   0.176481499
  13 12  0     -548.1668623997    -0.0783710476   0.035583492   0.015478116
  14 13  0     -548.1678068103    -0.0009444107   0.003586694   0.002287790
  15 14  0     -548.1678234929    -0.0000166825   0.000962107   0.000472668
  16 15  0     -548.1678233557     0.0000001372   0.000570386   0.000801724
  17 16  0     -548.1678241535    -0.0000007978   0.000148031   0.000256199
 DFT CODE IS SWITCHING BACK TO THE FINE GRID
          * * *   INITIATING DIIS PROCEDURE   * * *
  18 17  0     -548.1704226435    -0.0025984900   0.023204538   0.012514462
  19 18  0     -548.1707262651    -0.0003036217   0.032692403   0.006096378
  20 19  0     -548.1698606745     0.0008655907   0.025682987   0.019909999
  21 20  0     -548.1708513334    -0.0009906590   0.000756393   0.000534181
  22 21  0     -548.1708505255     0.0000008080   0.001056046   0.001103592
  23 22  0     -548.1708512304    -0.0000007049   0.000519763   0.000851501
  24 23  0     -548.1708522786    -0.0000010482   0.000037714   0.000011222
  25 24  0     -548.1708522795    -0.0000000009   0.000012422   0.000007104
  26 25  0     -548.1708522796    -0.0000000001   0.000000584   0.000000412

          -----------------
          DENSITY CONVERGED
          -----------------
     TIME TO FORM FOCK OPERATORS=       2.4 SECONDS (       0.1 SEC/ITER)
     TIME TO SOLVE SCF EQUATIONS=       0.1 SECONDS (       0.0 SEC/ITER)

 FINAL R-PBE ENERGY IS     -548.1708522796 AFTER  26 ITERATIONS
 DFT EXCHANGE + CORRELATION ENERGY =       -42.2070165882
 TOTAL ELECTRON NUMBER             =        32.0000057364

          ------------
          EIGENVECTORS
          ------------

                      1          2          3          4          5
                  -88.2321   -18.8319   -18.8319    -7.8456    -5.8720
                     A          A          A          A          A   
    1  S  1  S    0.997766   0.000004   0.000000  -0.308407  -0.000000
    2  S  1  S    0.008188  -0.000079  -0.000000   1.031879   0.000000
    3  S  1  S   -0.002799  -0.001030  -0.000005   0.027420   0.000000
    4  S  1  S    0.001111   0.006424   0.000034  -0.005872  -0.000000
    5  S  1  X   -0.000000   0.000001  -0.000170  -0.000000   0.994726
    6  S  1  Y    0.000094  -0.000138  -0.000001   0.009039  -0.000001
    7  S  1  Z    0.000000   0.000000   0.000000   0.000000   0.000000
    8  S  1  X    0.000000  -0.000008   0.001449  -0.000000   0.016959
    9  S  1  Y   -0.000159   0.000991   0.000005   0.000761  -0.000000
   10  S  1  Z    0.000000   0.000000   0.000000   0.000000   0.000000
   11  S  1  X    0.000000  -0.000021   0.003928  -0.000000  -0.002501
   12  S  1  Y    0.000043   0.002429   0.000013  -0.000144   0.000000
   13  S  1  Z    0.000000   0.000000   0.000000   0.000000   0.000000
   14  S  1 XX   -0.000105   0.000994   0.000005   0.000566  -0.000000
   15  S  1 YY    0.000031  -0.000136  -0.000001  -0.000229  -0.000000
   16  S  1 ZZ    0.000075  -0.000858  -0.000005  -0.000337   0.000000
   17  S  1 XY    0.000000  -0.000005   0.000878  -0.000000   0.001123
   18  S  1 XZ    0.000000   0.000000   0.000000   0.000000   0.000000
   19  S  1 YZ    0.000000   0.000000   0.000000   0.000000   0.000000
   20  O  2  S   -0.000004   0.698680   0.705975   0.000029  -0.000031
   21  O  2  S   -0.000084   0.023355   0.023423   0.000087  -0.000011
   22  O  2  S    0.000071  -0.010530  -0.010341  -0.000210  -0.000726
   23  O  2  X    0.000021  -0.000856  -0.000657   0.000144   0.000122
   24  O  2  Y    0.000015  -0.000263  -0.000468   0.000062   0.000086
   25  O  2  Z    0.000000   0.000000   0.000000   0.000000   0.000000
   26  O  2  X   -0.000201   0.002642   0.001563   0.000684   0.001027
   27  O  2  Y   -0.000119   0.000643   0.001421   0.000405   0.000575
   28  O  2  Z    0.000000   0.000000   0.000000   0.000000   0.000000
   29  O  2 XX    0.000108  -0.000277  -0.000128  -0.000315   0.000026
   30  O  2 YY   -0.000027   0.000092  -0.000014   0.000076  -0.000039
   31  O  2 ZZ   -0.000081   0.000185   0.000142   0.000240   0.000013
   32  O  2 XY    0.000115  -0.000190  -0.000211  -0.000345  -0.000062
   33  O  2 XZ    0.000000   0.000000   0.000000   0.000000   0.000000
   34  O  2 YZ    0.000000   0.000000   0.000000   0.000000   0.000000
   35  O  3  S   -0.000004   0.705977  -0.698678   0.000029   0.000031
   36  O  3  S   -0.000084   0.023598  -0.023179   0.000087   0.000011
   37  O  3  S    0.000071  -0.010637   0.010230  -0.000210   0.000726
   38  O  3  X   -0.000021   0.000863  -0.000648  -0.000144   0.000122
   39  O  3  Y    0.000015  -0.000268   0.000465   0.000062  -0.000086
   40  O  3  Z    0.000000   0.000000   0.000000   0.000000   0.000000
   41  O  3  X    0.000201  -0.002658   0.001535  -0.000684   0.001027
   42  O  3  Y   -0.000119   0.000658  -0.001415   0.000405  -0.000575
   43  O  3  Z    0.000000   0.000000   0.000000   0.000000   0.000000
   44  O  3 XX    0.000108  -0.000278   0.000125  -0.000315  -0.000026
   45  O  3 YY   -0.000027   0.000091   0.000015   0.000076   0.000039
   46  O  3 ZZ   -0.000081   0.000187  -0.000140   0.000240  -0.000013
   47  O  3 XY   -0.000115   0.000193  -0.000209   0.000345  -0.000062
   48  O  3 XZ    0.000000   0.000000   0.000000   0.000000   0.000000
   49  O  3 YZ    0.000000   0.000000   0.000000   0.000000   0.000000

                      6          7          8          9         10
                   -5.8696    -5.8672    -0.9396    -0.8954    -0.6463
                     A          A          A          A          A   
    1  S  1  S    0.000000   0.002800   0.043219   0.000000   0.074370
    2  S  1  S    0.000000  -0.009606  -0.267862  -0.000000  -0.473968
    3  S  1  S    0.000000  -0.000265   0.381779   0.000002   0.718847
    4  S  1  S    0.000000   0.000862   0.089451  -0.000003   0.269262
    5  S  1  X    0.000000   0.000001   0.000000  -0.082873   0.000000
    6  S  1  Y    0.000000   0.994948  -0.038201  -0.000000   0.017291
    7  S  1  Z    0.995013   0.000000   0.000000   0.000000   0.000000
    8  S  1  X    0.000000   0.000000  -0.000000   0.188802   0.000000
    9  S  1  Y    0.000000   0.015897   0.086770  -0.000000  -0.037963
   10  S  1  Z    0.015764   0.000000   0.000000   0.000000   0.000000
   11  S  1  X    0.000000  -0.000000   0.000002  -0.000796  -0.000001
   12  S  1  Y    0.000000  -0.002868  -0.007184  -0.000001  -0.025138
   13  S  1  Z   -0.003135   0.000000   0.000000   0.000000   0.000000
   14  S  1 XX    0.000000  -0.000017   0.033332  -0.000000  -0.010332
   15  S  1 YY    0.000000   0.000491  -0.009118   0.000000  -0.000140
   16  S  1 ZZ    0.000000  -0.000474  -0.024214   0.000000   0.010472
   17  S  1 XY    0.000000   0.000000   0.000000   0.043652  -0.000000
   18  S  1 XZ   -0.000000   0.000000   0.000000   0.000000   0.000000
   19  S  1 YZ    0.000464   0.000000   0.000000   0.000000   0.000000
   20  O  2  S    0.000000  -0.000021  -0.145212  -0.168489   0.105543
   21  O  2  S    0.000000  -0.000022   0.298387   0.350498  -0.226116
   22  O  2  S    0.000000  -0.000315   0.296377   0.350072  -0.273232
   23  O  2  X    0.000000   0.000056  -0.072587  -0.061822  -0.094967
   24  O  2  Y    0.000000  -0.000006  -0.035780  -0.033768  -0.051296
   25  O  2  Z   -0.000055   0.000000   0.000000   0.000000   0.000000
   26  O  2  X    0.000000   0.000544  -0.036874  -0.026492  -0.045534
   27  O  2  Y    0.000000   0.000163  -0.017030  -0.015922  -0.020264
   28  O  2  Z   -0.000023   0.000000   0.000000   0.000000   0.000000
   29  O  2 XX    0.000000  -0.000104   0.007724   0.005573   0.003676
   30  O  2 YY    0.000000   0.000126  -0.003971  -0.003353   0.000366
   31  O  2 ZZ    0.000000  -0.000022  -0.003752  -0.002220  -0.004043
   32  O  2 XY    0.000000   0.000151   0.007284   0.006244   0.004101
   33  O  2 XZ    0.000182   0.000000   0.000000   0.000000   0.000000
   34  O  2 YZ    0.000090   0.000000   0.000000   0.000000   0.000000
   35  O  3  S    0.000000  -0.000021  -0.145213   0.168488   0.105543
   36  O  3  S    0.000000  -0.000022   0.298387  -0.350498  -0.226117
   37  O  3  S    0.000000  -0.000315   0.296381  -0.350068  -0.273233
   38  O  3  X    0.000000  -0.000056   0.072587  -0.061822   0.094967
   39  O  3  Y    0.000000  -0.000006  -0.035780   0.033768  -0.051296
   40  O  3  Z   -0.000055   0.000000   0.000000   0.000000   0.000000
   41  O  3  X    0.000000  -0.000544   0.036875  -0.026490   0.045534
   42  O  3  Y    0.000000   0.000163  -0.017032   0.015922  -0.020264
   43  O  3  Z   -0.000023   0.000000   0.000000   0.000000   0.000000
   44  O  3 XX    0.000000  -0.000104   0.007724  -0.005573   0.003676
   45  O  3 YY    0.000000   0.000126  -0.003971   0.003353   0.000366
   46  O  3 ZZ    0.000000  -0.000022  -0.003752   0.002220  -0.004043
   47  O  3 XY    0.000000  -0.000151  -0.007284   0.006244  -0.004101
   48  O  3 XZ   -0.000182   0.000000   0.000000   0.000000   0.000000
   49  O  3 YZ    0.000090   0.000000   0.000000   0.000000   0.000000

                     11         12         13         14         15
                   -0.4335    -0.3970    -0.3915    -0.3117    -0.2972
                     A          A          A          A          A   
    1  S  1  S    0.000000  -0.011857   0.000000   0.000000   0.000000
    2  S  1  S   -0.000000   0.075800   0.000000   0.000000  -0.000001
    3  S  1  S    0.000001  -0.095518   0.000000   0.000000  -0.000000
    4  S  1  S   -0.000002  -0.166537   0.000000   0.000000   0.000005
    5  S  1  X   -0.190883  -0.000000   0.000000   0.000000  -0.020996
    6  S  1  Y    0.000000  -0.221584   0.000000   0.000000   0.000001
    7  S  1  Z    0.000000   0.000000  -0.222289  -0.000000   0.000000
    8  S  1  X    0.513400   0.000000   0.000000   0.000000   0.057101
    9  S  1  Y   -0.000000   0.600273   0.000000   0.000000  -0.000002
   10  S  1  Z    0.000000   0.000000   0.606579   0.000001   0.000000
   11  S  1  X    0.032934   0.000002   0.000000   0.000000   0.103261
   12  S  1  Y   -0.000001   0.150581   0.000000   0.000000   0.000001
   13  S  1  Z    0.000000   0.000000   0.193065   0.000000   0.000000
   14  S  1 XX   -0.000000  -0.004648   0.000000   0.000000  -0.000001
   15  S  1 YY    0.000000   0.027021   0.000000   0.000000   0.000000
   16  S  1 ZZ    0.000000  -0.022373   0.000000   0.000000   0.000000
   17  S  1 XY    0.041247   0.000000   0.000000   0.000000  -0.074785
   18  S  1 XZ    0.000000   0.000000  -0.000000   0.081794   0.000000
   19  S  1 YZ    0.000000   0.000000   0.029690   0.000000   0.000000
   20  O  2  S    0.060030   0.023458   0.000000   0.000000   0.002344
   21  O  2  S   -0.130211  -0.051323   0.000000   0.000000  -0.001426
   22  O  2  S   -0.184486  -0.074854   0.000000   0.000000  -0.042469
   23  O  2  X   -0.295415  -0.278300   0.000000   0.000000   0.299893
   24  O  2  Y   -0.197808   0.093571   0.000000   0.000000  -0.365593
   25  O  2  Z    0.000000   0.000000   0.286359   0.472870   0.000000
   26  O  2  X   -0.163943  -0.177071   0.000000   0.000000   0.209998
   27  O  2  Y   -0.117754   0.062335   0.000000   0.000000  -0.251647
   28  O  2  Z    0.000000   0.000000   0.179816   0.335765   0.000000
   29  O  2 XX    0.006223   0.014016   0.000000   0.000000  -0.010404
   30  O  2 YY    0.000885  -0.009435   0.000000   0.000000   0.010273
   31  O  2 ZZ   -0.007108  -0.004581   0.000000   0.000000   0.000131
   32  O  2 XY    0.011140  -0.001237   0.000000   0.000000   0.006500
   33  O  2 XZ    0.000000   0.000000  -0.013146  -0.012538   0.000000
   34  O  2 YZ    0.000000   0.000000  -0.006646  -0.007113   0.000000
   35  O  3  S   -0.060030   0.023458   0.000000   0.000000  -0.002344
   36  O  3  S    0.130209  -0.051324   0.000000   0.000000   0.001426
   37  O  3  S    0.184488  -0.074851   0.000000   0.000000   0.042467
   38  O  3  X   -0.295414   0.278300   0.000000   0.000000   0.299891
   39  O  3  Y    0.197809   0.093572   0.000000   0.000000   0.365600
   40  O  3  Z    0.000000   0.000000   0.286360  -0.472870   0.000000
   41  O  3  X   -0.163941   0.177073   0.000000   0.000000   0.209996
   42  O  3  Y    0.117754   0.062334   0.000000   0.000000   0.251653
   43  O  3  Z    0.000000   0.000000   0.179816  -0.335765   0.000000
   44  O  3 XX   -0.006223   0.014016   0.000000   0.000000   0.010404
   45  O  3 YY   -0.000885  -0.009435   0.000000   0.000000  -0.010273
   46  O  3 ZZ    0.007108  -0.004581   0.000000   0.000000  -0.000131
   47  O  3 XY    0.011140   0.001237   0.000000   0.000000   0.006500
   48  O  3 XZ    0.000000   0.000000   0.013146  -0.012538   0.000000
   49  O  3 YZ    0.000000   0.000000  -0.006646   0.007113   0.000000

                     16         17         18         19         20
                   -0.2878    -0.2277    -0.1372    -0.0572     0.2187
                     A          A          A          A          A   
    1  S  1  S    0.017785   0.000000   0.026373   0.000000   0.000000
    2  S  1  S   -0.115586   0.000000  -0.176623  -0.000000   0.000000
    3  S  1  S    0.150097   0.000000   0.295897   0.000000   0.000000
    4  S  1  S    0.282365   0.000000   0.312921   0.000001   0.000000
    5  S  1  X    0.000000   0.000000   0.000000  -0.234650   0.000000
    6  S  1  Y    0.061208   0.000000  -0.204743  -0.000001   0.000000
    7  S  1  Z    0.000000  -0.213628   0.000000   0.000000   0.252761
    8  S  1  X   -0.000000   0.000000  -0.000001   0.718651   0.000000
    9  S  1  Y   -0.169643   0.000000   0.616695   0.000002   0.000000
   10  S  1  Z    0.000000   0.620233   0.000000   0.000000  -1.001184
   11  S  1  X   -0.000001   0.000000  -0.000008   0.654383   0.000000
   12  S  1  Y    0.013792   0.000000   0.364970   0.000002   0.000000
   13  S  1  Z    0.000000   0.230892   0.000000   0.000000   1.300583
   14  S  1 XX   -0.108713   0.000000  -0.092886  -0.000001   0.000000
   15  S  1 YY    0.065542   0.000000  -0.001373   0.000000   0.000000
   16  S  1 ZZ    0.043171   0.000000   0.094259   0.000001   0.000000
   17  S  1 XY    0.000001   0.000000   0.000001  -0.153536   0.000000
   18  S  1 XZ    0.000000  -0.000000   0.000000   0.000000  -0.000000
   19  S  1 YZ    0.000000  -0.034001   0.000000   0.000000  -0.076273
   20  O  2  S   -0.001280   0.000000   0.032684   0.048277   0.000000
   21  O  2  S    0.007079   0.000000  -0.070687  -0.096917   0.000000
   22  O  2  S   -0.036086   0.000000  -0.199529  -0.363660   0.000000
   23  O  2  X    0.074670   0.000000   0.402418   0.199899   0.000000
   24  O  2  Y    0.456970   0.000000  -0.044213   0.278981   0.000000
   25  O  2  Z    0.000000  -0.399836   0.000000   0.000000  -0.071370
   26  O  2  X    0.057985   0.000000   0.333596   0.204543   0.000000
   27  O  2  Y    0.326988   0.000000  -0.030888   0.240030   0.000000
   28  O  2  Z    0.000000  -0.297015   0.000000   0.000000  -0.124598
   29  O  2 XX    0.002528   0.000000   0.001900  -0.003396   0.000000
   30  O  2 YY   -0.006118   0.000000  -0.003307   0.005230   0.000000
   31  O  2 ZZ    0.003590   0.000000   0.001407  -0.001834   0.000000
   32  O  2 XY   -0.010622   0.000000  -0.003737   0.004394   0.000000
   33  O  2 XZ    0.000000   0.001731   0.000000   0.000000   0.009570
   34  O  2 YZ    0.000000   0.000651   0.000000   0.000000   0.003861
   35  O  3  S   -0.001279   0.000000   0.032685  -0.048276   0.000000
   36  O  3  S    0.007079   0.000000  -0.070689   0.096912   0.000000
   37  O  3  S   -0.036087   0.000000  -0.199536   0.363661   0.000000
   38  O  3  X   -0.074675   0.000000  -0.402420   0.199893   0.000000
   39  O  3  Y    0.456964   0.000000  -0.044210  -0.278982   0.000000
   40  O  3  Z    0.000000  -0.399836   0.000000   0.000000  -0.071371
   41  O  3  X   -0.057989   0.000000  -0.333598   0.204543   0.000000
   42  O  3  Y    0.326984   0.000000  -0.030884  -0.240031   0.000000
   43  O  3  Z    0.000000  -0.297014   0.000000   0.000000  -0.124597
   44  O  3 XX    0.002528   0.000000   0.001900   0.003396   0.000000
   45  O  3 YY   -0.006118   0.000000  -0.003307  -0.005230   0.000000
   46  O  3 ZZ    0.003590   0.000000   0.001407   0.001834   0.000000
   47  O  3 XY    0.010621   0.000000   0.003737   0.004394   0.000000
   48  O  3 XZ    0.000000  -0.001731   0.000000   0.000000  -0.009570
   49  O  3 YZ    0.000000   0.000651   0.000000   0.000000   0.003861

                     21         22         23         24         25
                    0.2217     0.2273     0.2413     0.4716     0.4891
                     A          A          A          A          A   
    1  S  1  S    0.022017   0.000003  -0.062018   0.000000   0.000727
    2  S  1  S   -0.160833  -0.000021   0.459364   0.000000  -0.005492
    3  S  1  S    0.551565   0.000080  -1.824307   0.000000   0.029519
    4  S  1  S   -0.481450  -0.000095   2.119029   0.000000  -0.062989
    5  S  1  X   -0.000006   0.254266   0.000009   0.000000  -0.000000
    6  S  1  Y    0.244923   0.000004   0.051781   0.000000   0.028371
    7  S  1  Z    0.000000   0.000000   0.000000   0.000000   0.000000
    8  S  1  X    0.000024  -0.996291  -0.000034   0.000000   0.000001
    9  S  1  Y   -0.966889  -0.000016  -0.209715   0.000000  -0.112852
   10  S  1  Z    0.000000   0.000000   0.000000  -0.000000   0.000000
   11  S  1  X   -0.000036   1.528554   0.000056   0.000000  -0.000001
   12  S  1  Y    1.258217   0.000006   0.583193   0.000000   0.044563
   13  S  1  Z    0.000000   0.000000   0.000000   0.000000   0.000000
   14  S  1 XX    0.085327   0.000003  -0.105258   0.000000  -0.280391
   15  S  1 YY   -0.095672  -0.000001  -0.014226   0.000000   0.895860
   16  S  1 ZZ    0.010344  -0.000001   0.119484   0.000000  -0.615469
   17  S  1 XY    0.000001  -0.009440   0.000002   0.000000   0.000000
   18  S  1 XZ    0.000000   0.000000   0.000000   0.863329   0.000000
   19  S  1 YZ    0.000000   0.000000   0.000000  -0.000001   0.000000
   20  O  2  S    0.003219   0.015158   0.026334   0.000000  -0.003526
   21  O  2  S    0.013922   0.021295  -0.040020   0.000000   0.011327
   22  O  2  S   -0.134085  -0.472631  -0.408879   0.000000   0.010470
   23  O  2  X   -0.036107  -0.214519  -0.072634   0.000000   0.110860
   24  O  2  Y   -0.062125  -0.043318  -0.118805   0.000000  -0.228234
   25  O  2  Z    0.000000   0.000000   0.000000  -0.326172   0.000000
   26  O  2  X    0.036185  -0.005087   0.189029   0.000000  -0.094879
   27  O  2  Y   -0.108020   0.071466   0.040173   0.000000   0.117154
   28  O  2  Z    0.000000   0.000000   0.000000   0.180527   0.000000
   29  O  2 XX   -0.011822  -0.020229  -0.023718   0.000000   0.028263
   30  O  2 YY    0.008614   0.004146   0.003445   0.000000  -0.017780
   31  O  2 ZZ    0.003208   0.016083   0.020274   0.000000  -0.010482
   32  O  2 XY    0.003387  -0.023972  -0.027694   0.000000  -0.029443
   33  O  2 XZ    0.000000   0.000000   0.000000  -0.045736   0.000000
   34  O  2 YZ    0.000000   0.000000   0.000000  -0.031803   0.000000
   35  O  3  S    0.003219  -0.015159   0.026333   0.000000  -0.003526
   36  O  3  S    0.013921  -0.021300  -0.040028   0.000000   0.011327
   37  O  3  S   -0.134104   0.472667  -0.408837   0.000000   0.010469
   38  O  3  X    0.036115  -0.214530   0.072614   0.000000  -0.110860
   39  O  3  Y   -0.062127   0.043323  -0.118802   0.000000  -0.228234
   40  O  3  Z    0.000000   0.000000   0.000000   0.326172   0.000000
   41  O  3  X   -0.036183  -0.005065  -0.189022   0.000000   0.094879
   42  O  3  Y   -0.108017  -0.071476   0.040166   0.000000   0.117154
   43  O  3  Z    0.000000   0.000000   0.000000  -0.180527   0.000000
   44  O  3 XX   -0.011823   0.020230  -0.023717   0.000000   0.028263
   45  O  3 YY    0.008614  -0.004146   0.003444   0.000000  -0.017780
   46  O  3 ZZ    0.003209  -0.016084   0.020272   0.000000  -0.010482
   47  O  3 XY   -0.003386  -0.023975   0.027693   0.000000   0.029443
   48  O  3 XZ    0.000000   0.000000   0.000000  -0.045736   0.000000
   49  O  3 YZ    0.000000   0.000000   0.000000   0.031803   0.000000

                     26         27         28         29         30
                    0.4916     0.6216     0.6308     0.7968     0.8044
                     A          A          A          A          A   
    1  S  1  S    0.000000   0.000000  -0.004356   0.000000   0.017702
    2  S  1  S    0.000000  -0.000000   0.035790   0.000000  -0.144301
    3  S  1  S    0.000000   0.000005  -0.299618   0.000000   0.582659
    4  S  1  S    0.000000  -0.000017   0.823682   0.000000  -0.017962
    5  S  1  X    0.000000  -0.059423  -0.000001   0.000000  -0.000000
    6  S  1  Y    0.000000   0.000001  -0.040862   0.000000  -0.035088
    7  S  1  Z    0.021589   0.000000   0.000000   0.000000   0.000000
    8  S  1  X    0.000000   0.251904   0.000005   0.000000   0.000002
    9  S  1  Y    0.000000  -0.000004   0.168592   0.000000   0.238647
   10  S  1  Z   -0.085120   0.000000   0.000000  -0.000000   0.000000
   11  S  1  X    0.000000   0.408409   0.000010   0.000000  -0.000001
   12  S  1  Y    0.000000  -0.000005   0.240772   0.000000  -0.101940
   13  S  1  Z    0.041508   0.000000   0.000000   0.000000   0.000000
   14  S  1 XX    0.000000  -0.000013   0.835237   0.000000  -0.221507
   15  S  1 YY    0.000000   0.000001  -0.071644   0.000000   0.043319
   16  S  1 ZZ    0.000000   0.000013  -0.763592   0.000000   0.178188
   17  S  1 XY    0.000000   0.910658   0.000016   0.000000   0.000006
   18  S  1 XZ    0.000001   0.000000   0.000000  -0.519502   0.000000
   19  S  1 YZ    0.947916   0.000000   0.000000  -0.000000   0.000000
   20  O  2  S    0.000000   0.066678   0.069396   0.000000   0.020759
   21  O  2  S    0.000000  -0.293886  -0.318868   0.000000  -0.158265
   22  O  2  S    0.000000  -0.099538  -0.085398   0.000000   0.133035
   23  O  2  X    0.000000   0.080450  -0.095645   0.000000  -0.534731
   24  O  2  Y    0.000000  -0.189584   0.144376   0.000000  -0.306211
   25  O  2  Z   -0.199962   0.000000   0.000000  -0.561809   0.000000
   26  O  2  X    0.000000   0.300736   0.479336   0.000000   0.694396
   27  O  2  Y    0.000000   0.360101   0.061282   0.000000   0.376307
   28  O  2  Z    0.119501   0.000000   0.000000   0.739872   0.000000
   29  O  2 XX    0.000000   0.048726  -0.002350   0.000000   0.032157
   30  O  2 YY    0.000000  -0.037115   0.023397   0.000000  -0.021160
   31  O  2 ZZ    0.000000  -0.011611  -0.021047   0.000000  -0.010997
   32  O  2 XY    0.000000   0.005356   0.028982   0.000000   0.012026
   33  O  2 XZ   -0.034260   0.000000   0.000000   0.043956   0.000000
   34  O  2 YZ   -0.000424   0.000000   0.000000   0.028336   0.000000
   35  O  3  S    0.000000  -0.066680   0.069394   0.000000   0.020758
   36  O  3  S    0.000000   0.293893  -0.318861   0.000000  -0.158257
   37  O  3  S    0.000000   0.099546  -0.085389   0.000000   0.133030
   38  O  3  X    0.000000   0.080442   0.095641   0.000000   0.534718
   39  O  3  Y    0.000000   0.189581   0.144381   0.000000  -0.306224
   40  O  3  Z   -0.199962   0.000000   0.000000   0.561808   0.000000
   41  O  3  X    0.000000   0.300758  -0.479317   0.000000  -0.694376
   42  O  3  Y    0.000000  -0.360105   0.061270   0.000000   0.376322
   43  O  3  Z    0.119501   0.000000   0.000000  -0.739871   0.000000
   44  O  3 XX    0.000000  -0.048726  -0.002351   0.000000   0.032155
   45  O  3 YY    0.000000   0.037114   0.023398   0.000000  -0.021159
   46  O  3 ZZ    0.000000   0.011612  -0.021047   0.000000  -0.010996
   47  O  3 XY    0.000000   0.005357  -0.028982   0.000000  -0.012026
   48  O  3 XZ    0.034260   0.000000   0.000000   0.043956   0.000000
   49  O  3 YZ   -0.000424   0.000000   0.000000  -0.028336   0.000000

                     31         32         33         34         35
                    0.8104     0.8274     0.8366     0.8389     1.4024
                     A          A          A          A          A   
    1  S  1  S    0.000000   0.000000   0.000000   0.001557   0.000000
    2  S  1  S   -0.000001  -0.000000   0.000000  -0.012625  -0.000001
    3  S  1  S    0.000006   0.000001   0.000000   0.033195   0.000011
    4  S  1  S    0.000003  -0.000003   0.000000   0.081180  -0.000029
    5  S  1  X    0.025083  -0.074730   0.000000  -0.000001  -0.069639
    6  S  1  Y   -0.000000   0.000000   0.000000  -0.015992   0.000000
    7  S  1  Z    0.000000   0.000000  -0.004882   0.000000   0.000000
    8  S  1  X   -0.144482   0.490981   0.000000   0.000007   0.380473
    9  S  1  Y    0.000003  -0.000001   0.000000   0.087530  -0.000002
   10  S  1  Z    0.000000   0.000000   0.035380   0.000000   0.000000
   11  S  1  X    0.231269  -0.237312   0.000000  -0.000006   0.966583
   12  S  1  Y   -0.000003   0.000004   0.000000  -0.422075  -0.000012
   13  S  1  Z    0.000000   0.000000  -0.500464   0.000000   0.000000
   14  S  1 XX    0.000002  -0.000006   0.000000   0.460936  -0.000007
   15  S  1 YY   -0.000003   0.000005   0.000000  -0.446390   0.000001
   16  S  1 ZZ    0.000001   0.000001   0.000000  -0.014547   0.000006
   17  S  1 XY   -0.355923  -0.283750   0.000000  -0.000001   0.368521
   18  S  1 XZ    0.000000   0.000000   0.000000   0.000000   0.000000
   19  S  1 YZ    0.000000   0.000000  -0.319930   0.000000   0.000000
   20  O  2  S   -0.003398   0.015057   0.000000   0.000298  -0.078617
   21  O  2  S   -0.015720  -0.132665   0.000000   0.044658   1.193897
   22  O  2  S    0.006401   0.157942   0.000000  -0.041081  -1.743993
   23  O  2  X    0.324770  -0.531211   0.000000   0.256233  -0.053100
   24  O  2  Y   -0.508286  -0.307480   0.000000  -0.496779  -0.122614
   25  O  2  Z    0.000000   0.000000  -0.609156   0.000000   0.000000
   26  O  2  X   -0.519387   0.679220   0.000000  -0.265754   0.382150
   27  O  2  Y    0.593877   0.409909   0.000000   0.766264   0.409341
   28  O  2  Z    0.000000   0.000000   0.854822   0.000000   0.000000
   29  O  2 XX   -0.040366   0.004023   0.000000  -0.021774   0.096685
   30  O  2 YY    0.025443   0.015050   0.000000   0.034560  -0.024634
   31  O  2 ZZ    0.014923  -0.019073   0.000000  -0.012787  -0.072051
   32  O  2 XY   -0.006378   0.032071   0.000000   0.054757   0.110951
   33  O  2 XZ    0.000000   0.000000   0.033788   0.000000   0.000000
   34  O  2 YZ    0.000000   0.000000   0.009661   0.000000   0.000000
   35  O  3  S    0.003399  -0.015058   0.000000   0.000298   0.078620
   36  O  3  S    0.015706   0.132674   0.000000   0.044661  -1.193931
   37  O  3  S   -0.006390  -0.157949   0.000000  -0.041086   1.744046
   38  O  3  X    0.324782  -0.531207   0.000000  -0.256251  -0.053103
   39  O  3  Y    0.508268   0.307493   0.000000  -0.496781   0.122613
   40  O  3  Z    0.000000   0.000000  -0.609157   0.000000   0.000000
   41  O  3  X   -0.519404   0.679218   0.000000   0.265778   0.382169
   42  O  3  Y   -0.593853  -0.409929   0.000000   0.766265  -0.409344
   43  O  3  Z    0.000000   0.000000   0.854823   0.000000   0.000000
   44  O  3 XX    0.040366  -0.004023   0.000000  -0.021775  -0.096688
   45  O  3 YY   -0.025443  -0.015051   0.000000   0.034560   0.024635
   46  O  3 ZZ   -0.014923   0.019073   0.000000  -0.012786   0.072053
   47  O  3 XY   -0.006379   0.032072   0.000000  -0.054756   0.110953
   48  O  3 XZ    0.000000   0.000000  -0.033788   0.000000   0.000000
   49  O  3 YZ    0.000000   0.000000   0.009661   0.000000   0.000000

                     36         37         38         39         40
                    1.4646     2.0812     2.0820     2.0843     2.0874
                     A          A          A          A          A   
    1  S  1  S   -0.000239  -0.000000   0.000000   0.000000  -0.000624
    2  S  1  S    0.002528   0.000000   0.000000   0.000000   0.004722
    3  S  1  S    0.373220  -0.000000   0.000000   0.000000  -0.017141
    4  S  1  S   -1.593306   0.000000   0.000000   0.000000   0.015446
    5  S  1  X    0.000000  -0.006615   0.000000   0.000000   0.000000
    6  S  1  Y    0.043113   0.000000   0.000000   0.000000   0.002579
    7  S  1  Z    0.000000   0.000000  -0.000000  -0.011154   0.000000
    8  S  1  X   -0.000002   0.021730   0.000000   0.000000  -0.000000
    9  S  1  Y   -0.233496  -0.000000   0.000000   0.000000  -0.009625
   10  S  1  Z    0.000000   0.000000   0.000001   0.032963   0.000000
   11  S  1  X   -0.000022   0.030079   0.000000   0.000000  -0.000000
   12  S  1  Y   -0.602004   0.000000   0.000000   0.000000   0.005997
   13  S  1  Z    0.000000   0.000000   0.000000   0.024303   0.000000
   14  S  1 XX   -0.358641   0.000000   0.000000   0.000000   0.016176
   15  S  1 YY    0.037895   0.000000   0.000000   0.000000   0.026295
   16  S  1 ZZ    0.320746  -0.000000   0.000000   0.000000  -0.042470
   17  S  1 XY   -0.000006  -0.044299   0.000000   0.000000   0.000001
   18  S  1 XZ    0.000000   0.000000   0.030954  -0.000001   0.000000
   19  S  1 YZ    0.000000   0.000000  -0.000000   0.006961   0.000000
   20  O  2  S    0.073729  -0.001849   0.000000   0.000000   0.001014
   21  O  2  S   -1.175219   0.020956   0.000000   0.000000  -0.000751
   22  O  2  S    1.741585  -0.030725   0.000000   0.000000  -0.007919
   23  O  2  X    0.161630   0.002215   0.000000   0.000000   0.005766
   24  O  2  Y   -0.013949  -0.014721   0.000000   0.000000   0.001418
   25  O  2  Z    0.000000   0.000000   0.005808   0.013077   0.000000
   26  O  2  X   -0.686970  -0.003513   0.000000   0.000000  -0.002046
   27  O  2  Y   -0.117964   0.022249   0.000000   0.000000  -0.000738
   28  O  2  Z    0.000000   0.000000  -0.008972  -0.021533   0.000000
   29  O  2 XX   -0.141222   0.322303   0.000000   0.000000  -0.093069
   30  O  2 YY    0.044367   0.238567   0.000000   0.000000  -0.507796
   31  O  2 ZZ    0.096855  -0.560870   0.000000   0.000000   0.600865
   32  O  2 XY   -0.104124  -0.428417   0.000000   0.000000   0.285523
   33  O  2 XZ    0.000000   0.000000   0.448015  -0.086481   0.000000
   34  O  2 YZ    0.000000   0.000000  -0.547186   0.702299   0.000000
   35  O  3  S    0.073727   0.001849   0.000000   0.000000   0.001014
   36  O  3  S   -1.175185  -0.020956   0.000000   0.000000  -0.000751
   37  O  3  S    1.741530   0.030725   0.000000   0.000000  -0.007920
   38  O  3  X   -0.161632   0.002215   0.000000   0.000000  -0.005766
   39  O  3  Y   -0.013954   0.014722   0.000000   0.000000   0.001418
   40  O  3  Z    0.000000   0.000000  -0.005808   0.013077   0.000000
   41  O  3  X    0.686963  -0.003514   0.000000   0.000000   0.002046
   42  O  3  Y   -0.117948  -0.022249   0.000000   0.000000  -0.000737
   43  O  3  Z    0.000000   0.000000   0.008971  -0.021533   0.000000
   44  O  3 XX   -0.141220  -0.322305   0.000000   0.000000  -0.093062
   45  O  3 YY    0.044367  -0.238576   0.000000   0.000000  -0.507793
   46  O  3 ZZ    0.096854   0.560882   0.000000   0.000000   0.600855
   47  O  3 XY    0.104121  -0.428423   0.000000   0.000000  -0.285514
   48  O  3 XZ    0.000000   0.000000   0.448021   0.086460   0.000000
   49  O  3 YZ    0.000000   0.000000   0.547218   0.702274   0.000000

                     41         42         43         44         45
                    2.0984     2.1072     2.1455     2.1717     2.4370
                     A          A          A          A          A   
    1  S  1  S    0.000000   0.000000   0.000000  -0.003429  -0.022190
    2  S  1  S   -0.000000   0.000000   0.000000   0.025179   0.162179
    3  S  1  S    0.000000   0.000000   0.000000  -0.015149  -0.247094
    4  S  1  S   -0.000000   0.000000   0.000000  -0.202022  -0.666341
    5  S  1  X   -0.032590   0.000000   0.000000  -0.000000  -0.000000
    6  S  1  Y   -0.000000   0.000000   0.000000   0.042457   0.081639
    7  S  1  Z    0.000000   0.029616  -0.000000   0.000000   0.000000
    8  S  1  X    0.128211   0.000000   0.000000   0.000000   0.000001
    9  S  1  Y    0.000000   0.000000   0.000000  -0.148571  -0.367866
   10  S  1  Z    0.000000  -0.086178   0.000000   0.000000   0.000000
   11  S  1  X    0.053312   0.000000   0.000000  -0.000001  -0.000003
   12  S  1  Y    0.000000   0.000000   0.000000  -0.151235  -0.109643
   13  S  1  Z    0.000000  -0.082353   0.000000   0.000000   0.000000
   14  S  1 XX   -0.000000   0.000000   0.000000   0.133422  -0.502756
   15  S  1 YY    0.000000   0.000000   0.000000  -0.207545   0.153800
   16  S  1 ZZ   -0.000000   0.000000   0.000000   0.074123   0.348956
   17  S  1 XY   -0.108251   0.000000   0.000000  -0.000000  -0.000000
   18  S  1 XZ    0.000000   0.000000   0.269799   0.000000   0.000000
   19  S  1 YZ    0.000000  -0.153127   0.000000   0.000000   0.000000
   20  O  2  S   -0.004513   0.000000   0.000000   0.008211   0.013580
   21  O  2  S    0.073637   0.000000   0.000000  -0.145170  -0.438701
   22  O  2  S   -0.110815   0.000000   0.000000   0.233037   0.759341
   23  O  2  X   -0.014012   0.000000   0.000000   0.061231   0.083576
   24  O  2  Y   -0.038650   0.000000   0.000000  -0.028832   0.044662
   25  O  2  Z    0.000000  -0.042413   0.034180   0.000000   0.000000
   26  O  2  X    0.035514   0.000000   0.000000  -0.159517  -0.439238
   27  O  2  Y    0.067592   0.000000   0.000000   0.054524  -0.226772
   28  O  2  Z    0.000000   0.080959  -0.066901   0.000000   0.000000
   29  O  2 XX    0.348099   0.000000   0.000000   0.576852   0.413679
   30  O  2 YY   -0.634632   0.000000   0.000000  -0.494104  -0.038011
   31  O  2 ZZ    0.286533   0.000000   0.000000  -0.082749  -0.375668
   32  O  2 XY   -0.313426   0.000000   0.000000  -0.343275   0.575444
   33  O  2 XZ    0.000000  -0.705929   0.551454   0.000000   0.000000
   34  O  2 YZ    0.000000  -0.090012   0.449633   0.000000   0.000000
   35  O  3  S    0.004513   0.000000   0.000000   0.008211   0.013580
   36  O  3  S   -0.073637   0.000000   0.000000  -0.145170  -0.438700
   37  O  3  S    0.110814   0.000000   0.000000   0.233037   0.759338
   38  O  3  X   -0.014012   0.000000   0.000000  -0.061231  -0.083577
   39  O  3  Y    0.038650   0.000000   0.000000  -0.028832   0.044662
   40  O  3  Z    0.000000  -0.042413  -0.034180   0.000000   0.000000
   41  O  3  X    0.035514   0.000000   0.000000   0.159518   0.439239
   42  O  3  Y   -0.067592   0.000000   0.000000   0.054524  -0.226771
   43  O  3  Z    0.000000   0.080959   0.066901   0.000000   0.000000
   44  O  3 XX   -0.348100   0.000000   0.000000   0.576851   0.413679
   45  O  3 YY    0.634632   0.000000   0.000000  -0.494102  -0.038011
   46  O  3 ZZ   -0.286532   0.000000   0.000000  -0.082748  -0.375668
   47  O  3 XY   -0.313427   0.000000   0.000000   0.343274  -0.575445
   48  O  3 XZ    0.000000   0.705929   0.551452   0.000000   0.000000
   49  O  3 YZ    0.000000  -0.090015  -0.449633   0.000000   0.000000

                     46
                    2.4863
                     A   
    1  S  1  S    0.000000
    2  S  1  S   -0.000000
    3  S  1  S    0.000002
    4  S  1  S   -0.000002
    5  S  1  X   -0.159865
    6  S  1  Y   -0.000000
    7  S  1  Z    0.000000
    8  S  1  X    0.703313
    9  S  1  Y    0.000000
   10  S  1  Z    0.000000
   11  S  1  X    0.158630
   12  S  1  Y   -0.000001
   13  S  1  Z    0.000000
   14  S  1 XX   -0.000000
   15  S  1 YY   -0.000000
   16  S  1 ZZ    0.000000
   17  S  1 XY    0.488772
   18  S  1 XZ    0.000000
   19  S  1 YZ    0.000000
   20  O  2  S   -0.009747
   21  O  2  S    0.375903
   22  O  2  S   -0.660248
   23  O  2  X   -0.064458
   24  O  2  Y   -0.032861
   25  O  2  Z    0.000000
   26  O  2  X    0.400532
   27  O  2  Y    0.209799
   28  O  2  Z    0.000000
   29  O  2 XX   -0.556885
   30  O  2 YY    0.214734
   31  O  2 ZZ    0.342150
   32  O  2 XY   -0.493680
   33  O  2 XZ    0.000000
   34  O  2 YZ    0.000000
   35  O  3  S    0.009747
   36  O  3  S   -0.375903
   37  O  3  S    0.660249
   38  O  3  X   -0.064458
   39  O  3  Y    0.032861
   40  O  3  Z    0.000000
   41  O  3  X    0.400532
   42  O  3  Y   -0.209798
   43  O  3  Z    0.000000
   44  O  3 XX    0.556884
   45  O  3 YY   -0.214734
   46  O  3 ZZ   -0.342150
   47  O  3 XY   -0.493678
   48  O  3 XZ    0.000000
   49  O  3 YZ    0.000000
 ...... END OF RHF CALCULATION ......
 STEP CPU TIME =     2.49 TOTAL CPU TIME =          2.6 (      0.0 MIN)
 TOTAL WALL CLOCK TIME=          2.7 SECONDS, CPU UTILIZATION IS    98.13%

     ---------------------------------------------------------------------
     PROPERTIES FOR THE PBE      DFT FUNCTIONAL (RHF  TYPE) DENSITY MATRIX
     ---------------------------------------------------------------------

          -----------------
          ENERGY COMPONENTS
          -----------------

         WAVEFUNCTION NORMALIZATION =       1.0000000000

                ONE ELECTRON ENERGY =    -931.0962534835
                TWO ELECTRON ENERGY =     294.6053486982
           NUCLEAR REPULSION ENERGY =      88.3200525057
                                      ------------------
                       TOTAL ENERGY =    -548.1708522796

 ELECTRON-ELECTRON POTENTIAL ENERGY =     294.6053486982
  NUCLEUS-ELECTRON POTENTIAL ENERGY =   -1477.7274776633
   NUCLEUS-NUCLEUS POTENTIAL ENERGY =      88.3200525057
                                      ------------------
             TOTAL POTENTIAL ENERGY =   -1094.8020764594
               TOTAL KINETIC ENERGY =     546.6312241798
                 VIRIAL RATIO (V/T) =       2.0028165755

          ---------------------------------------
          MULLIKEN AND LOWDIN POPULATION ANALYSES
          ---------------------------------------

     ATOMIC MULLIKEN POPULATION IN EACH MOLECULAR ORBITAL

                      1          2          3          4          5

                  2.000000   2.000000   2.000000   2.000000   2.000000

    1             1.999987   0.000719   0.000705   2.000396   2.000314
    2             0.000007   0.989254   1.010034  -0.000198  -0.000157
    3             0.000007   1.010026   0.989261  -0.000198  -0.000157

                      6          7          8          9         10

                  2.000000   2.000000   2.000000   2.000000   2.000000

    1             2.000003   2.000079   0.544497   0.192932   1.248239
    2            -0.000001  -0.000040   0.727747   0.903539   0.375880
    3            -0.000001  -0.000040   0.727756   0.903529   0.375882

                     11         12         13         14         15

                  2.000000   2.000000   2.000000   2.000000   2.000000

    1             0.624474   1.123844   1.174765   0.039083   0.083359
    2             0.687765   0.438077   0.412617   0.980459   0.958312
    3             0.687762   0.438080   0.412618   0.980458   0.958329

                     16

                  2.000000

    1             0.240021
    2             0.880000
    3             0.879979

               ----- POPULATIONS IN EACH AO -----
                             MULLIKEN      LOWDIN
              1  S  1  S      1.99985     1.99929
              2  S  1  S      1.99284     1.89003
              3  S  1  S      1.37808     0.71124
              4  S  1  S      0.53608     0.46593
              5  S  1  X      1.99333     1.95656
              6  S  1  Y      1.99446     1.96431
              7  S  1  Z      1.99400     1.96182
              8  S  1  X      0.79479     0.68749
              9  S  1  Y      0.97661     0.89672
             10  S  1  Z      0.90158     0.82106
             11  S  1  X      0.05262     0.21391
             12  S  1  Y      0.18785     0.32178
             13  S  1  Z      0.27469     0.37963
             14  S  1 XX      0.02210     0.29263
             15  S  1 YY      0.06990     0.29725
             16  S  1 ZZ      0.06104     0.30066
             17  S  1 XY      0.03908     0.07343
             18  S  1 XZ      0.00449     0.04535
             19  S  1 YZ      0.00000     0.00435
             20  O  2  S      1.99574     1.97313
             21  O  2  S      0.97202     0.71560
             22  O  2  S      0.99216     0.56464
             23  O  2  X      0.78684     0.74677
             24  O  2  Y      1.07060     1.03926
             25  O  2  Z      0.83081     0.79987
             26  O  2  X      0.47630     0.57302
             27  O  2  Y      0.66913     0.71668
             28  O  2  Z      0.55969     0.59068
             29  O  2 XX      0.00128     0.21262
             30  O  2 YY      0.00301     0.20576
             31  O  2 ZZ      0.00312     0.21151
             32  O  2 XY      0.00202     0.00539
             33  O  2 XZ      0.00056     0.00263
             34  O  2 YZ      0.00000     0.00071
             35  O  3  S      1.99574     1.97313
             36  O  3  S      0.97202     0.71561
             37  O  3  S      0.99216     0.56464
             38  O  3  X      0.78684     0.74677
             39  O  3  Y      1.07060     1.03926
             40  O  3  Z      0.83081     0.79988
             41  O  3  X      0.47630     0.57302
             42  O  3  Y      0.66913     0.71668
             43  O  3  Z      0.55969     0.59068
             44  O  3 XX      0.00128     0.21262
             45  O  3 YY      0.00301     0.20576
             46  O  3 ZZ      0.00312     0.21151
             47  O  3 XY      0.00202     0.00539
             48  O  3 XZ      0.00056     0.00263
             49  O  3 YZ      0.00000     0.00071

          ----- MULLIKEN ATOMIC OVERLAP POPULATIONS -----
          (OFF-DIAGONAL ELEMENTS NEED TO BE MULTIPLIED BY 2)

             1           2           3

    1   14.7884183
    2    0.2424991   8.1308695
    3    0.2424995  -0.0100768   8.1308684

          TOTAL MULLIKEN AND LOWDIN ATOMIC POPULATIONS
       ATOM         MULL.POP.    CHARGE          LOW.POP.     CHARGE
    1 S            15.273417    0.726583        15.283427    0.716573
    2 O             8.363292   -0.363292         8.358286   -0.358286
    3 O             8.363291   -0.363291         8.358286   -0.358286

          MULLIKEN SPHERICAL HARMONIC POPULATIONS
       ATOM           S       P       D      F      G      H      I    TOTAL
    1 S             5.91    9.17    0.20   0.00   0.00   0.00   0.00   15.27
    2 O             3.96    4.39    0.01   0.00   0.00   0.00   0.00    8.36
    3 O             3.96    4.39    0.01   0.00   0.00   0.00   0.00    8.36

          -------------------------------
          BOND ORDER AND VALENCE ANALYSIS     BOND ORDER THRESHOLD=0.050
          -------------------------------

                   BOND                       BOND                       BOND
  ATOM PAIR DIST  ORDER      ATOM PAIR DIST  ORDER      ATOM PAIR DIST  ORDER
    1   2  1.750  1.637        1   3  1.750  1.637        2   3  3.105  0.492

                       TOTAL       BONDED        FREE
      ATOM            VALENCE     VALENCE     VALENCE
    1 S                 3.275       3.275       0.000
    2 O                 2.129       2.129      -0.000
    3 O                 2.129       2.129      -0.000

          ---------------------
          ELECTROSTATIC MOMENTS
          ---------------------

 POINT   1           X           Y           Z (BOHR)    CHARGE
                 0.000000    0.000000    0.000000       -0.00 (A.U.)
         DX          DY          DZ         /D/  (DEBYE)
    -0.000001   -1.899133    0.000000    1.899133
 ...... END OF PROPERTY EVALUATION ......
 STEP CPU TIME =     0.00 TOTAL CPU TIME =          2.6 (      0.0 MIN)
 TOTAL WALL CLOCK TIME=          2.7 SECONDS, CPU UTILIZATION IS    98.13%
                580000  WORDS OF DYNAMIC MEMORY USED
 EXECUTION OF GAMESS TERMINATED NORMALLY Sun Sep 29 10:55:47 2019
 DDI: 263640 bytes (0.3 MB / 0 MWords) used by master data server.

 ----------------------------------------
 CPU timing information for all processes
 ========================================
 0: 2.566 + 0.73 = 2.640
 ----------------------------------------
 ddikick.x: exited gracefully.
----- accounting info -----
Files used on the master node crcfe02.crc.nd.edu were:
-rw-r--r-- 1 cdrisko campus     208 Sep 29 10:55 /afs/crc.nd.edu/user/c/cdrisko/SO2.F05
-rw-r--r-- 1 cdrisko campus   37566 Sep 29 10:55 /afs/crc.nd.edu/user/c/cdrisko/SO2.F07
-rw-r--r-- 1 cdrisko campus 3780336 Sep 29 10:55 /afs/crc.nd.edu/user/c/cdrisko/SO2.F08
-rw-r--r-- 1 cdrisko campus 1766880 Sep 29 10:55 /afs/crc.nd.edu/user/c/cdrisko/SO2.F10
Sun Sep 29 10:55:50 EDT 2019
0.445u 0.243s 0:06.33 10.7%	0+0k 0+24io 0pf+0w
