   2   2   1   0
  0.8640000E+03  0.1200000E-08  0.1200000E-08  0.1200000E-08  0.1000000E-16
  1.000000000000000E-004
  CAR 
 unknown system                          
      3.52366804    -34.24324799  301     -6.89370630      1.00000000
    -34.243  0.0000E+00  0.0000E+00  0.0000E+00  0.0000E+00
    -34.117  0.0000E+00  0.0000E+00  0.0000E+00  0.0000E+00
    -33.991  0.0000E+00  0.0000E+00  0.0000E+00  0.0000E+00
    -33.866  0.0000E+00  0.0000E+00  0.0000E+00  0.0000E+00
    -33.740  0.0000E+00  0.0000E+00  0.0000E+00  0.0000E+00
    -33.614  0.0000E+00  0.0000E+00  0.0000E+00  0.0000E+00
    -33.488  0.0000E+00  0.0000E+00  0.0000E+00  0.0000E+00
    -33.362  0.0000E+00  0.0000E+00  0.0000E+00  0.0000E+00
    -33.236  0.0000E+00  0.0000E+00  0.0000E+00  0.0000E+00
    -33.110  0.0000E+00  0.0000E+00  0.0000E+00  0.0000E+00
    -32.984  0.0000E+00  0.0000E+00  0.0000E+00  0.0000E+00
    -32.858  0.0000E+00  0.0000E+00  0.0000E+00  0.0000E+00
    -32.733  0.0000E+00  0.0000E+00  0.0000E+00  0.0000E+00
    -32.607  0.0000E+00  0.0000E+00  0.0000E+00  0.0000E+00
    -32.481  0.3972E+00  0.0000E+00  0.5000E-01  0.0000E+00
    -32.355  0.0000E+00  0.0000E+00  0.5000E-01  0.0000E+00
    -32.229  0.0000E+00  0.0000E+00  0.5000E-01  0.0000E+00
    -32.103  0.0000E+00  0.0000E+00  0.5000E-01  0.0000E+00
    -31.977  0.0000E+00  0.0000E+00  0.5000E-01  0.0000E+00
    -31.851  0.0000E+00  0.0000E+00  0.5000E-01  0.0000E+00
    -31.725  0.0000E+00  0.0000E+00  0.5000E-01  0.0000E+00
    -31.600  0.0000E+00  0.0000E+00  0.5000E-01  0.0000E+00
    -31.474  0.0000E+00  0.0000E+00  0.5000E-01  0.0000E+00
    -31.348  0.0000E+00  0.7874E-11  0.5000E-01  0.9913E-12
    -31.222  0.0000E+00  0.3972E+00  0.5000E-01  0.5000E-01
    -31.096  0.0000E+00  0.0000E+00  0.5000E-01  0.5000E-01
    -30.970  0.0000E+00  0.0000E+00  0.5000E-01  0.5000E-01
    -30.844  0.0000E+00  0.0000E+00  0.5000E-01  0.5000E-01
    -30.718  0.0000E+00  0.0000E+00  0.5000E-01  0.5000E-01
    -30.592  0.0000E+00  0.0000E+00  0.5000E-01  0.5000E-01
    -30.467  0.0000E+00  0.0000E+00  0.5000E-01  0.5000E-01
    -30.341  0.0000E+00  0.0000E+00  0.5000E-01  0.5000E-01
    -30.215  0.0000E+00  0.0000E+00  0.5000E-01  0.5000E-01
    -30.089  0.0000E+00  0.0000E+00  0.5000E-01  0.5000E-01
    -29.963  0.0000E+00  0.0000E+00  0.5000E-01  0.5000E-01
    -29.837  0.0000E+00  0.0000E+00  0.5000E-01  0.5000E-01
    -29.711  0.0000E+00  0.0000E+00  0.5000E-01  0.5000E-01
    -29.585  0.0000E+00  0.0000E+00  0.5000E-01  0.5000E-01
    -29.459  0.0000E+00  0.0000E+00  0.5000E-01  0.5000E-01
    -29.334  0.0000E+00  0.0000E+00  0.5000E-01  0.5000E-01
    -29.208  0.0000E+00  0.0000E+00  0.5000E-01  0.5000E-01
    -29.082  0.0000E+00  0.0000E+00  0.5000E-01  0.5000E-01
    -28.956  0.0000E+00  0.0000E+00  0.5000E-01  0.5000E-01
    -28.830  0.0000E+00  0.0000E+00  0.5000E-01  0.5000E-01
    -28.704  0.0000E+00  0.0000E+00  0.5000E-01  0.5000E-01
    -28.578  0.0000E+00  0.0000E+00  0.5000E-01  0.5000E-01
    -28.452  0.0000E+00  0.0000E+00  0.5000E-01  0.5000E-01
    -28.326  0.0000E+00  0.0000E+00  0.5000E-01  0.5000E-01
    -28.201  0.0000E+00  0.0000E+00  0.5000E-01  0.5000E-01
    -28.075  0.0000E+00  0.0000E+00  0.5000E-01  0.5000E-01
    -27.949  0.0000E+00  0.0000E+00  0.5000E-01  0.5000E-01
    -27.823  0.0000E+00  0.0000E+00  0.5000E-01  0.5000E-01
    -27.697  0.0000E+00  0.0000E+00  0.5000E-01  0.5000E-01
    -27.571  0.0000E+00  0.0000E+00  0.5000E-01  0.5000E-01
    -27.445  0.0000E+00  0.0000E+00  0.5000E-01  0.5000E-01
    -27.319  0.0000E+00  0.0000E+00  0.5000E-01  0.5000E-01
    -27.193  0.0000E+00  0.0000E+00  0.5000E-01  0.5000E-01
    -27.068  0.0000E+00  0.0000E+00  0.5000E-01  0.5000E-01
    -26.942  0.0000E+00  0.0000E+00  0.5000E-01  0.5000E-01
    -26.816  0.0000E+00  0.0000E+00  0.5000E-01  0.5000E-01
    -26.690  0.0000E+00  0.0000E+00  0.5000E-01  0.5000E-01
    -26.564  0.0000E+00  0.0000E+00  0.5000E-01  0.5000E-01
    -26.438  0.0000E+00  0.0000E+00  0.5000E-01  0.5000E-01
    -26.312  0.0000E+00  0.0000E+00  0.5000E-01  0.5000E-01
    -26.186  0.0000E+00  0.0000E+00  0.5000E-01  0.5000E-01
    -26.060  0.0000E+00  0.0000E+00  0.5000E-01  0.5000E-01
    -25.935  0.0000E+00  0.0000E+00  0.5000E-01  0.5000E-01
    -25.809  0.0000E+00  0.0000E+00  0.5000E-01  0.5000E-01
    -25.683  0.0000E+00  0.0000E+00  0.5000E-01  0.5000E-01
    -25.557  0.0000E+00  0.0000E+00  0.5000E-01  0.5000E-01
    -25.431  0.0000E+00  0.0000E+00  0.5000E-01  0.5000E-01
    -25.305  0.0000E+00  0.0000E+00  0.5000E-01  0.5000E-01
    -25.179  0.0000E+00  0.0000E+00  0.5000E-01  0.5000E-01
    -25.053  0.0000E+00  0.0000E+00  0.5000E-01  0.5000E-01
    -24.927  0.0000E+00  0.0000E+00  0.5000E-01  0.5000E-01
    -24.802  0.0000E+00  0.0000E+00  0.5000E-01  0.5000E-01
    -24.676  0.0000E+00  0.0000E+00  0.5000E-01  0.5000E-01
    -24.550  0.0000E+00  0.0000E+00  0.5000E-01  0.5000E-01
    -24.424  0.0000E+00  0.0000E+00  0.5000E-01  0.5000E-01
    -24.298  0.0000E+00  0.0000E+00  0.5000E-01  0.5000E-01
    -24.172  0.0000E+00  0.0000E+00  0.5000E-01  0.5000E-01
    -24.046  0.0000E+00  0.0000E+00  0.5000E-01  0.5000E-01
    -23.920  0.0000E+00  0.0000E+00  0.5000E-01  0.5000E-01
    -23.794  0.0000E+00  0.0000E+00  0.5000E-01  0.5000E-01
    -23.669  0.0000E+00  0.0000E+00  0.5000E-01  0.5000E-01
    -23.543  0.0000E+00  0.0000E+00  0.5000E-01  0.5000E-01
    -23.417  0.0000E+00  0.0000E+00  0.5000E-01  0.5000E-01
    -23.291  0.0000E+00  0.0000E+00  0.5000E-01  0.5000E-01
    -23.165  0.0000E+00  0.0000E+00  0.5000E-01  0.5000E-01
    -23.039  0.0000E+00  0.0000E+00  0.5000E-01  0.5000E-01
    -22.913  0.0000E+00  0.0000E+00  0.5000E-01  0.5000E-01
    -22.787  0.0000E+00  0.0000E+00  0.5000E-01  0.5000E-01
    -22.661  0.0000E+00  0.0000E+00  0.5000E-01  0.5000E-01
    -22.536  0.0000E+00  0.0000E+00  0.5000E-01  0.5000E-01
    -22.410  0.0000E+00  0.0000E+00  0.5000E-01  0.5000E-01
    -22.284  0.0000E+00  0.0000E+00  0.5000E-01  0.5000E-01
    -22.158  0.0000E+00  0.0000E+00  0.5000E-01  0.5000E-01
    -22.032  0.0000E+00  0.0000E+00  0.5000E-01  0.5000E-01
    -21.906  0.0000E+00  0.0000E+00  0.5000E-01  0.5000E-01
    -21.780  0.0000E+00  0.0000E+00  0.5000E-01  0.5000E-01
    -21.654  0.0000E+00  0.0000E+00  0.5000E-01  0.5000E-01
    -21.528  0.0000E+00  0.0000E+00  0.5000E-01  0.5000E-01
    -21.402  0.0000E+00  0.0000E+00  0.5000E-01  0.5000E-01
    -21.277  0.0000E+00  0.0000E+00  0.5000E-01  0.5000E-01
    -21.151  0.0000E+00  0.0000E+00  0.5000E-01  0.5000E-01
    -21.025  0.0000E+00  0.0000E+00  0.5000E-01  0.5000E-01
    -20.899  0.0000E+00  0.0000E+00  0.5000E-01  0.5000E-01
    -20.773  0.0000E+00  0.0000E+00  0.5000E-01  0.5000E-01
    -20.647  0.2877E+00  0.0000E+00  0.8622E-01  0.5000E-01
    -20.521  0.0000E+00  0.0000E+00  0.1000E+00  0.5000E-01
    -20.395  0.0000E+00  0.0000E+00  0.1000E+00  0.5000E-01
    -20.269  0.0000E+00  0.0000E+00  0.1000E+00  0.5000E-01
    -20.144  0.0000E+00  0.0000E+00  0.1000E+00  0.5000E-01
    -20.018  0.0000E+00  0.0000E+00  0.1000E+00  0.5000E-01
    -19.892  0.0000E+00  0.0000E+00  0.1000E+00  0.5000E-01
    -19.766  0.0000E+00  0.0000E+00  0.1000E+00  0.5000E-01
    -19.640  0.0000E+00  0.0000E+00  0.1000E+00  0.5000E-01
    -19.514  0.0000E+00  0.0000E+00  0.1000E+00  0.5000E-01
    -19.388  0.0000E+00  0.0000E+00  0.1000E+00  0.5000E-01
    -19.262  0.0000E+00  0.0000E+00  0.1000E+00  0.5000E-01
    -19.136  0.0000E+00  0.0000E+00  0.1000E+00  0.5000E-01
    -19.011  0.0000E+00  0.0000E+00  0.1000E+00  0.5000E-01
    -18.885  0.0000E+00  0.5292E-05  0.1000E+00  0.5000E-01
    -18.759  0.0000E+00  0.0000E+00  0.1000E+00  0.1000E+00
    -18.633  0.0000E+00  0.0000E+00  0.1000E+00  0.1000E+00
    -18.507  0.0000E+00  0.0000E+00  0.1000E+00  0.1000E+00
    -18.381  0.0000E+00  0.0000E+00  0.1000E+00  0.1000E+00
    -18.255  0.0000E+00  0.0000E+00  0.1000E+00  0.1000E+00
    -18.129  0.0000E+00  0.0000E+00  0.1000E+00  0.1000E+00
    -18.003  0.0000E+00  0.0000E+00  0.1000E+00  0.1000E+00
    -17.878  0.0000E+00  0.0000E+00  0.1000E+00  0.1000E+00
    -17.752  0.0000E+00  0.0000E+00  0.1000E+00  0.1000E+00
    -17.626  0.0000E+00  0.0000E+00  0.1000E+00  0.1000E+00
    -17.500  0.0000E+00  0.0000E+00  0.1000E+00  0.1000E+00
    -17.374  0.0000E+00  0.0000E+00  0.1000E+00  0.1000E+00
    -17.248  0.0000E+00  0.0000E+00  0.1000E+00  0.1000E+00
    -17.122  0.0000E+00  0.0000E+00  0.1000E+00  0.1000E+00
    -16.996  0.0000E+00  0.0000E+00  0.1000E+00  0.1000E+00
    -16.870  0.0000E+00  0.0000E+00  0.1000E+00  0.1000E+00
    -16.745  0.0000E+00  0.0000E+00  0.1000E+00  0.1000E+00
    -16.619  0.0000E+00  0.0000E+00  0.1000E+00  0.1000E+00
    -16.493  0.0000E+00  0.0000E+00  0.1000E+00  0.1000E+00
    -16.367  0.0000E+00  0.0000E+00  0.1000E+00  0.1000E+00
    -16.241  0.0000E+00  0.0000E+00  0.1000E+00  0.1000E+00
    -16.115  0.0000E+00  0.0000E+00  0.1000E+00  0.1000E+00
    -15.989  0.0000E+00  0.0000E+00  0.1000E+00  0.1000E+00
    -15.863  0.0000E+00  0.0000E+00  0.1000E+00  0.1000E+00
    -15.737  0.0000E+00  0.0000E+00  0.1000E+00  0.1000E+00
    -15.612  0.0000E+00  0.0000E+00  0.1000E+00  0.1000E+00
    -15.486  0.0000E+00  0.0000E+00  0.1000E+00  0.1000E+00
    -15.360  0.0000E+00  0.0000E+00  0.1000E+00  0.1000E+00
    -15.234  0.0000E+00  0.0000E+00  0.1000E+00  0.1000E+00
    -15.108  0.0000E+00  0.0000E+00  0.1000E+00  0.1000E+00
    -14.982  0.0000E+00  0.0000E+00  0.1000E+00  0.1000E+00
    -14.856  0.0000E+00  0.0000E+00  0.1000E+00  0.1000E+00
    -14.730  0.0000E+00  0.0000E+00  0.1000E+00  0.1000E+00
    -14.604  0.0000E+00  0.0000E+00  0.1000E+00  0.1000E+00
    -14.479  0.0000E+00  0.0000E+00  0.1000E+00  0.1000E+00
    -14.353  0.0000E+00  0.0000E+00  0.1000E+00  0.1000E+00
    -14.227  0.0000E+00  0.0000E+00  0.1000E+00  0.1000E+00
    -14.101  0.0000E+00  0.0000E+00  0.1000E+00  0.1000E+00
    -13.975  0.0000E+00  0.0000E+00  0.1000E+00  0.1000E+00
    -13.849  0.0000E+00  0.0000E+00  0.1000E+00  0.1000E+00
    -13.723  0.0000E+00  0.0000E+00  0.1000E+00  0.1000E+00
    -13.597  0.0000E+00  0.0000E+00  0.1000E+00  0.1000E+00
    -13.471  0.9899E-14  0.0000E+00  0.1000E+00  0.1000E+00
    -13.346  0.3972E+00  0.0000E+00  0.1500E+00  0.1000E+00
    -13.220  0.7943E+00  0.0000E+00  0.2500E+00  0.1000E+00
    -13.094  0.0000E+00  0.0000E+00  0.2500E+00  0.1000E+00
    -12.968  0.0000E+00  0.0000E+00  0.2500E+00  0.1000E+00
    -12.842  0.0000E+00  0.0000E+00  0.2500E+00  0.1000E+00
    -12.716  0.0000E+00  0.0000E+00  0.2500E+00  0.1000E+00
    -12.590  0.0000E+00  0.0000E+00  0.2500E+00  0.1000E+00
    -12.464  0.0000E+00  0.3971E+00  0.2500E+00  0.1500E+00
    -12.338  0.0000E+00  0.0000E+00  0.2500E+00  0.1500E+00
    -12.213  0.0000E+00  0.0000E+00  0.2500E+00  0.1500E+00
    -12.087  0.0000E+00  0.0000E+00  0.2500E+00  0.1500E+00
    -11.961  0.0000E+00  0.0000E+00  0.2500E+00  0.1500E+00
    -11.835  0.0000E+00  0.0000E+00  0.2500E+00  0.1500E+00
    -11.709  0.0000E+00  0.0000E+00  0.2500E+00  0.1500E+00
    -11.583  0.0000E+00  0.0000E+00  0.2500E+00  0.1500E+00
    -11.457  0.0000E+00  0.3517E-05  0.2500E+00  0.1500E+00
    -11.331  0.0000E+00  0.0000E+00  0.2500E+00  0.2500E+00
    -11.205  0.0000E+00  0.0000E+00  0.2500E+00  0.2500E+00
    -11.080  0.0000E+00  0.0000E+00  0.2500E+00  0.2500E+00
    -10.954  0.0000E+00  0.0000E+00  0.2500E+00  0.2500E+00
    -10.828  0.0000E+00  0.0000E+00  0.2500E+00  0.2500E+00
    -10.702  0.0000E+00  0.0000E+00  0.2500E+00  0.2500E+00
    -10.576  0.0000E+00  0.0000E+00  0.2500E+00  0.2500E+00
    -10.450  0.0000E+00  0.0000E+00  0.2500E+00  0.2500E+00
    -10.324  0.0000E+00  0.0000E+00  0.2500E+00  0.2500E+00
    -10.198  0.0000E+00  0.0000E+00  0.2500E+00  0.2500E+00
    -10.072  0.0000E+00  0.0000E+00  0.2500E+00  0.2500E+00
     -9.947  0.0000E+00  0.0000E+00  0.2500E+00  0.2500E+00
     -9.821  0.0000E+00  0.0000E+00  0.2500E+00  0.2500E+00
     -9.695  0.0000E+00  0.0000E+00  0.2500E+00  0.2500E+00
     -9.569  0.0000E+00  0.0000E+00  0.2500E+00  0.2500E+00
     -9.443  0.0000E+00  0.0000E+00  0.2500E+00  0.2500E+00
     -9.317  0.0000E+00  0.0000E+00  0.2500E+00  0.2500E+00
     -9.191  0.0000E+00  0.0000E+00  0.2500E+00  0.2500E+00
     -9.065  0.0000E+00  0.0000E+00  0.2500E+00  0.2500E+00
     -8.939  0.0000E+00  0.0000E+00  0.2500E+00  0.2500E+00
     -8.814  0.0000E+00  0.0000E+00  0.2500E+00  0.2500E+00
     -8.688  0.0000E+00  0.0000E+00  0.2500E+00  0.2500E+00
     -8.562  0.0000E+00  0.0000E+00  0.2500E+00  0.2500E+00
     -8.436  0.0000E+00  0.0000E+00  0.2500E+00  0.2500E+00
     -8.310  0.0000E+00  0.0000E+00  0.2500E+00  0.2500E+00
     -8.184  0.0000E+00  0.0000E+00  0.2500E+00  0.2500E+00
     -8.058  0.0000E+00  0.0000E+00  0.2500E+00  0.2500E+00
     -7.932  0.0000E+00  0.0000E+00  0.2500E+00  0.2500E+00
     -7.806  0.0000E+00  0.0000E+00  0.2500E+00  0.2500E+00
     -7.681  0.0000E+00  0.0000E+00  0.2500E+00  0.2500E+00
     -7.555  0.0000E+00  0.0000E+00  0.2500E+00  0.2500E+00
     -7.429  0.0000E+00  0.0000E+00  0.2500E+00  0.2500E+00
     -7.303  0.0000E+00  0.0000E+00  0.2500E+00  0.2500E+00
     -7.177  0.0000E+00  0.0000E+00  0.2500E+00  0.2500E+00
     -7.051  0.0000E+00  0.0000E+00  0.2500E+00  0.2500E+00
     -6.925  0.7938E+00  0.0000E+00  0.3499E+00  0.2500E+00
     -6.799  0.0000E+00  0.0000E+00  0.3500E+00  0.2500E+00
     -6.673  0.0000E+00  0.0000E+00  0.3500E+00  0.2500E+00
     -6.548  0.0000E+00  0.0000E+00  0.3500E+00  0.2500E+00
     -6.422  0.0000E+00  0.0000E+00  0.3500E+00  0.2500E+00
     -6.296  0.0000E+00  0.0000E+00  0.3500E+00  0.2500E+00
     -6.170  0.0000E+00  0.0000E+00  0.3500E+00  0.2500E+00
     -6.044  0.0000E+00  0.0000E+00  0.3500E+00  0.2500E+00
     -5.918  0.0000E+00  0.0000E+00  0.3500E+00  0.2500E+00
     -5.792  0.0000E+00  0.0000E+00  0.3500E+00  0.2500E+00
     -5.666  0.0000E+00  0.0000E+00  0.3500E+00  0.2500E+00
     -5.540  0.0000E+00  0.0000E+00  0.3500E+00  0.2500E+00
     -5.415  0.0000E+00  0.0000E+00  0.3500E+00  0.2500E+00
     -5.289  0.0000E+00  0.0000E+00  0.3500E+00  0.2500E+00
     -5.163  0.0000E+00  0.0000E+00  0.3500E+00  0.2500E+00
     -5.037  0.0000E+00  0.0000E+00  0.3500E+00  0.2500E+00
     -4.911  0.0000E+00  0.0000E+00  0.3500E+00  0.2500E+00
     -4.785  0.0000E+00  0.0000E+00  0.3500E+00  0.2500E+00
     -4.659  0.0000E+00  0.7829E+00  0.3500E+00  0.3486E+00
     -4.533  0.0000E+00  0.0000E+00  0.3500E+00  0.3500E+00
     -4.407  0.0000E+00  0.0000E+00  0.3500E+00  0.3500E+00
     -4.281  0.0000E+00  0.0000E+00  0.3500E+00  0.3500E+00
     -4.156  0.0000E+00  0.0000E+00  0.3500E+00  0.3500E+00
     -4.030  0.0000E+00  0.0000E+00  0.3500E+00  0.3500E+00
     -3.904  0.0000E+00  0.0000E+00  0.3500E+00  0.3500E+00
     -3.778  0.0000E+00  0.0000E+00  0.3500E+00  0.3500E+00
     -3.652  0.0000E+00  0.0000E+00  0.3500E+00  0.3500E+00
     -3.526  0.0000E+00  0.0000E+00  0.3500E+00  0.3500E+00
     -3.400  0.0000E+00  0.0000E+00  0.3500E+00  0.3500E+00
     -3.274  0.0000E+00  0.0000E+00  0.3500E+00  0.3500E+00
     -3.148  0.0000E+00  0.0000E+00  0.3500E+00  0.3500E+00
     -3.023  0.0000E+00  0.0000E+00  0.3500E+00  0.3500E+00
     -2.897  0.0000E+00  0.0000E+00  0.3500E+00  0.3500E+00
     -2.771  0.0000E+00  0.0000E+00  0.3500E+00  0.3500E+00
     -2.645  0.0000E+00  0.0000E+00  0.3500E+00  0.3500E+00
     -2.519  0.0000E+00  0.0000E+00  0.3500E+00  0.3500E+00
     -2.393  0.0000E+00  0.0000E+00  0.3500E+00  0.3500E+00
     -2.267  0.0000E+00  0.0000E+00  0.3500E+00  0.3500E+00
     -2.141  0.0000E+00  0.0000E+00  0.3500E+00  0.3500E+00
     -2.015  0.0000E+00  0.0000E+00  0.3500E+00  0.3500E+00
     -1.890  0.0000E+00  0.0000E+00  0.3500E+00  0.3500E+00
     -1.764  0.0000E+00  0.0000E+00  0.3500E+00  0.3500E+00
     -1.638  0.0000E+00  0.0000E+00  0.3500E+00  0.3500E+00
     -1.512  0.0000E+00  0.0000E+00  0.3500E+00  0.3500E+00
     -1.386  0.0000E+00  0.0000E+00  0.3500E+00  0.3500E+00
     -1.260  0.0000E+00  0.0000E+00  0.3500E+00  0.3500E+00
     -1.134  0.0000E+00  0.0000E+00  0.3500E+00  0.3500E+00
     -1.008  0.0000E+00  0.0000E+00  0.3500E+00  0.3500E+00
     -0.882  0.0000E+00  0.0000E+00  0.3500E+00  0.3500E+00
     -0.757  0.0000E+00  0.0000E+00  0.3500E+00  0.3500E+00
     -0.631  0.0000E+00  0.0000E+00  0.3500E+00  0.3500E+00
     -0.505  0.0000E+00  0.0000E+00  0.3500E+00  0.3500E+00
     -0.379  0.0000E+00  0.0000E+00  0.3500E+00  0.3500E+00
     -0.253  0.3972E+00  0.0000E+00  0.4000E+00  0.3500E+00
     -0.127  0.0000E+00  0.3972E+00  0.4000E+00  0.4000E+00
     -0.001  0.0000E+00  0.0000E+00  0.4000E+00  0.4000E+00
      0.125  0.0000E+00  0.0000E+00  0.4000E+00  0.4000E+00
      0.251  0.0000E+00  0.0000E+00  0.4000E+00  0.4000E+00
      0.376  0.0000E+00  0.0000E+00  0.4000E+00  0.4000E+00
      0.502  0.1102E-14  0.0000E+00  0.4000E+00  0.4000E+00
      0.628  0.3973E+00  0.0000E+00  0.4500E+00  0.4000E+00
      0.754  0.2807E-03  0.3553E+00  0.5000E+00  0.4447E+00
      0.880  0.0000E+00  0.5593E+00  0.6000E+00  0.5704E+00
      1.006  0.7943E+00  0.5520E+00  0.7000E+00  0.6695E+00
      1.132  0.0000E+00  0.0000E+00  0.7000E+00  0.7000E+00
      1.258  0.0000E+00  0.0000E+00  0.7000E+00  0.7000E+00
      1.384  0.0000E+00  0.0000E+00  0.7000E+00  0.7000E+00
      1.509  0.3971E+00  0.0000E+00  0.7500E+00  0.7000E+00
      1.635  0.0000E+00  0.2804E-01  0.7500E+00  0.7035E+00
      1.761  0.3972E+00  0.1895E-10  0.8000E+00  0.7500E+00
      1.887  0.0000E+00  0.0000E+00  0.8000E+00  0.8000E+00
      2.013  0.0000E+00  0.0000E+00  0.8000E+00  0.8000E+00
      2.139  0.0000E+00  0.0000E+00  0.8000E+00  0.8000E+00
      2.265  0.0000E+00  0.0000E+00  0.8000E+00  0.8000E+00
      2.391  0.0000E+00  0.0000E+00  0.8000E+00  0.8000E+00
      2.517  0.0000E+00  0.0000E+00  0.8000E+00  0.8000E+00
      2.642  0.0000E+00  0.0000E+00  0.8000E+00  0.8000E+00
      2.768  0.0000E+00  0.0000E+00  0.8000E+00  0.8000E+00
      2.894  0.0000E+00  0.0000E+00  0.8000E+00  0.8000E+00
      3.020  0.0000E+00  0.0000E+00  0.8000E+00  0.8000E+00
      3.146  0.0000E+00  0.0000E+00  0.8000E+00  0.8000E+00
      3.272  0.0000E+00  0.0000E+00  0.8000E+00  0.8000E+00
      3.398  0.0000E+00  0.0000E+00  0.8000E+00  0.8000E+00
      3.524  0.0000E+00  0.0000E+00  0.8000E+00  0.8000E+00
      3.52366804    -34.24324799  301     -6.89370630      1.00000000
    -34.243  0.0000E+00  0.0000E+00  0.0000E+00  0.0000E+00  0.0000E+00  0.0000E+00  0.0000E+00  0.0000E+00  0.0000E+00  0.0000E+00  0.0000E+00  0.0000E+00  0.0000E+00  0.0000E+00  0.0000E+00  0.0000E+00  0.0000E+00  0.0000E+00
    -34.117  0.0000E+00  0.0000E+00  0.0000E+00  0.0000E+00  0.0000E+00  0.0000E+00  0.0000E+00  0.0000E+00  0.0000E+00  0.0000E+00  0.0000E+00  0.0000E+00  0.0000E+00  0.0000E+00  0.0000E+00  0.0000E+00  0.0000E+00  0.0000E+00
    -33.991  0.0000E+00  0.0000E+00  0.0000E+00  0.0000E+00  0.0000E+00  0.0000E+00  0.0000E+00  0.0000E+00  0.0000E+00  0.0000E+00  0.0000E+00  0.0000E+00  0.0000E+00  0.0000E+00  0.0000E+00  0.0000E+00  0.0000E+00  0.0000E+00
    -33.866  0.0000E+00  0.0000E+00  0.0000E+00  0.0000E+00  0.0000E+00  0.0000E+00  0.0000E+00  0.0000E+00  0.0000E+00  0.0000E+00  0.0000E+00  0.0000E+00  0.0000E+00  0.0000E+00  0.0000E+00  0.0000E+00  0.0000E+00  0.0000E+00
    -33.740  0.0000E+00  0.0000E+00  0.0000E+00  0.0000E+00  0.0000E+00  0.0000E+00  0.0000E+00  0.0000E+00  0.0000E+00  0.0000E+00  0.0000E+00  0.0000E+00  0.0000E+00  0.0000E+00  0.0000E+00  0.0000E+00  0.0000E+00  0.0000E+00
    -33.614  0.0000E+00  0.0000E+00  0.0000E+00  0.0000E+00  0.0000E+00  0.0000E+00  0.0000E+00  0.0000E+00  0.0000E+00  0.0000E+00  0.0000E+00  0.0000E+00  0.0000E+00  0.0000E+00  0.0000E+00  0.0000E+00  0.0000E+00  0.0000E+00
    -33.488  0.0000E+00  0.0000E+00  0.0000E+00  0.0000E+00  0.0000E+00  0.0000E+00  0.0000E+00  0.0000E+00  0.0000E+00  0.0000E+00  0.0000E+00  0.0000E+00  0.0000E+00  0.0000E+00  0.0000E+00  0.0000E+00  0.0000E+00  0.0000E+00
    -33.362  0.0000E+00  0.0000E+00  0.0000E+00  0.0000E+00  0.0000E+00  0.0000E+00  0.0000E+00  0.0000E+00  0.0000E+00  0.0000E+00  0.0000E+00  0.0000E+00  0.0000E+00  0.0000E+00  0.0000E+00  0.0000E+00  0.0000E+00  0.0000E+00
    -33.236  0.0000E+00  0.0000E+00  0.0000E+00  0.0000E+00  0.0000E+00  0.0000E+00  0.0000E+00  0.0000E+00  0.0000E+00  0.0000E+00  0.0000E+00  0.0000E+00  0.0000E+00  0.0000E+00  0.0000E+00  0.0000E+00  0.0000E+00  0.0000E+00
    -33.110  0.0000E+00  0.0000E+00  0.0000E+00  0.0000E+00  0.0000E+00  0.0000E+00  0.0000E+00  0.0000E+00  0.0000E+00  0.0000E+00  0.0000E+00  0.0000E+00  0.0000E+00  0.0000E+00  0.0000E+00  0.0000E+00  0.0000E+00  0.0000E+00
    -32.984  0.0000E+00  0.0000E+00  0.0000E+00  0.0000E+00  0.0000E+00  0.0000E+00  0.0000E+00  0.0000E+00  0.0000E+00  0.0000E+00  0.0000E+00  0.0000E+00  0.0000E+00  0.0000E+00  0.0000E+00  0.0000E+00  0.0000E+00  0.0000E+00
    -32.858  0.0000E+00  0.0000E+00  0.0000E+00  0.0000E+00  0.0000E+00  0.0000E+00  0.0000E+00  0.0000E+00  0.0000E+00  0.0000E+00  0.0000E+00  0.0000E+00  0.0000E+00  0.0000E+00  0.0000E+00  0.0000E+00  0.0000E+00  0.0000E+00
    -32.733  0.0000E+00  0.0000E+00  0.0000E+00  0.0000E+00  0.0000E+00  0.0000E+00  0.0000E+00  0.0000E+00  0.0000E+00  0.0000E+00  0.0000E+00  0.0000E+00  0.0000E+00  0.0000E+00  0.0000E+00  0.0000E+00  0.0000E+00  0.0000E+00
    -32.607  0.0000E+00  0.0000E+00  0.0000E+00  0.0000E+00  0.0000E+00  0.0000E+00  0.0000E+00  0.0000E+00  0.0000E+00  0.0000E+00  0.0000E+00  0.0000E+00  0.0000E+00  0.0000E+00  0.0000E+00  0.0000E+00  0.0000E+00  0.0000E+00
    -32.481  0.3220E+01  0.0000E+00  0.4968E-04  0.0000E+00  0.6704E-20  0.0000E+00  0.7571E+00  0.0000E+00  0.0000E+00  0.0000E+00  0.0000E+00  0.0000E+00  0.0000E+00  0.0000E+00  0.0000E+00  0.0000E+00  0.0000E+00  0.0000E+00
    -32.355  0.0000E+00  0.0000E+00  0.0000E+00  0.0000E+00  0.0000E+00  0.0000E+00  0.0000E+00  0.0000E+00  0.0000E+00  0.0000E+00  0.0000E+00  0.0000E+00  0.0000E+00  0.0000E+00  0.0000E+00  0.0000E+00  0.0000E+00  0.0000E+00
    -32.229  0.0000E+00  0.0000E+00  0.0000E+00  0.0000E+00  0.0000E+00  0.0000E+00  0.0000E+00  0.0000E+00  0.0000E+00  0.0000E+00  0.0000E+00  0.0000E+00  0.0000E+00  0.0000E+00  0.0000E+00  0.0000E+00  0.0000E+00  0.0000E+00
    -32.103  0.0000E+00  0.0000E+00  0.0000E+00  0.0000E+00  0.0000E+00  0.0000E+00  0.0000E+00  0.0000E+00  0.0000E+00  0.0000E+00  0.0000E+00  0.0000E+00  0.0000E+00  0.0000E+00  0.0000E+00  0.0000E+00  0.0000E+00  0.0000E+00
    -31.977  0.0000E+00  0.0000E+00  0.0000E+00  0.0000E+00  0.0000E+00  0.0000E+00  0.0000E+00  0.0000E+00  0.0000E+00  0.0000E+00  0.0000E+00  0.0000E+00  0.0000E+00  0.0000E+00  0.0000E+00  0.0000E+00  0.0000E+00  0.0000E+00
    -31.851  0.0000E+00  0.0000E+00  0.0000E+00  0.0000E+00  0.0000E+00  0.0000E+00  0.0000E+00  0.0000E+00  0.0000E+00  0.0000E+00  0.0000E+00  0.0000E+00  0.0000E+00  0.0000E+00  0.0000E+00  0.0000E+00  0.0000E+00  0.0000E+00
    -31.725  0.0000E+00  0.0000E+00  0.0000E+00  0.0000E+00  0.0000E+00  0.0000E+00  0.0000E+00  0.0000E+00  0.0000E+00  0.0000E+00  0.0000E+00  0.0000E+00  0.0000E+00  0.0000E+00  0.0000E+00  0.0000E+00  0.0000E+00  0.0000E+00
    -31.600  0.0000E+00  0.0000E+00  0.0000E+00  0.0000E+00  0.0000E+00  0.0000E+00  0.0000E+00  0.0000E+00  0.0000E+00  0.0000E+00  0.0000E+00  0.0000E+00  0.0000E+00  0.0000E+00  0.0000E+00  0.0000E+00  0.0000E+00  0.0000E+00
    -31.474  0.0000E+00  0.0000E+00  0.0000E+00  0.0000E+00  0.0000E+00  0.0000E+00  0.0000E+00  0.0000E+00  0.0000E+00  0.0000E+00  0.0000E+00  0.0000E+00  0.0000E+00  0.0000E+00  0.0000E+00  0.0000E+00  0.0000E+00  0.0000E+00
    -31.348  0.0000E+00  0.6272E-10  0.0000E+00  0.1092E-14  0.0000E+00  0.6791E-30  0.0000E+00  0.1663E-10  0.0000E+00  0.0000E+00  0.0000E+00  0.0000E+00  0.0000E+00  0.0000E+00  0.0000E+00  0.0000E+00  0.0000E+00  0.0000E+00
    -31.222  0.0000E+00  0.3163E+01  0.0000E+00  0.5506E-04  0.0000E+00  0.3425E-19  0.0000E+00  0.8388E+00  0.0000E+00  0.0000E+00  0.0000E+00  0.0000E+00  0.0000E+00  0.0000E+00  0.0000E+00  0.0000E+00  0.0000E+00  0.0000E+00
    -31.096  0.0000E+00  0.0000E+00  0.0000E+00  0.0000E+00  0.0000E+00  0.0000E+00  0.0000E+00  0.0000E+00  0.0000E+00  0.0000E+00  0.0000E+00  0.0000E+00  0.0000E+00  0.0000E+00  0.0000E+00  0.0000E+00  0.0000E+00  0.0000E+00
    -30.970  0.0000E+00  0.0000E+00  0.0000E+00  0.0000E+00  0.0000E+00  0.0000E+00  0.0000E+00  0.0000E+00  0.0000E+00  0.0000E+00  0.0000E+00  0.0000E+00  0.0000E+00  0.0000E+00  0.0000E+00  0.0000E+00  0.0000E+00  0.0000E+00
    -30.844  0.0000E+00  0.0000E+00  0.0000E+00  0.0000E+00  0.0000E+00  0.0000E+00  0.0000E+00  0.0000E+00  0.0000E+00  0.0000E+00  0.0000E+00  0.0000E+00  0.0000E+00  0.0000E+00  0.0000E+00  0.0000E+00  0.0000E+00  0.0000E+00
    -30.718  0.0000E+00  0.0000E+00  0.0000E+00  0.0000E+00  0.0000E+00  0.0000E+00  0.0000E+00  0.0000E+00  0.0000E+00  0.0000E+00  0.0000E+00  0.0000E+00  0.0000E+00  0.0000E+00  0.0000E+00  0.0000E+00  0.0000E+00  0.0000E+00
    -30.592  0.0000E+00  0.0000E+00  0.0000E+00  0.0000E+00  0.0000E+00  0.0000E+00  0.0000E+00  0.0000E+00  0.0000E+00  0.0000E+00  0.0000E+00  0.0000E+00  0.0000E+00  0.0000E+00  0.0000E+00  0.0000E+00  0.0000E+00  0.0000E+00
    -30.467  0.0000E+00  0.0000E+00  0.0000E+00  0.0000E+00  0.0000E+00  0.0000E+00  0.0000E+00  0.0000E+00  0.0000E+00  0.0000E+00  0.0000E+00  0.0000E+00  0.0000E+00  0.0000E+00  0.0000E+00  0.0000E+00  0.0000E+00  0.0000E+00
    -30.341  0.0000E+00  0.0000E+00  0.0000E+00  0.0000E+00  0.0000E+00  0.0000E+00  0.0000E+00  0.0000E+00  0.0000E+00  0.0000E+00  0.0000E+00  0.0000E+00  0.0000E+00  0.0000E+00  0.0000E+00  0.0000E+00  0.0000E+00  0.0000E+00
    -30.215  0.0000E+00  0.0000E+00  0.0000E+00  0.0000E+00  0.0000E+00  0.0000E+00  0.0000E+00  0.0000E+00  0.0000E+00  0.0000E+00  0.0000E+00  0.0000E+00  0.0000E+00  0.0000E+00  0.0000E+00  0.0000E+00  0.0000E+00  0.0000E+00
    -30.089  0.0000E+00  0.0000E+00  0.0000E+00  0.0000E+00  0.0000E+00  0.0000E+00  0.0000E+00  0.0000E+00  0.0000E+00  0.0000E+00  0.0000E+00  0.0000E+00  0.0000E+00  0.0000E+00  0.0000E+00  0.0000E+00  0.0000E+00  0.0000E+00
    -29.963  0.0000E+00  0.0000E+00  0.0000E+00  0.0000E+00  0.0000E+00  0.0000E+00  0.0000E+00  0.0000E+00  0.0000E+00  0.0000E+00  0.0000E+00  0.0000E+00  0.0000E+00  0.0000E+00  0.0000E+00  0.0000E+00  0.0000E+00  0.0000E+00
    -29.837  0.0000E+00  0.0000E+00  0.0000E+00  0.0000E+00  0.0000E+00  0.0000E+00  0.0000E+00  0.0000E+00  0.0000E+00  0.0000E+00  0.0000E+00  0.0000E+00  0.0000E+00  0.0000E+00  0.0000E+00  0.0000E+00  0.0000E+00  0.0000E+00
    -29.711  0.0000E+00  0.0000E+00  0.0000E+00  0.0000E+00  0.0000E+00  0.0000E+00  0.0000E+00  0.0000E+00  0.0000E+00  0.0000E+00  0.0000E+00  0.0000E+00  0.0000E+00  0.0000E+00  0.0000E+00  0.0000E+00  0.0000E+00  0.0000E+00
    -29.585  0.0000E+00  0.0000E+00  0.0000E+00  0.0000E+00  0.0000E+00  0.0000E+00  0.0000E+00  0.0000E+00  0.0000E+00  0.0000E+00  0.0000E+00  0.0000E+00  0.0000E+00  0.0000E+00  0.0000E+00  0.0000E+00  0.0000E+00  0.0000E+00
    -29.459  0.0000E+00  0.0000E+00  0.0000E+00  0.0000E+00  0.0000E+00  0.0000E+00  0.0000E+00  0.0000E+00  0.0000E+00  0.0000E+00  0.0000E+00  0.0000E+00  0.0000E+00  0.0000E+00  0.0000E+00  0.0000E+00  0.0000E+00  0.0000E+00
    -29.334  0.0000E+00  0.0000E+00  0.0000E+00  0.0000E+00  0.0000E+00  0.0000E+00  0.0000E+00  0.0000E+00  0.0000E+00  0.0000E+00  0.0000E+00  0.0000E+00  0.0000E+00  0.0000E+00  0.0000E+00  0.0000E+00  0.0000E+00  0.0000E+00
    -29.208  0.0000E+00  0.0000E+00  0.0000E+00  0.0000E+00  0.0000E+00  0.0000E+00  0.0000E+00  0.0000E+00  0.0000E+00  0.0000E+00  0.0000E+00  0.0000E+00  0.0000E+00  0.0000E+00  0.0000E+00  0.0000E+00  0.0000E+00  0.0000E+00
    -29.082  0.0000E+00  0.0000E+00  0.0000E+00  0.0000E+00  0.0000E+00  0.0000E+00  0.0000E+00  0.0000E+00  0.0000E+00  0.0000E+00  0.0000E+00  0.0000E+00  0.0000E+00  0.0000E+00  0.0000E+00  0.0000E+00  0.0000E+00  0.0000E+00
    -28.956  0.0000E+00  0.0000E+00  0.0000E+00  0.0000E+00  0.0000E+00  0.0000E+00  0.0000E+00  0.0000E+00  0.0000E+00  0.0000E+00  0.0000E+00  0.0000E+00  0.0000E+00  0.0000E+00  0.0000E+00  0.0000E+00  0.0000E+00  0.0000E+00
    -28.830  0.0000E+00  0.0000E+00  0.0000E+00  0.0000E+00  0.0000E+00  0.0000E+00  0.0000E+00  0.0000E+00  0.0000E+00  0.0000E+00  0.0000E+00  0.0000E+00  0.0000E+00  0.0000E+00  0.0000E+00  0.0000E+00  0.0000E+00  0.0000E+00
    -28.704  0.0000E+00  0.0000E+00  0.0000E+00  0.0000E+00  0.0000E+00  0.0000E+00  0.0000E+00  0.0000E+00  0.0000E+00  0.0000E+00  0.0000E+00  0.0000E+00  0.0000E+00  0.0000E+00  0.0000E+00  0.0000E+00  0.0000E+00  0.0000E+00
    -28.578  0.0000E+00  0.0000E+00  0.0000E+00  0.0000E+00  0.0000E+00  0.0000E+00  0.0000E+00  0.0000E+00  0.0000E+00  0.0000E+00  0.0000E+00  0.0000E+00  0.0000E+00  0.0000E+00  0.0000E+00  0.0000E+00  0.0000E+00  0.0000E+00
    -28.452  0.0000E+00  0.0000E+00  0.0000E+00  0.0000E+00  0.0000E+00  0.0000E+00  0.0000E+00  0.0000E+00  0.0000E+00  0.0000E+00  0.0000E+00  0.0000E+00  0.0000E+00  0.0000E+00  0.0000E+00  0.0000E+00  0.0000E+00  0.0000E+00
    -28.326  0.0000E+00  0.0000E+00  0.0000E+00  0.0000E+00  0.0000E+00  0.0000E+00  0.0000E+00  0.0000E+00  0.0000E+00  0.0000E+00  0.0000E+00  0.0000E+00  0.0000E+00  0.0000E+00  0.0000E+00  0.0000E+00  0.0000E+00  0.0000E+00
    -28.201  0.0000E+00  0.0000E+00  0.0000E+00  0.0000E+00  0.0000E+00  0.0000E+00  0.0000E+00  0.0000E+00  0.0000E+00  0.0000E+00  0.0000E+00  0.0000E+00  0.0000E+00  0.0000E+00  0.0000E+00  0.0000E+00  0.0000E+00  0.0000E+00
    -28.075  0.0000E+00  0.0000E+00  0.0000E+00  0.0000E+00  0.0000E+00  0.0000E+00  0.0000E+00  0.0000E+00  0.0000E+00  0.0000E+00  0.0000E+00  0.0000E+00  0.0000E+00  0.0000E+00  0.0000E+00  0.0000E+00  0.0000E+00  0.0000E+00
    -27.949  0.0000E+00  0.0000E+00  0.0000E+00  0.0000E+00  0.0000E+00  0.0000E+00  0.0000E+00  0.0000E+00  0.0000E+00  0.0000E+00  0.0000E+00  0.0000E+00  0.0000E+00  0.0000E+00  0.0000E+00  0.0000E+00  0.0000E+00  0.0000E+00