       N       E                     dE             d eps       ncg     rms          rms(c)
DAV:   1     0.768881041735E+02    0.76888E+02   -0.27188E+03    96   0.305E+02
DAV:   2     0.852093334462E+01   -0.68367E+02   -0.67115E+02    88   0.979E+01
DAV:   3    -0.791817177606E+01   -0.16439E+02   -0.10757E+02   104   0.345E+01
DAV:   4    -0.899563719822E+01   -0.10775E+01   -0.10758E+01    80   0.753E+00
DAV:   5    -0.903135094683E+01   -0.35714E-01   -0.30124E-01    80   0.122E+00    0.450E+00
DAV:   6    -0.878110395085E+01    0.25025E+00   -0.28512E-01    64   0.331E+00    0.412E+00
DAV:   7    -0.882162825646E+01   -0.40524E-01   -0.34516E-01    72   0.268E+00    0.806E+00
DAV:   8    -0.755457441206E+01    0.12671E+01   -0.11477E+00    72   0.543E+00    0.622E+00
DAV:   9    -0.891368874151E+01   -0.13591E+01   -0.38399E-01    96   0.293E+00    0.855E+00
DAV:  10    -0.792530308153E+01    0.98839E+00   -0.13953E-01    88   0.195E+00    0.101E+01
DAV:  11    -0.854422132669E+01   -0.61892E+00   -0.12073E-01    72   0.222E+00    0.917E+00
DAV:  12    -0.859056668086E+01   -0.46345E-01   -0.21176E-02    64   0.141E+00    0.985E+00
DAV:  13    -0.807757500863E+01    0.51299E+00   -0.97516E-03    64   0.618E-01    0.103E+01
DAV:  14    -0.807868924931E+01   -0.11142E-02   -0.31374E-04    96   0.108E-01    0.103E+01
DAV:  15    -0.827844759223E+01   -0.19976E+00   -0.30419E-03    88   0.316E-01    0.963E+00
DAV:  16    -0.887022650318E+01   -0.59178E+00   -0.28828E-02    88   0.991E-01    0.771E+00
DAV:  17    -0.951653305459E+01   -0.64631E+00   -0.71411E-02    64   0.154E+00    0.475E+00
DAV:  18    -0.976413815730E+01   -0.24761E+00   -0.41684E-02    80   0.111E+00    0.255E+00
DAV:  19    -0.983651543201E+01   -0.72377E-01   -0.14266E-02    64   0.652E-01    0.132E+00
DAV:  20    -0.985751333097E+01   -0.20998E-01   -0.42562E-03    88   0.353E-01    0.616E-01
DAV:  21    -0.986392099290E+01   -0.64077E-02   -0.30003E-03    96   0.316E-01    0.142E-02
DAV:  22    -0.986398891820E+01   -0.67925E-04   -0.19529E-04    64   0.708E-02    0.821E-02
DAV:  23    -0.986437021255E+01   -0.38129E-03   -0.42753E-05    64   0.419E-02    0.248E-02
DAV:  24    -0.986450213893E+01   -0.13193E-03   -0.37069E-06    72   0.107E-02    0.318E-02
DAV:  25    -0.986469159478E+01   -0.18946E-03   -0.19031E-05    80   0.229E-02    0.145E-03
DAV:  26    -0.986472680696E+01   -0.35212E-04   -0.26231E-06    72   0.752E-03    0.115E-02
DAV:  27    -0.986474788757E+01   -0.21081E-04   -0.11540E-06    72   0.657E-03    0.236E-03
DAV:  28    -0.986476508441E+01   -0.17197E-04   -0.44733E-07    64   0.264E-03    0.257E-03
DAV:  29    -0.986477314973E+01   -0.80653E-05   -0.33777E-07    72   0.283E-03    0.657E-03
DAV:  30    -0.986477726006E+01   -0.41103E-05   -0.19253E-07    80   0.269E-03    0.247E-03
DAV:  31    -0.986477858406E+01   -0.13240E-05   -0.26765E-07    72   0.309E-03    0.268E-03
DAV:  32    -0.986477978308E+01   -0.11990E-05   -0.12620E-08    64   0.807E-04    0.202E-03
DAV:  33    -0.986478092033E+01   -0.11373E-05   -0.45315E-08    80   0.130E-03    0.167E-04
DAV:  34    -0.986478135143E+01   -0.43110E-06   -0.26728E-09    64   0.300E-04
   1 F= -.98647814E+01 E0= -.98647814E+01  d E =-.279380E-14  mag=     2.0000
 Found     2 degrees of freedom:
       N       E                     dE             d eps       ncg     rms          rms(c)
DAV:   1    -0.986006382755E+01    0.47171E-02   -0.51921E-01    96   0.459E+00    0.312E-01
DAV:   2    -0.985888164178E+01    0.11822E-02   -0.84168E-03    64   0.597E-01    0.156E-01
DAV:   3    -0.986038208923E+01   -0.15004E-02   -0.49915E-04    80   0.170E-01    0.666E-02
DAV:   4    -0.986060389486E+01   -0.22181E-03   -0.26223E-04    80   0.907E-02    0.226E-02
DAV:   5    -0.986072620400E+01   -0.12231E-03   -0.20987E-05    72   0.284E-02    0.106E-02
DAV:   6    -0.986076772428E+01   -0.41520E-04   -0.88908E-06    80   0.170E-02    0.237E-03
DAV:   7    -0.986078054939E+01   -0.12825E-04   -0.10795E-06    64   0.658E-03    0.652E-04
DAV:   8    -0.986078546863E+01   -0.49192E-05   -0.95050E-08    88   0.166E-03    0.418E-04
DAV:   9    -0.986078917960E+01   -0.37110E-05   -0.10986E-07    88   0.135E-03    0.164E-04
DAV:  10    -0.986079068599E+01   -0.15064E-05   -0.55814E-08    96   0.819E-04    0.137E-04
DAV:  11    -0.986079308577E+01   -0.23998E-05   -0.41366E-08    96   0.686E-04    0.100E-04
DAV:  12    -0.986079503766E+01   -0.19519E-05   -0.40909E-08    96   0.675E-04    0.575E-05
DAV:  13    -0.986079599510E+01   -0.95745E-06   -0.46987E-09    80   0.269E-04
   2 F= -.98607960E+01 E0= -.98607960E+01  d E =-.276403E-15  mag=     2.0000
       N       E                     dE             d eps       ncg     rms          rms(c)
DAV:   1    -0.985879533221E+01    0.19997E-02   -0.20672E+00    96   0.910E+00    0.624E-01
DAV:   2    -0.985513087614E+01    0.36645E-02   -0.30573E-02    64   0.117E+00    0.311E-01
DAV:   3    -0.986017536305E+01   -0.50445E-02   -0.19994E-03    80   0.332E-01    0.131E-01
DAV:   4    -0.986096704896E+01   -0.79169E-03   -0.96575E-04    88   0.179E-01    0.448E-02
DAV:   5    -0.986131321010E+01   -0.34616E-03   -0.77951E-05    64   0.547E-02    0.204E-02
DAV:   6    -0.986144972186E+01   -0.13651E-03   -0.31871E-05    72   0.348E-02    0.426E-03
DAV:   7    -0.986147325157E+01   -0.23530E-04   -0.30494E-06    64   0.114E-02    0.129E-03
DAV:   8    -0.986148542672E+01   -0.12175E-04   -0.28269E-07    88   0.287E-03    0.815E-04
DAV:   9    -0.986149522474E+01   -0.97980E-05   -0.33276E-07    96   0.248E-03    0.322E-04
DAV:  10    -0.986150075973E+01   -0.55350E-05   -0.16340E-07    88   0.157E-03    0.266E-04
DAV:  11    -0.986150641673E+01   -0.56570E-05   -0.10762E-07    96   0.118E-03    0.183E-04
DAV:  12    -0.986150954705E+01   -0.31303E-05   -0.68397E-08    96   0.955E-04    0.109E-04
DAV:  13    -0.986151131864E+01   -0.17716E-05   -0.15114E-08    80   0.499E-04    0.790E-05
DAV:  14    -0.986151243744E+01   -0.11188E-05   -0.64940E-09    80   0.394E-04    0.450E-05
DAV:  15    -0.986151313362E+01   -0.69618E-06   -0.26907E-09    80   0.277E-04
   3 F= -.98615131E+01 E0= -.98615131E+01  d E =-.271096E-29  mag=     2.0000
       N       E                     dE             d eps       ncg     rms          rms(c)
DAV:   1    -0.986290748103E+01   -0.13950E-02   -0.10940E+00    96   0.661E+00    0.362E-01
DAV:   2    -0.986130183321E+01    0.16056E-02   -0.15807E-02    64   0.821E-01    0.178E-01
DAV:   3    -0.986407836664E+01   -0.27765E-02   -0.80726E-04    96   0.214E-01    0.742E-02
DAV:   4    -0.986447077414E+01   -0.39241E-03   -0.32288E-04    96   0.101E-01    0.257E-02
DAV:   5    -0.986464649398E+01   -0.17572E-03   -0.25290E-05    80   0.323E-02    0.116E-02
DAV:   6    -0.986471470555E+01   -0.68212E-04   -0.10039E-05    80   0.186E-02    0.319E-03
DAV:   7    -0.986473134152E+01   -0.16636E-04   -0.12479E-06    64   0.684E-03    0.829E-04
DAV:   8    -0.986473834035E+01   -0.69988E-05   -0.13329E-07    96   0.203E-03    0.479E-04
DAV:   9    -0.986474233753E+01   -0.39972E-05   -0.74797E-08    96   0.123E-03    0.200E-04
DAV:  10    -0.986474408604E+01   -0.17485E-05   -0.56859E-08    96   0.851E-04    0.155E-04
DAV:  11    -0.986474642129E+01   -0.23353E-05   -0.60980E-08    88   0.806E-04    0.993E-05
DAV:  12    -0.986474791471E+01   -0.14934E-05   -0.23311E-08    96   0.509E-04    0.679E-05
DAV:  13    -0.986474906478E+01   -0.11501E-05   -0.12920E-08    80   0.406E-04    0.454E-05
DAV:  14    -0.986474966550E+01   -0.60073E-06   -0.40803E-09    80   0.248E-04
   4 F= -.98647497E+01 E0= -.98647497E+01  d E =-.260299E-17  mag=     2.0000
       N       E                     dE             d eps       ncg     rms          rms(c)
DAV:   1    -0.985987827731E+01    0.48708E-02   -0.23000E+00    64   0.921E+00    0.381E-01
DAV:   2    -0.985857040515E+01    0.13079E-02   -0.34033E-02    64   0.107E+00    0.177E-01
DAV:   3    -0.986364604875E+01   -0.50756E-02   -0.13590E-03    96   0.234E-01    0.688E-02
DAV:   4    -0.986422294311E+01   -0.57689E-03   -0.18660E-04    96   0.794E-02    0.287E-02
DAV:   5    -0.986456602848E+01   -0.34309E-03   -0.46624E-05    64   0.442E-02    0.755E-03
DAV:   6    -0.986467484238E+01   -0.10881E-03   -0.48292E-06    96   0.122E-02    0.479E-03
DAV:   7    -0.986473306226E+01   -0.58220E-04   -0.12552E-06    96   0.637E-03    0.143E-03
DAV:   8    -0.986474595713E+01   -0.12895E-04   -0.34791E-07    80   0.331E-03    0.317E-04
DAV:   9    -0.986474778958E+01   -0.18325E-05   -0.38674E-08    88   0.967E-04    0.177E-04
DAV:  10    -0.986474884020E+01   -0.10506E-05   -0.14292E-08    96   0.510E-04    0.953E-05
DAV:  11    -0.986474946283E+01   -0.62263E-06   -0.14697E-08    80   0.436E-04
   5 F= -.98647495E+01 E0= -.98647495E+01  d E =-.972103E-15  mag=     2.0000
