 vasp.5.4.1 05Feb16 (build Feb 08 2018 09:21:51) complex                        
  
 executed on             LinuxIFC date 2019.11.08  08:46:59
 running on    8 total cores
 distrk:  each k-point on    8 cores,    1 groups
 distr:  one band on NCORES_PER_BAND=   1 cores,    8 groups


--------------------------------------------------------------------------------------------------------


 INCAR:
 POTCAR:    PAW_PBE O 08Apr2002                   

 ----------------------------------------------------------------------------- 
|                                                                             |
|           W    W    AA    RRRRR   N    N  II  N    N   GGGG   !!!           |
|           W    W   A  A   R    R  NN   N  II  NN   N  G    G  !!!           |
|           W    W  A    A  R    R  N N  N  II  N N  N  G       !!!           |
|           W WW W  AAAAAA  RRRRR   N  N N  II  N  N N  G  GGG   !            |
|           WW  WW  A    A  R   R   N   NN  II  N   NN  G    G                |
|           W    W  A    A  R    R  N    N  II  N    N   GGGG   !!!           |
|                                                                             |
|      For optimal performance we recommend to set                            |
|        NCORE= 4 - approx SQRT( number of cores)                             |
|      NCORE specifies how many cores store one orbital (NPAR=cpu/NCORE).     |
|      This setting can  greatly improve the performance of VASP for DFT.     |
|      The default, NPAR=number of cores might be grossly inefficient         |
|      on modern multi-core architectures or massively parallel machines.     |
|      Do your own testing !!!!                                               |
|      Unfortunately you need to use the default for GW and RPA calculations. |
|      (for HF NCORE is supported but not extensively tested yet)             |
|                                                                             |
 ----------------------------------------------------------------------------- 

 POTCAR:    PAW_PBE O 08Apr2002                   
   VRHFIN =O: s2p4                                                              
   LEXCH  = PE                                                                  
   EATOM  =   432.3788 eV,   31.7789 Ry                                         
                                                                                
   TITEL  = PAW_PBE O 08Apr2002                                                 
   LULTRA =        F    use ultrasoft PP ?                                      
   IUNSCR =        1    unscreen: 0-lin 1-nonlin 2-no                           
   RPACOR =    1.200    partial core radius                                     
   POMASS =   16.000; ZVAL   =    6.000    mass and valenz                      
   RCORE  =    1.520    outmost cutoff radius                                   
   RWIGS  =    1.550; RWIGS  =    0.820    wigner-seitz radius (au A)           
   ENMAX  =  400.000; ENMIN  =  300.000 eV                                      
   ICORE  =        2    local potential                                         
   LCOR   =        T    correct aug charges                                     
   LPAW   =        T    paw PP                                                  
   EAUG   =  605.392                                                            
   DEXC   =    0.000                                                            
   RMAX   =    1.553    core radius for proj-oper                               
   RAUG   =    1.300    factor for augmentation sphere                          
   RDEP   =    1.550    radius for radial grids                                 
   RDEPT  =    1.329    core radius for aug-charge                              
                                                                                
   Atomic configuration                                                         
    4 entries                                                                   
     n  l   j            E        occ.                                          
     1  0  0.50      -514.6923   2.0000                                         
     2  0  0.50       -23.9615   2.0000                                         
     2  1  0.50        -9.0305   4.0000                                         
     3  2  1.50        -9.5241   0.0000                                         
   Description                                                                  
     l       E           TYP  RCUT    TYP  RCUT                                 
     0    -23.9615318     23  1.200                                             
     0     -9.5240782     23  1.200                                             
     1     -9.0304911     23  1.520                                             
     1      8.1634956     23  1.520                                             
     2     -9.5240782      7  1.500                                             
  local pseudopotential read in
  partial core-charges read in
  partial kinetic energy density read in
  kinetic energy density of atom read in
  atomic valenz-charges read in
  non local Contribution for L=           0  read in
    real space projection operators read in
  non local Contribution for L=           0  read in
    real space projection operators read in
  non local Contribution for L=           1  read in
    real space projection operators read in
  non local Contribution for L=           1  read in
    real space projection operators read in
    PAW grid and wavefunctions read in
 
   number of l-projection  operators is LMAX  =           4
   number of lm-projection operators is LMMAX =           8
 
  PAW_PBE O 08Apr2002                   :
 energy of atom  1       EATOM= -432.3788
 kinetic energy error for atom=    0.1156 (will be added to EATOM!!)
 
 
 POSCAR:  O                                      
  positions in cartesian coordinates
  No initial velocities read in
 exchange correlation table for  LEXCH =        8
   RHO(1)=    0.500       N(1)  =     2000
   RHO(2)=  100.500       N(2)  =     4000
 


--------------------------------------------------------------------------------------------------------


 ion  position               nearest neighbor table
   1  0.449  0.500  0.500-   2 1.23
   2  0.551  0.500  0.500-   1 1.23
 
  LATTYP: Found a simple cubic cell.
 ALAT       =    12.0000000000
  
  Lattice vectors:
  
 A1 = (  12.0000000000,   0.0000000000,   0.0000000000)
 A2 = (   0.0000000000,  12.0000000000,   0.0000000000)
 A3 = (   0.0000000000,   0.0000000000,  12.0000000000)


Analysis of symmetry for initial positions (statically):
=====================================================================
 Subroutine PRICEL returns:
 Original cell was already a primitive cell.
 

 Routine SETGRP: Setting up the symmetry group for a 
 simple cubic supercell.


 Subroutine GETGRP returns: Found 16 space group operations
 (whereof 16 operations were pure point group operations)
 out of a pool of 48 trial point group operations.


The static configuration has the point symmetry D_4h.


Analysis of symmetry for dynamics (positions and initial velocities):
=====================================================================
 Subroutine PRICEL returns:
 Original cell was already a primitive cell.
 

 Routine SETGRP: Setting up the symmetry group for a 
 simple cubic supercell.


 Subroutine GETGRP returns: Found 16 space group operations
 (whereof 16 operations were pure point group operations)
 out of a pool of 48 trial point group operations.


The dynamic configuration has the point symmetry D_4h.


Analysis of structural, dynamic, and magnetic symmetry:
=====================================================================
 Subroutine PRICEL returns:
 Original cell was already a primitive cell.
 

 Routine SETGRP: Setting up the symmetry group for a 
 simple cubic supercell.


 Subroutine GETGRP returns: Found 16 space group operations
 (whereof 16 operations were pure point group operations)
 out of a pool of 48 trial point group operations.


The magnetic configuration has the point symmetry D_4h.


 Subroutine INISYM returns: Found 16 space group operations
 (whereof 16 operations are pure point group operations),
 and found     1 'primitive' translations

 
 
 KPOINTS: KPOINTS created by Atomic Simulation Env

Automatic generation of k-mesh.
Space group operators:
 irot       det(A)        alpha          n_x          n_y          n_z        tau_x        tau_y        tau_z
    1     1.000000     0.000000     1.000000     0.000000     0.000000     0.000000     0.000000     0.000000
    2    -1.000000     0.000000     1.000000     0.000000     0.000000     0.000000     0.000000     0.000000
    3     1.000000   180.000000     0.000000     0.707107     0.707107     0.000000     0.000000     0.000000
    4    -1.000000   180.000000     0.000000     0.707107     0.707107     0.000000     0.000000     0.000000
    5     1.000000   180.000000     0.000000     0.000000     1.000000     0.000000     0.000000     0.000000
    6    -1.000000   180.000000     0.000000     0.000000     1.000000     0.000000     0.000000     0.000000
    7     1.000000    90.000000    -1.000000     0.000000     0.000000     0.000000     0.000000     0.000000
    8    -1.000000    90.000000    -1.000000     0.000000     0.000000     0.000000     0.000000     0.000000
    9     1.000000   180.000000     1.000000     0.000000     0.000000     0.000000     0.000000     0.000000
   10    -1.000000   180.000000     1.000000     0.000000     0.000000     0.000000     0.000000     0.000000
   11     1.000000    90.000000     1.000000     0.000000     0.000000     0.000000     0.000000     0.000000
   12    -1.000000    90.000000     1.000000     0.000000     0.000000     0.000000     0.000000     0.000000
   13     1.000000   180.000000     0.000000     1.000000     0.000000     0.000000     0.000000     0.000000
   14    -1.000000   180.000000     0.000000     1.000000     0.000000     0.000000     0.000000     0.000000
   15     1.000000   180.000000     0.000000    -0.707107     0.707107     0.000000     0.000000     0.000000
   16    -1.000000   180.000000     0.000000    -0.707107     0.707107     0.000000     0.000000     0.000000
 
 Subroutine IBZKPT returns following result:
 ===========================================
 
 Found      1 irreducible k-points:
 
 Following reciprocal coordinates:
            Coordinates               Weight
  0.000000  0.000000  0.000000      1.000000
 
 Following cartesian coordinates:
            Coordinates               Weight
  0.000000  0.000000  0.000000      1.000000
 
 
 Subroutine IBZKPT_HF returns following result:
 ==============================================
 
 Found      1 k-points in 1st BZ
 the following      1 k-points will be used (e.g. in the exchange kernel)
 Following reciprocal coordinates:   # in IRBZ
  0.000000  0.000000  0.000000    1.00000000   1 t-inv F


--------------------------------------------------------------------------------------------------------




 Dimension of arrays:
   k-points           NKPTS =      1   k-points in BZ     NKDIM =      1   number of bands    NBANDS=     16
   number of dos      NEDOS =    301   number of ions     NIONS =      2
   non local maximal  LDIM  =      4   non local SUM 2l+1 LMDIM =      8
   total plane-waves  NPLWV = 216000
   max r-space proj   IRMAX =      1   max aug-charges    IRDMAX=   1821
   dimension x,y,z NGX =    60 NGY =   60 NGZ =   60
   dimension x,y,z NGXF=   120 NGYF=  120 NGZF=  120
   support grid    NGXF=   120 NGYF=  120 NGZF=  120
   ions per type =               2
 NGX,Y,Z   is equivalent  to a cutoff of   8.31,  8.31,  8.31 a.u.
 NGXF,Y,Z  is equivalent  to a cutoff of  16.62, 16.62, 16.62 a.u.


 I would recommend the setting:
   dimension x,y,z NGX =    59 NGY =   59 NGZ =   59
 SYSTEM =  unknown system                          
 POSCAR =   O                                      

 Startparameter for this run:
   NWRITE =      2    write-flag & timer
   PREC   = normal    normal or accurate (medium, high low for compatibility)
   ISTART =      0    job   : 0-new  1-cont  2-samecut
   ICHARG =      2    charge: 1-file 2-atom 10-const
   ISPIN  =      2    spin polarized calculation?
   LNONCOLLINEAR =      F non collinear calculations
   LSORBIT =      F    spin-orbit coupling
   INIWAV =      1    electr: 0-lowe 1-rand  2-diag
   LASPH  =      F    aspherical Exc in radial PAW
   METAGGA=      F    non-selfconsistent MetaGGA calc.

 Electronic Relaxation 1
   ENCUT  =  400.0 eV  29.40 Ry    5.42 a.u.  19.57 19.57 19.57*2*pi/ulx,y,z
   ENINI  =  400.0     initial cutoff
   ENAUG  =  605.4 eV  augmentation charge cutoff
   NELM   =     60;   NELMIN=  2; NELMDL= -5     # of ELM steps 
   EDIFF  = 0.1E-05   stopping-criterion for ELM
   LREAL  =      F    real-space projection
   NLSPLINE    = F    spline interpolate recip. space projectors
   LCOMPAT=      F    compatible to vasp.4.4
   GGA_COMPAT  = T    GGA compatible to vasp.4.4-vasp.4.6
   LMAXPAW     = -100 max onsite density
   LMAXMIX     =    2 max onsite mixed and CHGCAR
   VOSKOWN=      0    Vosko Wilk Nusair interpolation
   ROPT   =    0.00000
 Ionic relaxation
   EDIFFG = 0.1E-04   stopping-criterion for IOM
   NSW    =     60    number of steps for IOM
   NBLOCK =      1;   KBLOCK =     20    inner block; outer block 
   IBRION =      6    ionic relax: 0-MD 1-quasi-New 2-CG
   NFREE  =      2    steps in history (QN), initial steepest desc. (CG)
   ISIF   =      2    stress and relaxation
   IWAVPR =     11    prediction:  0-non 1-charg 2-wave 3-comb
   ISYM   =      2    0-nonsym 1-usesym 2-fastsym
   LCORR  =      T    Harris-Foulkes like correction to forces

   POTIM  = 0.0100    time-step for ionic-motion
   TEIN   =    0.0    initial temperature
   TEBEG  =    0.0;   TEEND  =   0.0 temperature during run
   SMASS  =  -3.00    Nose mass-parameter (am)
   estimated Nose-frequenzy (Omega)   =  0.10E-29 period in steps =****** mass=  -0.329E-26a.u.
   SCALEE = 1.0000    scale energy and forces
   NPACO  =    256;   APACO  = 16.0  distance and # of slots for P.C.
   PSTRESS=    0.0 pullay stress

  Mass of Ions in am
   POMASS =  16.00
  Ionic Valenz
   ZVAL   =   6.00
  Atomic Wigner-Seitz radii
   RWIGS  =  -1.00
  virtual crystal weights 
   VCA    =   1.00
   NELECT =      12.0000    total number of electrons
   NUPDOWN=      -1.0000    fix difference up-down

 DOS related values:
   EMIN   =  10.00;   EMAX   =-10.00  energy-range for DOS
   EFERMI =   0.00
   ISMEAR =     0;   SIGMA  =   0.01  broadening in eV -4-tet -1-fermi 0-gaus

 Electronic relaxation 2 (details)
   IALGO  =     38    algorithm
   LDIAG  =      T    sub-space diagonalisation (order eigenvalues)
   LSUBROT=      F    optimize rotation matrix (better conditioning)
   TURBO    =      0    0=normal 1=particle mesh
   IRESTART =      0    0=no restart 2=restart with 2 vectors
   NREBOOT  =      0    no. of reboots
   NMIN     =      0    reboot dimension
   EREF     =   0.00    reference energy to select bands
   IMIX   =      4    mixing-type and parameters
     AMIX     =   0.40;   BMIX     =  1.00
     AMIX_MAG =   1.60;   BMIX_MAG =  1.00
     AMIN     =   0.10
     WC   =   100.;   INIMIX=   1;  MIXPRE=   1;  MAXMIX= -45

 Intra band minimization:
   WEIMIN = 0.0010     energy-eigenvalue tresh-hold
   EBREAK =  0.16E-07  absolut break condition
   DEPER  =   0.30     relativ break condition  

   TIME   =   0.40     timestep for ELM

  volume/ion in A,a.u.               =     864.00      5830.56
  Fermi-wavevector in a.u.,A,eV,Ry     =   0.312335  0.590228  1.327291  0.097553
  Thomas-Fermi vector in A             =   1.191693
 
 Write flags
   LWAVE  =      F    write WAVECAR
   LCHARG =      F    write CHGCAR
   LVTOT  =      F    write LOCPOT, total local potential
   LVHAR  =      F    write LOCPOT, Hartree potential only
   LELF   =      F    write electronic localiz. function (ELF)
   LORBIT =     11    0 simple, 1 ext, 2 COOP (PROOUT)


 Dipole corrections
   LMONO  =      F    monopole corrections only (constant potential shift)
   LDIPOL =      F    correct potential (dipole corrections)
   IDIPOL =      0    1-x, 2-y, 3-z, 4-all directions 
   EPSILON=  1.0000000 bulk dielectric constant

 Exchange correlation treatment:
   GGA     =    --    GGA type
   LEXCH   =     8    internal setting for exchange type
   VOSKOWN=      0    Vosko Wilk Nusair interpolation
   LHFCALC =     F    Hartree Fock is set to
   LHFONE  =     F    Hartree Fock one center treatment
   AEXX    =    0.0000 exact exchange contribution

 Linear response parameters
   LEPSILON=     F    determine dielectric tensor
   LRPA    =     F    only Hartree local field effects (RPA)
   LNABLA  =     F    use nabla operator in PAW spheres
   LVEL    =     F    velocity operator in full k-point grid
   LINTERFAST=   F  fast interpolation
   KINTER  =     0    interpolate to denser k-point grid
   CSHIFT  =0.1000    complex shift for real part using Kramers Kronig
   OMEGAMAX=  -1.0    maximum frequency
   DEG_THRESHOLD= 0.2000000E-02 threshold for treating states as degnerate
   RTIME   =    0.100 relaxation time in fs

 Orbital magnetization related:
   ORBITALMAG=     F  switch on orbital magnetization
   LCHIMAG   =     F  perturbation theory with respect to B field
   DQ        =  0.001000  dq finite difference perturbation B field



--------------------------------------------------------------------------------------------------------


 finite differences with symmetry
 charge density and potential will be updated during run
 spin polarized calculation
 Variant of blocked Davidson
 Davidson routine will perform the subspace rotation
 perform sub-space diagonalisation
    after iterative eigenvector-optimisation
 modified Broyden-mixing scheme, WC =      100.0
 initial mixing is a Kerker type mixing with AMIX =  0.4000 and BMIX =      1.0000
 Hartree-type preconditioning will be used
 using additional bands           10
 reciprocal scheme for non local part
 use partial core corrections
 calculate Harris-corrections to forces 
   (improved forces if not selfconsistent)
 use gradient corrections 
 use of overlap-Matrix (Vanderbilt PP)
 Gauss-broadening in eV      SIGMA  =   0.01


--------------------------------------------------------------------------------------------------------


  energy-cutoff  :      400.00
  volume of cell :     1728.00
      direct lattice vectors                 reciprocal lattice vectors
    12.000000000  0.000000000  0.000000000     0.083333333  0.000000000  0.000000000
     0.000000000 12.000000000  0.000000000     0.000000000  0.083333333  0.000000000
     0.000000000  0.000000000 12.000000000     0.000000000  0.000000000  0.083333333

  length of vectors
    12.000000000 12.000000000 12.000000000     0.083333333  0.083333333  0.083333333


 
 k-points in units of 2pi/SCALE and weight: KPOINTS created by Atomic Simulation Env
   0.00000000  0.00000000  0.00000000       1.000
 
 k-points in reciprocal lattice and weights: KPOINTS created by Atomic Simulation Env
   0.00000000  0.00000000  0.00000000       1.000
 
 position of ions in fractional coordinates (direct lattice) 
   0.44859250  0.50000000  0.50000000
   0.55140750  0.50000000  0.50000000
 
 position of ions in cartesian coordinates  (Angst):
   5.38311000  6.00000000  6.00000000
   6.61689000  6.00000000  6.00000000
 


--------------------------------------------------------------------------------------------------------


 k-point  1 :   0.0000 0.0000 0.0000  plane waves:   31439

 maximum and minimum number of plane-waves per node :     31439    31439

 maximum number of plane-waves:     31439
 maximum index in each direction: 
   IXMAX=   19   IYMAX=   19   IZMAX=   19
   IXMIN=  -19   IYMIN=  -19   IZMIN=  -19

 WARNING: aliasing errors must be expected set NGX to  78 to avoid them
 WARNING: aliasing errors must be expected set NGY to  78 to avoid them
 WARNING: aliasing errors must be expected set NGZ to  78 to avoid them
 aliasing errors are usually negligible using standard VASP settings
 and one can safely disregard these warnings

 serial   3D FFT for wavefunctions
 parallel 3D FFT for charge:
    minimum data exchange during FFTs selected (reduces bandwidth)


 total amount of memory used by VASP on root node    76450. kBytes
========================================================================

   base      :      30000. kBytes
   nonl-proj :       3018. kBytes
   fftplans  :       8259. kBytes
   grid      :      33148. kBytes
   one-center:         12. kBytes
   wavefun   :       2013. kBytes
 
     INWAV:  cpu time    0.0000: real time    0.0001
 Broyden mixing: mesh for mixing (old mesh)
   NGX = 39   NGY = 39   NGZ = 39
  (NGX  =120   NGY  =120   NGZ  =120)
  gives a total of  59319 points

 initial charge density was supplied:
 charge density of overlapping atoms calculated
 number of electron      12.0000000 magnetization       0.0000000
 keeping initial charge density in first step


--------------------------------------------------------------------------------------------------------


 Maximum index for augmentation-charges          206 (set IRDMAX)


--------------------------------------------------------------------------------------------------------


 First call to EWALD:  gamma=   0.148
 Maximum number of real-space cells 3x 3x 3
 Maximum number of reciprocal cells 3x 3x 3

 FEWALD executed in parallel
    FEWALD:  cpu time    0.0393: real time    0.0393


----------------------------------------- Iteration    1(   1)  ---------------------------------------


    POTLOK:  cpu time    0.3856: real time    0.3865
    SETDIJ:  cpu time    0.0064: real time    0.0064
     EDDAV:  cpu time    0.2972: real time    0.2975
       DOS:  cpu time    0.0002: real time    0.0002
    --------------------------------------------
      LOOP:  cpu time    0.6909: real time    0.6932

 eigenvalue-minimisations  :    96
 total energy-change (2. order) : 0.7688810E+02  (-0.2718783E+03)
 number of electron      12.0000000 magnetization       0.0000000
 augmentation part       12.0000000 magnetization       0.0000000

 Free energy of the ion-electron system (eV)
  ---------------------------------------------------
  alpha Z        PSCENC =         0.32165383
  Ewald energy   TEWEN  =       175.99851768
  -Hartree energ DENC   =      -903.36520227
  -exchange      EXHF   =         0.00000000
  -V(xc)+E(xc)   XCENC  =        54.34440214
  PAW double counting   =       693.09895092     -696.69629226
  entropy T*S    EENTRO =        -0.00000000
  eigenvalues    EBANDS =      -111.34031795
  atomic energy  EATOM  =       864.52639207
  Solvation  Ediel_sol  =         0.00000000
  ---------------------------------------------------
  free energy    TOTEN  =        76.88810417 eV

  energy without entropy =       76.88810417  energy(sigma->0) =       76.88810417


--------------------------------------------------------------------------------------------------------




----------------------------------------- Iteration    1(   2)  ---------------------------------------


     EDDAV:  cpu time    0.2595: real time    0.2597
       DOS:  cpu time    0.0002: real time    0.0002
    --------------------------------------------
      LOOP:  cpu time    0.2606: real time    0.2621

 eigenvalue-minimisations  :    88
 total energy-change (2. order) :-0.6836717E+02  (-0.6711462E+02)
 number of electron      12.0000000 magnetization       0.0000000
 augmentation part       12.0000000 magnetization       0.0000000

 Free energy of the ion-electron system (eV)
  ---------------------------------------------------
  alpha Z        PSCENC =         0.32165383
  Ewald energy   TEWEN  =       175.99851768
  -Hartree energ DENC   =      -903.36520227
  -exchange      EXHF   =         0.00000000
  -V(xc)+E(xc)   XCENC  =        54.34440214
  PAW double counting   =       693.09895092     -696.69629226
  entropy T*S    EENTRO =        -0.00246653
  eigenvalues    EBANDS =      -179.70502224
  atomic energy  EATOM  =       864.52639207
  Solvation  Ediel_sol  =         0.00000000
  ---------------------------------------------------
  free energy    TOTEN  =         8.52093334 eV

  energy without entropy =        8.52339988  energy(sigma->0) =        8.52216661


--------------------------------------------------------------------------------------------------------




----------------------------------------- Iteration    1(   3)  ---------------------------------------


     EDDAV:  cpu time    0.3128: real time    0.3128
       DOS:  cpu time    0.0001: real time    0.0001
    --------------------------------------------
      LOOP:  cpu time    0.3138: real time    0.3173

 eigenvalue-minimisations  :   104
 total energy-change (2. order) :-0.1643911E+02  (-0.1075695E+02)
 number of electron      12.0000000 magnetization       0.0000000
 augmentation part       12.0000000 magnetization       0.0000000

 Free energy of the ion-electron system (eV)
  ---------------------------------------------------
  alpha Z        PSCENC =         0.32165383
  Ewald energy   TEWEN  =       175.99851768
  -Hartree energ DENC   =      -903.36520227
  -exchange      EXHF   =         0.00000000
  -V(xc)+E(xc)   XCENC  =        54.34440214
  PAW double counting   =       693.09895092     -696.69629226
  entropy T*S    EENTRO =        -0.00000000
  eigenvalues    EBANDS =      -196.14659390
  atomic energy  EATOM  =       864.52639207
  Solvation  Ediel_sol  =         0.00000000
  ---------------------------------------------------
  free energy    TOTEN  =        -7.91817178 eV

  energy without entropy =       -7.91817178  energy(sigma->0) =       -7.91817178


--------------------------------------------------------------------------------------------------------




----------------------------------------- Iteration    1(   4)  ---------------------------------------


     EDDAV:  cpu time    0.2401: real time    0.2401
       DOS:  cpu time    0.0002: real time    0.0002
    --------------------------------------------
      LOOP:  cpu time    0.2411: real time    0.2426

 eigenvalue-minimisations  :    80
 total energy-change (2. order) :-0.1077465E+01  (-0.1075759E+01)
 number of electron      12.0000000 magnetization       0.0000000
 augmentation part       12.0000000 magnetization       0.0000000

 Free energy of the ion-electron system (eV)
  ---------------------------------------------------
  alpha Z        PSCENC =         0.32165383
  Ewald energy   TEWEN  =       175.99851768
  -Hartree energ DENC   =      -903.36520227
  -exchange      EXHF   =         0.00000000
  -V(xc)+E(xc)   XCENC  =        54.34440214
  PAW double counting   =       693.09895092     -696.69629226
  entropy T*S    EENTRO =        -0.00479510
  eigenvalues    EBANDS =      -197.21926422
  atomic energy  EATOM  =       864.52639207
  Solvation  Ediel_sol  =         0.00000000
  ---------------------------------------------------
  free energy    TOTEN  =        -8.99563720 eV

  energy without entropy =       -8.99084210  energy(sigma->0) =       -8.99323965


--------------------------------------------------------------------------------------------------------




----------------------------------------- Iteration    1(   5)  ---------------------------------------


     EDDAV:  cpu time    0.2403: real time    0.2403
       DOS:  cpu time    0.0015: real time    0.0015
    CHARGE:  cpu time    0.0822: real time    0.0822
    MIXING:  cpu time    0.0127: real time    0.0127
    --------------------------------------------
      LOOP:  cpu time    0.3376: real time    0.3392

 eigenvalue-minimisations  :    80
 total energy-change (2. order) :-0.3571375E-01  (-0.3012369E-01)
 number of electron      12.0000160 magnetization      -0.0014666
 augmentation part        1.1528581 magnetization       0.0015512

 Broyden mixing:
  rms(total) = 0.45006E+00    rms(broyden)= 0.44754E+00
  rms(prec ) = 0.48787E+00
  weight for this iteration     100.00

 Free energy of the ion-electron system (eV)
  ---------------------------------------------------
  alpha Z        PSCENC =         0.32165383
  Ewald energy   TEWEN  =       175.99851768
  -Hartree energ DENC   =      -903.36520227
  -exchange      EXHF   =         0.00000000
  -V(xc)+E(xc)   XCENC  =        54.34440214
  PAW double counting   =       693.09895092     -696.69629226
  entropy T*S    EENTRO =        -0.01124533
  eigenvalues    EBANDS =      -197.24852774
  atomic energy  EATOM  =       864.52639207
  Solvation  Ediel_sol  =         0.00000000
  ---------------------------------------------------
  free energy    TOTEN  =        -9.03135095 eV

  energy without entropy =       -9.02010561  energy(sigma->0) =       -9.02572828


--------------------------------------------------------------------------------------------------------




----------------------------------------- Iteration    1(   6)  ---------------------------------------


    POTLOK:  cpu time    0.3131: real time    0.3134
    SETDIJ:  cpu time    0.0063: real time    0.0063
     EDDAV:  cpu time    0.2084: real time    0.2084
       DOS:  cpu time    0.0002: real time    0.0002
    CHARGE:  cpu time    0.0750: real time    0.0750
    MIXING:  cpu time    0.0112: real time    0.0112
    --------------------------------------------
      LOOP:  cpu time    0.6155: real time    0.6179

 eigenvalue-minimisations  :    64
 total energy-change (2. order) : 0.2502470E+00  (-0.2851232E-01)
 number of electron      12.0000158 magnetization      -0.1511204
 augmentation part        1.1365059 magnetization       0.3390071

 Broyden mixing:
  rms(total) = 0.41192E+00    rms(broyden)= 0.41066E+00
  rms(prec ) = 0.42145E+00
  weight for this iteration     100.00

 eigenvalues of (default mixing * dielectric matrix)
  average eigenvalue GAMMA=   0.2097
  0.2097

 Free energy of the ion-electron system (eV)
  ---------------------------------------------------
  alpha Z        PSCENC =         0.32165383
  Ewald energy   TEWEN  =       175.99851768
  -Hartree energ DENC   =      -905.99663091
  -exchange      EXHF   =         0.00000000
  -V(xc)+E(xc)   XCENC  =        54.62658679
  PAW double counting   =       772.05527394     -775.67165870
  entropy T*S    EENTRO =        -0.01036510
  eigenvalues    EBANDS =      -194.63087356
  atomic energy  EATOM  =       864.52639207
  Solvation  Ediel_sol  =         0.00000000
  ---------------------------------------------------
  free energy    TOTEN  =        -8.78110395 eV

  energy without entropy =       -8.77073885  energy(sigma->0) =       -8.77592140


--------------------------------------------------------------------------------------------------------




----------------------------------------- Iteration    1(   7)  ---------------------------------------


    POTLOK:  cpu time    0.3027: real time    0.3027
    SETDIJ:  cpu time    0.0055: real time    0.0055
     EDDAV:  cpu time    0.2256: real time    0.2255
       DOS:  cpu time    0.0001: real time    0.0001
    CHARGE:  cpu time    0.0745: real time    0.0745
    MIXING:  cpu time    0.0118: real time    0.0118
    --------------------------------------------
      LOOP:  cpu time    0.6212: real time    0.6230

 eigenvalue-minimisations  :    72
 total energy-change (2. order) :-0.4052431E-01  (-0.3451615E-01)
 number of electron      12.0000159 magnetization       0.4822784
 augmentation part        1.1415121 magnetization       2.0004866

 Broyden mixing:
  rms(total) = 0.80641E+00    rms(broyden)= 0.80301E+00
  rms(prec ) = 0.80563E+00
  weight for this iteration     100.00

 eigenvalues of (default mixing * dielectric matrix)
  average eigenvalue GAMMA=   1.2863
  1.9039  0.6687

 Free energy of the ion-electron system (eV)
  ---------------------------------------------------
  alpha Z        PSCENC =         0.32165383
  Ewald energy   TEWEN  =       175.99851768
  -Hartree energ DENC   =      -906.88282303
  -exchange      EXHF   =         0.00000000
  -V(xc)+E(xc)   XCENC  =        55.05230908
  PAW double counting   =       805.50071690     -809.09462690
  entropy T*S    EENTRO =        -0.00000000
  eigenvalues    EBANDS =      -194.24376790
  atomic energy  EATOM  =       864.52639207
  Solvation  Ediel_sol  =         0.00000000
  ---------------------------------------------------
  free energy    TOTEN  =        -8.82162826 eV

  energy without entropy =       -8.82162826  energy(sigma->0) =       -8.82162826


--------------------------------------------------------------------------------------------------------




----------------------------------------- Iteration    1(   8)  ---------------------------------------


    POTLOK:  cpu time    0.3030: real time    0.3030
    SETDIJ:  cpu time    0.0058: real time    0.0058
     EDDAV:  cpu time    0.2216: real time    0.2216
       DOS:  cpu time    0.0001: real time    0.0001
    CHARGE:  cpu time    0.0813: real time    0.0814
    MIXING:  cpu time    0.0125: real time    0.0125
    --------------------------------------------
      LOOP:  cpu time    0.6256: real time    0.6274

 eigenvalue-minimisations  :    72
 total energy-change (2. order) : 0.1267054E+01  (-0.1147738E+00)
 number of electron      12.0000158 magnetization       0.2980711
 augmentation part        1.1357789 magnetization      -1.2172325

 Broyden mixing:
  rms(total) = 0.62228E+00    rms(broyden)= 0.59516E+00
  rms(prec ) = 0.59608E+00
  weight for this iteration     100.00

 eigenvalues of (default mixing * dielectric matrix)
  average eigenvalue GAMMA=   1.1033
  2.0836  0.7335  0.4929

 Free energy of the ion-electron system (eV)
  ---------------------------------------------------
  alpha Z        PSCENC =         0.32165383
  Ewald energy   TEWEN  =       175.99851768
  -Hartree energ DENC   =      -907.37063770
  -exchange      EXHF   =         0.00000000
  -V(xc)+E(xc)   XCENC  =        56.56257534
  PAW double counting   =       859.37364839     -862.91648887
  entropy T*S    EENTRO =        -0.00000000
  eigenvalues    EBANDS =      -194.05023515
  atomic energy  EATOM  =       864.52639207
  Solvation  Ediel_sol  =         0.00000000
  ---------------------------------------------------
  free energy    TOTEN  =        -7.55457441 eV

  energy without entropy =       -7.55457441  energy(sigma->0) =       -7.55457441


--------------------------------------------------------------------------------------------------------




----------------------------------------- Iteration    1(   9)  ---------------------------------------


    POTLOK:  cpu time    0.3023: real time    0.3023
    SETDIJ:  cpu time    0.0066: real time    0.0066
     EDDAV:  cpu time    0.2692: real time    0.2692
       DOS:  cpu time    0.0001: real time    0.0001
    CHARGE:  cpu time    0.0759: real time    0.0759
    MIXING:  cpu time    0.0126: real time    0.0126
    --------------------------------------------
      LOOP:  cpu time    0.6678: real time    0.6693

 eigenvalue-minimisations  :    96
 total energy-change (2. order) :-0.1359114E+01  (-0.3839913E-01)
 number of electron      12.0000157 magnetization       0.0068448
 augmentation part        1.1269981 magnetization      -1.5220980

 Broyden mixing:
  rms(total) = 0.85537E+00    rms(broyden)= 0.85464E+00
  rms(prec ) = 0.85477E+00
  weight for this iteration     100.00

 eigenvalues of (default mixing * dielectric matrix)
  average eigenvalue GAMMA=   0.9575
  2.0589  0.4253  0.6728  0.6728

 Free energy of the ion-electron system (eV)
  ---------------------------------------------------
  alpha Z        PSCENC =         0.32165383
  Ewald energy   TEWEN  =       175.99851768
  -Hartree energ DENC   =      -909.26796308
  -exchange      EXHF   =         0.00000000
  -V(xc)+E(xc)   XCENC  =        55.11983130
  PAW double counting   =       881.13200946     -884.69010651
  entropy T*S    EENTRO =        -0.00000000
  eigenvalues    EBANDS =      -192.05402349
  atomic energy  EATOM  =       864.52639207
  Solvation  Ediel_sol  =         0.00000000
  ---------------------------------------------------
  free energy    TOTEN  =        -8.91368874 eV

  energy without entropy =       -8.91368874  energy(sigma->0) =       -8.91368874


--------------------------------------------------------------------------------------------------------




----------------------------------------- Iteration    1(  10)  ---------------------------------------


    POTLOK:  cpu time    0.3408: real time    0.3468
    SETDIJ:  cpu time    0.0055: real time    0.0055
     EDDAV:  cpu time    0.2452: real time    0.2452
       DOS:  cpu time    0.0004: real time    0.0004
    CHARGE:  cpu time    0.0767: real time    0.0767
    MIXING:  cpu time    0.0134: real time    0.0134
    --------------------------------------------
      LOOP:  cpu time    0.6833: real time    0.7039

 eigenvalue-minimisations  :    88
 total energy-change (2. order) : 0.9883857E+00  (-0.1395278E-01)
 number of electron      12.0000156 magnetization       0.2525816
 augmentation part        1.1251402 magnetization       1.7846312

 Broyden mixing:
  rms(total) = 0.10057E+01    rms(broyden)= 0.98869E+00
  rms(prec ) = 0.98876E+00
  weight for this iteration     100.00

 eigenvalues of (default mixing * dielectric matrix)
  average eigenvalue GAMMA=   1.1197
  2.0789  2.0789  0.4472  0.4968  0.4968

 Free energy of the ion-electron system (eV)
  ---------------------------------------------------
  alpha Z        PSCENC =         0.32165383
  Ewald energy   TEWEN  =       175.99851768
  -Hartree energ DENC   =      -909.32587249
  -exchange      EXHF   =         0.00000000
  -V(xc)+E(xc)   XCENC  =        55.69309592
  PAW double counting   =       884.51270767     -888.07532340
  entropy T*S    EENTRO =        -0.00000000
  eigenvalues    EBANDS =      -191.57647436
  atomic energy  EATOM  =       864.52639207
  Solvation  Ediel_sol  =         0.00000000
  ---------------------------------------------------
  free energy    TOTEN  =        -7.92530308 eV

  energy without entropy =       -7.92530308  energy(sigma->0) =       -7.92530308


--------------------------------------------------------------------------------------------------------




----------------------------------------- Iteration    1(  11)  ---------------------------------------


    POTLOK:  cpu time    0.2858: real time    0.2859
    SETDIJ:  cpu time    0.0052: real time    0.0052
     EDDAV:  cpu time    0.2047: real time    0.2047
       DOS:  cpu time    0.0001: real time    0.0001
    CHARGE:  cpu time    0.0718: real time    0.0718
    MIXING:  cpu time    0.0130: real time    0.0130
    --------------------------------------------
      LOOP:  cpu time    0.5817: real time    0.5836

 eigenvalue-minimisations  :    72
 total energy-change (2. order) :-0.6189182E+00  (-0.1207273E-01)
 number of electron      12.0000157 magnetization       0.1479018
 augmentation part        1.1267360 magnetization      -1.3842274

 Broyden mixing:
  rms(total) = 0.91741E+00    rms(broyden)= 0.90481E+00
  rms(prec ) = 0.90482E+00
  weight for this iteration     100.00

 eigenvalues of (default mixing * dielectric matrix)
  average eigenvalue GAMMA=   1.0300
  2.1310  2.1310  0.4415  0.5981  0.5981  0.2800

 Free energy of the ion-electron system (eV)
  ---------------------------------------------------
  alpha Z        PSCENC =         0.32165383
  Ewald energy   TEWEN  =       175.99851768
  -Hartree energ DENC   =      -909.40678587
  -exchange      EXHF   =         0.00000000
  -V(xc)+E(xc)   XCENC  =        55.31226715
  PAW double counting   =       895.85894061     -899.38336533
  entropy T*S    EENTRO =        -0.00000000
  eigenvalues    EBANDS =      -191.77184148
  atomic energy  EATOM  =       864.52639207
  Solvation  Ediel_sol  =         0.00000000
  ---------------------------------------------------
  free energy    TOTEN  =        -8.54422133 eV

  energy without entropy =       -8.54422133  energy(sigma->0) =       -8.54422133


--------------------------------------------------------------------------------------------------------




----------------------------------------- Iteration    1(  12)  ---------------------------------------


    POTLOK:  cpu time    0.2897: real time    0.2897
    SETDIJ:  cpu time    0.0057: real time    0.0057
     EDDAV:  cpu time    0.1954: real time    0.1954
       DOS:  cpu time    0.0001: real time    0.0001
    CHARGE:  cpu time    0.0746: real time    0.0746
    MIXING:  cpu time    0.0141: real time    0.0141
    --------------------------------------------
      LOOP:  cpu time    0.5806: real time    0.5822

 eigenvalue-minimisations  :    64
 total energy-change (2. order) :-0.4634535E-01  (-0.2117602E-02)
 number of electron      12.0000157 magnetization       0.0469814
 augmentation part        1.1264280 magnetization      -1.4865323

 Broyden mixing:
  rms(total) = 0.98528E+00    rms(broyden)= 0.98478E+00
  rms(prec ) = 0.98479E+00
  weight for this iteration     100.00

 eigenvalues of (default mixing * dielectric matrix)
  average eigenvalue GAMMA=   1.0384
  2.3850  1.8734  0.4389  0.8891  0.8891  0.3968  0.3968

 Free energy of the ion-electron system (eV)
  ---------------------------------------------------
  alpha Z        PSCENC =         0.32165383
  Ewald energy   TEWEN  =       175.99851768
  -Hartree energ DENC   =      -909.35817543
  -exchange      EXHF   =         0.00000000
  -V(xc)+E(xc)   XCENC  =        55.15492743
  PAW double counting   =       898.15222718     -901.67297411
  entropy T*S    EENTRO =        -0.00000000
  eigenvalues    EBANDS =      -191.71313534
  atomic energy  EATOM  =       864.52639207
  Solvation  Ediel_sol  =         0.00000000
  ---------------------------------------------------
  free energy    TOTEN  =        -8.59056668 eV

  energy without entropy =       -8.59056668  energy(sigma->0) =       -8.59056668


--------------------------------------------------------------------------------------------------------




----------------------------------------- Iteration    1(  13)  ---------------------------------------


    POTLOK:  cpu time    0.2974: real time    0.2974
    SETDIJ:  cpu time    0.0055: real time    0.0055
     EDDAV:  cpu time    0.1900: real time    0.1900
       DOS:  cpu time    0.0002: real time    0.0002
    CHARGE:  cpu time    0.0725: real time    0.0725
    MIXING:  cpu time    0.0147: real time    0.0147
    --------------------------------------------
      LOOP:  cpu time    0.5815: real time    0.5834

 eigenvalue-minimisations  :    64
 total energy-change (2. order) : 0.5129917E+00  (-0.9751581E-03)
 number of electron      12.0000157 magnetization       0.0731732
 augmentation part        1.1262803 magnetization      -1.4440856

 Broyden mixing:
  rms(total) = 0.10305E+01    rms(broyden)= 0.10305E+01
  rms(prec ) = 0.10305E+01
  weight for this iteration     100.00

 eigenvalues of (default mixing * dielectric matrix)
  average eigenvalue GAMMA=   0.9681
  2.3892  1.8246  0.4384  0.9789  0.9789  0.4305  0.4305  0.2739

 Free energy of the ion-electron system (eV)
  ---------------------------------------------------
  alpha Z        PSCENC =         0.32165383
  Ewald energy   TEWEN  =       175.99851768
  -Hartree energ DENC   =      -909.26090408
  -exchange      EXHF   =         0.00000000
  -V(xc)+E(xc)   XCENC  =        55.50404029
  PAW double counting   =       898.18728067     -901.70545879
  entropy T*S    EENTRO =        -0.00045324
  eigenvalues    EBANDS =      -191.64864344
  atomic energy  EATOM  =       864.52639207
  Solvation  Ediel_sol  =         0.00000000
  ---------------------------------------------------
  free energy    TOTEN  =        -8.07757501 eV

  energy without entropy =       -8.07712177  energy(sigma->0) =       -8.07734839


--------------------------------------------------------------------------------------------------------




----------------------------------------- Iteration    1(  14)  ---------------------------------------


    POTLOK:  cpu time    0.2870: real time    0.2871
    SETDIJ:  cpu time    0.0052: real time    0.0052
     EDDAV:  cpu time    0.2544: real time    0.2547
       DOS:  cpu time    0.0002: real time    0.0002
    CHARGE:  cpu time    0.0723: real time    0.0724
    MIXING:  cpu time    0.0150: real time    0.0150
    --------------------------------------------
      LOOP:  cpu time    0.6353: real time    0.6408

 eigenvalue-minimisations  :    96
 total energy-change (2. order) :-0.1114241E-02  (-0.3137408E-04)
 number of electron      12.0000157 magnetization       0.1894094
 augmentation part        1.1264994 magnetization      -1.3445847

 Broyden mixing:
  rms(total) = 0.10269E+01    rms(broyden)= 0.10269E+01
  rms(prec ) = 0.10269E+01
  weight for this iteration     100.00

 eigenvalues of (default mixing * dielectric matrix)
  average eigenvalue GAMMA=   0.9110
  2.3771  1.8527  0.4381  0.9627  0.9627  0.4517  0.4517  0.3509  0.3509

 Free energy of the ion-electron system (eV)
  ---------------------------------------------------
  alpha Z        PSCENC =         0.32165383
  Ewald energy   TEWEN  =       175.99851768
  -Hartree energ DENC   =      -909.26707184
  -exchange      EXHF   =         0.00000000
  -V(xc)+E(xc)   XCENC  =        55.53224025
  PAW double counting   =       898.22015028     -901.73889267
  entropy T*S    EENTRO =        -0.00000009
  eigenvalues    EBANDS =      -191.67167876
  atomic energy  EATOM  =       864.52639207
  Solvation  Ediel_sol  =         0.00000000
  ---------------------------------------------------
  free energy    TOTEN  =        -8.07868925 eV

  energy without entropy =       -8.07868916  energy(sigma->0) =       -8.07868920


--------------------------------------------------------------------------------------------------------




----------------------------------------- Iteration    1(  15)  ---------------------------------------


    POTLOK:  cpu time    0.2870: real time    0.2871
    SETDIJ:  cpu time    0.0052: real time    0.0052
     EDDAV:  cpu time    0.2397: real time    0.2397
       DOS:  cpu time    0.0001: real time    0.0001
    CHARGE:  cpu time    0.0802: real time    0.0802
    MIXING:  cpu time    0.0166: real time    0.0175
    --------------------------------------------
      LOOP:  cpu time    0.6299: real time    0.6327

 eigenvalue-minimisations  :    88
 total energy-change (2. order) :-0.1997583E+00  (-0.3041935E-03)
 number of electron      12.0000157 magnetization       0.5438643
 augmentation part        1.1268162 magnetization      -0.9884223

 Broyden mixing:
  rms(total) = 0.96349E+00    rms(broyden)= 0.96349E+00
  rms(prec ) = 0.96349E+00
  weight for this iteration     100.00

 eigenvalues of (default mixing * dielectric matrix)
  average eigenvalue GAMMA=   1.1936
  3.2586  2.4635  1.7446  0.4377  1.0650  1.0650  0.5372  0.5372  0.4133  0.4133

 Free energy of the ion-electron system (eV)
  ---------------------------------------------------
  alpha Z        PSCENC =         0.32165383
  Ewald energy   TEWEN  =       175.99851768
  -Hartree energ DENC   =      -909.34111945
  -exchange      EXHF   =         0.00000000
  -V(xc)+E(xc)   XCENC  =        55.47412782
  PAW double counting   =       898.43966802     -901.96179514
  entropy T*S    EENTRO =        -0.00000000
  eigenvalues    EBANDS =      -191.73589243
  atomic energy  EATOM  =       864.52639207
  Solvation  Ediel_sol  =         0.00000000
  ---------------------------------------------------
  free energy    TOTEN  =        -8.27844759 eV

  energy without entropy =       -8.27844759  energy(sigma->0) =       -8.27844759


--------------------------------------------------------------------------------------------------------




----------------------------------------- Iteration    1(  16)  ---------------------------------------


    POTLOK:  cpu time    0.2893: real time    0.2963
    SETDIJ:  cpu time    0.0055: real time    0.0055
     EDDAV:  cpu time    0.2428: real time    0.2428
       DOS:  cpu time    0.0001: real time    0.0001
    CHARGE:  cpu time    0.0719: real time    0.0719
    MIXING:  cpu time    0.0164: real time    0.0164
    --------------------------------------------
      LOOP:  cpu time    0.6273: real time    0.6463

 eigenvalue-minimisations  :    88
 total energy-change (2. order) :-0.5917789E+00  (-0.2882812E-02)
 number of electron      12.0000157 magnetization       1.0988061
 augmentation part        1.1281734 magnetization      -0.4285901

 Broyden mixing:
  rms(total) = 0.77068E+00    rms(broyden)= 0.77068E+00
  rms(prec ) = 0.77069E+00
  weight for this iteration     100.00

 eigenvalues of (default mixing * dielectric matrix)
  average eigenvalue GAMMA=   1.4695
  6.5933  2.4824  0.4377  1.6260  1.3068  1.1049  0.6145  0.6145  0.4358  0.4358
  0.5132

 Free energy of the ion-electron system (eV)
  ---------------------------------------------------
  alpha Z        PSCENC =         0.32165383
  Ewald energy   TEWEN  =       175.99851768
  -Hartree energ DENC   =      -909.54463291
  -exchange      EXHF   =         0.00000000
  -V(xc)+E(xc)   XCENC  =        55.28045133
  PAW double counting   =       899.10655372     -902.63380945
  entropy T*S    EENTRO =        -0.00000000
  eigenvalues    EBANDS =      -191.92535278
  atomic energy  EATOM  =       864.52639207
  Solvation  Ediel_sol  =         0.00000000
  ---------------------------------------------------
  free energy    TOTEN  =        -8.87022650 eV

  energy without entropy =       -8.87022650  energy(sigma->0) =       -8.87022650


--------------------------------------------------------------------------------------------------------




----------------------------------------- Iteration    1(  17)  ---------------------------------------


    POTLOK:  cpu time    0.2866: real time    0.2867
    SETDIJ:  cpu time    0.0052: real time    0.0052
     EDDAV:  cpu time    0.1907: real time    0.1907
       DOS:  cpu time    0.0001: real time    0.0001
    CHARGE:  cpu time    0.0734: real time    0.0734
    MIXING:  cpu time    0.0171: real time    0.0171
    --------------------------------------------
      LOOP:  cpu time    0.5743: real time    0.5765

 eigenvalue-minimisations  :    64
 total energy-change (2. order) :-0.6463066E+00  (-0.7141129E-02)
 number of electron      12.0000157 magnetization       1.5164327
 augmentation part        1.1301064 magnetization      -0.0037524

 Broyden mixing:
  rms(total) = 0.47518E+00    rms(broyden)= 0.47518E+00
  rms(prec ) = 0.47519E+00
  weight for this iteration     100.00

 eigenvalues of (default mixing * dielectric matrix)
  average eigenvalue GAMMA=   1.8024
 10.2516  2.3971  0.4377  1.8016  1.8016  1.4408  0.7721  0.7721  0.4406  0.4406
  0.5366  0.5366

 Free energy of the ion-electron system (eV)
  ---------------------------------------------------
  alpha Z        PSCENC =         0.32165383
  Ewald energy   TEWEN  =       175.99851768
  -Hartree energ DENC   =      -909.81079337
  -exchange      EXHF   =         0.00000000
  -V(xc)+E(xc)   XCENC  =        55.14616571
  PAW double counting   =       899.83372485     -903.36083869
  entropy T*S    EENTRO =        -0.00000000
  eigenvalues    EBANDS =      -192.17135515
  atomic energy  EATOM  =       864.52639207
  Solvation  Ediel_sol  =         0.00000000
  ---------------------------------------------------
  free energy    TOTEN  =        -9.51653305 eV

  energy without entropy =       -9.51653305  energy(sigma->0) =       -9.51653305


--------------------------------------------------------------------------------------------------------




----------------------------------------- Iteration    1(  18)  ---------------------------------------


    POTLOK:  cpu time    0.2928: real time    0.2928
    SETDIJ:  cpu time    0.0052: real time    0.0052
     EDDAV:  cpu time    0.2229: real time    0.2229
       DOS:  cpu time    0.0001: real time    0.0001
    CHARGE:  cpu time    0.0721: real time    0.0721
    MIXING:  cpu time    0.0182: real time    0.0182
    --------------------------------------------
      LOOP:  cpu time    0.6124: real time    0.6144

 eigenvalue-minimisations  :    80
 total energy-change (2. order) :-0.2476051E+00  (-0.4168435E-02)
 number of electron      12.0000157 magnetization       1.7497877
 augmentation part        1.1317897 magnetization       0.2350634

 Broyden mixing:
  rms(total) = 0.25501E+00    rms(broyden)= 0.25500E+00
  rms(prec ) = 0.25502E+00
  weight for this iteration     100.00

 eigenvalues of (default mixing * dielectric matrix)
  average eigenvalue GAMMA=   1.8237
 11.0988  2.2848  2.2848  1.7123  1.7123  0.4377  0.8035  0.8035  0.5831  0.5831
  0.4379  0.4379  0.5288

 Free energy of the ion-electron system (eV)
  ---------------------------------------------------
  alpha Z        PSCENC =         0.32165383
  Ewald energy   TEWEN  =       175.99851768
  -Hartree energ DENC   =      -909.89642018
  -exchange      EXHF   =         0.00000000
  -V(xc)+E(xc)   XCENC  =        55.19074206
  PAW double counting   =       899.56455384     -903.08413923
  entropy T*S    EENTRO =        -0.00000000
  eigenvalues    EBANDS =      -192.38543824
  atomic energy  EATOM  =       864.52639207
  Solvation  Ediel_sol  =         0.00000000
  ---------------------------------------------------
  free energy    TOTEN  =        -9.76413816 eV

  energy without entropy =       -9.76413816  energy(sigma->0) =       -9.76413816


--------------------------------------------------------------------------------------------------------




----------------------------------------- Iteration    1(  19)  ---------------------------------------


    POTLOK:  cpu time    0.2945: real time    0.2946
    SETDIJ:  cpu time    0.0054: real time    0.0054
     EDDAV:  cpu time    0.1958: real time    0.1958
       DOS:  cpu time    0.0001: real time    0.0001
    CHARGE:  cpu time    0.0739: real time    0.0739
    MIXING:  cpu time    0.0198: real time    0.0198
    --------------------------------------------
      LOOP:  cpu time    0.5906: real time    0.5927

 eigenvalue-minimisations  :    64
 total energy-change (2. order) :-0.7237727E-01  (-0.1426572E-02)
 number of electron      12.0000158 magnetization       1.8834003
 augmentation part        1.1329595 magnetization       0.3718381

 Broyden mixing:
  rms(total) = 0.13173E+00    rms(broyden)= 0.13172E+00
  rms(prec ) = 0.13174E+00
  weight for this iteration     100.00

 eigenvalues of (default mixing * dielectric matrix)
  average eigenvalue GAMMA=   1.8712
 12.1544  2.4358  2.4358  1.7676  1.7676  0.4377  0.9282  0.9282  0.6784  0.6784
  0.4394  0.4394  0.5532  0.5532

 Free energy of the ion-electron system (eV)
  ---------------------------------------------------
  alpha Z        PSCENC =         0.32165383
  Ewald energy   TEWEN  =       175.99851768
  -Hartree energ DENC   =      -909.90525400
  -exchange      EXHF   =         0.00000000
  -V(xc)+E(xc)   XCENC  =        55.24852283
  PAW double counting   =       899.13002971     -902.64200792
  entropy T*S    EENTRO =        -0.00000000
  eigenvalues    EBANDS =      -192.51436964
  atomic energy  EATOM  =       864.52639207
  Solvation  Ediel_sol  =         0.00000000
  ---------------------------------------------------
  free energy    TOTEN  =        -9.83651543 eV

  energy without entropy =       -9.83651543  energy(sigma->0) =       -9.83651543


--------------------------------------------------------------------------------------------------------




----------------------------------------- Iteration    1(  20)  ---------------------------------------


    POTLOK:  cpu time    0.2950: real time    0.2950
    SETDIJ:  cpu time    0.0054: real time    0.0054
     EDDAV:  cpu time    0.2418: real time    0.2418
       DOS:  cpu time    0.0001: real time    0.0001
    CHARGE:  cpu time    0.0732: real time    0.0732
    MIXING:  cpu time    0.0206: real time    0.0206
    --------------------------------------------
      LOOP:  cpu time    0.6372: real time    0.6392

 eigenvalue-minimisations  :    88
 total energy-change (2. order) :-0.2099790E-01  (-0.4256156E-03)
 number of electron      12.0000158 magnetization       1.9988836
 augmentation part        1.1334957 magnetization       0.4889658

 Broyden mixing:
  rms(total) = 0.61562E-01    rms(broyden)= 0.61555E-01
  rms(prec ) = 0.61572E-01
  weight for this iteration     100.00

 eigenvalues of (default mixing * dielectric matrix)
  average eigenvalue GAMMA=   1.9276
 13.1694  2.7755  2.7755  1.7842  1.7842  0.4377  1.0358  1.0358  0.7204  0.7204
  0.4391  0.4391  0.6240  0.5864  0.5864

 Free energy of the ion-electron system (eV)
  ---------------------------------------------------
  alpha Z        PSCENC =         0.32165383
  Ewald energy   TEWEN  =       175.99851768
  -Hartree energ DENC   =      -909.90380613
  -exchange      EXHF   =         0.00000000
  -V(xc)+E(xc)   XCENC  =        55.28836959
  PAW double counting   =       898.68162582     -902.18866406
  entropy T*S    EENTRO =        -0.00000000
  eigenvalues    EBANDS =      -192.58160214
  atomic energy  EATOM  =       864.52639207
  Solvation  Ediel_sol  =         0.00000000
  ---------------------------------------------------
  free energy    TOTEN  =        -9.85751333 eV

  energy without entropy =       -9.85751333  energy(sigma->0) =       -9.85751333


--------------------------------------------------------------------------------------------------------




----------------------------------------- Iteration    1(  21)  ---------------------------------------


    POTLOK:  cpu time    0.2886: real time    0.2886
    SETDIJ:  cpu time    0.0052: real time    0.0052
     EDDAV:  cpu time    0.2548: real time    0.2549
       DOS:  cpu time    0.0001: real time    0.0001
    CHARGE:  cpu time    0.0715: real time    0.0715
    MIXING:  cpu time    0.0202: real time    0.0202
    --------------------------------------------
      LOOP:  cpu time    0.6415: real time    0.6435

 eigenvalue-minimisations  :    96
 total energy-change (2. order) :-0.6407662E-02  (-0.3000279E-03)
 number of electron      12.0000158 magnetization       2.0172539
 augmentation part        1.1339337 magnetization       0.5087302

 Broyden mixing:
  rms(total) = 0.14196E-02    rms(broyden)= 0.12790E-02
  rms(prec ) = 0.16295E-02
  weight for this iteration     100.00

 eigenvalues of (default mixing * dielectric matrix)
  average eigenvalue GAMMA=   1.9340
 13.3732  3.6759  2.5443  0.4377  1.8161  1.8161  1.3981  0.8588  0.8588  0.4391
  0.4391  0.7539  0.7539  0.5830  0.5830  0.6123

 Free energy of the ion-electron system (eV)
  ---------------------------------------------------
  alpha Z        PSCENC =         0.32165383
  Ewald energy   TEWEN  =       175.99851768
  -Hartree energ DENC   =      -909.92765377
  -exchange      EXHF   =         0.00000000
  -V(xc)+E(xc)   XCENC  =        55.33018143
  PAW double counting   =       898.49815403     -902.00057250
  entropy T*S    EENTRO =        -0.00000000
  eigenvalues    EBANDS =      -192.61059377
  atomic energy  EATOM  =       864.52639207
  Solvation  Ediel_sol  =         0.00000000
  ---------------------------------------------------
  free energy    TOTEN  =        -9.86392099 eV

  energy without entropy =       -9.86392099  energy(sigma->0) =       -9.86392099


--------------------------------------------------------------------------------------------------------




----------------------------------------- Iteration    1(  22)  ---------------------------------------


    POTLOK:  cpu time    0.2860: real time    0.2861
    SETDIJ:  cpu time    0.0052: real time    0.0052
     EDDAV:  cpu time    0.1883: real time    0.1883
       DOS:  cpu time    0.0004: real time    0.0004
    CHARGE:  cpu time    0.0715: real time    0.0715
    MIXING:  cpu time    0.0212: real time    0.0212
    --------------------------------------------
      LOOP:  cpu time    0.5738: real time    0.5757

 eigenvalue-minimisations  :    64
 total energy-change (2. order) :-0.6792530E-04  (-0.1952949E-04)
 number of electron      12.0000158 magnetization       2.0055297
 augmentation part        1.1340152 magnetization       0.4971900

 Broyden mixing:
  rms(total) = 0.82146E-02    rms(broyden)= 0.82112E-02
  rms(prec ) = 0.82462E-02
  weight for this iteration     100.00

 eigenvalues of (default mixing * dielectric matrix)
  average eigenvalue GAMMA=   1.8776
 13.2868  3.6806  2.5568  0.4377  1.9730  1.6023  1.6023  0.9314  0.9314  0.7884
  0.7884  0.4391  0.4391  0.6436  0.6436  0.5869  0.5869

 Free energy of the ion-electron system (eV)
  ---------------------------------------------------
  alpha Z        PSCENC =         0.32165383
  Ewald energy   TEWEN  =       175.99851768
  -Hartree energ DENC   =      -909.93709955
  -exchange      EXHF   =         0.00000000
  -V(xc)+E(xc)   XCENC  =        55.33648415
  PAW double counting   =       898.42528942     -901.92653522
  entropy T*S    EENTRO =        -0.00000000
  eigenvalues    EBANDS =      -192.60869130
  atomic energy  EATOM  =       864.52639207
  Solvation  Ediel_sol  =         0.00000000
  ---------------------------------------------------
  free energy    TOTEN  =        -9.86398892 eV

  energy without entropy =       -9.86398892  energy(sigma->0) =       -9.86398892


--------------------------------------------------------------------------------------------------------




----------------------------------------- Iteration    1(  23)  ---------------------------------------


    POTLOK:  cpu time    0.2868: real time    0.2869
    SETDIJ:  cpu time    0.0054: real time    0.0054
     EDDAV:  cpu time    0.1886: real time    0.1887
       DOS:  cpu time    0.0001: real time    0.0001
    CHARGE:  cpu time    0.0713: real time    0.0713
    MIXING:  cpu time    0.0226: real time    0.0226
    --------------------------------------------
      LOOP:  cpu time    0.5759: real time    0.5779

 eigenvalue-minimisations  :    64
 total energy-change (2. order) :-0.3812944E-03  (-0.4275339E-05)
 number of electron      12.0000158 magnetization       2.0065875
 augmentation part        1.1339920 magnetization       0.4980728

 Broyden mixing:
  rms(total) = 0.24811E-02    rms(broyden)= 0.24810E-02
  rms(prec ) = 0.25521E-02
  weight for this iteration     100.00

 eigenvalues of (default mixing * dielectric matrix)
  average eigenvalue GAMMA=   1.8424
 13.2402  3.4824  2.5531  2.1277  1.7908  1.7908  0.4377  1.0097  1.0097  0.8342
  0.8342  0.4391  0.4391  0.6827  0.6827  0.5857  0.5857  0.6378

 Free energy of the ion-electron system (eV)
  ---------------------------------------------------
  alpha Z        PSCENC =         0.32165383
  Ewald energy   TEWEN  =       175.99851768
  -Hartree energ DENC   =      -909.94984297
  -exchange      EXHF   =         0.00000000
  -V(xc)+E(xc)   XCENC  =        55.33142146
  PAW double counting   =       898.43676966     -901.93825599
  entropy T*S    EENTRO =        -0.00000000
  eigenvalues    EBANDS =      -192.59102596
  atomic energy  EATOM  =       864.52639207
  Solvation  Ediel_sol  =         0.00000000
  ---------------------------------------------------
  free energy    TOTEN  =        -9.86437021 eV

  energy without entropy =       -9.86437021  energy(sigma->0) =       -9.86437021


--------------------------------------------------------------------------------------------------------




----------------------------------------- Iteration    1(  24)  ---------------------------------------


    POTLOK:  cpu time    0.2870: real time    0.2871
    SETDIJ:  cpu time    0.0052: real time    0.0052
     EDDAV:  cpu time    0.2068: real time    0.2069
       DOS:  cpu time    0.0001: real time    0.0001
    CHARGE:  cpu time    0.0717: real time    0.0718
    MIXING:  cpu time    0.0231: real time    0.0231
    --------------------------------------------
      LOOP:  cpu time    0.5952: real time    0.5971

 eigenvalue-minimisations  :    72
 total energy-change (2. order) :-0.1319264E-03  (-0.3706942E-06)
 number of electron      12.0000158 magnetization       1.9998023
 augmentation part        1.1339668 magnetization       0.4913090

 Broyden mixing:
  rms(total) = 0.31831E-02    rms(broyden)= 0.31831E-02
  rms(prec ) = 0.32134E-02
  weight for this iteration     100.00

 eigenvalues of (default mixing * dielectric matrix)
  average eigenvalue GAMMA=   1.8285
 13.2423  3.6704  2.3958  2.3958  1.8359  1.8359  0.4377  1.2241  1.2241  0.8055
  0.8055  0.4391  0.4391  0.7320  0.7320  0.5866  0.5866  0.6766  0.6766

 Free energy of the ion-electron system (eV)
  ---------------------------------------------------
  alpha Z        PSCENC =         0.32165383
  Ewald energy   TEWEN  =       175.99851768
  -Hartree energ DENC   =      -909.97238933
  -exchange      EXHF   =         0.00000000
  -V(xc)+E(xc)   XCENC  =        55.33264467
  PAW double counting   =       898.51768628     -902.01908922
  entropy T*S    EENTRO =        -0.00000000
  eigenvalues    EBANDS =      -192.56991812
  atomic energy  EATOM  =       864.52639207
  Solvation  Ediel_sol  =         0.00000000
  ---------------------------------------------------
  free energy    TOTEN  =        -9.86450214 eV

  energy without entropy =       -9.86450214  energy(sigma->0) =       -9.86450214


--------------------------------------------------------------------------------------------------------




----------------------------------------- Iteration    1(  25)  ---------------------------------------


    POTLOK:  cpu time    0.2869: real time    0.2869
    SETDIJ:  cpu time    0.0052: real time    0.0052
     EDDAV:  cpu time    0.2224: real time    0.2225
       DOS:  cpu time    0.0002: real time    0.0002
    CHARGE:  cpu time    0.0711: real time    0.0711
    MIXING:  cpu time    0.0249: real time    0.0250
    --------------------------------------------
      LOOP:  cpu time    0.6119: real time    0.6139

 eigenvalue-minimisations  :    80
 total energy-change (2. order) :-0.1894558E-03  (-0.1903089E-05)
 number of electron      12.0000158 magnetization       1.9976889
 augmentation part        1.1339021 magnetization       0.4890918

 Broyden mixing:
  rms(total) = 0.14546E-03    rms(broyden)= 0.14143E-03
  rms(prec ) = 0.25243E-03
  weight for this iteration     100.00

 eigenvalues of (default mixing * dielectric matrix)
  average eigenvalue GAMMA=   1.9052
 13.2182  5.0277  2.7563  2.6409  2.1672  0.4377  1.6432  1.6432  1.0433  1.0433
  0.8371  0.8371  0.4391  0.4391  0.7252  0.7252  0.5853  0.5853  0.6551  0.6551

 Free energy of the ion-electron system (eV)
  ---------------------------------------------------
  alpha Z        PSCENC =         0.32165383
  Ewald energy   TEWEN  =       175.99851768
  -Hartree energ DENC   =      -910.00462932
  -exchange      EXHF   =         0.00000000
  -V(xc)+E(xc)   XCENC  =        55.33091145
  PAW double counting   =       898.58903515     -902.09062988
  entropy T*S    EENTRO =        -0.00000000
  eigenvalues    EBANDS =      -192.53594258
  atomic energy  EATOM  =       864.52639207
  Solvation  Ediel_sol  =         0.00000000
  ---------------------------------------------------
  free energy    TOTEN  =        -9.86469159 eV

  energy without entropy =       -9.86469159  energy(sigma->0) =       -9.86469159


--------------------------------------------------------------------------------------------------------




----------------------------------------- Iteration    1(  26)  ---------------------------------------


    POTLOK:  cpu time    0.2856: real time    0.2857
    SETDIJ:  cpu time    0.0052: real time    0.0052
     EDDAV:  cpu time    0.2069: real time    0.2070
       DOS:  cpu time    0.0001: real time    0.0001
    CHARGE:  cpu time    0.0721: real time    0.0721
    MIXING:  cpu time    0.0257: real time    0.0257
    --------------------------------------------
      LOOP:  cpu time    0.5967: real time    0.5988

 eigenvalue-minimisations  :    72
 total energy-change (2. order) :-0.3521218E-04  (-0.2623149E-06)
 number of electron      12.0000158 magnetization       1.9994567
 augmentation part        1.1338920 magnetization       0.4908440

 Broyden mixing:
  rms(total) = 0.11480E-02    rms(broyden)= 0.11479E-02
  rms(prec ) = 0.11559E-02
  weight for this iteration     100.00

 eigenvalues of (default mixing * dielectric matrix)
  average eigenvalue GAMMA=   1.9155
 13.2209  6.0695  2.8870  2.5863  2.2640  0.4377  1.6855  1.6855  1.1065  1.1065
  0.8234  0.8234  0.4391  0.4391  0.7548  0.7548  0.5846  0.5846  0.6755  0.6755
  0.6202

 Free energy of the ion-electron system (eV)
  ---------------------------------------------------
  alpha Z        PSCENC =         0.32165383
  Ewald energy   TEWEN  =       175.99851768
  -Hartree energ DENC   =      -910.01312638
  -exchange      EXHF   =         0.00000000
  -V(xc)+E(xc)   XCENC  =        55.33014371
  PAW double counting   =       898.57570272     -902.07744203
  entropy T*S    EENTRO =        -0.00000000
  eigenvalues    EBANDS =      -192.52656841
  atomic energy  EATOM  =       864.52639207
  Solvation  Ediel_sol  =         0.00000000
  ---------------------------------------------------
  free energy    TOTEN  =        -9.86472681 eV

  energy without entropy =       -9.86472681  energy(sigma->0) =       -9.86472681


--------------------------------------------------------------------------------------------------------




----------------------------------------- Iteration    1(  27)  ---------------------------------------


    POTLOK:  cpu time    0.2838: real time    0.2838
    SETDIJ:  cpu time    0.0052: real time    0.0052
     EDDAV:  cpu time    0.2060: real time    0.2061
       DOS:  cpu time    0.0001: real time    0.0001
    CHARGE:  cpu time    0.0713: real time    0.0713
    MIXING:  cpu time    0.0261: real time    0.0261
    --------------------------------------------
      LOOP:  cpu time    0.5936: real time    0.5958

 eigenvalue-minimisations  :    72
 total energy-change (2. order) :-0.2108061E-04  (-0.1154024E-06)
 number of electron      12.0000158 magnetization       1.9994820
 augmentation part        1.1339008 magnetization       0.4908958

 Broyden mixing:
  rms(total) = 0.23610E-03    rms(broyden)= 0.23607E-03
  rms(prec ) = 0.25442E-03
  weight for this iteration     100.00

 eigenvalues of (default mixing * dielectric matrix)
  average eigenvalue GAMMA=   1.9609
 13.2225  7.1175  3.1136  2.5603  2.5603  0.4377  1.8333  1.8333  1.1937  1.1937
  0.8332  0.8332  0.4391  0.4391  0.8087  0.8087  0.5848  0.5848  0.7152  0.7152
  0.6806  0.6322

 Free energy of the ion-electron system (eV)
  ---------------------------------------------------
  alpha Z        PSCENC =         0.32165383
  Ewald energy   TEWEN  =       175.99851768
  -Hartree energ DENC   =      -910.01272676
  -exchange      EXHF   =         0.00000000
  -V(xc)+E(xc)   XCENC  =        55.33073492
  PAW double counting   =       898.54391361     -902.04561315
  entropy T*S    EENTRO =        -0.00000000
  eigenvalues    EBANDS =      -192.52762010
  atomic energy  EATOM  =       864.52639207
  Solvation  Ediel_sol  =         0.00000000
  ---------------------------------------------------
  free energy    TOTEN  =        -9.86474789 eV

  energy without entropy =       -9.86474789  energy(sigma->0) =       -9.86474789


--------------------------------------------------------------------------------------------------------




----------------------------------------- Iteration    1(  28)  ---------------------------------------


    POTLOK:  cpu time    0.2884: real time    0.2935
    SETDIJ:  cpu time    0.0052: real time    0.0052
     EDDAV:  cpu time    0.1913: real time    0.1913
       DOS:  cpu time    0.0001: real time    0.0001
    CHARGE:  cpu time    0.0713: real time    0.0713
    MIXING:  cpu time    0.0280: real time    0.0280
    --------------------------------------------
      LOOP:  cpu time    0.5856: real time    0.5939

 eigenvalue-minimisations  :    64
 total energy-change (2. order) :-0.1719683E-04  (-0.4473305E-07)
 number of electron      12.0000158 magnetization       1.9987447
 augmentation part        1.1339016 magnetization       0.4901559

 Broyden mixing:
  rms(total) = 0.25685E-03    rms(broyden)= 0.25684E-03
  rms(prec ) = 0.26346E-03
  weight for this iteration     100.00

 eigenvalues of (default mixing * dielectric matrix)
  average eigenvalue GAMMA=   1.9547
 13.2230  7.5065  3.2303  2.6442  2.6442  1.8753  1.8753  0.4377  1.2567  1.2567
  0.9360  0.9360  0.8154  0.8154  0.4391  0.4391  0.7335  0.7335  0.5848  0.5848
  0.6874  0.6874  0.6158

 Free energy of the ion-electron system (eV)
  ---------------------------------------------------
  alpha Z        PSCENC =         0.32165383
  Ewald energy   TEWEN  =       175.99851768
  -Hartree energ DENC   =      -910.01147446
  -exchange      EXHF   =         0.00000000
  -V(xc)+E(xc)   XCENC  =        55.33063202
  PAW double counting   =       898.52609763     -902.02784380
  entropy T*S    EENTRO =        -0.00000000
  eigenvalues    EBANDS =      -192.52874007
  atomic energy  EATOM  =       864.52639207
  Solvation  Ediel_sol  =         0.00000000
  ---------------------------------------------------
  free energy    TOTEN  =        -9.86476508 eV

  energy without entropy =       -9.86476508  energy(sigma->0) =       -9.86476508


--------------------------------------------------------------------------------------------------------




----------------------------------------- Iteration    1(  29)  ---------------------------------------


    POTLOK:  cpu time    0.2889: real time    0.2889
    SETDIJ:  cpu time    0.0054: real time    0.0054
     EDDAV:  cpu time    0.2105: real time    0.2105
       DOS:  cpu time    0.0001: real time    0.0001
    CHARGE:  cpu time    0.0718: real time    0.0719
    MIXING:  cpu time    0.0303: real time    0.0303
    --------------------------------------------
      LOOP:  cpu time    0.6081: real time    0.6106

 eigenvalue-minimisations  :    72
 total energy-change (2. order) :-0.8065322E-05  (-0.3377745E-07)
 number of electron      12.0000158 magnetization       1.9995450
 augmentation part        1.1338979 magnetization       0.4909429

 Broyden mixing:
  rms(total) = 0.65712E-03    rms(broyden)= 0.65712E-03
  rms(prec ) = 0.65797E-03
  weight for this iteration     100.00

 eigenvalues of (default mixing * dielectric matrix)
  average eigenvalue GAMMA=   2.0080
 13.2230  7.9910  4.0538  2.6882  2.6882  2.4365  0.4377  1.7609  1.7609  1.1633
  1.1633  0.4391  0.4391  0.8260  0.8260  0.8564  0.8564  0.5848  0.5848  0.7051
  0.7051  0.7257  0.6567  0.6204

 Free energy of the ion-electron system (eV)
  ---------------------------------------------------
  alpha Z        PSCENC =         0.32165383
  Ewald energy   TEWEN  =       175.99851768
  -Hartree energ DENC   =      -910.01058674
  -exchange      EXHF   =         0.00000000
  -V(xc)+E(xc)   XCENC  =        55.33027411
  PAW double counting   =       898.52865852     -902.03042561
  entropy T*S    EENTRO =        -0.00000000
  eigenvalues    EBANDS =      -192.52925702
  atomic energy  EATOM  =       864.52639207
  Solvation  Ediel_sol  =         0.00000000
  ---------------------------------------------------
  free energy    TOTEN  =        -9.86477315 eV

  energy without entropy =       -9.86477315  energy(sigma->0) =       -9.86477315


--------------------------------------------------------------------------------------------------------




----------------------------------------- Iteration    1(  30)  ---------------------------------------


    POTLOK:  cpu time    0.2917: real time    0.2917
    SETDIJ:  cpu time    0.0053: real time    0.0053
     EDDAV:  cpu time    0.2258: real time    0.2259
       DOS:  cpu time    0.0001: real time    0.0001
    CHARGE:  cpu time    0.0735: real time    0.0735
    MIXING:  cpu time    0.0322: real time    0.0322
    --------------------------------------------
      LOOP:  cpu time    0.6299: real time    0.6320

 eigenvalue-minimisations  :    80
 total energy-change (2. order) :-0.4110330E-05  (-0.1925338E-07)
 number of electron      12.0000158 magnetization       2.0005292
 augmentation part        1.1339005 magnetization       0.4919402

 Broyden mixing:
  rms(total) = 0.24695E-03    rms(broyden)= 0.24693E-03
  rms(prec ) = 0.24767E-03
  weight for this iteration     100.00

 eigenvalues of (default mixing * dielectric matrix)
  average eigenvalue GAMMA=   2.0398
 13.2232  8.4980  4.7978  2.7868  2.7868  2.5194  0.4377  1.8387  1.8387  1.2180
  1.2180  0.9513  0.9513  0.8179  0.8179  0.4391  0.4391  0.8469  0.7322  0.7322
  0.5849  0.5849  0.6614  0.6614  0.6122

 Free energy of the ion-electron system (eV)
  ---------------------------------------------------
  alpha Z        PSCENC =         0.32165383
  Ewald energy   TEWEN  =       175.99851768
  -Hartree energ DENC   =      -910.01034391
  -exchange      EXHF   =         0.00000000
  -V(xc)+E(xc)   XCENC  =        55.33058446
  PAW double counting   =       898.53471679     -902.03644651
  entropy T*S    EENTRO =        -0.00000000
  eigenvalues    EBANDS =      -192.52985167
  atomic energy  EATOM  =       864.52639207
  Solvation  Ediel_sol  =         0.00000000
  ---------------------------------------------------
  free energy    TOTEN  =        -9.86477726 eV

  energy without entropy =       -9.86477726  energy(sigma->0) =       -9.86477726


--------------------------------------------------------------------------------------------------------




----------------------------------------- Iteration    1(  31)  ---------------------------------------


    POTLOK:  cpu time    0.2891: real time    0.2892
    SETDIJ:  cpu time    0.0053: real time    0.0053
     EDDAV:  cpu time    0.2079: real time    0.2080
       DOS:  cpu time    0.0001: real time    0.0001
    CHARGE:  cpu time    0.0720: real time    0.0721
    MIXING:  cpu time    0.0323: real time    0.0323
    --------------------------------------------
      LOOP:  cpu time    0.6079: real time    0.6100

 eigenvalue-minimisations  :    72
 total energy-change (2. order) :-0.1324002E-05  (-0.2676534E-07)
 number of electron      12.0000158 magnetization       2.0004022
 augmentation part        1.1339047 magnetization       0.4918269

 Broyden mixing:
  rms(total) = 0.26836E-03    rms(broyden)= 0.26831E-03
  rms(prec ) = 0.26853E-03
  weight for this iteration     100.00

 eigenvalues of (default mixing * dielectric matrix)
  average eigenvalue GAMMA=   2.0434
 13.2233  8.8312  5.2410  2.8990  2.8990  2.5567  0.4377  1.8909  1.8909  1.2485
  1.2485  1.0643  0.4391  0.4391  0.8191  0.8191  0.9352  0.9000  0.5849  0.5849
  0.7270  0.7270  0.7301  0.7301  0.6523  0.6083

 Free energy of the ion-electron system (eV)
  ---------------------------------------------------
  alpha Z        PSCENC =         0.32165383
  Ewald energy   TEWEN  =       175.99851768
  -Hartree energ DENC   =      -910.01002495
  -exchange      EXHF   =         0.00000000
  -V(xc)+E(xc)   XCENC  =        55.33096332
  PAW double counting   =       898.53643025     -902.03810351
  entropy T*S    EENTRO =        -0.00000000
  eigenvalues    EBANDS =      -192.53060728
  atomic energy  EATOM  =       864.52639207
  Solvation  Ediel_sol  =         0.00000000
  ---------------------------------------------------
[...]
  eigenvalues    EBANDS =      -192.52811158
  atomic energy  EATOM  =       864.52639207
  Solvation  Ediel_sol  =         0.00000000
  ---------------------------------------------------
  free energy    TOTEN  =        -9.86474946 eV

  energy without entropy =       -9.86474946  energy(sigma->0) =       -9.86474946


--------------------------------------------------------------------------------------------------------




 average (electrostatic) potential at core
  the test charge radii are     0.7215
  (the norm of the test charge is              1.0000)
       1 -83.8879       2 -83.8880
 
 
 
 E-fermi :  -6.8937     XC(G=0):  -0.3694     alpha+bet : -0.0867


 spin component 1

 k-point     1 :       0.0000    0.0000    0.0000
  band No.  band energies     occupation 
      1     -32.5266      1.00000
      2     -20.6514      1.00000
      3     -13.4182      1.00000
      4     -13.2690      1.00000
      5     -13.2690      1.00000
      6      -6.9479      1.00000
      7      -6.9479      1.00000
      8      -0.2824      0.00000
      9       0.5576      0.00000
     10       0.6526      0.00000
     11       0.7775      0.00000
     12       0.7788      0.00000
     13       0.9501      0.00000
     14       0.9603      0.00000
     15       1.4832      0.00000
     16       1.7223      0.00000

 spin component 2

 k-point     1 :       0.0000    0.0000    0.0000
  band No.  band energies     occupation 
      1     -31.3011      1.00000
      2     -18.8550      1.00000
      3     -12.4905      1.00000
      4     -11.4258      1.00000
      5     -11.4258      1.00000
      6      -4.6746      0.00000
      7      -4.6746      0.00000
      8      -0.1778      0.00000
      9       0.7481      0.00000
     10       0.7634      0.00000
     11       0.8743      0.00000
     12       0.8778      0.00000
     13       0.9986      0.00000
     14       1.0051      0.00000
     15       1.6457      0.00000
     16       1.8070      0.00000


--------------------------------------------------------------------------------------------------------


 soft charge-density along one line, spin component           1
         0         1         2         3         4         5         6         7         8         9
 total charge-density along one line
 
 soft charge-density along one line, spin component           2
         0         1         2         3         4         5         6         7         8         9
 total charge-density along one line
 
 pseudopotential strength for first ion, spin component:           1
 14.565 -17.910  -0.001   0.000  -0.129   0.001  -0.000   0.162
-17.910  22.059   0.001  -0.000   0.164  -0.002   0.000  -0.207
 -0.001   0.001 -11.434   0.000  -0.000  14.332  -0.000  -0.000
  0.000  -0.000   0.000 -11.434  -0.000  -0.000  14.332   0.000
 -0.129   0.164  -0.000  -0.000 -11.437  -0.000   0.000  14.323
  0.001  -0.002  14.332  -0.000  -0.000 -17.924   0.000   0.000
 -0.000   0.000  -0.000  14.332   0.000   0.000 -17.924  -0.000
  0.162  -0.207  -0.000   0.000  14.323   0.000  -0.000 -17.897
 pseudopotential strength for first ion, spin component:           2
 14.038 -17.230  -0.001   0.000  -0.128   0.001  -0.000   0.161
-17.230  21.181   0.001  -0.000   0.163  -0.002   0.000  -0.206
 -0.001   0.001 -10.826   0.000  -0.003  13.479  -0.000   0.004
  0.000  -0.000   0.000 -10.826  -0.000  -0.000  13.479   0.000
 -0.128   0.163  -0.003  -0.000 -11.226   0.004   0.000  14.027
  0.001  -0.002  13.479  -0.000   0.004 -16.722   0.000  -0.006
 -0.000   0.000  -0.000  13.479   0.000   0.000 -16.722  -0.000
  0.161  -0.206   0.004   0.000  14.027  -0.006  -0.000 -17.480
 total augmentation occupancy for first ion, spin component:           1
  2.679   0.413   0.004   0.000   0.514   0.002   0.000   0.250
  0.413   0.189   0.004   0.000   0.539   0.001   0.000   0.166
  0.004   0.004   1.753   0.000   0.006   0.111   0.000   0.004
  0.000   0.000   0.000   1.753   0.000   0.000   0.111   0.000
  0.514   0.539   0.006   0.000   2.448   0.004   0.000   0.552
  0.002   0.001   0.111   0.000   0.004   0.030   0.000   0.001
  0.000   0.000   0.000   0.111   0.000   0.000   0.030   0.000
  0.250   0.166   0.004   0.000   0.552   0.001   0.000   0.156
 total augmentation occupancy for first ion, spin component:           2
 -0.104  -0.060  -0.000   0.000  -0.017  -0.000   0.000  -0.015
 -0.060  -0.011  -0.000   0.000  -0.010  -0.000   0.000  -0.006
 -0.000  -0.000   0.363   0.000  -0.003  -0.085   0.000   0.001
  0.000   0.000   0.000   0.363   0.000   0.000  -0.085   0.000
 -0.017  -0.010  -0.003   0.000  -0.037   0.001   0.000  -0.019
 -0.000  -0.000  -0.085   0.000   0.001   0.003   0.000  -0.000
  0.000   0.000   0.000  -0.085   0.000   0.000   0.003   0.000
 -0.015  -0.006   0.001   0.000  -0.019  -0.000   0.000  -0.006


------------------------ aborting loop because EDIFF is reached ----------------------------------------


 


 total charge     
 
# of ion     s       p       d       tot
----------------------------------------
  1        1.638   3.286   0.000   4.924
  2        1.638   3.286   0.000   4.924
------------------------------------------------
tot        3.275   6.573   0.000   9.848
 


 magnetization (x)
 
# of ion     s       p       d       tot
----------------------------------------
  1        0.010   0.804   0.000   0.814
  2        0.010   0.804   0.000   0.814
------------------------------------------------
tot        0.020   1.609   0.000   1.629
 
    CHARGE:  cpu time    0.0791: real time    0.0792
    FORLOC:  cpu time    0.0070: real time    0.0070
    FORNL :  cpu time    0.0384: real time    0.0384
    STRESS:  cpu time    0.1530: real time    0.1530
    FORCOR:  cpu time    0.3043: real time    0.3043
    FORHAR:  cpu time    0.0372: real time    0.0372
    MIXING:  cpu time    0.0182: real time    0.0183
    OFIELD:  cpu time    0.0001: real time    0.0001

  FORCE on cell =-STRESS in cart. coord.  units (eV):
  Direction    XX          YY          ZZ          XY          YZ          ZX
  --------------------------------------------------------------------------------------
  Alpha Z     0.32165     0.32165     0.32165
  Ewald     340.33303   -82.16027   -82.18803     3.38177    -0.00000     0.00000
  Hartree   434.92788   237.54144   237.52878     1.55699    -0.00000    -0.00000
  E(xc)     -57.94065   -59.10002   -59.10010     0.00940     0.00000    -0.00000
  Local    -914.15783  -338.69520  -338.65782    -4.57866     0.00000    -0.00000
  n-local   -47.66421   -44.19899   -44.19898    -0.02799    -0.00000    -0.00000
  augment    10.38919    12.94676    12.94669    -0.02078     0.00000    -0.00000
  Kinetic   232.65223   271.80765   271.80976    -0.31718     0.00000    -0.00000
  Fock        0.00000     0.00000     0.00000     0.00000     0.00000     0.00000
  -------------------------------------------------------------------------------------
  Total      -1.13870    -1.53697    -1.53805     0.00355     0.00000     0.00000
  in kB      -1.05578    -1.42506    -1.42606     0.00329     0.00000     0.00000
  external pressure =       -1.30 kB  Pullay stress =        0.00 kB


 VOLUME and BASIS-vectors are now :
 -----------------------------------------------------------------------------
  energy-cutoff  :      400.00
  volume of cell :     1728.00
      direct lattice vectors                 reciprocal lattice vectors
    12.000000000  0.000000000  0.000000000     0.083333333  0.000000000  0.000000000
     0.000000000 12.000000000  0.000000000     0.000000000  0.083333333  0.000000000
     0.000000000  0.000000000 12.000000000     0.000000000  0.000000000  0.083333333

  length of vectors
    12.000000000 12.000000000 12.000000000     0.083333333  0.083333333  0.083333333


 FORCES acting on ions
    electron-ion (+dipol)            ewald-force                    non-local-force                 convergence-correction
 -----------------------------------------------------------------------------------------------
   0.287E+03 0.233E+01 -.210E-04   -.339E+03 -.275E+01 -.128E-16   0.520E+02 0.424E+00 0.000E+00   0.401E-04 0.118E-03 0.601E-13
   -.287E+03 -.233E+01 0.144E-04   0.339E+03 0.275E+01 0.812E-17   -.520E+02 -.424E+00 0.000E+00   -.399E-04 0.249E-04 0.179E-13
 -----------------------------------------------------------------------------------------------
   0.339E-04 -.267E-03 -.655E-05   0.000E+00 0.000E+00 -.466E-17   0.711E-14 0.000E+00 0.000E+00   0.231E-06 0.143E-03 0.781E-13
 
 
 POSITION                                       TOTAL-FORCE (eV/Angst)
 -----------------------------------------------------------------------------------
      5.38311      5.99000      6.00000        -0.023141      0.002717      0.000000
      6.61689      6.00000      6.00000         0.023141     -0.002717      0.000000
 -----------------------------------------------------------------------------------
    total drift:                                0.000034     -0.000124     -0.000007


--------------------------------------------------------------------------------------------------------



  FREE ENERGIE OF THE ION-ELECTRON SYSTEM (eV)
  ---------------------------------------------------
  free  energy   TOTEN  =        -9.86474946 eV

  energy  without entropy=       -9.86474946  energy(sigma->0) =       -9.86474946
 
 d Force =-0.4485561E-06[-0.543E-04, 0.534E-04]  d Energy =-0.2026727E-06-0.246E-06
 d Force = 0.3469447E-17[ 0.550E-01,-0.550E-01]  d Ewald  =-0.2273737E-12 0.227E-12


--------------------------------------------------------------------------------------------------------


    POTLOK:  cpu time    0.3285: real time    0.3286


--------------------------------------------------------------------------------------------------------


 Finite differences progress:
  Degree of freedom:   2/  2
  Displacement:        2/  2
  Total:               4/  4


--------------------------------------------------------------------------------------------------------


 INTERNAL STRAIN TENSORS FROM DISPLACED ATOMS
 ============================================

 INTERNAL STRAIN TENSOR FOR ION    1 for displacements in x,y,z  (eV/Angst):
          X           Y           Z          XY          YZ          ZX
  --------------------------------------------------------------------------------
  x    87.42588     0.05294     0.05294     0.00000     0.00000     0.00000
  y     0.00000     0.00000     0.00000    -0.35380     0.00000     0.00000
  z     0.00000     0.00000     0.00000     0.00000     0.00000    -0.35380

 INTERNAL STRAIN TENSOR FOR ION    2 for displacements in x,y,z  (eV/Angst):
          X           Y           Z          XY          YZ          ZX
  --------------------------------------------------------------------------------
  x   -87.42588    -0.05294    -0.05294     0.00000     0.00000     0.00000
  y     0.00000     0.00000     0.00000     0.35380     0.00000     0.00000
  z     0.00000     0.00000     0.00000     0.00000     0.00000     0.35380


--------------------------------------------------------------------------------------------------------


 
 Eigenvectors and eigenvalues of the dynamical matrix
 ----------------------------------------------------
 
 
   1 f  =   47.024677 THz   295.464758 2PiTHz 1568.574328 cm-1   194.478501 meV
             X         Y         Z           dx          dy          dz
      5.383110  6.000000  6.000000     0.707107   -0.000000   -0.000000  
      6.616890  6.000000  6.000000    -0.707107    0.000000    0.000000  
 
   2 f  =    2.869195 THz    18.027684 2PiTHz   95.706040 cm-1    11.866041 meV
             X         Y         Z           dx          dy          dz
      5.383110  6.000000  6.000000    -0.000000    0.707107   -0.000000  
      6.616890  6.000000  6.000000    -0.000000   -0.707107    0.000000  
 
   3 f  =    2.869195 THz    18.027684 2PiTHz   95.706040 cm-1    11.866041 meV
             X         Y         Z           dx          dy          dz
      5.383110  6.000000  6.000000    -0.000000    0.000000   -0.707107  
      6.616890  6.000000  6.000000     0.000000    0.000000    0.707107  
 
   4 f  =    0.000000 THz     0.000000 2PiTHz    0.000000 cm-1     0.000000 meV
             X         Y         Z           dx          dy          dz
      5.383110  6.000000  6.000000    -0.005288    0.707087   -0.000000  
      6.616890  6.000000  6.000000    -0.005288    0.707087    0.000000  
 
   5 f  =    0.000000 THz     0.000000 2PiTHz    0.000000 cm-1     0.000000 meV
             X         Y         Z           dx          dy          dz
      5.383110  6.000000  6.000000     0.000000    0.000000    0.707107  
      6.616890  6.000000  6.000000    -0.000000    0.000000    0.707107  
 
   6 f/i=    0.000000 THz     0.000001 2PiTHz    0.000006 cm-1     0.000001 meV
             X         Y         Z           dx          dy          dz
      5.383110  6.000000  6.000000     0.707087    0.005288    0.000000  
      6.616890  6.000000  6.000000     0.707087    0.005288    0.000000  
 

 ELASTIC MODULI CONTR FROM IONIC RELAXATION (kBar)
 Direction    XX          YY          ZZ          XY          YZ          ZX
 --------------------------------------------------------------------------------
 XX         -97.9054     -0.0593     -0.0593     -0.0000      0.0000      0.0000
 YY          -0.0593     -0.0000     -0.0000     -0.0000      0.0000      0.0000
 ZZ          -0.0593     -0.0000     -0.0000     -0.0000      0.0000      0.0000
 XY          -0.0000     -0.0000     -0.0000     -0.4307      0.0000     -0.0000
 YZ           0.0000      0.0000      0.0000      0.0000      0.0000      0.0000
 ZX           0.0000      0.0000      0.0000     -0.0000      0.0000     -0.4307
 --------------------------------------------------------------------------------



--------------------------------------------------------------------------------------------------------


  LATTYP: Found a simple cubic cell.
 ALAT       =    12.0000000000
  
  Lattice vectors:
  
 A1 = (  12.0000000000,   0.0000000000,   0.0000000000)
 A2 = (   0.0000000000,  12.0000000000,   0.0000000000)
 A3 = (   0.0000000000,   0.0000000000,  12.0000000000)


Analysis of symmetry for initial positions (statically):
=====================================================================
 Subroutine PRICEL returns:
 Original cell was already a primitive cell.
 

 Routine SETGRP: Setting up the symmetry group for a 
 simple cubic supercell.


 Subroutine GETGRP returns: Found 16 space group operations
 (whereof 16 operations were pure point group operations)
 out of a pool of 48 trial point group operations.


The static configuration has the point symmetry D_4h.


Analysis of symmetry for dynamics (positions and initial velocities):
=====================================================================
 Subroutine PRICEL returns:
 Original cell was already a primitive cell.
 

 Routine SETGRP: Setting up the symmetry group for a 
 simple cubic supercell.


 Subroutine GETGRP returns: Found 16 space group operations
 (whereof 16 operations were pure point group operations)
 out of a pool of 48 trial point group operations.


The dynamic configuration has the point symmetry D_4h.


Analysis of structural, dynamic, and magnetic symmetry:
=====================================================================
 Subroutine PRICEL returns:
 Original cell was already a primitive cell.
 

 Routine SETGRP: Setting up the symmetry group for a 
 simple cubic supercell.


 Subroutine GETGRP returns: Found 16 space group operations
 (whereof 16 operations were pure point group operations)
 out of a pool of 48 trial point group operations.


The magnetic configuration has the point symmetry D_4h.


 Subroutine INISYM returns: Found 16 space group operations
 (whereof 16 operations are pure point group operations),
 and found     1 'primitive' translations

 
 KPOINTS: KPOINTS created by Atomic Simulation Env

Automatic generation of k-mesh.
Space group operators:
 irot       det(A)        alpha          n_x          n_y          n_z        tau_x        tau_y        tau_z
    1     1.000000     0.000000     1.000000     0.000000     0.000000     0.000000     0.000000     0.000000
    2    -1.000000     0.000000     1.000000     0.000000     0.000000     0.000000     0.000000     0.000000
    3     1.000000   180.000000     0.000000     0.707107     0.707107     0.000000     0.000000     0.000000
    4    -1.000000   180.000000     0.000000     0.707107     0.707107     0.000000     0.000000     0.000000
    5     1.000000   180.000000     0.000000     0.000000     1.000000     0.000000     0.000000     0.000000
    6    -1.000000   180.000000     0.000000     0.000000     1.000000     0.000000     0.000000     0.000000
    7     1.000000    90.000000    -1.000000     0.000000     0.000000     0.000000     0.000000     0.000000
    8    -1.000000    90.000000    -1.000000     0.000000     0.000000     0.000000     0.000000     0.000000
    9     1.000000   180.000000     1.000000     0.000000     0.000000     0.000000     0.000000     0.000000
   10    -1.000000   180.000000     1.000000     0.000000     0.000000     0.000000     0.000000     0.000000
   11     1.000000    90.000000     1.000000     0.000000     0.000000     0.000000     0.000000     0.000000
   12    -1.000000    90.000000     1.000000     0.000000     0.000000     0.000000     0.000000     0.000000
   13     1.000000   180.000000     0.000000     1.000000     0.000000     0.000000     0.000000     0.000000
   14    -1.000000   180.000000     0.000000     1.000000     0.000000     0.000000     0.000000     0.000000
   15     1.000000   180.000000     0.000000    -0.707107     0.707107     0.000000     0.000000     0.000000
   16    -1.000000   180.000000     0.000000    -0.707107     0.707107     0.000000     0.000000     0.000000
 
 Subroutine IBZKPT returns following result:
 ===========================================
 
 Found      1 irreducible k-points:
 
 Following reciprocal coordinates:
            Coordinates               Weight
  0.000000  0.000000  0.000000      1.000000
 
 Following cartesian coordinates:
            Coordinates               Weight
  0.000000  0.000000  0.000000      1.000000
 
     LOOP+:  cpu time    8.5785: real time    8.6510
    4ORBIT:  cpu time    0.0000: real time    0.0000
 


 total charge     
 
# of ion     s       p       d       tot
----------------------------------------
  1        1.638   3.286   0.000   4.924
  2        1.638   3.286   0.000   4.924
------------------------------------------------
tot        3.275   6.573   0.000   9.848
 


 magnetization (x)
 
# of ion     s       p       d       tot
----------------------------------------
  1        0.010   0.804   0.000   0.814
  2        0.010   0.804   0.000   0.814
------------------------------------------------
tot        0.020   1.609   0.000   1.629
 

 total amount of memory used by VASP on root node    76450. kBytes
========================================================================

   base      :      30000. kBytes
   nonl-proj :       3018. kBytes
   fftplans  :       8259. kBytes
   grid      :      33148. kBytes
   one-center:         12. kBytes
   wavefun   :       2013. kBytes
 
  
  
 General timing and accounting informations for this job:
 ========================================================
  
                  Total CPU time used (sec):       62.278
                            User time (sec):       59.129
                          System time (sec):        3.149
                         Elapsed time (sec):       62.857
  
                   Maximum memory used (kb):      148760.
                   Average memory used (kb):           0.
  
                          Minor page faults:       195728
                          Major page faults:            8
                 Voluntary context switches:         1361
