PROCAR lm decomposed
# of k-points:    1         # of bands:  16         # of ions:   2

 k-point    1 :    0.00000000 0.00000000 0.00000000     weight = 1.00000000

band   1 # energy  -32.52656999 # occ.  1.00000000
 
ion      s     py     pz     px    dxy    dyz    dz2    dxz    dx2    tot
  1  0.405  0.000  0.000  0.095  0.000  0.000  0.000  0.000  0.000  0.501
  2  0.405  0.000  0.000  0.095  0.000  0.000  0.000  0.000  0.000  0.501
tot  0.811  0.000  0.000  0.191  0.000  0.000  0.000  0.000  0.000  1.001
 
band   2 # energy  -20.65137127 # occ.  1.00000000
 
ion      s     py     pz     px    dxy    dyz    dz2    dxz    dx2    tot
  1  0.377  0.000  0.000  0.040  0.000  0.000  0.000  0.000  0.000  0.417
  2  0.377  0.000  0.000  0.040  0.000  0.000  0.000  0.000  0.000  0.417
tot  0.753  0.000  0.000  0.081  0.000  0.000  0.000  0.000  0.000  0.834
 
band   3 # energy  -13.41818254 # occ.  1.00000000
 
ion      s     py     pz     px    dxy    dyz    dz2    dxz    dx2    tot
  1  0.042  0.000  0.000  0.382  0.000  0.000  0.000  0.000  0.000  0.424
  2  0.042  0.000  0.000  0.382  0.000  0.000  0.000  0.000  0.000  0.424
tot  0.084  0.000  0.000  0.765  0.000  0.000  0.000  0.000  0.000  0.849
 
band   4 # energy  -13.26902568 # occ.  1.00000000
 
ion      s     py     pz     px    dxy    dyz    dz2    dxz    dx2    tot
  1  0.000  0.000  0.374  0.000  0.000  0.000  0.000  0.000  0.000  0.374
  2  0.000  0.000  0.374  0.000  0.000  0.000  0.000  0.000  0.000  0.374
tot  0.000  0.000  0.748  0.000  0.000  0.000  0.000  0.000  0.000  0.748
 
band   5 # energy  -13.26900279 # occ.  1.00000000
 
ion      s     py     pz     px    dxy    dyz    dz2    dxz    dx2    tot
  1  0.000  0.374  0.000  0.000  0.000  0.000  0.000  0.000  0.000  0.374
  2  0.000  0.374  0.000  0.000  0.000  0.000  0.000  0.000  0.000  0.374
tot  0.000  0.748  0.000  0.000  0.000  0.000  0.000  0.000  0.000  0.748
 
band   6 # energy   -6.94792413 # occ.  1.00000000
 
ion      s     py     pz     px    dxy    dyz    dz2    dxz    dx2    tot
  1  0.000  0.000  0.390  0.000  0.000  0.000  0.000  0.000  0.000  0.390
  2  0.000  0.000  0.390  0.000  0.000  0.000  0.000  0.000  0.000  0.390
tot  0.000  0.000  0.779  0.000  0.000  0.000  0.000  0.000  0.000  0.779
 
band   7 # energy   -6.94791273 # occ.  1.00000000
 
ion      s     py     pz     px    dxy    dyz    dz2    dxz    dx2    tot
  1  0.000  0.390  0.000  0.000  0.000  0.000  0.000  0.000  0.000  0.390
  2  0.000  0.390  0.000  0.000  0.000  0.000  0.000  0.000  0.000  0.390
tot  0.000  0.779  0.000  0.000  0.000  0.000  0.000  0.000  0.000  0.779
 
band   8 # energy   -0.28239619 # occ.  0.00000000
 
ion      s     py     pz     px    dxy    dyz    dz2    dxz    dx2    tot
  1  0.004  0.000  0.000  0.002  0.000  0.000  0.000  0.000  0.000  0.006
  2  0.004  0.000  0.000  0.002  0.000  0.000  0.000  0.000  0.000  0.006
tot  0.007  0.000  0.000  0.004  0.000  0.000  0.000  0.000  0.000  0.012
 
band   9 # energy    0.55756773 # occ.  0.00000000
 
ion      s     py     pz     px    dxy    dyz    dz2    dxz    dx2    tot
  1  0.014  0.000  0.000  0.016  0.000  0.000  0.000  0.000  0.000  0.029
  2  0.014  0.000  0.000  0.016  0.000  0.000  0.000  0.000  0.000  0.029
tot  0.027  0.000  0.000  0.031  0.000  0.000  0.000  0.000  0.000  0.058
 
band  10 # energy    0.65263480 # occ.  0.00000000
 
ion      s     py     pz     px    dxy    dyz    dz2    dxz    dx2    tot
  1  0.005  0.000  0.000  0.002  0.000  0.000  0.000  0.000  0.000  0.007
  2  0.005  0.000  0.000  0.002  0.000  0.000  0.000  0.000  0.000  0.007
tot  0.009  0.000  0.000  0.004  0.000  0.000  0.000  0.000  0.000  0.013
 
band  11 # energy    0.77749333 # occ.  0.00000000
 
ion      s     py     pz     px    dxy    dyz    dz2    dxz    dx2    tot
  1  0.000  0.000  0.004  0.000  0.000  0.000  0.000  0.000  0.000  0.004
  2  0.000  0.000  0.004  0.000  0.000  0.000  0.000  0.000  0.000  0.004
tot  0.000  0.000  0.007  0.000  0.000  0.000  0.000  0.000  0.000  0.007
 
band  12 # energy    0.77879280 # occ.  0.00000000
 
ion      s     py     pz     px    dxy    dyz    dz2    dxz    dx2    tot
  1  0.000  0.004  0.000  0.000  0.000  0.000  0.000  0.000  0.000  0.004
  2  0.000  0.004  0.000  0.000  0.000  0.000  0.000  0.000  0.000  0.004
tot  0.000  0.007  0.000  0.000  0.000  0.000  0.000  0.000  0.000  0.007
 
band  13 # energy    0.95009470 # occ.  0.00000000
 
ion      s     py     pz     px    dxy    dyz    dz2    dxz    dx2    tot
  1  0.000  0.000  0.000  0.000  0.000  0.000  0.000  0.000  0.000  0.000
  2  0.000  0.000  0.000  0.000  0.000  0.000  0.000  0.000  0.000  0.000
tot  0.000  0.000  0.000  0.000  0.000  0.000  0.000  0.000  0.000  0.000
 
band  14 # energy    0.96032281 # occ.  0.00000000
 
ion      s     py     pz     px    dxy    dyz    dz2    dxz    dx2    tot
  1  0.000  0.000  0.000  0.000  0.000  0.000  0.000  0.000  0.000  0.000
  2  0.000  0.000  0.000  0.000  0.000  0.000  0.000  0.000  0.000  0.000
tot  0.000  0.000  0.000  0.000  0.000  0.000  0.000  0.000  0.000  0.001
 
band  15 # energy    1.48315257 # occ.  0.00000000
 
ion      s     py     pz     px    dxy    dyz    dz2    dxz    dx2    tot
  1  0.011  0.000  0.000  0.022  0.000  0.000  0.000  0.000  0.000  0.033
  2  0.011  0.000  0.000  0.022  0.000  0.000  0.000  0.000  0.000  0.033
tot  0.022  0.000  0.000  0.044  0.000  0.000  0.000  0.000  0.000  0.067
 
band  16 # energy    1.72233150 # occ.  0.00000000
 
ion      s     py     pz     px    dxy    dyz    dz2    dxz    dx2    tot
  1  0.000  0.000  0.004  0.000  0.000  0.000  0.000  0.000  0.000  0.004
  2  0.000  0.000  0.004  0.000  0.000  0.000  0.000  0.000  0.000  0.004
tot  0.000  0.000  0.008  0.000  0.000  0.000  0.000  0.000  0.000  0.008
 
# of k-points:    1         # of bands:  16         # of ions:   2

 k-point    1 :    0.00000000 0.00000000 0.00000000     weight = 1.00000000

band   1 # energy  -31.30107740 # occ.  1.00000000
 
ion      s     py     pz     px    dxy    dyz    dz2    dxz    dx2    tot
  1  0.398  0.000  0.000  0.106  0.000  0.000  0.000  0.000  0.000  0.504
  2  0.398  0.000  0.000  0.106  0.000  0.000  0.000  0.000  0.000  0.504
tot  0.796  0.000  0.000  0.211  0.000  0.000  0.000  0.000  0.000  1.008
 
band   2 # energy  -18.85500108 # occ.  1.00000000
 
ion      s     py     pz     px    dxy    dyz    dz2    dxz    dx2    tot
  1  0.369  0.000  0.000  0.045  0.000  0.000  0.000  0.000  0.000  0.414
  2  0.369  0.000  0.000  0.045  0.000  0.000  0.000  0.000  0.000  0.414
tot  0.737  0.000  0.000  0.090  0.000  0.000  0.000  0.000  0.000  0.827
 
band   3 # energy  -12.49046537 # occ.  1.00000000
 
ion      s     py     pz     px    dxy    dyz    dz2    dxz    dx2    tot
  1  0.047  0.000  0.000  0.371  0.000  0.000  0.000  0.000  0.000  0.417
  2  0.047  0.000  0.000  0.371  0.000  0.000  0.000  0.000  0.000  0.417
tot  0.094  0.000  0.000  0.741  0.000  0.000  0.000  0.000  0.000  0.835
 
band   4 # energy  -11.42579428 # occ.  1.00000000
 
ion      s     py     pz     px    dxy    dyz    dz2    dxz    dx2    tot
  1  0.000  0.000  0.360  0.000  0.000  0.000  0.000  0.000  0.000  0.360
  2  0.000  0.000  0.360  0.000  0.000  0.000  0.000  0.000  0.000  0.360
tot  0.000  0.000  0.720  0.000  0.000  0.000  0.000  0.000  0.000  0.720
 
band   5 # energy  -11.42578432 # occ.  1.00000000
 
ion      s     py     pz     px    dxy    dyz    dz2    dxz    dx2    tot
  1  0.000  0.360  0.000  0.000  0.000  0.000  0.000  0.000  0.000  0.360
  2  0.000  0.360  0.000  0.000  0.000  0.000  0.000  0.000  0.000  0.360
tot  0.000  0.720  0.000  0.000  0.000  0.000  0.000  0.000  0.000  0.720
 
band   6 # energy   -4.67462411 # occ.  0.00000000
 
ion      s     py     pz     px    dxy    dyz    dz2    dxz    dx2    tot
  1  0.000  0.000  0.374  0.000  0.000  0.000  0.000  0.000  0.000  0.374
  2  0.000  0.000  0.374  0.000  0.000  0.000  0.000  0.000  0.000  0.374
tot  0.000  0.000  0.749  0.000  0.000  0.000  0.000  0.000  0.000  0.749
 
band   7 # energy   -4.67461562 # occ.  0.00000000
 
ion      s     py     pz     px    dxy    dyz    dz2    dxz    dx2    tot
  1  0.000  0.374  0.000  0.000  0.000  0.000  0.000  0.000  0.000  0.374
  2  0.000  0.374  0.000  0.000  0.000  0.000  0.000  0.000  0.000  0.374
tot  0.000  0.749  0.000  0.000  0.000  0.000  0.000  0.000  0.000  0.749
 
band   8 # energy   -0.17775045 # occ.  0.00000000
 
ion      s     py     pz     px    dxy    dyz    dz2    dxz    dx2    tot
  1  0.003  0.000  0.000  0.002  0.000  0.000  0.000  0.000  0.000  0.005
  2  0.003  0.000  0.000  0.002  0.000  0.000  0.000  0.000  0.000  0.005
tot  0.006  0.000  0.000  0.004  0.000  0.000  0.000  0.000  0.000  0.010
 
band   9 # energy    0.74810146 # occ.  0.00000000
 
ion      s     py     pz     px    dxy    dyz    dz2    dxz    dx2    tot
  1  0.005  0.000  0.000  0.002  0.000  0.000  0.000  0.000  0.000  0.007
  2  0.005  0.000  0.000  0.002  0.000  0.000  0.000  0.000  0.000  0.007
tot  0.009  0.000  0.000  0.004  0.000  0.000  0.000  0.000  0.000  0.014
 
band  10 # energy    0.76344841 # occ.  0.00000000
 
ion      s     py     pz     px    dxy    dyz    dz2    dxz    dx2    tot
  1  0.008  0.000  0.000  0.004  0.000  0.000  0.000  0.000  0.000  0.012
  2  0.008  0.000  0.000  0.004  0.000  0.000  0.000  0.000  0.000  0.012
tot  0.016  0.000  0.000  0.009  0.000  0.000  0.000  0.000  0.000  0.025
 
band  11 # energy    0.87429353 # occ.  0.00000000
 
ion      s     py     pz     px    dxy    dyz    dz2    dxz    dx2    tot
  1  0.000  0.000  0.003  0.000  0.000  0.000  0.000  0.000  0.000  0.003
  2  0.000  0.000  0.003  0.000  0.000  0.000  0.000  0.000  0.000  0.003
tot  0.000  0.000  0.007  0.000  0.000  0.000  0.000  0.000  0.000  0.007
 
band  12 # energy    0.87784694 # occ.  0.00000000
 
ion      s     py     pz     px    dxy    dyz    dz2    dxz    dx2    tot
  1  0.000  0.003  0.000  0.000  0.000  0.000  0.000  0.000  0.000  0.004
  2  0.000  0.003  0.000  0.000  0.000  0.000  0.000  0.000  0.000  0.004
tot  0.001  0.007  0.000  0.000  0.000  0.000  0.000  0.000  0.000  0.008
 
band  13 # energy    0.99863970 # occ.  0.00000000
 
ion      s     py     pz     px    dxy    dyz    dz2    dxz    dx2    tot
  1  0.000  0.000  0.000  0.000  0.000  0.000  0.000  0.000  0.000  0.000
  2  0.000  0.000  0.000  0.000  0.000  0.000  0.000  0.000  0.000  0.000
tot  0.000  0.000  0.000  0.001  0.000  0.000  0.000  0.000  0.000  0.001
 
band  14 # energy    1.00511079 # occ.  0.00000000
 
ion      s     py     pz     px    dxy    dyz    dz2    dxz    dx2    tot
  1  0.000  0.000  0.000  0.000  0.000  0.000  0.000  0.000  0.000  0.000
  2  0.000  0.000  0.000  0.000  0.000  0.000  0.000  0.000  0.000  0.000
tot  0.000  0.000  0.000  0.000  0.000  0.000  0.000  0.000  0.000  0.000
 
band  15 # energy    1.64572621 # occ.  0.00000000
 
ion      s     py     pz     px    dxy    dyz    dz2    dxz    dx2    tot
  1  0.009  0.000  0.000  0.009  0.000  0.000  0.000  0.000  0.000  0.019
  2  0.009  0.000  0.000  0.009  0.000  0.000  0.000  0.000  0.000  0.019
tot  0.019  0.000  0.000  0.018  0.000  0.000  0.000  0.000  0.000  0.037
 
band  16 # energy    1.80699004 # occ.  0.00000000
 
ion      s     py     pz     px    dxy    dyz    dz2    dxz    dx2    tot
  1  0.000  0.000  0.005  0.000  0.000  0.000  0.000  0.000  0.000  0.005
  2  0.000  0.000  0.005  0.000  0.000  0.000  0.000  0.000  0.000  0.005
tot  0.000  0.000  0.009  0.000  0.000  0.000  0.000  0.000  0.000  0.009
 
