<?xml version="1.0" encoding="ISO-8859-1"?>
<modeling>
 <generator>
  <i name="program" type="string">vasp </i>
  <i name="version" type="string">5.4.1  </i>
  <i name="subversion" type="string">05Feb16 (build Feb 08 2018 09:21:51) complex                          parallel </i>
  <i name="platform" type="string">LinuxIFC </i>
  <i name="date" type="string">2019 11 08 </i>
  <i name="time" type="string">08:46:59 </i>
 </generator>
 <incar>
  <i type="string" name="PREC">normal</i>
  <i type="int" name="ISPIN">     2</i>
  <i type="int" name="IBRION">     6</i>
  <i type="int" name="NFREE">     2</i>
  <i type="int" name="NSW">    20</i>
  <i name="ENCUT">    400.00000000</i>
  <i name="POTIM">      0.01000000</i>
  <v name="MAGMOM">      0.00000000      0.00000000</v>
  <i type="int" name="ISMEAR">     0</i>
  <i name="SIGMA">      0.01000000</i>
  <i type="logical" name="LWAVE"> F  </i>
  <i type="logical" name="LCHARG"> F  </i>
  <i type="logical" name="LORBIT"> F  </i>
  <v type="int" name="KPOINT_BSE">    -1     0     0     0</v>
 </incar>
 <kpoints>
  <generation param="Monkhorst-Pack">
   <v type="int" name="divisions">       1        1        1 </v>
   <v name="usershift">      0.00000000       0.00000000       0.00000000 </v>
   <v name="genvec1">      1.00000000       0.00000000       0.00000000 </v>
   <v name="genvec2">      0.00000000       1.00000000       0.00000000 </v>
   <v name="genvec3">      0.00000000       0.00000000       1.00000000 </v>
   <v name="shift">      0.00000000       0.00000000       0.00000000 </v>
  </generation>
  <varray name="kpointlist" >
   <v>       0.00000000       0.00000000       0.00000000 </v>
  </varray>
  <varray name="weights" >
   <v>       1.00000000 </v>
  </varray>
 </kpoints>
 <parameters>
  <separator name="general" >
   <i type="string" name="SYSTEM">unknown system</i>
   <i type="logical" name="LCOMPAT"> F  </i>
  </separator>
  <separator name="electronic" >
   <i type="string" name="PREC">normal</i>
   <i name="ENMAX">    400.00000000</i>
   <i name="ENAUG">    605.39200000</i>
   <i name="EDIFF">      0.00000100</i>
   <i type="int" name="IALGO">    38</i>
   <i type="int" name="IWAVPR">    11</i>
   <i type="int" name="NBANDS">    16</i>
   <i name="NELECT">     12.00000000</i>
   <i type="int" name="TURBO">     0</i>
   <i type="int" name="IRESTART">     0</i>
   <i type="int" name="NREBOOT">     0</i>
   <i type="int" name="NMIN">     0</i>
   <i name="EREF">      0.00000000</i>
   <separator name="electronic smearing" >
    <i type="int" name="ISMEAR">     0</i>
    <i name="SIGMA">      0.01000000</i>
    <i name="KSPACING">      0.50000000</i>
    <i type="logical" name="KGAMMA"> T  </i>
   </separator>
   <separator name="electronic projectors" >
    <i type="logical" name="LREAL"> F  </i>
    <v name="ROPT">      0.00000000</v>
    <i type="int" name="LMAXPAW">  -100</i>
    <i type="int" name="LMAXMIX">     2</i>
    <i type="logical" name="NLSPLINE"> F  </i>
   </separator>
   <separator name="electronic startup" >
    <i type="int" name="ISTART">     0</i>
    <i type="int" name="ICHARG">     2</i>
    <i type="int" name="INIWAV">     1</i>
   </separator>
   <separator name="electronic spin" >
    <i type="int" name="ISPIN">     2</i>
    <i type="logical" name="LNONCOLLINEAR"> F  </i>
    <v name="MAGMOM">      0.00000000      0.00000000</v>
    <i name="NUPDOWN">     -1.00000000</i>
    <i type="logical" name="LSORBIT"> F  </i>
    <v name="SAXIS">      0.00000000      0.00000000      1.00000000</v>
    <i type="logical" name="LSPIRAL"> F  </i>
    <v name="QSPIRAL">      0.00000000      0.00000000      0.00000000</v>
    <i type="logical" name="LZEROZ"> F  </i>
   </separator>
   <separator name="electronic exchange-correlation" >
    <i type="logical" name="LASPH"> F  </i>
    <i type="logical" name="LMETAGGA"> F  </i>
   </separator>
   <separator name="electronic convergence" >
    <i type="int" name="NELM">    60</i>
    <i type="int" name="NELMDL">    -5</i>
    <i type="int" name="NELMIN">     2</i>
    <i name="ENINI">    400.00000000</i>
    <separator name="electronic convergence detail" >
     <i type="logical" name="LDIAG"> T  </i>
     <i type="logical" name="LSUBROT"> F  </i>
     <i name="WEIMIN">      0.00100000</i>
     <i name="EBREAK">      0.00000002</i>
     <i name="DEPER">      0.30000000</i>
     <i type="int" name="NRMM">     4</i>
     <i name="TIME">      0.40000000</i>
    </separator>
   </separator>
   <separator name="electronic mixer" >
    <i name="AMIX">      0.40000000</i>
    <i name="BMIX">      1.00000000</i>
    <i name="AMIN">      0.10000000</i>
    <i name="AMIX_MAG">      1.60000000</i>
    <i name="BMIX_MAG">      1.00000000</i>
    <separator name="electronic mixer details" >
     <i type="int" name="IMIX">     4</i>
     <i type="logical" name="MIXFIRST"> F  </i>
     <i type="int" name="MAXMIX">   -45</i>
     <i name="WC">    100.00000000</i>
     <i type="int" name="INIMIX">     1</i>
     <i type="int" name="MIXPRE">     1</i>
     <i type="int" name="MREMOVE">     5</i>
    </separator>
   </separator>
   <separator name="electronic dipolcorrection" >
    <i type="logical" name="LDIPOL"> F  </i>
    <i type="logical" name="LMONO"> F  </i>
    <i type="int" name="IDIPOL">     0</i>
    <i name="EPSILON">      1.00000000</i>
    <v name="DIPOL">   -100.00000000   -100.00000000   -100.00000000</v>
    <i name="EFIELD">      0.00000000</i>
   </separator>
  </separator>
  <separator name="grids" >
   <i type="int" name="NGX">    60</i>
   <i type="int" name="NGY">    60</i>
   <i type="int" name="NGZ">    60</i>
   <i type="int" name="NGXF">   120</i>
   <i type="int" name="NGYF">   120</i>
   <i type="int" name="NGZF">   120</i>
   <i type="logical" name="ADDGRID"> F  </i>
  </separator>
  <separator name="ionic" >
   <i type="int" name="NSW">    60</i>
   <i type="int" name="IBRION">     6</i>
   <i type="int" name="ISIF">     2</i>
   <i name="PSTRESS">      0.00000000</i>
   <i name="EDIFFG">      0.00001000</i>
   <i type="int" name="NFREE">     2</i>
   <i name="POTIM">      0.01000000</i>
   <i name="SMASS">     -3.00000000</i>
   <i name="SCALEE">      1.00000000</i>
  </separator>
  <separator name="ionic md" >
   <i name="TEBEG">      0.00010000</i>
   <i name="TEEND">      0.00010000</i>
   <i type="int" name="NBLOCK">     1</i>
   <i type="int" name="KBLOCK">    20</i>
   <i type="int" name="NPACO">   256</i>
   <i name="APACO">     16.00000000</i>
  </separator>
  <separator name="symmetry" >
   <i type="int" name="ISYM">     2</i>
   <i name="SYMPREC">      0.00001000</i>
  </separator>
  <separator name="dos" >
   <i type="logical" name="LORBIT"> F  </i>
   <v name="RWIGS">     -1.00000000</v>
   <i type="int" name="NEDOS">   301</i>
   <i name="EMIN">     10.00000000</i>
   <i name="EMAX">    -10.00000000</i>
   <i name="EFERMI">      0.00000000</i>
  </separator>
  <separator name="writing" >
   <i type="int" name="NWRITE">     2</i>
   <i type="logical" name="LWAVE"> F  </i>
   <i type="logical" name="LCHARG"> F  </i>
   <i type="logical" name="LPARD"> F  </i>
   <i type="logical" name="LVTOT"> F  </i>
   <i type="logical" name="LVHAR"> F  </i>
   <i type="logical" name="LELF"> F  </i>
   <i type="logical" name="LOPTICS"> F  </i>
   <v name="STM">      0.00000000      0.00000000      0.00000000      0.00000000      0.00000000      0.00000000      0.00000000</v>
  </separator>
  <separator name="performance" >
   <i type="int" name="NPAR">     8</i>
   <i type="int" name="NSIM">     4</i>
   <i type="int" name="NBLK">    -1</i>
   <i type="logical" name="LPLANE"> T  </i>
   <i type="logical" name="LSCALAPACK"> F  </i>
   <i type="logical" name="LSCAAWARE"> F  </i>
   <i type="logical" name="LSCALU"> F  </i>
   <i type="logical" name="LASYNC"> F  </i>
   <i type="logical" name="LORBITALREAL"> F  </i>
  </separator>
  <separator name="miscellaneous" >
   <i type="int" name="IDIOT">     3</i>
   <i type="logical" name="LMUSIC"> F  </i>
   <v name="POMASS">     16.00000000</v>
   <v name="DARWINR">      0.00000000</v>
   <v name="DARWINV">      1.00000000</v>
   <i type="logical" name="LCORR"> T  </i>
  </separator>
  <i type="logical" name="GGA_COMPAT"> T  </i>
  <i type="logical" name="LBERRY"> F  </i>
  <i type="int" name="ICORELEVEL">     0</i>
  <i type="logical" name="LDAU"> F  </i>
  <i type="int" name="I_CONSTRAINED_M">     0</i>
  <separator name="electronic exchange-correlation" >
   <i type="string" name="GGA">--</i>
   <i type="int" name="VOSKOWN">     0</i>
   <i type="logical" name="LHFCALC"> F  </i>
   <i type="string" name="PRECFOCK"></i>
   <i type="logical" name="LSYMGRAD"> F  </i>
   <i type="logical" name="LHFONE"> F  </i>
   <i type="logical" name="LRHFCALC"> F  </i>
   <i type="logical" name="LTHOMAS"> F  </i>
   <i type="logical" name="LMODELHF"> F  </i>
   <i name="ENCUT4O">     -1.00000000</i>
   <i type="int" name="EXXOEP">     0</i>
   <i type="int" name="FOURORBIT">     0</i>
   <i name="AEXX">      0.00000000</i>
   <i name="HFALPHA">      0.00000000</i>
   <i name="MCALPHA">      0.00000000</i>
   <i name="ALDAX">      1.00000000</i>
   <i name="AGGAX">      1.00000000</i>
   <i name="ALDAC">      1.00000000</i>
   <i name="AGGAC">      1.00000000</i>
   <i type="int" name="NKREDX">     1</i>
   <i type="int" name="NKREDY">     1</i>
   <i type="int" name="NKREDZ">     1</i>
   <i type="logical" name="SHIFTRED"> F  </i>
   <i type="logical" name="ODDONLY"> F  </i>
   <i type="logical" name="EVENONLY"> F  </i>
   <i type="int" name="LMAXFOCK">     0</i>
   <i type="int" name="NMAXFOCKAE">     0</i>
   <i type="logical" name="LFOCKAEDFT"> F  </i>
   <i name="HFSCREEN">      0.00000000</i>
   <i name="HFSCREENC">      0.00000000</i>
   <i type="int" name="NBANDSGWLOW">     0</i>
  </separator>
  <separator name="vdW DFT" >
   <i type="logical" name="LUSE_VDW"> F  </i>
   <i name="Zab_VDW">     -0.84910000</i>
   <i name="PARAM1">      0.12340000</i>
   <i name="PARAM2">      1.00000000</i>
   <i name="PARAM3">      0.00000000</i>
  </separator>
  <separator name="model GW" >
   <i type="int" name="MODEL_GW">     0</i>
   <i name="MODEL_EPS0">    518.40000000</i>
   <i name="MODEL_ALPHA">      1.00000000</i>
  </separator>
  <separator name="linear response parameters" >
   <i type="logical" name="LEPSILON"> F  </i>
   <i type="logical" name="LRPA"> F  </i>
   <i type="logical" name="LNABLA"> F  </i>
   <i type="logical" name="LVEL"> F  </i>
   <i type="int" name="KINTER">     0</i>
   <i name="CSHIFT">      0.10000000</i>
   <i name="OMEGAMAX">     -1.00000000</i>
   <i name="DEG_THRESHOLD">      0.00200000</i>
  </separator>
  <separator name="orbital magnetization" >
   <i type="logical" name="NUCIND"> F  </i>
   <v name="MAGPOS">      0.00000000      0.00000000      0.00000000</v>
   <i type="logical" name="LNICSALL"> T  </i>
   <i type="logical" name="ORBITALMAG"> F  </i>
   <i type="logical" name="LMAGBLOCH"> F  </i>
   <i type="logical" name="LCHIMAG"> F  </i>
   <i type="logical" name="LGAUGE"> T  </i>
   <i type="int" name="MAGATOM">     0</i>
   <v name="MAGDIPOL">      0.00000000      0.00000000      0.00000000</v>
   <v name="AVECCONST">      0.00000000      0.00000000      0.00000000</v>
  </separator>
  <separator name="response functions" >
   <i type="logical" name="LADDER"> F  </i>
   <i type="logical" name="LFXC"> F  </i>
   <i type="logical" name="LHARTREE"> T  </i>
   <i type="int" name="IBSE">     0</i>
   <v type="int" name="KPOINT">    -1     0     0     0</v>
   <i type="logical" name="LTCTE"> F  </i>
   <i type="logical" name="LTETE"> F  </i>
   <i type="logical" name="LTRIPLET"> F  </i>
   <i type="logical" name="LFXCEPS"> F  </i>
   <i type="logical" name="LFXHEG"> F  </i>
   <i type="int" name="NATURALO">     0</i>
   <i type="logical" name="L2ORDER"> F  </i>
   <i type="logical" name="LUSEW"> F  </i>
   <i name="ENCUTGW">     -2.00000000</i>
   <i name="ENCUTGWSOFT">     -2.00000000</i>
   <i name="ENCUTLF">     -1.00000000</i>
   <i type="int" name="LMAXMP2">    -1</i>
   <i name="SCISSOR">      0.00000000</i>
   <i type="int" name="NOMEGA">     0</i>
   <i type="int" name="NOMEGAR">     0</i>
   <i type="int" name="NBANDSGW">    -1</i>
   <i type="int" name="NBANDSO">    -1</i>
   <i type="int" name="NBANDSV">    -1</i>
   <i type="int" name="NELM">     1</i>
   <i type="int" name="NELMHF">     1</i>
   <i type="int" name="DIM">     3</i>
   <i type="int" name="ANTIRES">     0</i>
   <i name="OMEGAMAX">    -30.00000000</i>
   <i name="OMEGAMIN">    -30.00000000</i>
   <i name="OMEGATL">   -200.00000000</i>
   <i type="int" name="OMEGAGRID">     0</i>
   <i name="CSHIFT">     -0.10000000</i>
   <i type="logical" name="SELFENERGY"> F  </i>
   <i type="logical" name="LSPECTRAL"> F  </i>
   <i type="logical" name="LSPECTRALGW"> F  </i>
   <i type="logical" name="LSINGLES"> F  </i>
   <i type="logical" name="LFERMIGW"> F  </i>
   <i type="logical" name="ODDONLYGW"> F  </i>
   <i type="logical" name="EVENONLYGW"> F  </i>
   <i type="int" name="NKREDLFX">     1</i>
   <i type="int" name="NKREDLFY">     1</i>
   <i type="int" name="NKREDLFZ">     1</i>
   <i type="int" name="MAXMEM">  1800</i>
   <i type="int" name="TELESCOPE">     0</i>
   <i type="int" name="TAUPAR">     1</i>
   <i type="int" name="OMEGAPAR">    -1</i>
   <i name="LAMBDA">      1.00000000</i>
  </separator>
  <separator name="External order field" >
   <i name="OFIELD_KAPPA">      0.00000000</i>
   <v name="OFIELD_K">      0.00000000      0.00000000      0.00000000</v>
   <i name="OFIELD_Q6_NEAR">      0.00000000</i>
   <i name="OFIELD_Q6_FAR">      0.00000000</i>
   <i name="OFIELD_A">      0.00000000</i>
  </separator>
 </parameters>
 <atominfo>
  <atoms>       2 </atoms>
  <types>       1 </types>
  <array name="atoms" >
   <dimension dim="1">ion</dimension>
   <field type="string">element</field>
   <field type="int">atomtype</field>
   <set>
    <rc><c>O </c><c>   1</c></rc>
    <rc><c>O </c><c>   1</c></rc>
   </set>
  </array>
  <array name="atomtypes" >
   <dimension dim="1">type</dimension>
   <field type="int">atomspertype</field>
   <field type="string">element</field>
   <field>mass</field>
   <field>valence</field>
   <field type="string">pseudopotential</field>
   <set>
    <rc><c>   2</c><c>O </c><c>     16.00000000</c><c>      6.00000000</c><c>  PAW_PBE O 08Apr2002                   </c></rc>
   </set>
  </array>
 </atominfo>
 <structure name="initialpos" >
  <crystal>
   <varray name="basis" >
    <v>      12.00000000       0.00000000       0.00000000 </v>
    <v>       0.00000000      12.00000000       0.00000000 </v>
    <v>       0.00000000       0.00000000      12.00000000 </v>
   </varray>
   <i name="volume">   1728.00000000 </i>
   <varray name="rec_basis" >
    <v>       0.08333333       0.00000000       0.00000000 </v>
    <v>       0.00000000       0.08333333       0.00000000 </v>
    <v>       0.00000000       0.00000000       0.08333333 </v>
   </varray>
  </crystal>
  <varray name="positions" >
   <v>       0.44859250       0.50000000       0.50000000 </v>
   <v>       0.55140750       0.50000000       0.50000000 </v>
  </varray>
 </structure>
 <calculation>
  <scstep>
   <time name="dav">    0.30    0.30</time>
   <time name="total">    0.69    0.69</time>
   <energy>
    <i name="alphaZ">      0.32165383 </i>
    <i name="ewald">    175.99851768 </i>
    <i name="hartreedc">   -903.36520227 </i>
    <i name="XCdc">     54.34440214 </i>
    <i name="pawpsdc">    693.09895092 </i>
    <i name="pawaedc">   -696.69629226 </i>
    <i name="eentropy">     -0.00000000 </i>
    <i name="bandstr">   -111.34031795 </i>
    <i name="atom">    864.52639207 </i>
    <i name="e_fr_energy">     76.88810417 </i>
    <i name="e_wo_entrp">     76.88810417 </i>
    <i name="e_0_energy">     76.88810417 </i>
   </energy>
  </scstep>
  <scstep>
   <time name="dav">    0.26    0.26</time>
   <time name="total">    0.26    0.26</time>
   <energy>
    <i name="e_fr_energy">      8.52093334 </i>
    <i name="e_wo_entrp">      8.52339988 </i>
    <i name="e_0_energy">      8.52216661 </i>
   </energy>
  </scstep>
  <scstep>
   <time name="dav">    0.31    0.31</time>
   <time name="total">    0.31    0.32</time>
   <energy>
    <i name="e_fr_energy">     -7.91817178 </i>
    <i name="e_wo_entrp">     -7.91817178 </i>
    <i name="e_0_energy">     -7.91817178 </i>
   </energy>
  </scstep>
  <scstep>
   <time name="dav">    0.24    0.24</time>
   <time name="total">    0.24    0.24</time>
   <energy>
    <i name="e_fr_energy">     -8.99563720 </i>
    <i name="e_wo_entrp">     -8.99084210 </i>
    <i name="e_0_energy">     -8.99323965 </i>
   </energy>
  </scstep>
  <scstep>
   <time name="dav">    0.24    0.24</time>
   <time name="total">    0.34    0.34</time>
   <energy>
    <i name="e_fr_energy">     -9.03135095 </i>
    <i name="e_wo_entrp">     -9.02010561 </i>
    <i name="e_0_energy">     -9.02572828 </i>
   </energy>
  </scstep>
  <scstep>
   <time name="dav">    0.21    0.21</time>
   <time name="total">    0.62    0.62</time>
   <energy>
    <i name="e_fr_energy">     -8.78110395 </i>
    <i name="e_wo_entrp">     -8.77073885 </i>
    <i name="e_0_energy">     -8.77592140 </i>
   </energy>
  </scstep>
  <scstep>
   <time name="dav">    0.23    0.23</time>
   <time name="total">    0.62    0.62</time>
   <energy>
    <i name="e_fr_energy">     -8.82162826 </i>
    <i name="e_wo_entrp">     -8.82162826 </i>
    <i name="e_0_energy">     -8.82162826 </i>
   </energy>
  </scstep>
  <scstep>
   <time name="dav">    0.22    0.22</time>
   <time name="total">    0.63    0.63</time>
   <energy>
    <i name="e_fr_energy">     -7.55457441 </i>
    <i name="e_wo_entrp">     -7.55457441 </i>
    <i name="e_0_energy">     -7.55457441 </i>
   </energy>
  </scstep>
  <scstep>
   <time name="dav">    0.27    0.27</time>
   <time name="total">    0.67    0.67</time>
   <energy>
    <i name="e_fr_energy">     -8.91368874 </i>
    <i name="e_wo_entrp">     -8.91368874 </i>
    <i name="e_0_energy">     -8.91368874 </i>
   </energy>
  </scstep>
  <scstep>
   <time name="dav">    0.25    0.25</time>
   <time name="total">    0.68    0.70</time>
   <energy>
    <i name="e_fr_energy">     -7.92530308 </i>
    <i name="e_wo_entrp">     -7.92530308 </i>
    <i name="e_0_energy">     -7.92530308 </i>
   </energy>
  </scstep>
  <scstep>
   <time name="dav">    0.20    0.20</time>
   <time name="total">    0.58    0.58</time>
   <energy>
    <i name="e_fr_energy">     -8.54422133 </i>
    <i name="e_wo_entrp">     -8.54422133 </i>
    <i name="e_0_energy">     -8.54422133 </i>
   </energy>
  </scstep>
  <scstep>
   <time name="dav">    0.20    0.20</time>
   <time name="total">    0.58    0.58</time>
   <energy>
    <i name="e_fr_energy">     -8.59056668 </i>
    <i name="e_wo_entrp">     -8.59056668 </i>
    <i name="e_0_energy">     -8.59056668 </i>
   </energy>
  </scstep>
  <scstep>
   <time name="dav">    0.19    0.19</time>
   <time name="total">    0.58    0.58</time>
   <energy>
    <i name="e_fr_energy">     -8.07757501 </i>
    <i name="e_wo_entrp">     -8.07712177 </i>
    <i name="e_0_energy">     -8.07734839 </i>
   </energy>
  </scstep>
  <scstep>
   <time name="dav">    0.25    0.25</time>
   <time name="total">    0.64    0.64</time>
   <energy>
    <i name="e_fr_energy">     -8.07868925 </i>
    <i name="e_wo_entrp">     -8.07868916 </i>
    <i name="e_0_energy">     -8.07868920 </i>
   </energy>
  </scstep>
  <scstep>
   <time name="dav">    0.24    0.24</time>
   <time name="total">    0.63    0.63</time>
   <energy>
    <i name="e_fr_energy">     -8.27844759 </i>
    <i name="e_wo_entrp">     -8.27844759 </i>
    <i name="e_0_energy">     -8.27844759 </i>
   </energy>
  </scstep>
  <scstep>
   <time name="dav">    0.24    0.24</time>
   <time name="total">    0.63    0.65</time>
   <energy>
    <i name="e_fr_energy">     -8.87022650 </i>
    <i name="e_wo_entrp">     -8.87022650 </i>
    <i name="e_0_energy">     -8.87022650 </i>
   </energy>
  </scstep>
  <scstep>
   <time name="dav">    0.19    0.19</time>
   <time name="total">    0.57    0.58</time>
   <energy>
    <i name="e_fr_energy">     -9.51653305 </i>
    <i name="e_wo_entrp">     -9.51653305 </i>
    <i name="e_0_energy">     -9.51653305 </i>
   </energy>
  </scstep>
  <scstep>
   <time name="dav">    0.22    0.22</time>
   <time name="total">    0.61    0.61</time>
   <energy>
    <i name="e_fr_energy">     -9.76413816 </i>
    <i name="e_wo_entrp">     -9.76413816 </i>
    <i name="e_0_energy">     -9.76413816 </i>
   </energy>
  </scstep>
  <scstep>
   <time name="dav">    0.20    0.20</time>
   <time name="total">    0.59    0.59</time>
   <energy>
    <i name="e_fr_energy">     -9.83651543 </i>
    <i name="e_wo_entrp">     -9.83651543 </i>
    <i name="e_0_energy">     -9.83651543 </i>
   </energy>
  </scstep>
  <scstep>
   <time name="dav">    0.24    0.24</time>
   <time name="total">    0.64    0.64</time>
   <energy>
    <i name="e_fr_energy">     -9.85751333 </i>
    <i name="e_wo_entrp">     -9.85751333 </i>
    <i name="e_0_energy">     -9.85751333 </i>
   </energy>
  </scstep>
  <scstep>
   <time name="dav">    0.25    0.25</time>
   <time name="total">    0.64    0.64</time>
   <energy>
    <i name="e_fr_energy">     -9.86392099 </i>
    <i name="e_wo_entrp">     -9.86392099 </i>
    <i name="e_0_energy">     -9.86392099 </i>
   </energy>
  </scstep>
  <scstep>
   <time name="dav">    0.19    0.19</time>
   <time name="total">    0.57    0.58</time>
   <energy>
    <i name="e_fr_energy">     -9.86398892 </i>
    <i name="e_wo_entrp">     -9.86398892 </i>
    <i name="e_0_energy">     -9.86398892 </i>
   </energy>
  </scstep>
  <scstep>
   <time name="dav">    0.19    0.19</time>
   <time name="total">    0.58    0.58</time>
   <energy>
    <i name="e_fr_energy">     -9.86437021 </i>
    <i name="e_wo_entrp">     -9.86437021 </i>
    <i name="e_0_energy">     -9.86437021 </i>
   </energy>
  </scstep>
  <scstep>
   <time name="dav">    0.21    0.21</time>
   <time name="total">    0.60    0.60</time>
   <energy>
    <i name="e_fr_energy">     -9.86450214 </i>
    <i name="e_wo_entrp">     -9.86450214 </i>
    <i name="e_0_energy">     -9.86450214 </i>
   </energy>
  </scstep>
  <scstep>
   <time name="dav">    0.22    0.22</time>
   <time name="total">    0.61    0.61</time>
   <energy>
    <i name="e_fr_energy">     -9.86469159 </i>
    <i name="e_wo_entrp">     -9.86469159 </i>
    <i name="e_0_energy">     -9.86469159 </i>
   </energy>
  </scstep>
  <scstep>
   <time name="dav">    0.21    0.21</time>
   <time name="total">    0.60    0.60</time>
   <energy>
    <i name="e_fr_energy">     -9.86472681 </i>
    <i name="e_wo_entrp">     -9.86472681 </i>
    <i name="e_0_energy">     -9.86472681 </i>
   </energy>
  </scstep>
  <scstep>
   <time name="dav">    0.21    0.21</time>
   <time name="total">    0.59    0.60</time>
   <energy>
    <i name="e_fr_energy">     -9.86474789 </i>
    <i name="e_wo_entrp">     -9.86474789 </i>
    <i name="e_0_energy">     -9.86474789 </i>
   </energy>
  </scstep>
  <scstep>
   <time name="dav">    0.19    0.19</time>
   <time name="total">    0.59    0.59</time>
   <energy>
    <i name="e_fr_energy">     -9.86476508 </i>
    <i name="e_wo_entrp">     -9.86476508 </i>
    <i name="e_0_energy">     -9.86476508 </i>
   </energy>
  </scstep>
  <scstep>
   <time name="dav">    0.21    0.21</time>
   <time name="total">    0.61    0.61</time>
   <energy>
    <i name="e_fr_energy">     -9.86477315 </i>
    <i name="e_wo_entrp">     -9.86477315 </i>
    <i name="e_0_energy">     -9.86477315 </i>
   </energy>
  </scstep>
  <scstep>
   <time name="dav">    0.23    0.23</time>
   <time name="total">    0.63    0.63</time>
   <energy>
    <i name="e_fr_energy">     -9.86477726 </i>
    <i name="e_wo_entrp">     -9.86477726 </i>
    <i name="e_0_energy">     -9.86477726 </i>
   </energy>
  </scstep>
  <scstep>
   <time name="dav">    0.21    0.21</time>
   <time name="total">    0.61    0.61</time>
   <energy>
    <i name="e_fr_energy">     -9.86477858 </i>
    <i name="e_wo_entrp">     -9.86477858 </i>
    <i name="e_0_energy">     -9.86477858 </i>
   </energy>
  </scstep>
  <scstep>
   <time name="dav">    0.19    0.19</time>
   <time name="total">    0.59    0.59</time>
   <energy>
    <i name="e_fr_energy">     -9.86477978 </i>
    <i name="e_wo_entrp">     -9.86477978 </i>
    <i name="e_0_energy">     -9.86477978 </i>
   </energy>
  </scstep>
  <scstep>
   <time name="dav">    0.22    0.22</time>
   <time name="total">    0.63    0.63</time>
   <energy>
    <i name="e_fr_energy">     -9.86478092 </i>
    <i name="e_wo_entrp">     -9.86478092 </i>
    <i name="e_0_energy">     -9.86478092 </i>
   </energy>
  </scstep>
  <scstep>
   <time name="dav">    0.19    0.19</time>
   <time name="total">    0.48    0.49</time>
   <energy>
    <i name="alphaZ">      0.32165383 </i>
    <i name="ewald">    175.99851768 </i>
    <i name="hartreedc">   -910.00979147 </i>
    <i name="XCdc">     55.33070263 </i>
    <i name="pawpsdc">    898.53624840 </i>
    <i name="pawaedc">   -902.03794669 </i>
    <i name="eentropy">     -0.00000000 </i>
    <i name="bandstr">   -192.53055781 </i>
    <i name="atom">    864.52639207 </i>
    <i name="e_fr_energy">     -9.86478135 </i>
    <i name="e_wo_entrp">     -9.86478135 </i>
    <i name="e_0_energy">     -9.86478135 </i>
   </energy>
  </scstep>
  <structure>
   <crystal>
    <varray name="basis" >
     <v>      12.00000000       0.00000000       0.00000000 </v>
     <v>       0.00000000      12.00000000       0.00000000 </v>
     <v>       0.00000000       0.00000000      12.00000000 </v>
    </varray>
    <i name="volume">   1728.00000000 </i>
    <varray name="rec_basis" >
     <v>       0.08333333       0.00000000       0.00000000 </v>
     <v>       0.00000000       0.08333333       0.00000000 </v>
     <v>       0.00000000       0.00000000       0.08333333 </v>
    </varray>
   </crystal>
   <varray name="positions" >
    <v>       0.44859250       0.50000000       0.50000000 </v>
    <v>       0.55140750       0.50000000       0.50000000 </v>
   </varray>
  </structure>
  <varray name="forces" >
   <v>      -0.02609367      -0.00000000      -0.00000000 </v>
   <v>       0.02609367       0.00000000       0.00000000 </v>
  </varray>
  <varray name="stress" >
   <v>      -1.05223075       0.00000000       0.00000000 </v>
   <v>      -0.00000000      -1.42592520       0.00000000 </v>
   <v>       0.00000000      -0.00000000      -1.42592520 </v>
  </varray>
  <energy>
   <i name="e_fr_energy">     -9.86478135 </i>
   <i name="e_wo_entrp">     -9.86478135 </i>
   <i name="e_0_energy">     -0.00000000 </i>
  </energy>
  <kpoints>
   <generation param="Monkhorst-Pack">
    <v type="int" name="divisions">       1        1        1 </v>
    <v name="usershift">      0.00000000       0.00000000       0.00000000 </v>
    <v name="genvec1">      1.00000000       0.00000000       0.00000000 </v>
    <v name="genvec2">      0.00000000       1.00000000       0.00000000 </v>
    <v name="genvec3">      0.00000000       0.00000000       1.00000000 </v>
    <v name="shift">      0.00000000       0.00000000       0.00000000 </v>
   </generation>
   <varray name="kpointlist" >
    <v>       0.00000000       0.00000000       0.00000000 </v>
   </varray>
   <varray name="weights" >
    <v>       1.00000000 </v>
   </varray>
  </kpoints>
  <time name="totalsc">   20.43   20.56</time>
 </calculation>
 <calculation>
  <scstep>
   <time name="dav">    0.31    0.31</time>
   <time name="total">    0.71    0.71</time>
   <energy>
    <i name="alphaZ">      0.32165383 </i>
    <i name="ewald">    179.41593992 </i>
    <i name="hartreedc">   -912.51193660 </i>
    <i name="XCdc">     55.37556128 </i>
    <i name="pawpsdc">    898.53585800 </i>
    <i name="pawaedc">   -902.03755406 </i>
    <i name="eentropy">     -0.00000000 </i>
    <i name="bandstr">   -193.48597828 </i>
    <i name="atom">    864.52639207 </i>
    <i name="e_fr_energy">     -9.86006383 </i>
    <i name="e_wo_entrp">     -9.86006383 </i>
    <i name="e_0_energy">     -9.86006383 </i>
   </energy>
  </scstep>
  <scstep>
   <time name="dav">    0.23    0.23</time>
   <time name="total">    0.64    0.64</time>
   <energy>
    <i name="e_fr_energy">     -9.85888164 </i>
    <i name="e_wo_entrp">     -9.85888164 </i>
    <i name="e_0_energy">     -9.85888164 </i>
   </energy>
  </scstep>
  <scstep>
   <time name="dav">    0.26    0.27</time>
   <time name="total">    0.67    0.68</time>
   <energy>
    <i name="e_fr_energy">     -9.86038209 </i>
    <i name="e_wo_entrp">     -9.86038209 </i>
    <i name="e_0_energy">     -9.86038209 </i>
   </energy>
  </scstep>
  <scstep>
   <time name="dav">    0.26    0.26</time>
   <time name="total">    0.67    0.67</time>
   <energy>
    <i name="e_fr_energy">     -9.86060389 </i>
    <i name="e_wo_entrp">     -9.86060389 </i>
    <i name="e_0_energy">     -9.86060389 </i>
   </energy>
  </scstep>
  <scstep>
   <time name="dav">    0.25    0.25</time>
   <time name="total">    0.66    0.67</time>
   <energy>
    <i name="e_fr_energy">     -9.86072620 </i>
    <i name="e_wo_entrp">     -9.86072620 </i>
    <i name="e_0_energy">     -9.86072620 </i>
   </energy>
  </scstep>
  <scstep>
   <time name="dav">    0.26    0.26</time>
   <time name="total">    0.68    0.69</time>
   <energy>
    <i name="e_fr_energy">     -9.86076772 </i>
    <i name="e_wo_entrp">     -9.86076772 </i>
    <i name="e_0_energy">     -9.86076772 </i>
   </energy>
  </scstep>
  <scstep>
   <time name="dav">    0.23    0.23</time>
   <time name="total">    0.64    0.64</time>
   <energy>
    <i name="e_fr_energy">     -9.86078055 </i>
    <i name="e_wo_entrp">     -9.86078055 </i>
    <i name="e_0_energy">     -9.86078055 </i>
   </energy>
  </scstep>
  <scstep>
   <time name="dav">    0.29    0.29</time>
   <time name="total">    0.70    0.71</time>
   <energy>
    <i name="e_fr_energy">     -9.86078547 </i>
    <i name="e_wo_entrp">     -9.86078547 </i>
    <i name="e_0_energy">     -9.86078547 </i>
   </energy>
  </scstep>
  <scstep>
   <time name="dav">    0.28    0.28</time>
   <time name="total">    0.70    0.70</time>
   <energy>
    <i name="e_fr_energy">     -9.86078918 </i>
    <i name="e_wo_entrp">     -9.86078918 </i>
    <i name="e_0_energy">     -9.86078918 </i>
   </energy>
  </scstep>
  <scstep>
   <time name="dav">    0.31    0.31</time>
   <time name="total">    0.72    0.73</time>
   <energy>
    <i name="e_fr_energy">     -9.86079069 </i>
    <i name="e_wo_entrp">     -9.86079069 </i>
    <i name="e_0_energy">     -9.86079069 </i>
   </energy>
  </scstep>
  <scstep>
   <time name="dav">    0.30    0.30</time>
   <time name="total">    0.73    0.75</time>
   <energy>
    <i name="e_fr_energy">     -9.86079309 </i>
    <i name="e_wo_entrp">     -9.86079309 </i>
    <i name="e_0_energy">     -9.86079309 </i>
   </energy>
  </scstep>
  <scstep>
   <time name="dav">    0.30    0.30</time>
   <time name="total">    0.72    0.72</time>
   <energy>
    <i name="e_fr_energy">     -9.86079504 </i>
    <i name="e_wo_entrp">     -9.86079504 </i>
    <i name="e_0_energy">     -9.86079504 </i>
   </energy>
  </scstep>
  <scstep>
   <time name="dav">    0.27    0.27</time>
   <time name="total">    0.59    0.59</time>
   <energy>
    <i name="alphaZ">      0.32165383 </i>
    <i name="ewald">    179.41593992 </i>
    <i name="hartreedc">   -912.98364043 </i>
    <i name="XCdc">     55.40516798 </i>
    <i name="pawpsdc">    906.25540608 </i>
    <i name="pawaedc">   -909.77201309 </i>
    <i name="eentropy">     -0.00000000 </i>
    <i name="bandstr">   -193.02970235 </i>
    <i name="atom">    864.52639207 </i>
    <i name="e_fr_energy">     -9.86079600 </i>
    <i name="e_wo_entrp">     -9.86079600 </i>
    <i name="e_0_energy">     -9.86079600 </i>
   </energy>
  </scstep>
  <structure>
   <crystal>
    <varray name="basis" >
     <v>      12.00000000       0.00000000       0.00000000 </v>
     <v>       0.00000000      12.00000000       0.00000000 </v>
     <v>       0.00000000       0.00000000      12.00000000 </v>
    </varray>
    <i name="volume">   1728.00000000 </i>
    <varray name="rec_basis" >
     <v>       0.08333333       0.00000000       0.00000000 </v>
     <v>       0.00000000       0.08333333       0.00000000 </v>
     <v>       0.00000000       0.00000000       0.08333333 </v>
    </varray>
   </crystal>
   <varray name="positions" >
    <v>       0.44942583       0.50000000       0.50000000 </v>
    <v>       0.55140750       0.50000000       0.50000000 </v>
   </varray>
  </structure>
  <varray name="forces" >
   <v>      -0.77698694      -0.00000000       0.00000000 </v>
   <v>       0.77698694       0.00000000      -0.00000000 </v>
  </varray>
  <varray name="stress" >
   <v>      -0.21880038       0.00000000      -0.00000000 </v>
   <v>       0.00000000      -1.42555156      -0.00000000 </v>
   <v>      -0.00000000      -0.00000000      -1.42555156 </v>
  </varray>
  <energy>
   <i name="e_fr_energy">     -9.86079600 </i>
   <i name="e_wo_entrp">     -9.86079600 </i>
   <i name="e_0_energy">     -0.00000000 </i>
  </energy>
  <kpoints>
   <generation param="Monkhorst-Pack">
    <v type="int" name="divisions">       1        1        1 </v>
    <v name="usershift">      0.00000000       0.00000000       0.00000000 </v>
    <v name="genvec1">      1.00000000       0.00000000       0.00000000 </v>
    <v name="genvec2">      0.00000000       1.00000000       0.00000000 </v>
    <v name="genvec3">      0.00000000       0.00000000       1.00000000 </v>
    <v name="shift">      0.00000000       0.00000000       0.00000000 </v>
   </generation>
   <varray name="kpointlist" >
    <v>       0.00000000       0.00000000       0.00000000 </v>
   </varray>
   <varray name="weights" >
    <v>       1.00000000 </v>
   </varray>
  </kpoints>
  <time name="totalsc">    9.89    9.98</time>
 </calculation>
 <calculation>
  <scstep>
   <time name="dav">    0.32    0.32</time>
   <time name="total">    0.73    0.73</time>
   <energy>
    <i name="alphaZ">      0.32165383 </i>
    <i name="ewald">    172.63644124 </i>
    <i name="hartreedc">   -908.00196952 </i>
    <i name="XCdc">     55.31676524 </i>
    <i name="pawpsdc">    906.25540447 </i>
    <i name="pawaedc">   -909.77201217 </i>
    <i name="eentropy">     -0.00000000 </i>
    <i name="bandstr">   -191.14147049 </i>
    <i name="atom">    864.52639207 </i>
    <i name="e_fr_energy">     -9.85879533 </i>
    <i name="e_wo_entrp">     -9.85879533 </i>
    <i name="e_0_energy">     -9.85879533 </i>
   </energy>
  </scstep>
  <scstep>
   <time name="dav">    0.23    0.23</time>
   <time name="total">    0.65    0.65</time>
   <energy>
    <i name="e_fr_energy">     -9.85513088 </i>
    <i name="e_wo_entrp">     -9.85513088 </i>
    <i name="e_0_energy">     -9.85513088 </i>
   </energy>
  </scstep>
  <scstep>
   <time name="dav">    0.27    0.27</time>
   <time name="total">    0.69    0.69</time>
   <energy>
    <i name="e_fr_energy">     -9.86017536 </i>
    <i name="e_wo_entrp">     -9.86017536 </i>
    <i name="e_0_energy">     -9.86017536 </i>
   </energy>
  </scstep>
  <scstep>
   <time name="dav">    0.29    0.29</time>
   <time name="total">    0.71    0.71</time>
   <energy>
    <i name="e_fr_energy">     -9.86096705 </i>
    <i name="e_wo_entrp">     -9.86096705 </i>
    <i name="e_0_energy">     -9.86096705 </i>
   </energy>
  </scstep>
  <scstep>
   <time name="dav">    0.23    0.23</time>
   <time name="total">    0.65    0.65</time>
   <energy>
    <i name="e_fr_energy">     -9.86131321 </i>
    <i name="e_wo_entrp">     -9.86131321 </i>
    <i name="e_0_energy">     -9.86131321 </i>
   </energy>
  </scstep>
  <scstep>
   <time name="dav">    0.33    0.33</time>
   <time name="total">    0.74    0.75</time>
   <energy>
    <i name="e_fr_energy">     -9.86144972 </i>
    <i name="e_wo_entrp">     -9.86144972 </i>
    <i name="e_0_energy">     -9.86144972 </i>
   </energy>
  </scstep>
  <scstep>
   <time name="dav">    0.23    0.23</time>
   <time name="total">    0.64    0.64</time>
   <energy>
    <i name="e_fr_energy">     -9.86147325 </i>
    <i name="e_wo_entrp">     -9.86147325 </i>
    <i name="e_0_energy">     -9.86147325 </i>
   </energy>
  </scstep>
  <scstep>
   <time name="dav">    0.29    0.29</time>
   <time name="total">    0.70    0.71</time>
   <energy>
    <i name="e_fr_energy">     -9.86148543 </i>
    <i name="e_wo_entrp">     -9.86148543 </i>
    <i name="e_0_energy">     -9.86148543 </i>
   </energy>
  </scstep>
  <scstep>
   <time name="dav">    0.31    0.31</time>
   <time name="total">    0.72    0.72</time>
   <energy>
    <i name="e_fr_energy">     -9.86149522 </i>
    <i name="e_wo_entrp">     -9.86149522 </i>
    <i name="e_0_energy">     -9.86149522 </i>
   </energy>
  </scstep>
  <scstep>
   <time name="dav">    0.29    0.29</time>
   <time name="total">    0.72    0.74</time>
   <energy>
    <i name="e_fr_energy">     -9.86150076 </i>
    <i name="e_wo_entrp">     -9.86150076 </i>
    <i name="e_0_energy">     -9.86150076 </i>
   </energy>
  </scstep>
  <scstep>
   <time name="dav">    0.31    0.31</time>
   <time name="total">    0.76    0.76</time>
   <energy>
    <i name="e_fr_energy">     -9.86150642 </i>
    <i name="e_wo_entrp">     -9.86150642 </i>
    <i name="e_0_energy">     -9.86150642 </i>
   </energy>
  </scstep>
  <scstep>
   <time name="dav">    0.31    0.31</time>
   <time name="total">    0.73    0.74</time>
   <energy>
    <i name="e_fr_energy">     -9.86150955 </i>
    <i name="e_wo_entrp">     -9.86150955 </i>
    <i name="e_0_energy">     -9.86150955 </i>
   </energy>
  </scstep>
  <scstep>
   <time name="dav">    0.27    0.27</time>
   <time name="total">    0.69    0.70</time>
   <energy>
    <i name="e_fr_energy">     -9.86151132 </i>
    <i name="e_wo_entrp">     -9.86151132 </i>
    <i name="e_0_energy">     -9.86151132 </i>
   </energy>
  </scstep>
  <scstep>
   <time name="dav">    0.27    0.27</time>
   <time name="total">    0.69    0.69</time>
   <energy>
    <i name="e_fr_energy">     -9.86151244 </i>
    <i name="e_wo_entrp">     -9.86151244 </i>
    <i name="e_0_energy">     -9.86151244 </i>
   </energy>
  </scstep>
  <scstep>
   <time name="dav">    0.27    0.27</time>
   <time name="total">    0.60    0.60</time>
   <energy>
    <i name="alphaZ">      0.32165383 </i>
    <i name="ewald">    172.63644124 </i>
    <i name="hartreedc">   -907.07104051 </i>
    <i name="XCdc">     55.25779043 </i>
    <i name="pawpsdc">    891.08106424 </i>
    <i name="pawaedc">   -894.56856212 </i>
    <i name="eentropy">     -0.00000000 </i>
    <i name="bandstr">   -192.04525233 </i>
    <i name="atom">    864.52639207 </i>
    <i name="e_fr_energy">     -9.86151313 </i>
    <i name="e_wo_entrp">     -9.86151313 </i>
    <i name="e_0_energy">     -9.86151313 </i>
   </energy>
  </scstep>
  <structure>
   <crystal>
    <varray name="basis" >
     <v>      12.00000000       0.00000000       0.00000000 </v>
     <v>       0.00000000      12.00000000       0.00000000 </v>
     <v>       0.00000000       0.00000000      12.00000000 </v>
    </varray>
    <i name="volume">   1728.00000000 </i>
    <varray name="rec_basis" >
     <v>       0.08333333       0.00000000       0.00000000 </v>
     <v>       0.00000000       0.08333333       0.00000000 </v>
     <v>       0.00000000       0.00000000       0.08333333 </v>
    </varray>
   </crystal>
   <varray name="positions" >
    <v>       0.44775917       0.50000000       0.50000000 </v>
    <v>       0.55140750       0.50000000       0.50000000 </v>
   </varray>
  </structure>
  <varray name="forces" >
   <v>       0.67068510      -0.00000000       0.00000000 </v>
   <v>      -0.67068510       0.00000000      -0.00000000 </v>
  </varray>
  <varray name="stress" >
   <v>      -1.84000127       0.00000000      -0.00000000 </v>
   <v>      -0.00000000      -1.42653318       0.00000000 </v>
   <v>       0.00000000       0.00000000      -1.42653318 </v>
  </varray>
  <energy>
   <i name="e_fr_energy">     -9.86151313 </i>
   <i name="e_wo_entrp">     -9.86151313 </i>
   <i name="e_0_energy">     -0.00000000 </i>
  </energy>
  <kpoints>
   <generation param="Monkhorst-Pack">
    <v type="int" name="divisions">       1        1        1 </v>
    <v name="usershift">      0.00000000       0.00000000       0.00000000 </v>
    <v name="genvec1">      1.00000000       0.00000000       0.00000000 </v>
    <v name="genvec2">      0.00000000       1.00000000       0.00000000 </v>
    <v name="genvec3">      0.00000000       0.00000000       1.00000000 </v>
    <v name="shift">      0.00000000       0.00000000       0.00000000 </v>
   </generation>
   <varray name="kpointlist" >
    <v>       0.00000000       0.00000000       0.00000000 </v>
   </varray>
   <varray name="weights" >
    <v>       1.00000000 </v>
   </varray>
  </kpoints>
  <time name="totalsc">   11.46   11.56</time>
 </calculation>
 <calculation>
  <scstep>
   <time name="dav">    0.31    0.31</time>
   <time name="total">    0.73    0.73</time>
   <energy>
    <i name="alphaZ">      0.32165383 </i>
    <i name="ewald">    175.98477707 </i>
    <i name="hartreedc">   -909.53877844 </i>
    <i name="XCdc">     55.30143056 </i>
    <i name="pawpsdc">    891.08102665 </i>
    <i name="pawaedc">   -894.56852490 </i>
    <i name="eentropy">     -0.00000000 </i>
    <i name="bandstr">   -192.97088432 </i>
    <i name="atom">    864.52639207 </i>
    <i name="e_fr_energy">     -9.86290748 </i>
    <i name="e_wo_entrp">     -9.86290748 </i>
    <i name="e_0_energy">     -9.86290748 </i>
   </energy>
  </scstep>
  <scstep>
   <time name="dav">    0.23    0.25</time>
   <time name="total">    0.65    0.68</time>
   <energy>
    <i name="e_fr_energy">     -9.86130183 </i>
    <i name="e_wo_entrp">     -9.86130183 </i>
    <i name="e_0_energy">     -9.86130183 </i>
   </energy>
  </scstep>
  <scstep>
   <time name="dav">    0.31    0.31</time>
   <time name="total">    0.73    0.74</time>
   <energy>
    <i name="e_fr_energy">     -9.86407837 </i>
    <i name="e_wo_entrp">     -9.86407837 </i>
    <i name="e_0_energy">     -9.86407837 </i>
   </energy>
  </scstep>
  <scstep>
   <time name="dav">    0.31    0.31</time>
   <time name="total">    0.73    0.73</time>
   <energy>
    <i name="e_fr_energy">     -9.86447077 </i>
    <i name="e_wo_entrp">     -9.86447077 </i>
    <i name="e_0_energy">     -9.86447077 </i>
   </energy>
  </scstep>
  <scstep>
   <time name="dav">    0.27    0.27</time>
   <time name="total">    0.69    0.69</time>
   <energy>
    <i name="e_fr_energy">     -9.86464649 </i>
    <i name="e_wo_entrp">     -9.86464649 </i>
    <i name="e_0_energy">     -9.86464649 </i>
   </energy>
  </scstep>
  <scstep>
   <time name="dav">    0.27    0.27</time>
   <time name="total">    0.69    0.69</time>
   <energy>
    <i name="e_fr_energy">     -9.86471471 </i>
    <i name="e_wo_entrp">     -9.86471471 </i>
    <i name="e_0_energy">     -9.86471471 </i>
   </energy>
  </scstep>
  <scstep>
   <time name="dav">    0.23    0.23</time>
   <time name="total">    0.65    0.65</time>
   <energy>
    <i name="e_fr_energy">     -9.86473134 </i>
    <i name="e_wo_entrp">     -9.86473134 </i>
    <i name="e_0_energy">     -9.86473134 </i>
   </energy>
  </scstep>
  <scstep>
   <time name="dav">    0.31    0.31</time>
   <time name="total">    0.73    0.73</time>
   <energy>
    <i name="e_fr_energy">     -9.86473834 </i>
    <i name="e_wo_entrp">     -9.86473834 </i>
    <i name="e_0_energy">     -9.86473834 </i>
   </energy>
  </scstep>
  <scstep>
   <time name="dav">    0.31    0.31</time>
   <time name="total">    0.73    0.73</time>
   <energy>
    <i name="e_fr_energy">     -9.86474234 </i>
    <i name="e_wo_entrp">     -9.86474234 </i>
    <i name="e_0_energy">     -9.86474234 </i>
   </energy>
  </scstep>
  <scstep>
   <time name="dav">    0.31    0.31</time>
   <time name="total">    0.73    0.73</time>
   <energy>
    <i name="e_fr_energy">     -9.86474409 </i>
    <i name="e_wo_entrp">     -9.86474409 </i>
    <i name="e_0_energy">     -9.86474409 </i>
   </energy>
  </scstep>
  <scstep>
   <time name="dav">    0.29    0.29</time>
   <time name="total">    0.74    0.74</time>
   <energy>
    <i name="e_fr_energy">     -9.86474642 </i>
    <i name="e_wo_entrp">     -9.86474642 </i>
    <i name="e_0_energy">     -9.86474642 </i>
   </energy>
  </scstep>
  <scstep>
   <time name="dav">    0.31    0.31</time>
   <time name="total">    0.72    0.72</time>
   <energy>
    <i name="e_fr_energy">     -9.86474791 </i>
    <i name="e_wo_entrp">     -9.86474791 </i>
    <i name="e_0_energy">     -9.86474791 </i>
   </energy>
  </scstep>
  <scstep>
   <time name="dav">    0.24    0.25</time>
   <time name="total">    0.68    0.68</time>
   <energy>
    <i name="e_fr_energy">     -9.86474906 </i>
    <i name="e_wo_entrp">     -9.86474906 </i>
    <i name="e_0_energy">     -9.86474906 </i>
   </energy>
  </scstep>
  <scstep>
   <time name="dav">    0.23    0.23</time>
   <time name="total">    0.54    0.54</time>
   <energy>
    <i name="alphaZ">      0.32165383 </i>
    <i name="ewald">    175.98477707 </i>
    <i name="hartreedc">   -909.99810028 </i>
    <i name="XCdc">     55.33045694 </i>
    <i name="pawpsdc">    898.50585066 </i>
    <i name="pawaedc">   -902.00750800 </i>
    <i name="eentropy">     -0.00000000 </i>
    <i name="bandstr">   -192.52827195 </i>
    <i name="atom">    864.52639207 </i>
    <i name="e_fr_energy">     -9.86474967 </i>
    <i name="e_wo_entrp">     -9.86474967 </i>
    <i name="e_0_energy">     -9.86474967 </i>
   </energy>
  </scstep>
  <structure>
   <crystal>
    <varray name="basis" >
     <v>      12.00000000       0.00000000       0.00000000 </v>
     <v>       0.00000000      12.00000000       0.00000000 </v>
     <v>       0.00000000       0.00000000      12.00000000 </v>
    </varray>
    <i name="volume">   1728.00000000 </i>
    <varray name="rec_basis" >
     <v>       0.08333333       0.00000000       0.00000000 </v>
     <v>       0.00000000       0.08333333       0.00000000 </v>
     <v>       0.00000000       0.00000000       0.08333333 </v>
    </varray>
   </crystal>
   <varray name="positions" >
    <v>       0.44859250       0.50083333       0.50000000 </v>
    <v>       0.55140750       0.50000000       0.50000000 </v>
   </varray>
  </structure>
  <varray name="forces" >
   <v>      -0.02314360      -0.00267226       0.00000000 </v>
   <v>       0.02314360       0.00267226       0.00000000 </v>
  </varray>
  <varray name="stress" >
   <v>      -1.05577467      -0.00327090       0.00000000 </v>
   <v>      -0.00327090      -1.42503407       0.00000000 </v>
   <v>       0.00000000       0.00000000      -1.42602543 </v>
  </varray>
  <energy>
   <i name="e_fr_energy">     -9.86474967 </i>
   <i name="e_wo_entrp">     -9.86474967 </i>
   <i name="e_0_energy">     -0.00000000 </i>
  </energy>
  <kpoints>
   <generation param="Monkhorst-Pack">
    <v type="int" name="divisions">       1        1        1 </v>
    <v name="usershift">      0.00000000       0.00000000       0.00000000 </v>
    <v name="genvec1">      1.00000000       0.00000000       0.00000000 </v>
    <v name="genvec2">      0.00000000       1.00000000       0.00000000 </v>
    <v name="genvec3">      0.00000000       0.00000000       1.00000000 </v>
    <v name="shift">      0.00000000       0.00000000       0.00000000 </v>
   </generation>
   <varray name="kpointlist" >
    <v>       0.00000000       0.00000000       0.00000000 </v>
   </varray>
   <varray name="weights" >
    <v>       1.00000000 </v>
   </varray>
  </kpoints>
  <time name="totalsc">   10.82   10.93</time>
 </calculation>
 <calculation>
  <scstep>
   <time name="dav">    0.23    0.23</time>
   <time name="total">    0.64    0.65</time>
   <energy>
    <i name="alphaZ">      0.32165383 </i>
    <i name="ewald">    175.98477707 </i>
    <i name="hartreedc">   -909.99497497 </i>
    <i name="XCdc">     55.33046324 </i>
    <i name="pawpsdc">    898.50577194 </i>
    <i name="pawaedc">   -902.00742956 </i>
    <i name="eentropy">     -0.00000000 </i>
    <i name="bandstr">   -192.52653189 </i>
    <i name="atom">    864.52639207 </i>
    <i name="e_fr_energy">     -9.85987828 </i>
    <i name="e_wo_entrp">     -9.85987828 </i>
    <i name="e_0_energy">     -9.85987828 </i>
   </energy>
  </scstep>
  <scstep>
   <time name="dav">    0.23    0.23</time>
   <time name="total">    0.65    0.65</time>
   <energy>
    <i name="e_fr_energy">     -9.85857041 </i>
    <i name="e_wo_entrp">     -9.85857041 </i>
    <i name="e_0_energy">     -9.85857041 </i>
   </energy>
  </scstep>
  <scstep>
   <time name="dav">    0.31    0.31</time>
   <time name="total">    0.72    0.73</time>
   <energy>
    <i name="e_fr_energy">     -9.86364605 </i>
    <i name="e_wo_entrp">     -9.86364605 </i>
    <i name="e_0_energy">     -9.86364605 </i>
   </energy>
  </scstep>
  <scstep>
   <time name="dav">    0.31    0.31</time>
   <time name="total">    0.72    0.73</time>
   <energy>
    <i name="e_fr_energy">     -9.86422294 </i>
    <i name="e_wo_entrp">     -9.86422294 </i>
    <i name="e_0_energy">     -9.86422294 </i>
   </energy>
  </scstep>
  <scstep>
   <time name="dav">    0.23    0.23</time>
   <time name="total">    0.64    0.65</time>
   <energy>
    <i name="e_fr_energy">     -9.86456603 </i>
    <i name="e_wo_entrp">     -9.86456603 </i>
    <i name="e_0_energy">     -9.86456603 </i>
   </energy>
  </scstep>
  <scstep>
   <time name="dav">    0.31    0.31</time>
   <time name="total">    0.73    0.73</time>
   <energy>
    <i name="e_fr_energy">     -9.86467484 </i>
    <i name="e_wo_entrp">     -9.86467484 </i>
    <i name="e_0_energy">     -9.86467484 </i>
   </energy>
  </scstep>
  <scstep>
   <time name="dav">    0.31    0.31</time>
   <time name="total">    0.73    0.73</time>
   <energy>
    <i name="e_fr_energy">     -9.86473306 </i>
    <i name="e_wo_entrp">     -9.86473306 </i>
    <i name="e_0_energy">     -9.86473306 </i>
   </energy>
  </scstep>
  <scstep>
   <time name="dav">    0.27    0.27</time>
   <time name="total">    0.69    0.69</time>
   <energy>
    <i name="e_fr_energy">     -9.86474596 </i>
    <i name="e_wo_entrp">     -9.86474596 </i>
    <i name="e_0_energy">     -9.86474596 </i>
   </energy>
  </scstep>
  <scstep>
   <time name="dav">    0.29    0.29</time>
   <time name="total">    0.71    0.73</time>
   <energy>
    <i name="e_fr_energy">     -9.86474779 </i>
    <i name="e_wo_entrp">     -9.86474779 </i>
    <i name="e_0_energy">     -9.86474779 </i>
   </energy>
  </scstep>
  <scstep>
   <time name="dav">    0.31    0.31</time>
   <time name="total">    0.73    0.73</time>
   <energy>
    <i name="e_fr_energy">     -9.86474884 </i>
    <i name="e_wo_entrp">     -9.86474884 </i>
    <i name="e_0_energy">     -9.86474884 </i>
   </energy>
  </scstep>
  <scstep>
   <time name="dav">    0.27    0.27</time>
   <time name="total">    0.59    0.59</time>
   <energy>
    <i name="alphaZ">      0.32165383 </i>
    <i name="ewald">    175.98477707 </i>
    <i name="hartreedc">   -909.99826478 </i>
    <i name="XCdc">     55.33046063 </i>
    <i name="pawpsdc">    898.50548360 </i>
    <i name="pawaedc">   -902.00714030 </i>
    <i name="eentropy">     -0.00000000 </i>
    <i name="bandstr">   -192.52811158 </i>
    <i name="atom">    864.52639207 </i>
    <i name="e_fr_energy">     -9.86474946 </i>
    <i name="e_wo_entrp">     -9.86474946 </i>
    <i name="e_0_energy">     -9.86474946 </i>
   </energy>
  </scstep>
  <structure>
   <crystal>
    <varray name="basis" >
     <v>      12.00000000       0.00000000       0.00000000 </v>
     <v>       0.00000000      12.00000000       0.00000000 </v>
     <v>       0.00000000       0.00000000      12.00000000 </v>
    </varray>
    <i name="volume">   1728.00000000 </i>
    <varray name="rec_basis" >
     <v>       0.08333333       0.00000000       0.00000000 </v>
     <v>       0.00000000       0.08333333       0.00000000 </v>
     <v>       0.00000000       0.00000000       0.08333333 </v>
    </varray>
   </crystal>
   <varray name="positions" >
    <v>       0.44859250       0.49916667       0.50000000 </v>
    <v>       0.55140750       0.50000000       0.50000000 </v>
   </varray>
  </structure>
  <varray name="forces" >
   <v>      -0.02314148       0.00271712       0.00000000 </v>
   <v>       0.02314148      -0.00271712       0.00000000 </v>
  </varray>
  <varray name="stress" >
   <v>      -1.05578229       0.00328985       0.00000000 </v>
   <v>       0.00328985      -1.42505849       0.00000000 </v>
   <v>       0.00000000       0.00000000      -1.42605508 </v>
  </varray>
  <energy>
   <i name="e_fr_energy">     -9.86474946 </i>
   <i name="e_wo_entrp">     -9.86474946 </i>
   <i name="e_0_energy">     -0.00000000 </i>
  </energy>
  <dynmat>
   <varray name="hessian" >
    <v>      -4.52397513       0.00000000      -0.00000000       4.52397513      -0.00000000       0.00000000 </v>
    <v>       0.00000000      -0.01684181       0.00000000      -0.00000000       0.01684181       0.00000000 </v>
    <v>      -0.00000000       0.00000000      -0.01684181       0.00000000       0.00000000       0.01684181 </v>
    <v>       4.52397513      -0.00000000       0.00000000      -4.52397513       0.00000000      -0.00000000 </v>
    <v>      -0.00000000       0.01684181       0.00000000       0.00000000      -0.01684181       0.00000000 </v>
    <v>       0.00000000       0.00000000       0.01684181      -0.00000000       0.00000000      -0.01684181 </v>
   </varray>
   <v name="eigenvalues"> -9.04795026E+00 -3.36836146E-02 -3.36836146E-02 -1.83435726E-19  0.00000000E+00  1.18515681E-16</v>
   <varray name="eigenvectors" >
    <v>   7.07106781E-01 -1.65491278E-23 -4.44535680E-21 -7.07106781E-01  1.65491278E-23  0.00000000E+00</v>
    <v>  -2.00169058E-16  7.07106781E-01 -1.40773156E-41 -2.00167461E-16 -7.07106781E-01  0.00000000E+00</v>
    <v>  -2.22267840E-21  0.00000000E+00 -7.07106781E-01  2.22267840E-21  0.00000000E+00  7.07106781E-01</v>
    <v>  -5.28776916E-03  7.07087010E-01 -6.51243359E-39 -5.28776916E-03  7.07087010E-01  0.00000000E+00</v>
    <v>   2.22267840E-21  0.00000000E+00  7.07106781E-01 -2.22267840E-21  0.00000000E+00  7.07106781E-01</v>
    <v>   7.07087010E-01  5.28776916E-03  8.72719223E-37  7.07087010E-01  5.28776916E-03  0.00000000E+00</v>
   </varray>
  </dynmat>
  <kpoints>
   <generation param="Monkhorst-Pack">
    <v type="int" name="divisions">       1        1        1 </v>
    <v name="usershift">      0.00000000       0.00000000       0.00000000 </v>
    <v name="genvec1">      1.00000000       0.00000000       0.00000000 </v>
    <v name="genvec2">      0.00000000       1.00000000       0.00000000 </v>
    <v name="genvec3">      0.00000000       0.00000000       1.00000000 </v>
    <v name="shift">      0.00000000       0.00000000       0.00000000 </v>
   </generation>
   <varray name="kpointlist" >
    <v>       0.00000000       0.00000000       0.00000000 </v>
   </varray>
   <varray name="weights" >
    <v>       1.00000000 </v>
   </varray>
  </kpoints>
  <time name="totalsc">    8.58    8.65</time>
  <eigenvalues>
   <array>
    <dimension dim="1">band</dimension>
    <dimension dim="2">kpoint</dimension>
    <dimension dim="3">spin</dimension>
    <field>eigene</field>
    <field>occ</field>
    <set>
     <set comment="spin 1">
      <set comment="kpoint 1">
       <r>  -32.5266    1.0000 </r>
       <r>  -20.6514    1.0000 </r>
       <r>  -13.4182    1.0000 </r>
       <r>  -13.2690    1.0000 </r>
       <r>  -13.2690    1.0000 </r>
       <r>   -6.9479    1.0000 </r>
       <r>   -6.9479    1.0000 </r>
       <r>   -0.2824    0.0000 </r>
       <r>    0.5576    0.0000 </r>
       <r>    0.6526    0.0000 </r>
       <r>    0.7775    0.0000 </r>
       <r>    0.7788    0.0000 </r>
       <r>    0.9501    0.0000 </r>
       <r>    0.9603    0.0000 </r>
       <r>    1.4832    0.0000 </r>
       <r>    1.7223    0.0000 </r>
      </set>
     </set>
     <set comment="spin 2">
      <set comment="kpoint 1">
       <r>  -31.3011    1.0000 </r>
       <r>  -18.8550    1.0000 </r>
       <r>  -12.4905    1.0000 </r>
       <r>  -11.4258    1.0000 </r>
       <r>  -11.4258    1.0000 </r>
       <r>   -4.6746    0.0000 </r>
       <r>   -4.6746    0.0000 </r>
       <r>   -0.1778    0.0000 </r>
       <r>    0.7481    0.0000 </r>
       <r>    0.7634    0.0000 </r>
       <r>    0.8743    0.0000 </r>
       <r>    0.8778    0.0000 </r>
       <r>    0.9986    0.0000 </r>
       <r>    1.0051    0.0000 </r>
       <r>    1.6457    0.0000 </r>
       <r>    1.8070    0.0000 </r>
      </set>
     </set>
    </set>
   </array>
  </eigenvalues>
  <separator name="orbital magnetization" >
   <v name="MAGDIPOLOUT">      0.00000000      0.00000000      0.00000000</v>
  </separator>
  <dos>
   <i name="efermi">     -6.89370630 </i>
   <total>
    <array>
     <dimension dim="1">gridpoints</dimension>
     <dimension dim="2">spin</dimension>
     <field>energy</field>
     <field>total</field>
     <field>integrated</field>
     <set>
      <set comment="spin 1">
       <r>   -34.2432     0.0000     0.0000 </r>
       <r>   -34.1174     0.0000     0.0000 </r>
       <r>   -33.9915     0.0000     0.0000 </r>
       <r>   -33.8656     0.0000     0.0000 </r>
       <r>   -33.7397     0.0000     0.0000 </r>
       <r>   -33.6138     0.0000     0.0000 </r>
       <r>   -33.4879     0.0000     0.0000 </r>
       <r>   -33.3620     0.0000     0.0000 </r>
       <r>   -33.2361     0.0000     0.0000 </r>
       <r>   -33.1102     0.0000     0.0000 </r>
       <r>   -32.9844     0.0000     0.0000 </r>
       <r>   -32.8585     0.0000     0.0000 </r>
       <r>   -32.7326     0.0000     0.0000 </r>
       <r>   -32.6067     0.0000     0.0000 </r>
       <r>   -32.4808     7.9435     1.0000 </r>
       <r>   -32.3549     0.0000     1.0000 </r>
       <r>   -32.2290     0.0000     1.0000 </r>
       <r>   -32.1031     0.0000     1.0000 </r>
       <r>   -31.9772     0.0000     1.0000 </r>
       <r>   -31.8513     0.0000     1.0000 </r>
       <r>   -31.7255     0.0000     1.0000 </r>
       <r>   -31.5996     0.0000     1.0000 </r>
       <r>   -31.4737     0.0000     1.0000 </r>
       <r>   -31.3478     0.0000     1.0000 </r>
       <r>   -31.2219     0.0000     1.0000 </r>
       <r>   -31.0960     0.0000     1.0000 </r>
       <r>   -30.9701     0.0000     1.0000 </r>
       <r>   -30.8442     0.0000     1.0000 </r>
       <r>   -30.7183     0.0000     1.0000 </r>
       <r>   -30.5924     0.0000     1.0000 </r>
       <r>   -30.4666     0.0000     1.0000 </r>
       <r>   -30.3407     0.0000     1.0000 </r>
       <r>   -30.2148     0.0000     1.0000 </r>
       <r>   -30.0889     0.0000     1.0000 </r>
       <r>   -29.9630     0.0000     1.0000 </r>
       <r>   -29.8371     0.0000     1.0000 </r>
       <r>   -29.7112     0.0000     1.0000 </r>
       <r>   -29.5853     0.0000     1.0000 </r>
       <r>   -29.4594     0.0000     1.0000 </r>
       <r>   -29.3335     0.0000     1.0000 </r>
       <r>   -29.2077     0.0000     1.0000 </r>
       <r>   -29.0818     0.0000     1.0000 </r>
       <r>   -28.9559     0.0000     1.0000 </r>
       <r>   -28.8300     0.0000     1.0000 </r>
       <r>   -28.7041     0.0000     1.0000 </r>
       <r>   -28.5782     0.0000     1.0000 </r>
       <r>   -28.4523     0.0000     1.0000 </r>
       <r>   -28.3264     0.0000     1.0000 </r>
       <r>   -28.2005     0.0000     1.0000 </r>
       <r>   -28.0747     0.0000     1.0000 </r>
       <r>   -27.9488     0.0000     1.0000 </r>
       <r>   -27.8229     0.0000     1.0000 </r>
       <r>   -27.6970     0.0000     1.0000 </r>
       <r>   -27.5711     0.0000     1.0000 </r>
       <r>   -27.4452     0.0000     1.0000 </r>
       <r>   -27.3193     0.0000     1.0000 </r>
       <r>   -27.1934     0.0000     1.0000 </r>
       <r>   -27.0675     0.0000     1.0000 </r>
       <r>   -26.9416     0.0000     1.0000 </r>
       <r>   -26.8158     0.0000     1.0000 </r>
       <r>   -26.6899     0.0000     1.0000 </r>
       <r>   -26.5640     0.0000     1.0000 </r>
       <r>   -26.4381     0.0000     1.0000 </r>
       <r>   -26.3122     0.0000     1.0000 </r>
       <r>   -26.1863     0.0000     1.0000 </r>
       <r>   -26.0604     0.0000     1.0000 </r>
       <r>   -25.9345     0.0000     1.0000 </r>
       <r>   -25.8086     0.0000     1.0000 </r>
       <r>   -25.6827     0.0000     1.0000 </r>
       <r>   -25.5569     0.0000     1.0000 </r>
       <r>   -25.4310     0.0000     1.0000 </r>
       <r>   -25.3051     0.0000     1.0000 </r>
       <r>   -25.1792     0.0000     1.0000 </r>
       <r>   -25.0533     0.0000     1.0000 </r>
       <r>   -24.9274     0.0000     1.0000 </r>
       <r>   -24.8015     0.0000     1.0000 </r>
       <r>   -24.6756     0.0000     1.0000 </r>
       <r>   -24.5497     0.0000     1.0000 </r>
       <r>   -24.4238     0.0000     1.0000 </r>
       <r>   -24.2980     0.0000     1.0000 </r>
       <r>   -24.1721     0.0000     1.0000 </r>
       <r>   -24.0462     0.0000     1.0000 </r>
       <r>   -23.9203     0.0000     1.0000 </r>
       <r>   -23.7944     0.0000     1.0000 </r>
       <r>   -23.6685     0.0000     1.0000 </r>
       <r>   -23.5426     0.0000     1.0000 </r>
       <r>   -23.4167     0.0000     1.0000 </r>
       <r>   -23.2908     0.0000     1.0000 </r>
       <r>   -23.1650     0.0000     1.0000 </r>
       <r>   -23.0391     0.0000     1.0000 </r>
       <r>   -22.9132     0.0000     1.0000 </r>
       <r>   -22.7873     0.0000     1.0000 </r>
       <r>   -22.6614     0.0000     1.0000 </r>
       <r>   -22.5355     0.0000     1.0000 </r>
       <r>   -22.4096     0.0000     1.0000 </r>
       <r>   -22.2837     0.0000     1.0000 </r>
       <r>   -22.1578     0.0000     1.0000 </r>
       <r>   -22.0319     0.0000     1.0000 </r>
       <r>   -21.9061     0.0000     1.0000 </r>
       <r>   -21.7802     0.0000     1.0000 </r>
       <r>   -21.6543     0.0000     1.0000 </r>
       <r>   -21.5284     0.0000     1.0000 </r>
       <r>   -21.4025     0.0000     1.0000 </r>
       <r>   -21.2766     0.0000     1.0000 </r>
       <r>   -21.1507     0.0000     1.0000 </r>
       <r>   -21.0248     0.0000     1.0000 </r>
       <r>   -20.8989     0.0000     1.0000 </r>
       <r>   -20.7730     0.0000     1.0000 </r>
       <r>   -20.6472     5.7539     1.7244 </r>
       <r>   -20.5213     0.0000     2.0000 </r>
       <r>   -20.3954     0.0000     2.0000 </r>
       <r>   -20.2695     0.0000     2.0000 </r>
       <r>   -20.1436     0.0000     2.0000 </r>
       <r>   -20.0177     0.0000     2.0000 </r>
       <r>   -19.8918     0.0000     2.0000 </r>
       <r>   -19.7659     0.0000     2.0000 </r>
       <r>   -19.6400     0.0000     2.0000 </r>
       <r>   -19.5142     0.0000     2.0000 </r>
       <r>   -19.3883     0.0000     2.0000 </r>
       <r>   -19.2624     0.0000     2.0000 </r>
       <r>   -19.1365     0.0000     2.0000 </r>
       <r>   -19.0106     0.0000     2.0000 </r>
       <r>   -18.8847     0.0000     2.0000 </r>
       <r>   -18.7588     0.0000     2.0000 </r>
       <r>   -18.6329     0.0000     2.0000 </r>
       <r>   -18.5070     0.0000     2.0000 </r>
       <r>   -18.3811     0.0000     2.0000 </r>
       <r>   -18.2553     0.0000     2.0000 </r>
       <r>   -18.1294     0.0000     2.0000 </r>
       <r>   -18.0035     0.0000     2.0000 </r>
       <r>   -17.8776     0.0000     2.0000 </r>
       <r>   -17.7517     0.0000     2.0000 </r>
       <r>   -17.6258     0.0000     2.0000 </r>
       <r>   -17.4999     0.0000     2.0000 </r>
       <r>   -17.3740     0.0000     2.0000 </r>
       <r>   -17.2481     0.0000     2.0000 </r>
       <r>   -17.1222     0.0000     2.0000 </r>
       <r>   -16.9964     0.0000     2.0000 </r>
       <r>   -16.8705     0.0000     2.0000 </r>
       <r>   -16.7446     0.0000     2.0000 </r>
       <r>   -16.6187     0.0000     2.0000 </r>
       <r>   -16.4928     0.0000     2.0000 </r>
       <r>   -16.3669     0.0000     2.0000 </r>
       <r>   -16.2410     0.0000     2.0000 </r>
       <r>   -16.1151     0.0000     2.0000 </r>
       <r>   -15.9892     0.0000     2.0000 </r>
       <r>   -15.8633     0.0000     2.0000 </r>
       <r>   -15.7375     0.0000     2.0000 </r>
       <r>   -15.6116     0.0000     2.0000 </r>
       <r>   -15.4857     0.0000     2.0000 </r>
       <r>   -15.3598     0.0000     2.0000 </r>
       <r>   -15.2339     0.0000     2.0000 </r>
       <r>   -15.1080     0.0000     2.0000 </r>
       <r>   -14.9821     0.0000     2.0000 </r>
       <r>   -14.8562     0.0000     2.0000 </r>
       <r>   -14.7303     0.0000     2.0000 </r>
       <r>   -14.6045     0.0000     2.0000 </r>
       <r>   -14.4786     0.0000     2.0000 </r>
       <r>   -14.3527     0.0000     2.0000 </r>
       <r>   -14.2268     0.0000     2.0000 </r>
       <r>   -14.1009     0.0000     2.0000 </r>
       <r>   -13.9750     0.0000     2.0000 </r>
       <r>   -13.8491     0.0000     2.0000 </r>
       <r>   -13.7232     0.0000     2.0000 </r>
       <r>   -13.5973     0.0000     2.0000 </r>
       <r>   -13.4714     0.0000     2.0000 </r>
       <r>   -13.3456     7.9435     3.0000 </r>
       <r>   -13.2197    15.8869     5.0000 </r>
       <r>   -13.0938     0.0000     5.0000 </r>
       <r>   -12.9679     0.0000     5.0000 </r>
       <r>   -12.8420     0.0000     5.0000 </r>
       <r>   -12.7161     0.0000     5.0000 </r>
       <r>   -12.5902     0.0000     5.0000 </r>
       <r>   -12.4643     0.0000     5.0000 </r>
       <r>   -12.3384     0.0000     5.0000 </r>
       <r>   -12.2125     0.0000     5.0000 </r>
       <r>   -12.0867     0.0000     5.0000 </r>
       <r>   -11.9608     0.0000     5.0000 </r>
       <r>   -11.8349     0.0000     5.0000 </r>
       <r>   -11.7090     0.0000     5.0000 </r>
       <r>   -11.5831     0.0000     5.0000 </r>
       <r>   -11.4572     0.0000     5.0000 </r>
       <r>   -11.3313     0.0000     5.0000 </r>
       <r>   -11.2054     0.0000     5.0000 </r>
       <r>   -11.0795     0.0000     5.0000 </r>
       <r>   -10.9536     0.0000     5.0000 </r>
       <r>   -10.8278     0.0000     5.0000 </r>
       <r>   -10.7019     0.0000     5.0000 </r>
       <r>   -10.5760     0.0000     5.0000 </r>
       <r>   -10.4501     0.0000     5.0000 </r>
       <r>   -10.3242     0.0000     5.0000 </r>
       <r>   -10.1983     0.0000     5.0000 </r>
       <r>   -10.0724     0.0000     5.0000 </r>
       <r>    -9.9465     0.0000     5.0000 </r>
       <r>    -9.8206     0.0000     5.0000 </r>
       <r>    -9.6948     0.0000     5.0000 </r>
       <r>    -9.5689     0.0000     5.0000 </r>
       <r>    -9.4430     0.0000     5.0000 </r>
       <r>    -9.3171     0.0000     5.0000 </r>
       <r>    -9.1912     0.0000     5.0000 </r>
       <r>    -9.0653     0.0000     5.0000 </r>
       <r>    -8.9394     0.0000     5.0000 </r>
       <r>    -8.8135     0.0000     5.0000 </r>
       <r>    -8.6876     0.0000     5.0000 </r>
       <r>    -8.5617     0.0000     5.0000 </r>
       <r>    -8.4359     0.0000     5.0000 </r>
       <r>    -8.3100     0.0000     5.0000 </r>
       <r>    -8.1841     0.0000     5.0000 </r>
       <r>    -8.0582     0.0000     5.0000 </r>
       <r>    -7.9323     0.0000     5.0000 </r>
       <r>    -7.8064     0.0000     5.0000 </r>
       <r>    -7.6805     0.0000     5.0000 </r>
       <r>    -7.5546     0.0000     5.0000 </r>
       <r>    -7.4287     0.0000     5.0000 </r>
       <r>    -7.3028     0.0000     5.0000 </r>
       <r>    -7.1770     0.0000     5.0000 </r>
       <r>    -7.0511     0.0000     5.0000 </r>
       <r>    -6.9252    15.8766     6.9987 </r>
       <r>    -6.7993     0.0000     7.0000 </r>
       <r>    -6.6734     0.0000     7.0000 </r>
       <r>    -6.5475     0.0000     7.0000 </r>
       <r>    -6.4216     0.0000     7.0000 </r>
       <r>    -6.2957     0.0000     7.0000 </r>
       <r>    -6.1698     0.0000     7.0000 </r>
       <r>    -6.0440     0.0000     7.0000 </r>
       <r>    -5.9181     0.0000     7.0000 </r>
       <r>    -5.7922     0.0000     7.0000 </r>
       <r>    -5.6663     0.0000     7.0000 </r>
       <r>    -5.5404     0.0000     7.0000 </r>
       <r>    -5.4145     0.0000     7.0000 </r>
       <r>    -5.2886     0.0000     7.0000 </r>
       <r>    -5.1627     0.0000     7.0000 </r>
       <r>    -5.0368     0.0000     7.0000 </r>
       <r>    -4.9109     0.0000     7.0000 </r>
       <r>    -4.7851     0.0000     7.0000 </r>
       <r>    -4.6592     0.0000     7.0000 </r>
       <r>    -4.5333     0.0000     7.0000 </r>
       <r>    -4.4074     0.0000     7.0000 </r>
       <r>    -4.2815     0.0000     7.0000 </r>
       <r>    -4.1556     0.0000     7.0000 </r>
       <r>    -4.0297     0.0000     7.0000 </r>
       <r>    -3.9038     0.0000     7.0000 </r>
       <r>    -3.7779     0.0000     7.0000 </r>
       <r>    -3.6520     0.0000     7.0000 </r>
       <r>    -3.5262     0.0000     7.0000 </r>
       <r>    -3.4003     0.0000     7.0000 </r>
       <r>    -3.2744     0.0000     7.0000 </r>
       <r>    -3.1485     0.0000     7.0000 </r>
       <r>    -3.0226     0.0000     7.0000 </r>
       <r>    -2.8967     0.0000     7.0000 </r>
       <r>    -2.7708     0.0000     7.0000 </r>
       <r>    -2.6449     0.0000     7.0000 </r>
       <r>    -2.5190     0.0000     7.0000 </r>
       <r>    -2.3931     0.0000     7.0000 </r>
       <r>    -2.2673     0.0000     7.0000 </r>
       <r>    -2.1414     0.0000     7.0000 </r>
       <r>    -2.0155     0.0000     7.0000 </r>
       <r>    -1.8896     0.0000     7.0000 </r>
       <r>    -1.7637     0.0000     7.0000 </r>
       <r>    -1.6378     0.0000     7.0000 </r>
       <r>    -1.5119     0.0000     7.0000 </r>
       <r>    -1.3860     0.0000     7.0000 </r>
       <r>    -1.2601     0.0000     7.0000 </r>
       <r>    -1.1343     0.0000     7.0000 </r>
       <r>    -1.0084     0.0000     7.0000 </r>
       <r>    -0.8825     0.0000     7.0000 </r>
       <r>    -0.7566     0.0000     7.0000 </r>
       <r>    -0.6307     0.0000     7.0000 </r>
       <r>    -0.5048     0.0000     7.0000 </r>
       <r>    -0.3789     0.0000     7.0000 </r>
       <r>    -0.2530     7.9433     8.0000 </r>
       <r>    -0.1271     0.0000     8.0000 </r>
       <r>    -0.0012     0.0000     8.0000 </r>
       <r>     0.1246     0.0000     8.0000 </r>
       <r>     0.2505     0.0000     8.0000 </r>
       <r>     0.3764     0.0000     8.0000 </r>
       <r>     0.5023     0.0000     8.0000 </r>
       <r>     0.6282     7.9456     9.0003 </r>
       <r>     0.7541     0.0056    10.0007 </r>
       <r>     0.8800     0.0000    12.0000 </r>
       <r>     1.0059    15.8869    14.0000 </r>
       <r>     1.1318     0.0000    14.0000 </r>
       <r>     1.2577     0.0000    14.0000 </r>
       <r>     1.3835     0.0000    14.0000 </r>
       <r>     1.5094     7.9427    14.9999 </r>
       <r>     1.6353     0.0000    15.0000 </r>
       <r>     1.7612     7.9435    16.0000 </r>
       <r>     1.8871     0.0000    16.0000 </r>
       <r>     2.0130     0.0000    16.0000 </r>
       <r>     2.1389     0.0000    16.0000 </r>
       <r>     2.2648     0.0000    16.0000 </r>
       <r>     2.3907     0.0000    16.0000 </r>
       <r>     2.5166     0.0000    16.0000 </r>
       <r>     2.6424     0.0000    16.0000 </r>
       <r>     2.7683     0.0000    16.0000 </r>
       <r>     2.8942     0.0000    16.0000 </r>
       <r>     3.0201     0.0000    16.0000 </r>
       <r>     3.1460     0.0000    16.0000 </r>
       <r>     3.2719     0.0000    16.0000 </r>
       <r>     3.3978     0.0000    16.0000 </r>
       <r>     3.5237     0.0000    16.0000 </r>
      </set>
      <set comment="spin 2">
       <r>   -34.2432     0.0000     0.0000 </r>
       <r>   -34.1174     0.0000     0.0000 </r>
       <r>   -33.9915     0.0000     0.0000 </r>
       <r>   -33.8656     0.0000     0.0000 </r>
       <r>   -33.7397     0.0000     0.0000 </r>
       <r>   -33.6138     0.0000     0.0000 </r>
       <r>   -33.4879     0.0000     0.0000 </r>
       <r>   -33.3620     0.0000     0.0000 </r>
       <r>   -33.2361     0.0000     0.0000 </r>
       <r>   -33.1102     0.0000     0.0000 </r>
       <r>   -32.9844     0.0000     0.0000 </r>
       <r>   -32.8585     0.0000     0.0000 </r>
       <r>   -32.7326     0.0000     0.0000 </r>
       <r>   -32.6067     0.0000     0.0000 </r>
       <r>   -32.4808     0.0000     0.0000 </r>
       <r>   -32.3549     0.0000     0.0000 </r>
       <r>   -32.2290     0.0000     0.0000 </r>
       <r>   -32.1031     0.0000     0.0000 </r>
       <r>   -31.9772     0.0000     0.0000 </r>
       <r>   -31.8513     0.0000     0.0000 </r>
       <r>   -31.7255     0.0000     0.0000 </r>
       <r>   -31.5996     0.0000     0.0000 </r>
       <r>   -31.4737     0.0000     0.0000 </r>
       <r>   -31.3478     0.0000     0.0000 </r>
       <r>   -31.2219     7.9435     1.0000 </r>
       <r>   -31.0960     0.0000     1.0000 </r>
       <r>   -30.9701     0.0000     1.0000 </r>
       <r>   -30.8442     0.0000     1.0000 </r>
       <r>   -30.7183     0.0000     1.0000 </r>
       <r>   -30.5924     0.0000     1.0000 </r>
       <r>   -30.4666     0.0000     1.0000 </r>
       <r>   -30.3407     0.0000     1.0000 </r>
       <r>   -30.2148     0.0000     1.0000 </r>
       <r>   -30.0889     0.0000     1.0000 </r>
       <r>   -29.9630     0.0000     1.0000 </r>
       <r>   -29.8371     0.0000     1.0000 </r>
       <r>   -29.7112     0.0000     1.0000 </r>
       <r>   -29.5853     0.0000     1.0000 </r>
       <r>   -29.4594     0.0000     1.0000 </r>
       <r>   -29.3335     0.0000     1.0000 </r>
       <r>   -29.2077     0.0000     1.0000 </r>
       <r>   -29.0818     0.0000     1.0000 </r>
       <r>   -28.9559     0.0000     1.0000 </r>
       <r>   -28.8300     0.0000     1.0000 </r>
       <r>   -28.7041     0.0000     1.0000 </r>
       <r>   -28.5782     0.0000     1.0000 </r>
       <r>   -28.4523     0.0000     1.0000 </r>
       <r>   -28.3264     0.0000     1.0000 </r>
       <r>   -28.2005     0.0000     1.0000 </r>
       <r>   -28.0747     0.0000     1.0000 </r>
       <r>   -27.9488     0.0000     1.0000 </r>
       <r>   -27.8229     0.0000     1.0000 </r>
       <r>   -27.6970     0.0000     1.0000 </r>
       <r>   -27.5711     0.0000     1.0000 </r>
       <r>   -27.4452     0.0000     1.0000 </r>
       <r>   -27.3193     0.0000     1.0000 </r>
       <r>   -27.1934     0.0000     1.0000 </r>
       <r>   -27.0675     0.0000     1.0000 </r>
       <r>   -26.9416     0.0000     1.0000 </r>
       <r>   -26.8158     0.0000     1.0000 </r>
       <r>   -26.6899     0.0000     1.0000 </r>
       <r>   -26.5640     0.0000     1.0000 </r>
       <r>   -26.4381     0.0000     1.0000 </r>
       <r>   -26.3122     0.0000     1.0000 </r>
       <r>   -26.1863     0.0000     1.0000 </r>
       <r>   -26.0604     0.0000     1.0000 </r>
       <r>   -25.9345     0.0000     1.0000 </r>
       <r>   -25.8086     0.0000     1.0000 </r>
       <r>   -25.6827     0.0000     1.0000 </r>
       <r>   -25.5569     0.0000     1.0000 </r>
       <r>   -25.4310     0.0000     1.0000 </r>
       <r>   -25.3051     0.0000     1.0000 </r>
       <r>   -25.1792     0.0000     1.0000 </r>
       <r>   -25.0533     0.0000     1.0000 </r>
       <r>   -24.9274     0.0000     1.0000 </r>
       <r>   -24.8015     0.0000     1.0000 </r>
       <r>   -24.6756     0.0000     1.0000 </r>
       <r>   -24.5497     0.0000     1.0000 </r>
       <r>   -24.4238     0.0000     1.0000 </r>
       <r>   -24.2980     0.0000     1.0000 </r>
       <r>   -24.1721     0.0000     1.0000 </r>
       <r>   -24.0462     0.0000     1.0000 </r>
       <r>   -23.9203     0.0000     1.0000 </r>
       <r>   -23.7944     0.0000     1.0000 </r>
       <r>   -23.6685     0.0000     1.0000 </r>
       <r>   -23.5426     0.0000     1.0000 </r>
       <r>   -23.4167     0.0000     1.0000 </r>
       <r>   -23.2908     0.0000     1.0000 </r>
       <r>   -23.1650     0.0000     1.0000 </r>
       <r>   -23.0391     0.0000     1.0000 </r>
       <r>   -22.9132     0.0000     1.0000 </r>
       <r>   -22.7873     0.0000     1.0000 </r>
       <r>   -22.6614     0.0000     1.0000 </r>
       <r>   -22.5355     0.0000     1.0000 </r>
       <r>   -22.4096     0.0000     1.0000 </r>
       <r>   -22.2837     0.0000     1.0000 </r>
       <r>   -22.1578     0.0000     1.0000 </r>
       <r>   -22.0319     0.0000     1.0000 </r>
       <r>   -21.9061     0.0000     1.0000 </r>
       <r>   -21.7802     0.0000     1.0000 </r>
       <r>   -21.6543     0.0000     1.0000 </r>
       <r>   -21.5284     0.0000     1.0000 </r>
       <r>   -21.4025     0.0000     1.0000 </r>
       <r>   -21.2766     0.0000     1.0000 </r>
       <r>   -21.1507     0.0000     1.0000 </r>
       <r>   -21.0248     0.0000     1.0000 </r>
       <r>   -20.8989     0.0000     1.0000 </r>
       <r>   -20.7730     0.0000     1.0000 </r>
       <r>   -20.6472     0.0000     1.0000 </r>
       <r>   -20.5213     0.0000     1.0000 </r>
       <r>   -20.3954     0.0000     1.0000 </r>
       <r>   -20.2695     0.0000     1.0000 </r>
       <r>   -20.1436     0.0000     1.0000 </r>
       <r>   -20.0177     0.0000     1.0000 </r>
       <r>   -19.8918     0.0000     1.0000 </r>
       <r>   -19.7659     0.0000     1.0000 </r>
       <r>   -19.6400     0.0000     1.0000 </r>
       <r>   -19.5142     0.0000     1.0000 </r>
       <r>   -19.3883     0.0000     1.0000 </r>
       <r>   -19.2624     0.0000     1.0000 </r>
       <r>   -19.1365     0.0000     1.0000 </r>
       <r>   -19.0106     0.0000     1.0000 </r>
       <r>   -18.8847     0.0001     1.0000 </r>
       <r>   -18.7588     0.0000     2.0000 </r>
       <r>   -18.6329     0.0000     2.0000 </r>
       <r>   -18.5070     0.0000     2.0000 </r>
       <r>   -18.3811     0.0000     2.0000 </r>
       <r>   -18.2553     0.0000     2.0000 </r>
       <r>   -18.1294     0.0000     2.0000 </r>
       <r>   -18.0035     0.0000     2.0000 </r>
       <r>   -17.8776     0.0000     2.0000 </r>
       <r>   -17.7517     0.0000     2.0000 </r>
       <r>   -17.6258     0.0000     2.0000 </r>
       <r>   -17.4999     0.0000     2.0000 </r>
       <r>   -17.3740     0.0000     2.0000 </r>
       <r>   -17.2481     0.0000     2.0000 </r>
       <r>   -17.1222     0.0000     2.0000 </r>
       <r>   -16.9964     0.0000     2.0000 </r>
       <r>   -16.8705     0.0000     2.0000 </r>
       <r>   -16.7446     0.0000     2.0000 </r>
       <r>   -16.6187     0.0000     2.0000 </r>
       <r>   -16.4928     0.0000     2.0000 </r>
       <r>   -16.3669     0.0000     2.0000 </r>
       <r>   -16.2410     0.0000     2.0000 </r>
       <r>   -16.1151     0.0000     2.0000 </r>
       <r>   -15.9892     0.0000     2.0000 </r>
       <r>   -15.8633     0.0000     2.0000 </r>
       <r>   -15.7375     0.0000     2.0000 </r>
       <r>   -15.6116     0.0000     2.0000 </r>
       <r>   -15.4857     0.0000     2.0000 </r>
       <r>   -15.3598     0.0000     2.0000 </r>
       <r>   -15.2339     0.0000     2.0000 </r>
       <r>   -15.1080     0.0000     2.0000 </r>
       <r>   -14.9821     0.0000     2.0000 </r>
       <r>   -14.8562     0.0000     2.0000 </r>
       <r>   -14.7303     0.0000     2.0000 </r>
       <r>   -14.6045     0.0000     2.0000 </r>
[...]
        <r>    -6.0440     0.0000     0.0000     0.0000     0.0000     0.0000     0.0000     0.0000     0.0000     0.0000 </r>
        <r>    -5.9181     0.0000     0.0000     0.0000     0.0000     0.0000     0.0000     0.0000     0.0000     0.0000 </r>
        <r>    -5.7922     0.0000     0.0000     0.0000     0.0000     0.0000     0.0000     0.0000     0.0000     0.0000 </r>
        <r>    -5.6663     0.0000     0.0000     0.0000     0.0000     0.0000     0.0000     0.0000     0.0000     0.0000 </r>
        <r>    -5.5404     0.0000     0.0000     0.0000     0.0000     0.0000     0.0000     0.0000     0.0000     0.0000 </r>
        <r>    -5.4145     0.0000     0.0000     0.0000     0.0000     0.0000     0.0000     0.0000     0.0000     0.0000 </r>
        <r>    -5.2886     0.0000     0.0000     0.0000     0.0000     0.0000     0.0000     0.0000     0.0000     0.0000 </r>
        <r>    -5.1627     0.0000     0.0000     0.0000     0.0000     0.0000     0.0000     0.0000     0.0000     0.0000 </r>
        <r>    -5.0368     0.0000     0.0000     0.0000     0.0000     0.0000     0.0000     0.0000     0.0000     0.0000 </r>
        <r>    -4.9109     0.0000     0.0000     0.0000     0.0000     0.0000     0.0000     0.0000     0.0000     0.0000 </r>
        <r>    -4.7851     0.0000     0.0000     0.0000     0.0000     0.0000     0.0000     0.0000     0.0000     0.0000 </r>
        <r>    -4.6592     0.0000     2.9312     2.9316     0.0002     0.0000     0.0000     0.0000     0.0000     0.0000 </r>
        <r>    -4.5333     0.0000     0.0000     0.0000     0.0000     0.0000     0.0000     0.0000     0.0000     0.0000 </r>
        <r>    -4.4074     0.0000     0.0000     0.0000     0.0000     0.0000     0.0000     0.0000     0.0000     0.0000 </r>
        <r>    -4.2815     0.0000     0.0000     0.0000     0.0000     0.0000     0.0000     0.0000     0.0000     0.0000 </r>
        <r>    -4.1556     0.0000     0.0000     0.0000     0.0000     0.0000     0.0000     0.0000     0.0000     0.0000 </r>
        <r>    -4.0297     0.0000     0.0000     0.0000     0.0000     0.0000     0.0000     0.0000     0.0000     0.0000 </r>
        <r>    -3.9038     0.0000     0.0000     0.0000     0.0000     0.0000     0.0000     0.0000     0.0000     0.0000 </r>
        <r>    -3.7779     0.0000     0.0000     0.0000     0.0000     0.0000     0.0000     0.0000     0.0000     0.0000 </r>
        <r>    -3.6520     0.0000     0.0000     0.0000     0.0000     0.0000     0.0000     0.0000     0.0000     0.0000 </r>
        <r>    -3.5262     0.0000     0.0000     0.0000     0.0000     0.0000     0.0000     0.0000     0.0000     0.0000 </r>
        <r>    -3.4003     0.0000     0.0000     0.0000     0.0000     0.0000     0.0000     0.0000     0.0000     0.0000 </r>
        <r>    -3.2744     0.0000     0.0000     0.0000     0.0000     0.0000     0.0000     0.0000     0.0000     0.0000 </r>
        <r>    -3.1485     0.0000     0.0000     0.0000     0.0000     0.0000     0.0000     0.0000     0.0000     0.0000 </r>
        <r>    -3.0226     0.0000     0.0000     0.0000     0.0000     0.0000     0.0000     0.0000     0.0000     0.0000 </r>
        <r>    -2.8967     0.0000     0.0000     0.0000     0.0000     0.0000     0.0000     0.0000     0.0000     0.0000 </r>
        <r>    -2.7708     0.0000     0.0000     0.0000     0.0000     0.0000     0.0000     0.0000     0.0000     0.0000 </r>
        <r>    -2.6449     0.0000     0.0000     0.0000     0.0000     0.0000     0.0000     0.0000     0.0000     0.0000 </r>
        <r>    -2.5190     0.0000     0.0000     0.0000     0.0000     0.0000     0.0000     0.0000     0.0000     0.0000 </r>
        <r>    -2.3931     0.0000     0.0000     0.0000     0.0000     0.0000     0.0000     0.0000     0.0000     0.0000 </r>
        <r>    -2.2673     0.0000     0.0000     0.0000     0.0000     0.0000     0.0000     0.0000     0.0000     0.0000 </r>
        <r>    -2.1414     0.0000     0.0000     0.0000     0.0000     0.0000     0.0000     0.0000     0.0000     0.0000 </r>
        <r>    -2.0155     0.0000     0.0000     0.0000     0.0000     0.0000     0.0000     0.0000     0.0000     0.0000 </r>
        <r>    -1.8896     0.0000     0.0000     0.0000     0.0000     0.0000     0.0000     0.0000     0.0000     0.0000 </r>
        <r>    -1.7637     0.0000     0.0000     0.0000     0.0000     0.0000     0.0000     0.0000     0.0000     0.0000 </r>
        <r>    -1.6378     0.0000     0.0000     0.0000     0.0000     0.0000     0.0000     0.0000     0.0000     0.0000 </r>
        <r>    -1.5119     0.0000     0.0000     0.0000     0.0000     0.0000     0.0000     0.0000     0.0000     0.0000 </r>
        <r>    -1.3860     0.0000     0.0000     0.0000     0.0000     0.0000     0.0000     0.0000     0.0000     0.0000 </r>
        <r>    -1.2601     0.0000     0.0000     0.0000     0.0000     0.0000     0.0000     0.0000     0.0000     0.0000 </r>
        <r>    -1.1343     0.0000     0.0000     0.0000     0.0000     0.0000     0.0000     0.0000     0.0000     0.0000 </r>
        <r>    -1.0084     0.0000     0.0000     0.0000     0.0000     0.0000     0.0000     0.0000     0.0000     0.0000 </r>
        <r>    -0.8825     0.0000     0.0000     0.0000     0.0000     0.0000     0.0000     0.0000     0.0000     0.0000 </r>
        <r>    -0.7566     0.0000     0.0000     0.0000     0.0000     0.0000     0.0000     0.0000     0.0000     0.0000 </r>
        <r>    -0.6307     0.0000     0.0000     0.0000     0.0000     0.0000     0.0000     0.0000     0.0000     0.0000 </r>
        <r>    -0.5048     0.0000     0.0000     0.0000     0.0000     0.0000     0.0000     0.0000     0.0000     0.0000 </r>
        <r>    -0.3789     0.0000     0.0000     0.0000     0.0000     0.0000     0.0000     0.0000     0.0000     0.0000 </r>
        <r>    -0.2530     0.0000     0.0000     0.0000     0.0000     0.0000     0.0000     0.0000     0.0000     0.0000 </r>
        <r>    -0.1271     0.0244     0.0000     0.0000     0.0147     0.0000     0.0000     0.0000     0.0000     0.0000 </r>
        <r>    -0.0012     0.0000     0.0000     0.0000     0.0000     0.0000     0.0000     0.0000     0.0000     0.0000 </r>
        <r>     0.1246     0.0000     0.0000     0.0000     0.0000     0.0000     0.0000     0.0000     0.0000     0.0000 </r>
        <r>     0.2505     0.0000     0.0000     0.0000     0.0000     0.0000     0.0000     0.0000     0.0000     0.0000 </r>
        <r>     0.3764     0.0000     0.0000     0.0000     0.0000     0.0000     0.0000     0.0000     0.0000     0.0000 </r>
        <r>     0.5023     0.0000     0.0000     0.0000     0.0000     0.0000     0.0000     0.0000     0.0000     0.0000 </r>
        <r>     0.6282     0.0000     0.0000     0.0000     0.0000     0.0000     0.0000     0.0000     0.0000     0.0000 </r>
        <r>     0.7541     0.0354     0.0001     0.0000     0.0172     0.0000     0.0000     0.0000     0.0000     0.0000 </r>
        <r>     0.8800     0.0015     0.0166     0.0217     0.0007     0.0000     0.0000     0.0000     0.0000     0.0000 </r>
        <r>     1.0059     0.0003     0.0000     0.0000     0.0021     0.0000     0.0000     0.0000     0.0000     0.0000 </r>
        <r>     1.1318     0.0000     0.0000     0.0000     0.0000     0.0000     0.0000     0.0000     0.0000     0.0000 </r>
        <r>     1.2577     0.0000     0.0000     0.0000     0.0000     0.0000     0.0000     0.0000     0.0000     0.0000 </r>
        <r>     1.3835     0.0000     0.0000     0.0000     0.0000     0.0000     0.0000     0.0000     0.0000     0.0000 </r>
        <r>     1.5094     0.0000     0.0000     0.0000     0.0000     0.0000     0.0000     0.0000     0.0000     0.0000 </r>
        <r>     1.6353     0.0053     0.0000     0.0000     0.0052     0.0000     0.0000     0.0000     0.0000     0.0000 </r>
        <r>     1.7612     0.0000     0.0000     0.0000     0.0000     0.0000     0.0000     0.0000     0.0000     0.0000 </r>
        <r>     1.8871     0.0000     0.0000     0.0000     0.0000     0.0000     0.0000     0.0000     0.0000     0.0000 </r>
        <r>     2.0130     0.0000     0.0000     0.0000     0.0000     0.0000     0.0000     0.0000     0.0000     0.0000 </r>
        <r>     2.1389     0.0000     0.0000     0.0000     0.0000     0.0000     0.0000     0.0000     0.0000     0.0000 </r>
        <r>     2.2648     0.0000     0.0000     0.0000     0.0000     0.0000     0.0000     0.0000     0.0000     0.0000 </r>
        <r>     2.3907     0.0000     0.0000     0.0000     0.0000     0.0000     0.0000     0.0000     0.0000     0.0000 </r>
        <r>     2.5166     0.0000     0.0000     0.0000     0.0000     0.0000     0.0000     0.0000     0.0000     0.0000 </r>
        <r>     2.6424     0.0000     0.0000     0.0000     0.0000     0.0000     0.0000     0.0000     0.0000     0.0000 </r>
        <r>     2.7683     0.0000     0.0000     0.0000     0.0000     0.0000     0.0000     0.0000     0.0000     0.0000 </r>
        <r>     2.8942     0.0000     0.0000     0.0000     0.0000     0.0000     0.0000     0.0000     0.0000     0.0000 </r>
        <r>     3.0201     0.0000     0.0000     0.0000     0.0000     0.0000     0.0000     0.0000     0.0000     0.0000 </r>
        <r>     3.1460     0.0000     0.0000     0.0000     0.0000     0.0000     0.0000     0.0000     0.0000     0.0000 </r>
        <r>     3.2719     0.0000     0.0000     0.0000     0.0000     0.0000     0.0000     0.0000     0.0000     0.0000 </r>
        <r>     3.3978     0.0000     0.0000     0.0000     0.0000     0.0000     0.0000     0.0000     0.0000     0.0000 </r>
        <r>     3.5237     0.0000     0.0000     0.0000     0.0000     0.0000     0.0000     0.0000     0.0000     0.0000 </r>
       </set>
      </set>
     </set>
    </array>
   </partial>
  </dos>
  <projected>
   <eigenvalues>
    <array>
     <dimension dim="1">band</dimension>
     <dimension dim="2">kpoint</dimension>
     <dimension dim="3">spin</dimension>
     <field>eigene</field>
     <field>occ</field>
     <set>
      <set comment="spin 1">
       <set comment="kpoint 1">
        <r>  -32.5266    1.0000 </r>
        <r>  -20.6514    1.0000 </r>
        <r>  -13.4182    1.0000 </r>
        <r>  -13.2690    1.0000 </r>
        <r>  -13.2690    1.0000 </r>
        <r>   -6.9479    1.0000 </r>
        <r>   -6.9479    1.0000 </r>
        <r>   -0.2824    0.0000 </r>
        <r>    0.5576    0.0000 </r>
        <r>    0.6526    0.0000 </r>
        <r>    0.7775    0.0000 </r>
        <r>    0.7788    0.0000 </r>
        <r>    0.9501    0.0000 </r>
        <r>    0.9603    0.0000 </r>
        <r>    1.4832    0.0000 </r>
        <r>    1.7223    0.0000 </r>
       </set>
      </set>
      <set comment="spin 2">
       <set comment="kpoint 1">
        <r>  -31.3011    1.0000 </r>
        <r>  -18.8550    1.0000 </r>
        <r>  -12.4905    1.0000 </r>
        <r>  -11.4258    1.0000 </r>
        <r>  -11.4258    1.0000 </r>
        <r>   -4.6746    0.0000 </r>
        <r>   -4.6746    0.0000 </r>
        <r>   -0.1778    0.0000 </r>
        <r>    0.7481    0.0000 </r>
        <r>    0.7634    0.0000 </r>
        <r>    0.8743    0.0000 </r>
        <r>    0.8778    0.0000 </r>
        <r>    0.9986    0.0000 </r>
        <r>    1.0051    0.0000 </r>
        <r>    1.6457    0.0000 </r>
        <r>    1.8070    0.0000 </r>
       </set>
      </set>
     </set>
    </array>
   </eigenvalues>
   <array>
    <dimension dim="1">ion</dimension>
    <dimension dim="2">band</dimension>
    <dimension dim="3">kpoint</dimension>
    <dimension dim="4">spin</dimension>
    <field>  s</field>
    <field> py</field>
    <field> pz</field>
    <field> px</field>
    <field>dxy</field>
    <field>dyz</field>
    <field>dz2</field>
    <field>dxz</field>
    <field>dx2</field>
    <set>
     <set comment="spin1">
      <set comment="kpoint 1">
       <set comment="band 1">
        <r>  0.4054  0.0000  0.0000  0.0953  0.0000  0.0000  0.0000  0.0000  0.0000 </r>
        <r>  0.4054  0.0000  0.0000  0.0953  0.0000  0.0000  0.0000  0.0000  0.0000 </r>
       </set>
       <set comment="band 2">
        <r>  0.3766  0.0000  0.0000  0.0405  0.0000  0.0000  0.0000  0.0000  0.0000 </r>
        <r>  0.3766  0.0000  0.0000  0.0405  0.0000  0.0000  0.0000  0.0000  0.0000 </r>
       </set>
       <set comment="band 3">
        <r>  0.0419  0.0000  0.0000  0.3823  0.0000  0.0000  0.0000  0.0000  0.0000 </r>
        <r>  0.0419  0.0000  0.0000  0.3823  0.0000  0.0000  0.0000  0.0000  0.0000 </r>
       </set>
       <set comment="band 4">
        <r>  0.0000  0.0000  0.3739  0.0000  0.0000  0.0000  0.0000  0.0000  0.0000 </r>
        <r>  0.0000  0.0000  0.3739  0.0000  0.0000  0.0000  0.0000  0.0000  0.0000 </r>
       </set>
       <set comment="band 5">
        <r>  0.0000  0.3739  0.0000  0.0000  0.0000  0.0000  0.0000  0.0000  0.0000 </r>
        <r>  0.0000  0.3739  0.0000  0.0000  0.0000  0.0000  0.0000  0.0000  0.0000 </r>
       </set>
       <set comment="band 6">
        <r>  0.0000  0.0000  0.3897  0.0000  0.0000  0.0000  0.0000  0.0000  0.0000 </r>
        <r>  0.0000  0.0000  0.3897  0.0000  0.0000  0.0000  0.0000  0.0000  0.0000 </r>
       </set>
       <set comment="band 7">
        <r>  0.0000  0.3897  0.0000  0.0000  0.0000  0.0000  0.0000  0.0000  0.0000 </r>
        <r>  0.0000  0.3897  0.0000  0.0000  0.0000  0.0000  0.0000  0.0000  0.0000 </r>
       </set>
       <set comment="band 8">
        <r>  0.0037  0.0000  0.0000  0.0021  0.0000  0.0000  0.0000  0.0000  0.0000 </r>
        <r>  0.0037  0.0000  0.0000  0.0021  0.0000  0.0000  0.0000  0.0000  0.0000 </r>
       </set>
       <set comment="band 9">
        <r>  0.0136  0.0000  0.0000  0.0156  0.0000  0.0000  0.0000  0.0000  0.0000 </r>
        <r>  0.0136  0.0000  0.0000  0.0156  0.0000  0.0000  0.0000  0.0000  0.0000 </r>
       </set>
       <set comment="band 10">
        <r>  0.0045  0.0000  0.0000  0.0020  0.0000  0.0000  0.0000  0.0000  0.0000 </r>
        <r>  0.0046  0.0000  0.0000  0.0020  0.0000  0.0000  0.0000  0.0000  0.0000 </r>
       </set>
       <set comment="band 11">
        <r>  0.0000  0.0000  0.0036  0.0000  0.0000  0.0000  0.0000  0.0000  0.0000 </r>
        <r>  0.0000  0.0000  0.0036  0.0000  0.0000  0.0000  0.0000  0.0000  0.0000 </r>
       </set>
       <set comment="band 12">
        <r>  0.0001  0.0036  0.0000  0.0001  0.0000  0.0000  0.0000  0.0000  0.0000 </r>
        <r>  0.0000  0.0036  0.0000  0.0001  0.0000  0.0000  0.0000  0.0000  0.0000 </r>
       </set>
       <set comment="band 13">
        <r>  0.0000  0.0000  0.0000  0.0000  0.0000  0.0000  0.0000  0.0000  0.0000 </r>
        <r>  0.0000  0.0000  0.0000  0.0000  0.0000  0.0000  0.0000  0.0000  0.0000 </r>
       </set>
       <set comment="band 14">
        <r>  0.0000  0.0000  0.0000  0.0002  0.0000  0.0000  0.0000  0.0000  0.0000 </r>
        <r>  0.0000  0.0000  0.0000  0.0002  0.0000  0.0000  0.0000  0.0000  0.0000 </r>
       </set>
       <set comment="band 15">
        <r>  0.0112  0.0000  0.0000  0.0221  0.0000  0.0000  0.0000  0.0000  0.0000 </r>
        <r>  0.0112  0.0000  0.0000  0.0221  0.0000  0.0000  0.0000  0.0000  0.0000 </r>
       </set>
       <set comment="band 16">
        <r>  0.0000  0.0000  0.0040  0.0000  0.0000  0.0000  0.0000  0.0000  0.0000 </r>
        <r>  0.0000  0.0000  0.0040  0.0000  0.0000  0.0000  0.0000  0.0000  0.0000 </r>
       </set>
      </set>
     </set>
     <set comment="spin2">
      <set comment="kpoint 1">
       <set comment="band 1">
        <r>  0.3982  0.0000  0.0000  0.1056  0.0000  0.0000  0.0000  0.0000  0.0000 </r>
        <r>  0.3982  0.0000  0.0000  0.1056  0.0000  0.0000  0.0000  0.0000  0.0000 </r>
       </set>
       <set comment="band 2">
        <r>  0.3687  0.0000  0.0000  0.0449  0.0000  0.0000  0.0000  0.0000  0.0000 </r>
        <r>  0.3687  0.0000  0.0000  0.0449  0.0000  0.0000  0.0000  0.0000  0.0000 </r>
       </set>
       <set comment="band 3">
        <r>  0.0469  0.0000  0.0000  0.3705  0.0000  0.0000  0.0000  0.0000  0.0000 </r>
        <r>  0.0469  0.0000  0.0000  0.3705  0.0000  0.0000  0.0000  0.0000  0.0000 </r>
       </set>
       <set comment="band 4">
        <r>  0.0000  0.0000  0.3600  0.0000  0.0000  0.0000  0.0000  0.0000  0.0000 </r>
        <r>  0.0000  0.0000  0.3600  0.0000  0.0000  0.0000  0.0000  0.0000  0.0000 </r>
       </set>
       <set comment="band 5">
        <r>  0.0000  0.3599  0.0000  0.0000  0.0000  0.0000  0.0000  0.0000  0.0000 </r>
        <r>  0.0000  0.3599  0.0000  0.0000  0.0000  0.0000  0.0000  0.0000  0.0000 </r>
       </set>
       <set comment="band 6">
        <r>  0.0000  0.0000  0.3744  0.0000  0.0000  0.0000  0.0000  0.0000  0.0000 </r>
        <r>  0.0000  0.0000  0.3744  0.0000  0.0000  0.0000  0.0000  0.0000  0.0000 </r>
       </set>
       <set comment="band 7">
        <r>  0.0000  0.3744  0.0000  0.0000  0.0000  0.0000  0.0000  0.0000  0.0000 </r>
        <r>  0.0000  0.3744  0.0000  0.0000  0.0000  0.0000  0.0000  0.0000  0.0000 </r>
       </set>
       <set comment="band 8">
        <r>  0.0031  0.0000  0.0000  0.0019  0.0000  0.0000  0.0000  0.0000  0.0000 </r>
        <r>  0.0031  0.0000  0.0000  0.0018  0.0000  0.0000  0.0000  0.0000  0.0000 </r>
       </set>
       <set comment="band 9">
        <r>  0.0048  0.0000  0.0000  0.0021  0.0000  0.0000  0.0000  0.0000  0.0000 </r>
        <r>  0.0046  0.0000  0.0000  0.0022  0.0000  0.0000  0.0000  0.0000  0.0000 </r>
       </set>
       <set comment="band 10">
        <r>  0.0078  0.0001  0.0000  0.0045  0.0000  0.0000  0.0000  0.0000  0.0000 </r>
        <r>  0.0080  0.0001  0.0000  0.0044  0.0000  0.0000  0.0000  0.0000  0.0000 </r>
       </set>
       <set comment="band 11">
        <r>  0.0000  0.0000  0.0035  0.0000  0.0000  0.0000  0.0000  0.0000  0.0000 </r>
        <r>  0.0000  0.0000  0.0035  0.0000  0.0000  0.0000  0.0000  0.0000  0.0000 </r>
       </set>
       <set comment="band 12">
        <r>  0.0002  0.0034  0.0000  0.0002  0.0000  0.0000  0.0000  0.0000  0.0000 </r>
        <r>  0.0003  0.0034  0.0000  0.0001  0.0000  0.0000  0.0000  0.0000  0.0000 </r>
       </set>
       <set comment="band 13">
        <r>  0.0001  0.0000  0.0000  0.0003  0.0000  0.0000  0.0000  0.0000  0.0000 </r>
        <r>  0.0000  0.0000  0.0000  0.0003  0.0000  0.0000  0.0000  0.0000  0.0000 </r>
       </set>
       <set comment="band 14">
        <r>  0.0000  0.0000  0.0000  0.0000  0.0000  0.0000  0.0000  0.0000  0.0000 </r>
        <r>  0.0000  0.0000  0.0000  0.0000  0.0000  0.0000  0.0000  0.0000  0.0000 </r>
       </set>
       <set comment="band 15">
        <r>  0.0094  0.0000  0.0000  0.0092  0.0000  0.0000  0.0000  0.0000  0.0000 </r>
        <r>  0.0094  0.0000  0.0000  0.0092  0.0000  0.0000  0.0000  0.0000  0.0000 </r>
       </set>
       <set comment="band 16">
        <r>  0.0000  0.0000  0.0046  0.0000  0.0000  0.0000  0.0000  0.0000  0.0000 </r>
        <r>  0.0000  0.0000  0.0045  0.0000  0.0000  0.0000  0.0000  0.0000  0.0000 </r>
       </set>
      </set>
     </set>
    </set>
   </array>
  </projected>
 </calculation>
 <structure name="finalpos" >
  <crystal>
   <varray name="basis" >
    <v>      12.00000000       0.00000000       0.00000000 </v>
    <v>       0.00000000      12.00000000       0.00000000 </v>
    <v>       0.00000000       0.00000000      12.00000000 </v>
   </varray>
   <i name="volume">   1728.00000000 </i>
   <varray name="rec_basis" >
    <v>       0.08333333       0.00000000       0.00000000 </v>
    <v>       0.00000000       0.08333333       0.00000000 </v>
    <v>       0.00000000       0.00000000       0.08333333 </v>
   </varray>
  </crystal>
  <varray name="positions" >
   <v>       0.44859250       0.49916667       0.50000000 </v>
   <v>       0.55140750       0.50000000       0.50000000 </v>
  </varray>
 </structure>
</modeling>
