unknown system                          
           1
    12.000000    0.000000    0.000000
     0.000000   12.000000    0.000000
     0.000000    0.000000   12.000000
   O 
   2
Direct configuration=     1
   0.44859250  0.50000000  0.50000000
   0.55140750  0.50000000  0.50000000
Direct configuration=     2
   0.44942583  0.50000000  0.50000000
   0.55140750  0.50000000  0.50000000
Direct configuration=     3
   0.44775917  0.50000000  0.50000000
   0.55140750  0.50000000  0.50000000
Direct configuration=     4
   0.44859250  0.50083333  0.50000000
   0.55140750  0.50000000  0.50000000
Direct configuration=     5
   0.44859250  0.49916667  0.50000000
   0.55140750  0.50000000  0.50000000
