 vasp.5.4.1 05Feb16 (build Feb 08 2018 09:21:51) complex                        
  
 executed on             LinuxIFC date 2019.11.07  11:50:01
 running on    8 total cores
 distrk:  each k-point on    8 cores,    1 groups
 distr:  one band on NCORES_PER_BAND=   1 cores,    8 groups


--------------------------------------------------------------------------------------------------------


 INCAR:
 POTCAR:    PAW_PBE C 08Apr2002                   
 POTCAR:    PAW_PBE O 08Apr2002                   

 ----------------------------------------------------------------------------- 
|                                                                             |
|           W    W    AA    RRRRR   N    N  II  N    N   GGGG   !!!           |
|           W    W   A  A   R    R  NN   N  II  NN   N  G    G  !!!           |
|           W    W  A    A  R    R  N N  N  II  N N  N  G       !!!           |
|           W WW W  AAAAAA  RRRRR   N  N N  II  N  N N  G  GGG   !            |
|           WW  WW  A    A  R   R   N   NN  II  N   NN  G    G                |
|           W    W  A    A  R    R  N    N  II  N    N   GGGG   !!!           |
|                                                                             |
|      For optimal performance we recommend to set                            |
|        NCORE= 4 - approx SQRT( number of cores)                             |
|      NCORE specifies how many cores store one orbital (NPAR=cpu/NCORE).     |
|      This setting can  greatly improve the performance of VASP for DFT.     |
|      The default, NPAR=number of cores might be grossly inefficient         |
|      on modern multi-core architectures or massively parallel machines.     |
|      Do your own testing !!!!                                               |
|      Unfortunately you need to use the default for GW and RPA calculations. |
|      (for HF NCORE is supported but not extensively tested yet)             |
|                                                                             |
 ----------------------------------------------------------------------------- 

 POTCAR:    PAW_PBE C 08Apr2002                   
   VRHFIN =C: s2p2                                                              
   LEXCH  = PE                                                                  
   EATOM  =   147.1560 eV,   10.8157 Ry                                         
                                                                                
   TITEL  = PAW_PBE C 08Apr2002                                                 
   LULTRA =        F    use ultrasoft PP ?                                      
   IUNSCR =        1    unscreen: 0-lin 1-nonlin 2-no                           
   RPACOR =    1.200    partial core radius                                     
   POMASS =   12.011; ZVAL   =    4.000    mass and valenz                      
   RCORE  =    1.500    outmost cutoff radius                                   
   RWIGS  =    1.630; RWIGS  =    0.863    wigner-seitz radius (au A)           
   ENMAX  =  400.000; ENMIN  =  300.000 eV                                      
   ICORE  =        2    local potential                                         
   LCOR   =        T    correct aug charges                                     
   LPAW   =        T    paw PP                                                  
   EAUG   =  644.873                                                            
   DEXC   =    0.000                                                            
   RMAX   =    1.529    core radius for proj-oper                               
   RAUG   =    1.300    factor for augmentation sphere                          
   RDEP   =    1.501    radius for radial grids                                 
   RDEPT  =    1.300    core radius for aug-charge                              
                                                                                
   Atomic configuration                                                         
    4 entries                                                                   
     n  l   j            E        occ.                                          
     1  0  0.50      -273.3789   2.0000                                         
     2  0  0.50       -13.7508   2.0000                                         
     2  1  0.50        -5.2854   2.0000                                         
     3  2  1.50        -5.4423   0.0000                                         
   Description                                                                  
     l       E           TYP  RCUT    TYP  RCUT                                 
     0    -13.7508458     23  1.200                                             
     0     -8.2022199     23  1.200                                             
     1     -5.2854383     23  1.500                                             
     1     34.0145650     23  1.500                                             
     2     -5.4423304      7  1.500                                             
  local pseudopotential read in
  partial core-charges read in
  partial kinetic energy density read in
  atomic valenz-charges read in
  non local Contribution for L=           0  read in
    real space projection operators read in
  non local Contribution for L=           0  read in
    real space projection operators read in
  non local Contribution for L=           1  read in
    real space projection operators read in
  non local Contribution for L=           1  read in
    real space projection operators read in
    PAW grid and wavefunctions read in
 
   number of l-projection  operators is LMAX  =           4
   number of lm-projection operators is LMMAX =           8
 
 POTCAR:    PAW_PBE O 08Apr2002                   
   VRHFIN =O: s2p4                                                              
   LEXCH  = PE                                                                  
   EATOM  =   432.3788 eV,   31.7789 Ry                                         
                                                                                
   TITEL  = PAW_PBE O 08Apr2002                                                 
   LULTRA =        F    use ultrasoft PP ?                                      
   IUNSCR =        1    unscreen: 0-lin 1-nonlin 2-no                           
   RPACOR =    1.200    partial core radius                                     
   POMASS =   16.000; ZVAL   =    6.000    mass and valenz                      
   RCORE  =    1.520    outmost cutoff radius                                   
   RWIGS  =    1.550; RWIGS  =    0.820    wigner-seitz radius (au A)           
   ENMAX  =  400.000; ENMIN  =  300.000 eV                                      
   ICORE  =        2    local potential                                         
   LCOR   =        T    correct aug charges                                     
   LPAW   =        T    paw PP                                                  
   EAUG   =  605.392                                                            
   DEXC   =    0.000                                                            
   RMAX   =    1.553    core radius for proj-oper                               
   RAUG   =    1.300    factor for augmentation sphere                          
   RDEP   =    1.550    radius for radial grids                                 
   RDEPT  =    1.329    core radius for aug-charge                              
                                                                                
   Atomic configuration                                                         
    4 entries                                                                   
     n  l   j            E        occ.                                          
     1  0  0.50      -514.6923   2.0000                                         
     2  0  0.50       -23.9615   2.0000                                         
     2  1  0.50        -9.0305   4.0000                                         
     3  2  1.50        -9.5241   0.0000                                         
   Description                                                                  
     l       E           TYP  RCUT    TYP  RCUT                                 
     0    -23.9615318     23  1.200                                             
     0     -9.5240782     23  1.200                                             
     1     -9.0304911     23  1.520                                             
     1      8.1634956     23  1.520                                             
     2     -9.5240782      7  1.500                                             
  local pseudopotential read in
  partial core-charges read in
  partial kinetic energy density read in
  kinetic energy density of atom read in
  atomic valenz-charges read in
  non local Contribution for L=           0  read in
    real space projection operators read in
  non local Contribution for L=           0  read in
    real space projection operators read in
  non local Contribution for L=           1  read in
    real space projection operators read in
  non local Contribution for L=           1  read in
    real space projection operators read in
    PAW grid and wavefunctions read in
 
   number of l-projection  operators is LMAX  =           4
   number of lm-projection operators is LMMAX =           8
 
  PAW_PBE C 08Apr2002                   :
 energy of atom  1       EATOM= -147.1560
 kinetic energy error for atom=    0.0854 (will be added to EATOM!!)
  PAW_PBE O 08Apr2002                   :
 energy of atom  2       EATOM= -432.3788
 kinetic energy error for atom=    0.3782 (will be added to EATOM!!)
 
 
 POSCAR:  C  O                                   
  positions in cartesian coordinates
  No initial velocities read in
 exchange correlation table for  LEXCH =        8
   RHO(1)=    0.500       N(1)  =     2000
   RHO(2)=  100.500       N(2)  =     4000
 


--------------------------------------------------------------------------------------------------------


 ion  position               nearest neighbor table
   1  0.000  0.000  0.000-   2 1.10
   2  0.110  0.000  0.000-   1 1.10
 
  LATTYP: Found a simple cubic cell.
 ALAT       =    10.0000000000
  
  Lattice vectors:
  
 A1 = (  10.0000000000,   0.0000000000,   0.0000000000)
 A2 = (   0.0000000000,  10.0000000000,   0.0000000000)
 A3 = (   0.0000000000,   0.0000000000,  10.0000000000)


Analysis of symmetry for initial positions (statically):
=====================================================================
 Subroutine PRICEL returns:
 Original cell was already a primitive cell.
 

 Routine SETGRP: Setting up the symmetry group for a 
 simple cubic supercell.


 Subroutine GETGRP returns: Found  8 space group operations
 (whereof  8 operations were pure point group operations)
 out of a pool of 48 trial point group operations.


The static configuration has the point symmetry C_4v.


Analysis of symmetry for dynamics (positions and initial velocities):
=====================================================================
 Subroutine PRICEL returns:
 Original cell was already a primitive cell.
 

 Routine SETGRP: Setting up the symmetry group for a 
 simple cubic supercell.


 Subroutine GETGRP returns: Found  8 space group operations
 (whereof  8 operations were pure point group operations)
 out of a pool of 48 trial point group operations.


The dynamic configuration has the point symmetry C_4v.


 Subroutine INISYM returns: Found  8 space group operations
 (whereof  8 operations are pure point group operations),
 and found     1 'primitive' translations

 
 
 KPOINTS: KPOINTS created by Atomic Simulation Env

Automatic generation of k-mesh.
Space group operators:
 irot       det(A)        alpha          n_x          n_y          n_z        tau_x        tau_y        tau_z
    1     1.000000     0.000000     1.000000     0.000000     0.000000     0.000000     0.000000     0.000000
    2    -1.000000   180.000000     0.000000     0.707107     0.707107     0.000000     0.000000     0.000000
    3    -1.000000   180.000000     0.000000     0.000000     1.000000     0.000000     0.000000     0.000000
    4     1.000000    90.000000    -1.000000     0.000000     0.000000     0.000000     0.000000     0.000000
    5     1.000000   180.000000     1.000000     0.000000     0.000000     0.000000     0.000000     0.000000
    6     1.000000    90.000000     1.000000     0.000000     0.000000     0.000000     0.000000     0.000000
    7    -1.000000   180.000000     0.000000     1.000000     0.000000     0.000000     0.000000     0.000000
    8    -1.000000   180.000000     0.000000    -0.707107     0.707107     0.000000     0.000000     0.000000
 
 Subroutine IBZKPT returns following result:
 ===========================================
 
 Found      1 irreducible k-points:
 
 Following reciprocal coordinates:
            Coordinates               Weight
  0.000000  0.000000  0.000000      1.000000
 
 Following cartesian coordinates:
            Coordinates               Weight
  0.000000  0.000000  0.000000      1.000000
 


--------------------------------------------------------------------------------------------------------




 Dimension of arrays:
   k-points           NKPTS =      1   k-points in BZ     NKDIM =      1   number of bands    NBANDS=      8
   number of dos      NEDOS =    301   number of ions     NIONS =      2
   non local maximal  LDIM  =      4   non local SUM 2l+1 LMDIM =      8
   total plane-waves  NPLWV = 110592
   max r-space proj   IRMAX =      1   max aug-charges    IRDMAX=   1634
   dimension x,y,z NGX =    48 NGY =   48 NGZ =   48
   dimension x,y,z NGXF=    96 NGYF=   96 NGZF=   96
   support grid    NGXF=    96 NGYF=   96 NGZF=   96
   ions per type =               1   1
 NGX,Y,Z   is equivalent  to a cutoff of   7.98,  7.98,  7.98 a.u.
 NGXF,Y,Z  is equivalent  to a cutoff of  15.96, 15.96, 15.96 a.u.


 I would recommend the setting:
   dimension x,y,z NGX =    46 NGY =   46 NGZ =   46
 SYSTEM =  unknown system                          
 POSCAR =   C  O                                   

 Startparameter for this run:
   NWRITE =      2    write-flag & timer
   PREC   = normal    normal or accurate (medium, high low for compatibility)
   ISTART =      0    job   : 0-new  1-cont  2-samecut
   ICHARG =      2    charge: 1-file 2-atom 10-const
   ISPIN  =      1    spin polarized calculation?
   LNONCOLLINEAR =      F non collinear calculations
   LSORBIT =      F    spin-orbit coupling
   INIWAV =      1    electr: 0-lowe 1-rand  2-diag
   LASPH  =      F    aspherical Exc in radial PAW
   METAGGA=      F    non-selfconsistent MetaGGA calc.

 Electronic Relaxation 1
   ENCUT  =  350.0 eV  25.72 Ry    5.07 a.u.  15.25 15.25 15.25*2*pi/ulx,y,z
   ENINI  =  350.0     initial cutoff
   ENAUG  =  644.9 eV  augmentation charge cutoff
   NELM   =     60;   NELMIN=  2; NELMDL= -5     # of ELM steps 
   EDIFF  = 0.1E-03   stopping-criterion for ELM
   LREAL  =      F    real-space projection
   NLSPLINE    = F    spline interpolate recip. space projectors
   LCOMPAT=      F    compatible to vasp.4.4
   GGA_COMPAT  = T    GGA compatible to vasp.4.4-vasp.4.6
   LMAXPAW     = -100 max onsite density
   LMAXMIX     =    2 max onsite mixed and CHGCAR
   VOSKOWN=      0    Vosko Wilk Nusair interpolation
   ROPT   =    0.00000   0.00000
 Ionic relaxation
   EDIFFG = 0.1E-02   stopping-criterion for IOM
   NSW    =     20    number of steps for IOM
   NBLOCK =      1;   KBLOCK =     20    inner block; outer block 
   IBRION =      2    ionic relax: 0-MD 1-quasi-New 2-CG
   NFREE  =      1    steps in history (QN), initial steepest desc. (CG)
   ISIF   =      2    stress and relaxation
   IWAVPR =     11    prediction:  0-non 1-charg 2-wave 3-comb
   ISYM   =      2    0-nonsym 1-usesym 2-fastsym
   LCORR  =      T    Harris-Foulkes like correction to forces

   POTIM  = 0.5000    time-step for ionic-motion
   TEIN   =    0.0    initial temperature
   TEBEG  =    0.0;   TEEND  =   0.0 temperature during run
   SMASS  =  -3.00    Nose mass-parameter (am)
   estimated Nose-frequenzy (Omega)   =  0.10E-29 period in steps =****** mass=  -0.229E-26a.u.
   SCALEE = 1.0000    scale energy and forces
   NPACO  =    256;   APACO  = 16.0  distance and # of slots for P.C.
   PSTRESS=    0.0 pullay stress

  Mass of Ions in am
   POMASS =  12.01 16.00
  Ionic Valenz
   ZVAL   =   4.00  6.00
  Atomic Wigner-Seitz radii
   RWIGS  =  -1.00 -1.00
  virtual crystal weights 
   VCA    =   1.00  1.00
   NELECT =      10.0000    total number of electrons
   NUPDOWN=      -1.0000    fix difference up-down

 DOS related values:
   EMIN   =  10.00;   EMAX   =-10.00  energy-range for DOS
   EFERMI =   0.00
   ISMEAR =     1;   SIGMA  =   0.01  broadening in eV -4-tet -1-fermi 0-gaus

 Electronic relaxation 2 (details)
   IALGO  =     38    algorithm
   LDIAG  =      T    sub-space diagonalisation (order eigenvalues)
   LSUBROT=      F    optimize rotation matrix (better conditioning)
   TURBO    =      0    0=normal 1=particle mesh
   IRESTART =      0    0=no restart 2=restart with 2 vectors
   NREBOOT  =      0    no. of reboots
   NMIN     =      0    reboot dimension
   EREF     =   0.00    reference energy to select bands
   IMIX   =      4    mixing-type and parameters
     AMIX     =   0.40;   BMIX     =  1.00
     AMIX_MAG =   1.60;   BMIX_MAG =  1.00
     AMIN     =   0.10
     WC   =   100.;   INIMIX=   1;  MIXPRE=   1;  MAXMIX= -45

 Intra band minimization:
   WEIMIN = 0.0010     energy-eigenvalue tresh-hold
   EBREAK =  0.31E-05  absolut break condition
   DEPER  =   0.30     relativ break condition  

   TIME   =   0.40     timestep for ELM

  volume/ion in A,a.u.               =     500.00      3374.17
  Fermi-wavevector in a.u.,A,eV,Ry     =   0.352702  0.666511  1.692549  0.124399
  Thomas-Fermi vector in A             =   1.266362
 
 Write flags
   LWAVE  =      F    write WAVECAR
   LCHARG =      F    write CHGCAR
   LVTOT  =      F    write LOCPOT, total local potential
   LVHAR  =      F    write LOCPOT, Hartree potential only
   LELF   =      F    write electronic localiz. function (ELF)
   LORBIT =      0    0 simple, 1 ext, 2 COOP (PROOUT)


 Dipole corrections
   LMONO  =      F    monopole corrections only (constant potential shift)
   LDIPOL =      F    correct potential (dipole corrections)
   IDIPOL =      0    1-x, 2-y, 3-z, 4-all directions 
   EPSILON=  1.0000000 bulk dielectric constant

 Exchange correlation treatment:
   GGA     =    --    GGA type
   LEXCH   =     8    internal setting for exchange type
   VOSKOWN=      0    Vosko Wilk Nusair interpolation
   LHFCALC =     F    Hartree Fock is set to
   LHFONE  =     F    Hartree Fock one center treatment
   AEXX    =    0.0000 exact exchange contribution

 Linear response parameters
   LEPSILON=     F    determine dielectric tensor
   LRPA    =     F    only Hartree local field effects (RPA)
   LNABLA  =     F    use nabla operator in PAW spheres
   LVEL    =     F    velocity operator in full k-point grid
   LINTERFAST=   F  fast interpolation
   KINTER  =     0    interpolate to denser k-point grid
   CSHIFT  =0.1000    complex shift for real part using Kramers Kronig
   OMEGAMAX=  -1.0    maximum frequency
   DEG_THRESHOLD= 0.2000000E-02 threshold for treating states as degnerate
   RTIME   =    0.100 relaxation time in fs

 Orbital magnetization related:
   ORBITALMAG=     F  switch on orbital magnetization
   LCHIMAG   =     F  perturbation theory with respect to B field
   DQ        =  0.001000  dq finite difference perturbation B field



--------------------------------------------------------------------------------------------------------


 conjugate gradient relaxation of ions
 charge density and potential will be updated during run
 non-spin polarized calculation
 Variant of blocked Davidson
 Davidson routine will perform the subspace rotation
 perform sub-space diagonalisation
    after iterative eigenvector-optimisation
 modified Broyden-mixing scheme, WC =      100.0
 initial mixing is a Kerker type mixing with AMIX =  0.4000 and BMIX =      1.0000
 Hartree-type preconditioning will be used
 using additional bands            3
 reciprocal scheme for non local part
 use partial core corrections
 calculate Harris-corrections to forces 
   (improved forces if not selfconsistent)
 use gradient corrections 
 use of overlap-Matrix (Vanderbilt PP)
 Methfessel and Paxton  Order N= 1 SIGMA  =   0.01


--------------------------------------------------------------------------------------------------------


  energy-cutoff  :      350.00
  volume of cell :     1000.00
      direct lattice vectors                 reciprocal lattice vectors
    10.000000000  0.000000000  0.000000000     0.100000000  0.000000000  0.000000000
     0.000000000 10.000000000  0.000000000     0.000000000  0.100000000  0.000000000
     0.000000000  0.000000000 10.000000000     0.000000000  0.000000000  0.100000000

  length of vectors
    10.000000000 10.000000000 10.000000000     0.100000000  0.100000000  0.100000000


 
 k-points in units of 2pi/SCALE and weight: KPOINTS created by Atomic Simulation Env
   0.00000000  0.00000000  0.00000000       1.000
 
 k-points in reciprocal lattice and weights: KPOINTS created by Atomic Simulation Env
   0.00000000  0.00000000  0.00000000       1.000
 
 position of ions in fractional coordinates (direct lattice) 
   0.00000000  0.00000000  0.00000000
   0.11000000  0.00000000  0.00000000
 
 position of ions in cartesian coordinates  (Angst):
   0.00000000  0.00000000  0.00000000
   1.10000000  0.00000000  0.00000000
 


--------------------------------------------------------------------------------------------------------


 k-point  1 :   0.0000 0.0000 0.0000  plane waves:   14795

 maximum and minimum number of plane-waves per node :     14795    14795

 maximum number of plane-waves:     14795
 maximum index in each direction: 
   IXMAX=   15   IYMAX=   15   IZMAX=   15
   IXMIN=  -15   IYMIN=  -15   IZMIN=  -15

 WARNING: aliasing errors must be expected set NGX to  62 to avoid them
 WARNING: aliasing errors must be expected set NGY to  62 to avoid them
 WARNING: aliasing errors must be expected set NGZ to  62 to avoid them
 aliasing errors are usually negligible using standard VASP settings
 and one can safely disregard these warnings

 serial   3D FFT for wavefunctions
 parallel 3D FFT for charge:
    minimum data exchange during FFTs selected (reduces bandwidth)


 total amount of memory used by VASP on root node    47596. kBytes
========================================================================

   base      :      30000. kBytes
   nonl-proj :       2368. kBytes
   fftplans  :       4240. kBytes
   grid      :      10745. kBytes
   one-center:          6. kBytes
   wavefun   :        237. kBytes
 
     INWAV:  cpu time    0.0000: real time    0.0001
 Broyden mixing: mesh for mixing (old mesh)
   NGX = 31   NGY = 31   NGZ = 31
  (NGX  = 96   NGY  = 96   NGZ  = 96)
  gives a total of  29791 points

 initial charge density was supplied:
 charge density of overlapping atoms calculated
 number of electron      10.0000000 magnetization 
 keeping initial charge density in first step


--------------------------------------------------------------------------------------------------------


 Maximum index for augmentation-charges          198 (set IRDMAX)


--------------------------------------------------------------------------------------------------------


 First call to EWALD:  gamma=   0.177
 Maximum number of real-space cells 3x 3x 3
 Maximum number of reciprocal cells 3x 3x 3

 FEWALD executed in parallel
    FEWALD:  cpu time    0.0023: real time    0.0023


----------------------------------------- Iteration    1(   1)  ---------------------------------------


    POTLOK:  cpu time    0.0907: real time    0.0907
    SETDIJ:  cpu time    0.0017: real time    0.0017
     EDDAV:  cpu time    0.0279: real time    0.0279
       DOS:  cpu time    0.0002: real time    0.0003
    --------------------------------------------
      LOOP:  cpu time    0.1217: real time    0.1224

 eigenvalue-minimisations  :    16
 total energy-change (2. order) : 0.8600669E+02  (-0.1800956E+03)
 number of electron      10.0000000 magnetization 
 augmentation part       10.0000000 magnetization 

 Free energy of the ion-electron system (eV)
  ---------------------------------------------------
  alpha Z        PSCENC =         0.43695755
  Ewald energy   TEWEN  =       110.78635065
  -Hartree energ DENC   =      -567.18250745
  -exchange      EXHF   =         0.00000000
  -V(xc)+E(xc)   XCENC  =        39.40112230
  PAW double counting   =       455.07152327     -457.43959975
  entropy T*S    EENTRO =         0.00057979
  eigenvalues    EBANDS =       -74.13896721
  atomic energy  EATOM  =       579.07123046
  Solvation  Ediel_sol  =         0.00000000
  ---------------------------------------------------
  free energy    TOTEN  =        86.00668962 eV

  energy without entropy =       86.00610983  energy(sigma->0) =       86.00649636


--------------------------------------------------------------------------------------------------------




----------------------------------------- Iteration    1(   2)  ---------------------------------------


     EDDAV:  cpu time    0.0443: real time    0.0443
       DOS:  cpu time    0.0002: real time    0.0002
    --------------------------------------------
      LOOP:  cpu time    0.0467: real time    0.0492

 eigenvalue-minimisations  :    32
 total energy-change (2. order) :-0.8554675E+02  (-0.8554675E+02)
 number of electron      10.0000000 magnetization 
 augmentation part       10.0000000 magnetization 

 Free energy of the ion-electron system (eV)
  ---------------------------------------------------
  alpha Z        PSCENC =         0.43695755
  Ewald energy   TEWEN  =       110.78635065
  -Hartree energ DENC   =      -567.18250745
  -exchange      EXHF   =         0.00000000
  -V(xc)+E(xc)   XCENC  =        39.40112230
  PAW double counting   =       455.07152327     -457.43959975
  entropy T*S    EENTRO =         0.00057979
  eigenvalues    EBANDS =      -159.68572088
  atomic energy  EATOM  =       579.07123046
  Solvation  Ediel_sol  =         0.00000000
  ---------------------------------------------------
  free energy    TOTEN  =         0.45993596 eV

  energy without entropy =        0.45935617  energy(sigma->0) =        0.45974269


--------------------------------------------------------------------------------------------------------




----------------------------------------- Iteration    1(   3)  ---------------------------------------


     EDDAV:  cpu time    0.0440: real time    0.0440
       DOS:  cpu time    0.0002: real time    0.0002
    --------------------------------------------
      LOOP:  cpu time    0.0459: real time    0.0485

 eigenvalue-minimisations  :    32
 total energy-change (2. order) :-0.1592235E+02  (-0.1592235E+02)
 number of electron      10.0000000 magnetization 
 augmentation part       10.0000000 magnetization 

 Free energy of the ion-electron system (eV)
  ---------------------------------------------------
  alpha Z        PSCENC =         0.43695755
  Ewald energy   TEWEN  =       110.78635065
  -Hartree energ DENC   =      -567.18250745
  -exchange      EXHF   =         0.00000000
  -V(xc)+E(xc)   XCENC  =        39.40112230
  PAW double counting   =       455.07152327     -457.43959975
  entropy T*S    EENTRO =         0.00057979
  eigenvalues    EBANDS =      -175.60807446
  atomic energy  EATOM  =       579.07123046
  Solvation  Ediel_sol  =         0.00000000
  ---------------------------------------------------
  free energy    TOTEN  =       -15.46241763 eV

  energy without entropy =      -15.46299742  energy(sigma->0) =      -15.46261089


--------------------------------------------------------------------------------------------------------




----------------------------------------- Iteration    1(   4)  ---------------------------------------


     EDDAV:  cpu time    0.0344: real time    0.0344
       DOS:  cpu time    0.0002: real time    0.0002
    --------------------------------------------
      LOOP:  cpu time    0.0365: real time    0.0386

 eigenvalue-minimisations  :    24
 total energy-change (2. order) :-0.1338515E+00  (-0.1338515E+00)
 number of electron      10.0000000 magnetization 
 augmentation part       10.0000000 magnetization 

 Free energy of the ion-electron system (eV)
  ---------------------------------------------------
  alpha Z        PSCENC =         0.43695755
  Ewald energy   TEWEN  =       110.78635065
  -Hartree energ DENC   =      -567.18250745
  -exchange      EXHF   =         0.00000000
  -V(xc)+E(xc)   XCENC  =        39.40112230
  PAW double counting   =       455.07152327     -457.43959975
  entropy T*S    EENTRO =         0.00057979
  eigenvalues    EBANDS =      -175.74192600
  atomic energy  EATOM  =       579.07123046
  Solvation  Ediel_sol  =         0.00000000
  ---------------------------------------------------
  free energy    TOTEN  =       -15.59626917 eV

  energy without entropy =      -15.59684896  energy(sigma->0) =      -15.59646243


--------------------------------------------------------------------------------------------------------




----------------------------------------- Iteration    1(   5)  ---------------------------------------


     EDDAV:  cpu time    0.0483: real time    0.0484
       DOS:  cpu time    0.0002: real time    0.0002
    CHARGE:  cpu time    0.0262: real time    0.0263
    MIXING:  cpu time    0.0044: real time    0.0045
    --------------------------------------------
      LOOP:  cpu time    0.0815: real time    0.0862

 eigenvalue-minimisations  :    24
 total energy-change (2. order) :-0.8284845E-04  (-0.8284862E-04)
 number of electron       9.9999993 magnetization 
 augmentation part        0.7291358 magnetization 

 Broyden mixing:
  rms(total) = 0.73438E+00    rms(broyden)= 0.73309E+00
  rms(prec ) = 0.86090E+00
  weight for this iteration     100.00

 Free energy of the ion-electron system (eV)
  ---------------------------------------------------
  alpha Z        PSCENC =         0.43695755
  Ewald energy   TEWEN  =       110.78635065
  -Hartree energ DENC   =      -567.18250745
  -exchange      EXHF   =         0.00000000
  -V(xc)+E(xc)   XCENC  =        39.40112230
  PAW double counting   =       455.07152327     -457.43959975
  entropy T*S    EENTRO =         0.00057979
  eigenvalues    EBANDS =      -175.74200885
  atomic energy  EATOM  =       579.07123046
  Solvation  Ediel_sol  =         0.00000000
  ---------------------------------------------------
  free energy    TOTEN  =       -15.59635202 eV

  energy without entropy =      -15.59693181  energy(sigma->0) =      -15.59654528


--------------------------------------------------------------------------------------------------------




----------------------------------------- Iteration    1(   6)  ---------------------------------------


    POTLOK:  cpu time    0.0865: real time    0.0867
    SETDIJ:  cpu time    0.0015: real time    0.0015
     EDDAV:  cpu time    0.0291: real time    0.0291
       DOS:  cpu time    0.0001: real time    0.0001
    CHARGE:  cpu time    0.0215: real time    0.0216
    MIXING:  cpu time    0.0053: real time    0.0053
    --------------------------------------------
      LOOP:  cpu time    0.1462: real time    0.1491

 eigenvalue-minimisations  :    16
 total energy-change (2. order) : 0.7287019E+00  (-0.2687719E+00)
 number of electron       9.9999995 magnetization 
 augmentation part        0.6651426 magnetization 

 Broyden mixing:
  rms(total) = 0.39514E+00    rms(broyden)= 0.39481E+00
  rms(prec ) = 0.44564E+00
  weight for this iteration     100.00

 eigenvalues of (default mixing * dielectric matrix)
  average eigenvalue GAMMA=   1.3029
  1.3029

 Free energy of the ion-electron system (eV)
  ---------------------------------------------------
  alpha Z        PSCENC =         0.43695755
  Ewald energy   TEWEN  =       110.78635065
  -Hartree energ DENC   =      -581.61734114
  -exchange      EXHF   =         0.00000000
  -V(xc)+E(xc)   XCENC  =        40.23669983
  PAW double counting   =       630.56365063     -633.06193348
  entropy T*S    EENTRO =         0.00000000
  eigenvalues    EBANDS =      -161.28326460
  atomic energy  EATOM  =       579.07123046
  Solvation  Ediel_sol  =         0.00000000
  ---------------------------------------------------
  free energy    TOTEN  =       -14.86765009 eV

  energy without entropy =      -14.86765009  energy(sigma->0) =      -14.86765009


--------------------------------------------------------------------------------------------------------




----------------------------------------- Iteration    1(   7)  ---------------------------------------


    POTLOK:  cpu time    0.0828: real time    0.0831
    SETDIJ:  cpu time    0.0014: real time    0.0014
     EDDAV:  cpu time    0.0389: real time    0.0390
       DOS:  cpu time    0.0001: real time    0.0001
    CHARGE:  cpu time    0.0206: real time    0.0206
    MIXING:  cpu time    0.0034: real time    0.0034
    --------------------------------------------
      LOOP:  cpu time    0.1494: real time    0.1517

 eigenvalue-minimisations  :    24
 total energy-change (2. order) : 0.1518307E+00  (-0.5828994E-01)
 number of electron       9.9999995 magnetization 
 augmentation part        0.6774191 magnetization 

 Broyden mixing:
  rms(total) = 0.18554E+00    rms(broyden)= 0.18552E+00
  rms(prec ) = 0.20770E+00
  weight for this iteration     100.00

 eigenvalues of (default mixing * dielectric matrix)
  average eigenvalue GAMMA=   1.5037
  0.8126  2.1947

 Free energy of the ion-electron system (eV)
  ---------------------------------------------------
  alpha Z        PSCENC =         0.43695755
  Ewald energy   TEWEN  =       110.78635065
  -Hartree energ DENC   =      -585.56520276
  -exchange      EXHF   =         0.00000000
  -V(xc)+E(xc)   XCENC  =        40.48286486
  PAW double counting   =       781.09556152     -783.56120673
  entropy T*S    EENTRO =         0.00000000
  eigenvalues    EBANDS =      -157.46237496
  atomic energy  EATOM  =       579.07123046
  Solvation  Ediel_sol  =         0.00000000
  ---------------------------------------------------
  free energy    TOTEN  =       -14.71581940 eV

  energy without entropy =      -14.71581940  energy(sigma->0) =      -14.71581940


--------------------------------------------------------------------------------------------------------




----------------------------------------- Iteration    1(   8)  ---------------------------------------


    POTLOK:  cpu time    0.0797: real time    0.0799
    SETDIJ:  cpu time    0.0014: real time    0.0014
     EDDAV:  cpu time    0.0376: real time    0.0376
       DOS:  cpu time    0.0001: real time    0.0001
    CHARGE:  cpu time    0.0208: real time    0.0208
    MIXING:  cpu time    0.0035: real time    0.0035
    --------------------------------------------
      LOOP:  cpu time    0.1457: real time    0.1597

 eigenvalue-minimisations  :    24
 total energy-change (2. order) : 0.2819572E-01  (-0.1300521E-01)
 number of electron       9.9999995 magnetization 
 augmentation part        0.6667794 magnetization 

 Broyden mixing:
  rms(total) = 0.53089E-01    rms(broyden)= 0.53063E-01
  rms(prec ) = 0.60328E-01
  weight for this iteration     100.00

 eigenvalues of (default mixing * dielectric matrix)
  average eigenvalue GAMMA=   1.6597
  2.5537  1.6446  0.7808

 Free energy of the ion-electron system (eV)
  ---------------------------------------------------
  alpha Z        PSCENC =         0.43695755
  Ewald energy   TEWEN  =       110.78635065
  -Hartree energ DENC   =      -589.87912832
  -exchange      EXHF   =         0.00000000
  -V(xc)+E(xc)   XCENC  =        40.74297753
  PAW double counting   =       923.49626609     -925.95158351
  entropy T*S    EENTRO =         0.00000000
  eigenvalues    EBANDS =      -153.39069414
  atomic energy  EATOM  =       579.07123046
  Solvation  Ediel_sol  =         0.00000000
  ---------------------------------------------------
  free energy    TOTEN  =       -14.68762368 eV

  energy without entropy =      -14.68762368  energy(sigma->0) =      -14.68762368


--------------------------------------------------------------------------------------------------------




----------------------------------------- Iteration    1(   9)  ---------------------------------------


    POTLOK:  cpu time    0.0788: real time    0.0788
    SETDIJ:  cpu time    0.0014: real time    0.0014
     EDDAV:  cpu time    0.0290: real time    0.0290
       DOS:  cpu time    0.0001: real time    0.0001
    CHARGE:  cpu time    0.0206: real time    0.0206
    MIXING:  cpu time    0.0037: real time    0.0037
    --------------------------------------------
      LOOP:  cpu time    0.1357: real time    0.1375

 eigenvalue-minimisations  :    16
 total energy-change (2. order) : 0.6073219E-03  (-0.9198286E-03)
 number of electron       9.9999995 magnetization 
 augmentation part        0.6660079 magnetization 

 Broyden mixing:
  rms(total) = 0.88966E-02    rms(broyden)= 0.88778E-02
  rms(prec ) = 0.14574E-01
  weight for this iteration     100.00

 eigenvalues of (default mixing * dielectric matrix)
  average eigenvalue GAMMA=   1.4531
  2.3690  1.7162  0.8056  0.9215

 Free energy of the ion-electron system (eV)
  ---------------------------------------------------
  alpha Z        PSCENC =         0.43695755
  Ewald energy   TEWEN  =       110.78635065
  -Hartree energ DENC   =      -589.55655625
  -exchange      EXHF   =         0.00000000
  -V(xc)+E(xc)   XCENC  =        40.72344181
  PAW double counting   =       967.67337590     -970.09613055
  entropy T*S    EENTRO =         0.00000000
  eigenvalues    EBANDS =      -153.72568593
  atomic energy  EATOM  =       579.07123046
  Solvation  Ediel_sol  =         0.00000000
  ---------------------------------------------------
  free energy    TOTEN  =       -14.68701636 eV

  energy without entropy =      -14.68701636  energy(sigma->0) =      -14.68701636


--------------------------------------------------------------------------------------------------------




----------------------------------------- Iteration    1(  10)  ---------------------------------------


    POTLOK:  cpu time    0.0787: real time    0.0787
    SETDIJ:  cpu time    0.0013: real time    0.0013
     EDDAV:  cpu time    0.0283: real time    0.0283
       DOS:  cpu time    0.0001: real time    0.0001
    CHARGE:  cpu time    0.0202: real time    0.0203
    MIXING:  cpu time    0.0037: real time    0.0037
    --------------------------------------------
      LOOP:  cpu time    0.1342: real time    0.1362

 eigenvalue-minimisations  :    16
 total energy-change (2. order) :-0.7190517E-03  (-0.5803075E-04)
 number of electron       9.9999995 magnetization 
 augmentation part        0.6667162 magnetization 

 Broyden mixing:
  rms(total) = 0.40935E-02    rms(broyden)= 0.40923E-02
  rms(prec ) = 0.98853E-02
  weight for this iteration     100.00

 eigenvalues of (default mixing * dielectric matrix)
  average eigenvalue GAMMA=   1.6650
  0.7972  0.9995  2.4201  2.4201  1.6884

 Free energy of the ion-electron system (eV)
  ---------------------------------------------------
  alpha Z        PSCENC =         0.43695755
  Ewald energy   TEWEN  =       110.78635065
  -Hartree energ DENC   =      -589.53508572
  -exchange      EXHF   =         0.00000000
  -V(xc)+E(xc)   XCENC  =        40.71943253
  PAW double counting   =       963.03279713     -965.45274330
  entropy T*S    EENTRO =         0.00000000
  eigenvalues    EBANDS =      -153.74667472
  atomic energy  EATOM  =       579.07123046
  Solvation  Ediel_sol  =         0.00000000
  ---------------------------------------------------
  free energy    TOTEN  =       -14.68773541 eV

  energy without entropy =      -14.68773541  energy(sigma->0) =      -14.68773541


--------------------------------------------------------------------------------------------------------




----------------------------------------- Iteration    1(  11)  ---------------------------------------


    POTLOK:  cpu time    0.0753: real time    0.0753
    SETDIJ:  cpu time    0.0014: real time    0.0014
     EDDAV:  cpu time    0.0283: real time    0.0283
       DOS:  cpu time    0.0001: real time    0.0001
    CHARGE:  cpu time    0.0195: real time    0.0195
    MIXING:  cpu time    0.0037: real time    0.0037
    --------------------------------------------
      LOOP:  cpu time    0.1301: real time    0.1320

 eigenvalue-minimisations  :    16
 total energy-change (2. order) :-0.1601121E-02  (-0.7706487E-04)
 number of electron       9.9999995 magnetization 
 augmentation part        0.6668102 magnetization 

 Broyden mixing:
  rms(total) = 0.23854E-02    rms(broyden)= 0.23841E-02
  rms(prec ) = 0.47433E-02
  weight for this iteration     100.00

 eigenvalues of (default mixing * dielectric matrix)
  average eigenvalue GAMMA=   1.6624
  3.1080  2.4081  1.6101  0.7934  1.0274  1.0274

 Free energy of the ion-electron system (eV)
  ---------------------------------------------------
  alpha Z        PSCENC =         0.43695755
  Ewald energy   TEWEN  =       110.78635065
  -Hartree energ DENC   =      -589.94647782
  -exchange      EXHF   =         0.00000000
  -V(xc)+E(xc)   XCENC  =        40.73422330
  PAW double counting   =       961.30343934     -963.71584740
  entropy T*S    EENTRO =         0.00057979
  eigenvalues    EBANDS =      -153.35979242
  atomic energy  EATOM  =       579.07123046
  Solvation  Ediel_sol  =         0.00000000
  ---------------------------------------------------
  free energy    TOTEN  =       -14.68933653 eV

  energy without entropy =      -14.68991632  energy(sigma->0) =      -14.68952980


--------------------------------------------------------------------------------------------------------




----------------------------------------- Iteration    1(  12)  ---------------------------------------


    POTLOK:  cpu time    0.0743: real time    0.0743
    SETDIJ:  cpu time    0.0014: real time    0.0014
     EDDAV:  cpu time    0.0277: real time    0.0277
       DOS:  cpu time    0.0001: real time    0.0001
    CHARGE:  cpu time    0.0195: real time    0.0195
    MIXING:  cpu time    0.0041: real time    0.0041
    --------------------------------------------
      LOOP:  cpu time    0.1291: real time    0.1311

 eigenvalue-minimisations  :    16
 total energy-change (2. order) :-0.6561709E-03  (-0.7243092E-05)
 number of electron       9.9999995 magnetization 
 augmentation part        0.6667007 magnetization 

 Broyden mixing:
  rms(total) = 0.14058E-02    rms(broyden)= 0.14057E-02
  rms(prec ) = 0.32659E-02
  weight for this iteration     100.00

 eigenvalues of (default mixing * dielectric matrix)
  average eigenvalue GAMMA=   1.9148
  4.0580  2.5336  2.3181  1.6711  0.7946  1.0142  1.0142

 Free energy of the ion-electron system (eV)
  ---------------------------------------------------
  alpha Z        PSCENC =         0.43695755
  Ewald energy   TEWEN  =       110.78635065
  -Hartree energ DENC   =      -589.98670632
  -exchange      EXHF   =         0.00000000
  -V(xc)+E(xc)   XCENC  =        40.73381943
  PAW double counting   =       961.21677062     -963.62938599
  entropy T*S    EENTRO =         0.00057979
  eigenvalues    EBANDS =      -153.31960890
  atomic energy  EATOM  =       579.07123046
  Solvation  Ediel_sol  =         0.00000000
  ---------------------------------------------------
  free energy    TOTEN  =       -14.68999271 eV

  energy without entropy =      -14.69057250  energy(sigma->0) =      -14.69018597


--------------------------------------------------------------------------------------------------------




----------------------------------------- Iteration    1(  13)  ---------------------------------------


    POTLOK:  cpu time    0.0889: real time    0.0890
    SETDIJ:  cpu time    0.0013: real time    0.0013
     EDDAV:  cpu time    0.0269: real time    0.0269
       DOS:  cpu time    0.0001: real time    0.0001
    CHARGE:  cpu time    0.0215: real time    0.0216
    MIXING:  cpu time    0.0043: real time    0.0044
    --------------------------------------------
      LOOP:  cpu time    0.1455: real time    0.1481

 eigenvalue-minimisations  :    16
 total energy-change (2. order) :-0.1160274E-02  (-0.1772481E-04)
 number of electron       9.9999995 magnetization 
 augmentation part        0.6666011 magnetization 

 Broyden mixing:
  rms(total) = 0.98087E-03    rms(broyden)= 0.98046E-03
  rms(prec ) = 0.15877E-02
  weight for this iteration     100.00

 eigenvalues of (default mixing * dielectric matrix)
  average eigenvalue GAMMA=   1.9906
  5.1838  2.7629  2.3953  1.6329  0.7959  0.9419  1.1061  1.1061

 Free energy of the ion-electron system (eV)
  ---------------------------------------------------
  alpha Z        PSCENC =         0.43695755
  Ewald energy   TEWEN  =       110.78635065
  -Hartree energ DENC   =      -590.06081244
  -exchange      EXHF   =         0.00000000
  -V(xc)+E(xc)   XCENC  =        40.73353270
  PAW double counting   =       961.43938106     -963.85501736
  entropy T*S    EENTRO =         0.00057979
  eigenvalues    EBANDS =      -153.24335539
  atomic energy  EATOM  =       579.07123046
  Solvation  Ediel_sol  =         0.00000000
  ---------------------------------------------------
  free energy    TOTEN  =       -14.69115298 eV

  energy without entropy =      -14.69173277  energy(sigma->0) =      -14.69134624


--------------------------------------------------------------------------------------------------------




----------------------------------------- Iteration    1(  14)  ---------------------------------------


    POTLOK:  cpu time    0.0797: real time    0.0798
    SETDIJ:  cpu time    0.0015: real time    0.0015
     EDDAV:  cpu time    0.0306: real time    0.0306
       DOS:  cpu time    0.0002: real time    0.0002
    CHARGE:  cpu time    0.0221: real time    0.0221
    MIXING:  cpu time    0.0047: real time    0.0047
    --------------------------------------------
      LOOP:  cpu time    0.1410: real time    0.1442

 eigenvalue-minimisations  :    16
 total energy-change (2. order) :-0.3045003E-03  (-0.2805836E-05)
 number of electron       9.9999995 magnetization 
 augmentation part        0.6666737 magnetization 

 Broyden mixing:
  rms(total) = 0.45961E-03    rms(broyden)= 0.45926E-03
  rms(prec ) = 0.85643E-03
  weight for this iteration     100.00

 eigenvalues of (default mixing * dielectric matrix)
  average eigenvalue GAMMA=   2.2538
  6.6557  3.2174  2.5527  2.4044  1.6230  0.7959  1.0510  1.0510  0.9332

 Free energy of the ion-electron system (eV)
  ---------------------------------------------------
  alpha Z        PSCENC =         0.43695755
  Ewald energy   TEWEN  =       110.78635065
  -Hartree energ DENC   =      -590.05968679
  -exchange      EXHF   =         0.00000000
  -V(xc)+E(xc)   XCENC  =        40.73288548
  PAW double counting   =       961.40725577     -963.82291798
  entropy T*S    EENTRO =         0.00057979
  eigenvalues    EBANDS =      -153.24411241
  atomic energy  EATOM  =       579.07123046
  Solvation  Ediel_sol  =         0.00000000
  ---------------------------------------------------
  free energy    TOTEN  =       -14.69145748 eV

  energy without entropy =      -14.69203727  energy(sigma->0) =      -14.69165074


--------------------------------------------------------------------------------------------------------




----------------------------------------- Iteration    1(  15)  ---------------------------------------


    POTLOK:  cpu time    0.0908: real time    0.0910
    SETDIJ:  cpu time    0.0014: real time    0.0014
     EDDAV:  cpu time    0.0298: real time    0.0298
       DOS:  cpu time    0.0001: real time    0.0001
    CHARGE:  cpu time    0.0194: real time    0.0194
    MIXING:  cpu time    0.0046: real time    0.0046
    --------------------------------------------
      LOOP:  cpu time    0.1486: real time    0.1523

 eigenvalue-minimisations  :    16
 total energy-change (2. order) :-0.8265263E-03  (-0.1868221E-05)
 number of electron       9.9999995 magnetization 
 augmentation part        0.6666938 magnetization 

 Broyden mixing:
  rms(total) = 0.35959E-03    rms(broyden)= 0.35943E-03
  rms(prec ) = 0.48024E-03
  weight for this iteration     100.00

 eigenvalues of (default mixing * dielectric matrix)
  average eigenvalue GAMMA=   2.2816
  7.3676  3.6537  2.5142  2.4099  1.6911  0.7955  1.2241  1.2241  0.9681  0.9681

 Free energy of the ion-electron system (eV)
  ---------------------------------------------------
  alpha Z        PSCENC =         0.43695755
  Ewald energy   TEWEN  =       110.78635065
  -Hartree energ DENC   =      -590.04854772
  -exchange      EXHF   =         0.00000000
  -V(xc)+E(xc)   XCENC  =        40.73197990
  PAW double counting   =       961.28683551     -963.70152972
  entropy T*S    EENTRO =         0.00000000
  eigenvalues    EBANDS =      -153.25556064
  atomic energy  EATOM  =       579.07123046
  Solvation  Ediel_sol  =         0.00000000
  ---------------------------------------------------
  free energy    TOTEN  =       -14.69228401 eV

  energy without entropy =      -14.69228401  energy(sigma->0) =      -14.69228401


--------------------------------------------------------------------------------------------------------




----------------------------------------- Iteration    1(  16)  ---------------------------------------


    POTLOK:  cpu time    0.0731: real time    0.0731
    SETDIJ:  cpu time    0.0015: real time    0.0015
     EDDAV:  cpu time    0.0281: real time    0.0282
       DOS:  cpu time    0.0001: real time    0.0001
    --------------------------------------------
      LOOP:  cpu time    0.1048: real time    0.1073

 eigenvalue-minimisations  :    16
 total energy-change (2. order) :-0.4396202E-04  (-0.2361348E-06)
 number of electron       9.9999995 magnetization 
 augmentation part        0.6666938 magnetization 

 Free energy of the ion-electron system (eV)
  ---------------------------------------------------
  alpha Z        PSCENC =         0.43695755
  Ewald energy   TEWEN  =       110.78635065
  -Hartree energ DENC   =      -590.05129738
  -exchange      EXHF   =         0.00000000
  -V(xc)+E(xc)   XCENC  =        40.73215450
  PAW double counting   =       961.31324860     -963.72811060
  entropy T*S    EENTRO =         0.00000000
  eigenvalues    EBANDS =      -153.25286176
  atomic energy  EATOM  =       579.07123046
  Solvation  Ediel_sol  =         0.00000000
  ---------------------------------------------------
  free energy    TOTEN  =       -14.69232797 eV

  energy without entropy =      -14.69232797  energy(sigma->0) =      -14.69232797


--------------------------------------------------------------------------------------------------------




 average (electrostatic) potential at core
  the test charge radii are     0.6991  0.7215
  (the norm of the test charge is              1.0000)
       1 -61.5039       2 -83.8373
 
 
 
 E-fermi :  -8.7719     XC(G=0):  -0.6471     alpha+bet : -0.1751


 k-point     1 :       0.0000    0.0000    0.0000
  band No.  band energies     occupation 
      1     -29.8313      2.00000
      2     -13.9197      2.00000
      3     -12.0258      2.00000
      4     -12.0258      2.00000
      5      -8.8237      2.00000
      6      -1.5801      0.00000
      7      -1.5801      0.00000
      8      -0.2049      0.00000


--------------------------------------------------------------------------------------------------------


 soft charge-density along one line, spin component           1
         0         1         2         3         4         5         6         7         8         9
 total charge-density along one line
 
 pseudopotential strength for first ion, spin component:           1
 10.405  13.842  -0.000   0.000   0.029   0.000  -0.000  -0.098
 13.842  18.413  -0.000   0.000   0.038   0.000  -0.000  -0.129
 -0.000  -0.000  -4.531  -0.000   0.000   8.868   0.000  -0.000
  0.000   0.000  -0.000  -4.531  -0.000   0.000   8.868   0.000
  0.029   0.038   0.000  -0.000  -4.551  -0.000   0.000   8.892
  0.000   0.000   8.868   0.000  -0.000 -19.503  -0.000   0.000
 -0.000  -0.000   0.000   8.868   0.000  -0.000 -19.503  -0.000
 -0.098  -0.129  -0.000   0.000   8.892   0.000  -0.000 -19.521
 total augmentation occupancy for first ion, spin component:           1
  8.309  -3.921   0.000   0.000   2.470   0.000   0.000   0.435
 -3.921   2.254   0.000   0.000  -1.839   0.000   0.000  -0.272
  0.000   0.000   0.914   0.000  -0.000   0.080  -0.000   0.000
  0.000   0.000   0.000   0.914   0.000   0.000   0.080   0.000
  2.470  -1.839  -0.000   0.000   2.462   0.000   0.000   0.257
  0.000   0.000   0.080   0.000  -0.000   0.007   0.000   0.000
  0.000   0.000  -0.000   0.080   0.000   0.000   0.007   0.000
  0.435  -0.272  -0.000   0.000   0.257   0.000   0.000   0.034


------------------------ aborting loop because EDIFF is reached ----------------------------------------


    CHARGE:  cpu time    0.0268: real time    0.0268
    FORLOC:  cpu time    0.0099: real time    0.0099
    FORNL :  cpu time    0.0076: real time    0.0076
    STRESS:  cpu time    0.0967: real time    0.0967
    FORCOR:  cpu time    0.0881: real time    0.0881
    FORHAR:  cpu time    0.0233: real time    0.0233
    MIXING:  cpu time    0.0059: real time    0.0059
    OFIELD:  cpu time    0.0001: real time    0.0001

  FORCE on cell =-STRESS in cart. coord.  units (eV):
  Direction    XX          YY          ZZ          XY          YZ          ZX
  --------------------------------------------------------------------------------------
  Alpha Z     0.43696     0.43696     0.43696
  Ewald     247.84005   -68.52687   -68.52687    -0.00000     0.00000     0.00000
  Hartree   268.48472   160.77719   160.77719    -0.00000    -0.00000    -0.00000
  E(xc)     -43.21658   -44.33171   -44.33171    -0.00000     0.00000     0.00000
  Local    -621.47324  -230.22021  -230.22021     0.00000     0.00000    -0.00000
  n-local   -31.57443   -19.55604   -19.55604    -0.00000     0.00000    -0.00000
  augment     5.44069     6.25520     6.25520     0.00000     0.00000    -0.00000
  Kinetic   177.91777   192.84249   192.84249     0.00000    -0.00000    -0.00000
  Fock        0.00000     0.00000     0.00000     0.00000     0.00000     0.00000
  -------------------------------------------------------------------------------------
  Total       3.85593    -2.32300    -2.32300    -0.00000    -0.00000     0.00000
  in kB       6.17789    -3.72185    -3.72185    -0.00000    -0.00000     0.00000
  external pressure =       -0.42 kB  Pullay stress =        0.00 kB


 VOLUME and BASIS-vectors are now :
 -----------------------------------------------------------------------------
  energy-cutoff  :      350.00
  volume of cell :     1000.00
      direct lattice vectors                 reciprocal lattice vectors
    10.000000000  0.000000000  0.000000000     0.100000000  0.000000000  0.000000000
     0.000000000 10.000000000  0.000000000     0.000000000  0.100000000  0.000000000
     0.000000000  0.000000000 10.000000000     0.000000000  0.000000000  0.100000000

  length of vectors
    10.000000000 10.000000000 10.000000000     0.100000000  0.100000000  0.100000000


 FORCES acting on ions
    electron-ion (+dipol)            ewald-force                    non-local-force                 convergence-correction
 -----------------------------------------------------------------------------------------------
   0.250E+03 0.631E-16 0.153E-14   -.284E+03 -.117E-17 0.308E-16   0.280E+02 0.000E+00 0.000E+00   0.171E-02 0.306E-13 -.283E-13
   -.215E+03 0.280E-14 -.256E-06   0.284E+03 0.224E-16 -.592E-16   -.628E+02 0.414E-24 -.103E-24   -.217E-02 0.665E-13 -.435E-13
 -----------------------------------------------------------------------------------------------
   0.348E+02 0.286E-14 -.256E-06   0.000E+00 0.212E-16 -.284E-16   -.348E+02 0.414E-24 -.103E-24   -.456E-03 0.971E-13 -.718E-13
 
 
 POSITION                                       TOTAL-FORCE (eV/Angst)
 -----------------------------------------------------------------------------------
      0.00000      0.00000      0.00000        -5.776716     -0.000000      0.000000
      1.10000      0.00000      0.00000         5.776716      0.000000     -0.000000
 -----------------------------------------------------------------------------------
    total drift:                               -0.001425      0.000000     -0.000000


--------------------------------------------------------------------------------------------------------



  FREE ENERGIE OF THE ION-ELECTRON SYSTEM (eV)
  ---------------------------------------------------
  free  energy   TOTEN  =       -14.69232797 eV

  energy  without entropy=      -14.69232797  energy(sigma->0) =      -14.69232797
 


--------------------------------------------------------------------------------------------------------


    POTLOK:  cpu time    0.0823: real time    0.0823


--------------------------------------------------------------------------------------------------------




--------------------------------------------------------------------------------------------------------


    WAVPRE:  cpu time    0.0252: real time    0.0253
 FEWALD executed in parallel
    FEWALD:  cpu time    0.0009: real time    0.0009
    ORTHCH:  cpu time    0.0035: real time    0.0035
     LOOP+:  cpu time    2.2195: real time    2.2759


----------------------------------------- Iteration    2(   1)  ---------------------------------------


    POTLOK:  cpu time    0.0796: real time    0.0797
    SETDIJ:  cpu time    0.0014: real time    0.0014
     EDDAV:  cpu time    0.0303: real time    0.0303
       DOS:  cpu time    0.0001: real time    0.0001
    CHARGE:  cpu time    0.0212: real time    0.0212
    MIXING:  cpu time    0.0032: real time    0.0032
    --------------------------------------------
      LOOP:  cpu time    0.1368: real time    0.1372

 eigenvalue-minimisations  :    16
 total energy-change (2. order) : 0.4953471E+01  (-0.6698691E+02)
 number of electron       9.9999973 magnetization 
 augmentation part        0.5322636 magnetization 

 Broyden mixing:
  rms(total) = 0.80383E+00    rms(broyden)= 0.80255E+00
  rms(prec ) = 0.10692E+01
  weight for this iteration     100.00

 Free energy of the ion-electron system (eV)
  ---------------------------------------------------
  alpha Z        PSCENC =         0.43695755
  Ewald energy   TEWEN  =         6.30762119
  -Hartree energ DENC   =      -515.56551180
  -exchange      EXHF   =         0.00000000
  -V(xc)+E(xc)   XCENC  =        38.89471955
  PAW double counting   =       961.38075494     -963.79553569
  entropy T*S    EENTRO =         0.00057979
  eigenvalues    EBANDS =      -116.46962885
  atomic energy  EATOM  =       579.07123046
  Solvation  Ediel_sol  =         0.00000000
  ---------------------------------------------------
  free energy    TOTEN  =        -9.73881286 eV

  energy without entropy =       -9.73939265  energy(sigma->0) =       -9.73900613


--------------------------------------------------------------------------------------------------------




----------------------------------------- Iteration    2(   2)  ---------------------------------------


    POTLOK:  cpu time    0.0738: real time    0.0739
    SETDIJ:  cpu time    0.0014: real time    0.0014
     EDDAV:  cpu time    0.0308: real time    0.0309
       DOS:  cpu time    0.0001: real time    0.0001
    CHARGE:  cpu time    0.0212: real time    0.0212
    MIXING:  cpu time    0.0033: real time    0.0033
    --------------------------------------------
      LOOP:  cpu time    0.1328: real time    0.1347

 eigenvalue-minimisations  :    16
 total energy-change (2. order) :-0.1280673E+00  (-0.2515174E+01)
 number of electron       9.9999983 magnetization 
 augmentation part        0.3788442 magnetization 

 Broyden mixing:
  rms(total) = 0.68539E+00    rms(broyden)= 0.68480E+00
  rms(prec ) = 0.93693E+00
  weight for this iteration     100.00

 eigenvalues of (default mixing * dielectric matrix)
  average eigenvalue GAMMA=   0.6047
  0.6047

 Free energy of the ion-electron system (eV)
  ---------------------------------------------------
  alpha Z        PSCENC =         0.43695755
  Ewald energy   TEWEN  =         6.30762119
  -Hartree energ DENC   =      -510.32126791
  -exchange      EXHF   =         0.00000000
  -V(xc)+E(xc)   XCENC  =        38.38061149
  PAW double counting   =       790.19560897     -792.51691480
  entropy T*S    EENTRO =         0.00115958
  eigenvalues    EBANDS =      -121.42188667
  atomic energy  EATOM  =       579.07123046
  Solvation  Ediel_sol  =         0.00000000
  ---------------------------------------------------
  free energy    TOTEN  =        -9.86688014 eV

  energy without entropy =       -9.86803972  energy(sigma->0) =       -9.86726667


--------------------------------------------------------------------------------------------------------




----------------------------------------- Iteration    2(   3)  ---------------------------------------


    POTLOK:  cpu time    0.0745: real time    0.0746
    SETDIJ:  cpu time    0.0015: real time    0.0015
     EDDAV:  cpu time    0.0399: real time    0.0399
       DOS:  cpu time    0.0001: real time    0.0001
    CHARGE:  cpu time    0.0198: real time    0.0198
    MIXING:  cpu time    0.0037: real time    0.0037
    --------------------------------------------
      LOOP:  cpu time    0.1418: real time    0.1442

 eigenvalue-minimisations  :    24
 total energy-change (2. order) : 0.7508166E-01  (-0.1310904E+01)
 number of electron       9.9999969 magnetization 
 augmentation part        0.5598429 magnetization 

 Broyden mixing:
  rms(total) = 0.46445E+00    rms(broyden)= 0.46283E+00
  rms(prec ) = 0.66531E+00
  weight for this iteration     100.00

 eigenvalues of (default mixing * dielectric matrix)
  average eigenvalue GAMMA=   0.8361
  1.3416  0.3307

 Free energy of the ion-electron system (eV)
  ---------------------------------------------------
  alpha Z        PSCENC =         0.43695755
  Ewald energy   TEWEN  =         6.30762119
  -Hartree energ DENC   =      -502.07869829
  -exchange      EXHF   =         0.00000000
  -V(xc)+E(xc)   XCENC  =        37.93789931
  PAW double counting   =       719.10177647     -721.28845196
  entropy T*S    EENTRO =         0.00000000
  eigenvalues    EBANDS =      -129.28013322
  atomic energy  EATOM  =       579.07123046
  Solvation  Ediel_sol  =         0.00000000
  ---------------------------------------------------
  free energy    TOTEN  =        -9.79179848 eV

  energy without entropy =       -9.79179848  energy(sigma->0) =       -9.79179848


--------------------------------------------------------------------------------------------------------




----------------------------------------- Iteration    2(   4)  ---------------------------------------


    POTLOK:  cpu time    0.0708: real time    0.0709
    SETDIJ:  cpu time    0.0014: real time    0.0014
     EDDAV:  cpu time    0.0503: real time    0.0504
       DOS:  cpu time    0.0002: real time    0.0002
    CHARGE:  cpu time    0.0205: real time    0.0205
    MIXING:  cpu time    0.0034: real time    0.0035
    --------------------------------------------
      LOOP:  cpu time    0.1495: real time    0.1537

 eigenvalue-minimisations  :    32
 total energy-change (2. order) : 0.2871987E+00  (-0.2078104E+00)
 number of electron       9.9999974 magnetization 
 augmentation part        0.4927833 magnetization 

 Broyden mixing:
  rms(total) = 0.14536E+00    rms(broyden)= 0.14528E+00
  rms(prec ) = 0.16445E+00
  weight for this iteration     100.00

 eigenvalues of (default mixing * dielectric matrix)
  average eigenvalue GAMMA=   1.3263
  2.5735  1.0667  0.3387

 Free energy of the ion-electron system (eV)
  ---------------------------------------------------
  alpha Z        PSCENC =         0.43695755
  Ewald energy   TEWEN  =         6.30762119
  -Hartree energ DENC   =      -502.78977197
  -exchange      EXHF   =         0.00000000
  -V(xc)+E(xc)   XCENC  =        37.94586785
  PAW double counting   =       628.59354865     -630.73635712
  entropy T*S    EENTRO =         0.00115958
  eigenvalues    EBANDS =      -128.33485601
  atomic energy  EATOM  =       579.07123046
  Solvation  Ediel_sol  =         0.00000000
  ---------------------------------------------------
  free energy    TOTEN  =        -9.50459982 eV

  energy without entropy =       -9.50575940  energy(sigma->0) =       -9.50498635


--------------------------------------------------------------------------------------------------------




----------------------------------------- Iteration    2(   5)  ---------------------------------------


    POTLOK:  cpu time    0.0879: real time    0.0879
    SETDIJ:  cpu time    0.0014: real time    0.0014
     EDDAV:  cpu time    0.0405: real time    0.0405
       DOS:  cpu time    0.0001: real time    0.0001
    CHARGE:  cpu time    0.0200: real time    0.0200
    MIXING:  cpu time    0.0035: real time    0.0035
    --------------------------------------------
      LOOP:  cpu time    0.1563: real time    0.1590

 eigenvalue-minimisations  :    24
 total energy-change (2. order) :-0.2696054E-01  (-0.1835555E-01)
 number of electron       9.9999975 magnetization 
 augmentation part        0.4777154 magnetization 

 Broyden mixing:
  rms(total) = 0.58463E-01    rms(broyden)= 0.58276E-01
  rms(prec ) = 0.88268E-01
  weight for this iteration     100.00

 eigenvalues of (default mixing * dielectric matrix)
  average eigenvalue GAMMA=   1.2653
  2.4499  1.3737  0.3404  0.8974

 Free energy of the ion-electron system (eV)
  ---------------------------------------------------
  alpha Z        PSCENC =         0.43695755
  Ewald energy   TEWEN  =         6.30762119
  -Hartree energ DENC   =      -501.42147431
  -exchange      EXHF   =         0.00000000
  -V(xc)+E(xc)   XCENC  =        37.84498347
  PAW double counting   =       528.96957815     -531.03304904
  entropy T*S    EENTRO =         0.00000000
  eigenvalues    EBANDS =      -129.70740783
  atomic energy  EATOM  =       579.07123046
  Solvation  Ediel_sol  =         0.00000000
  ---------------------------------------------------
  free energy    TOTEN  =        -9.53156036 eV

  energy without entropy =       -9.53156036  energy(sigma->0) =       -9.53156036


--------------------------------------------------------------------------------------------------------




----------------------------------------- Iteration    2(   6)  ---------------------------------------


    POTLOK:  cpu time    0.0717: real time    0.0717
    SETDIJ:  cpu time    0.0015: real time    0.0015
     EDDAV:  cpu time    0.0393: real time    0.0393
       DOS:  cpu time    0.0001: real time    0.0001
    CHARGE:  cpu time    0.0192: real time    0.0192
    MIXING:  cpu time    0.0038: real time    0.0038
    --------------------------------------------
      LOOP:  cpu time    0.1378: real time    0.1400

 eigenvalue-minimisations  :    24
 total energy-change (2. order) : 0.2620985E-02  (-0.8443981E-02)
 number of electron       9.9999974 magnetization 
 augmentation part        0.4915699 magnetization 

 Broyden mixing:
  rms(total) = 0.26606E-01    rms(broyden)= 0.26502E-01
  rms(prec ) = 0.43403E-01
  weight for this iteration     100.00

 eigenvalues of (default mixing * dielectric matrix)
  average eigenvalue GAMMA=   1.3928
  2.6731  1.9296  0.3406  1.1472  0.8735

 Free energy of the ion-electron system (eV)
  ---------------------------------------------------
  alpha Z        PSCENC =         0.43695755
  Ewald energy   TEWEN  =         6.30762119
  -Hartree energ DENC   =      -501.53730485
  -exchange      EXHF   =         0.00000000
  -V(xc)+E(xc)   XCENC  =        37.85489964
  PAW double counting   =       527.63274197     -529.70034802
  entropy T*S    EENTRO =         0.00115958
  eigenvalues    EBANDS =      -129.59589689
  atomic energy  EATOM  =       579.07123046
  Solvation  Ediel_sol  =         0.00000000
  ---------------------------------------------------
  free energy    TOTEN  =        -9.52893938 eV

  energy without entropy =       -9.53009896  energy(sigma->0) =       -9.52932590


--------------------------------------------------------------------------------------------------------




----------------------------------------- Iteration    2(   7)  ---------------------------------------


    POTLOK:  cpu time    0.0719: real time    0.0720
    SETDIJ:  cpu time    0.0014: real time    0.0014
     EDDAV:  cpu time    0.0491: real time    0.0492
       DOS:  cpu time    0.0002: real time    0.0002
    CHARGE:  cpu time    0.0195: real time    0.0195
    MIXING:  cpu time    0.0037: real time    0.0038
    --------------------------------------------
      LOOP:  cpu time    0.1485: real time    0.1575

 eigenvalue-minimisations  :    32
 total energy-change (2. order) :-0.1021967E-02  (-0.1526573E-02)
 number of electron       9.9999974 magnetization 
 augmentation part        0.4856787 magnetization 

 Broyden mixing:
  rms(total) = 0.99801E-02    rms(broyden)= 0.99138E-02
  rms(prec ) = 0.17192E-01
  weight for this iteration     100.00

 eigenvalues of (default mixing * dielectric matrix)
  average eigenvalue GAMMA=   1.3433
  2.6708  0.3407  1.5619  1.5619  0.8439  1.0805

 Free energy of the ion-electron system (eV)
  ---------------------------------------------------
  alpha Z        PSCENC =         0.43695755
  Ewald energy   TEWEN  =         6.30762119
  -Hartree energ DENC   =      -501.76418956
  -exchange      EXHF   =         0.00000000
  -V(xc)+E(xc)   XCENC  =        37.86211171
  PAW double counting   =       522.18555068     -524.25962832
  entropy T*S    EENTRO =         0.00115958
  eigenvalues    EBANDS =      -129.37077464
  atomic energy  EATOM  =       579.07123046
  Solvation  Ediel_sol  =         0.00000000
  ---------------------------------------------------
  free energy    TOTEN  =        -9.52996134 eV

  energy without entropy =       -9.53112092  energy(sigma->0) =       -9.53034787


--------------------------------------------------------------------------------------------------------




----------------------------------------- Iteration    2(   8)  ---------------------------------------


    POTLOK:  cpu time    0.0720: real time    0.0720
    SETDIJ:  cpu time    0.0014: real time    0.0014
     EDDAV:  cpu time    0.0493: real time    0.0493
       DOS:  cpu time    0.0001: real time    0.0001
    CHARGE:  cpu time    0.0196: real time    0.0196
    MIXING:  cpu time    0.0040: real time    0.0040
    --------------------------------------------
      LOOP:  cpu time    0.1482: real time    0.1511

 eigenvalue-minimisations  :    32
 total energy-change (2. order) :-0.1247752E-02  (-0.1588367E-03)
 number of electron       9.9999974 magnetization 
 augmentation part        0.4876406 magnetization 

 Broyden mixing:
  rms(total) = 0.40095E-02    rms(broyden)= 0.39982E-02
  rms(prec ) = 0.10746E-01
  weight for this iteration     100.00

 eigenvalues of (default mixing * dielectric matrix)
  average eigenvalue GAMMA=   1.5057
  2.6851  2.6851  0.3407  1.6897  0.8687  1.0159  1.2547

 Free energy of the ion-electron system (eV)
  ---------------------------------------------------
  alpha Z        PSCENC =         0.43695755
  Ewald energy   TEWEN  =         6.30762119
  -Hartree energ DENC   =      -501.50649780
  -exchange      EXHF   =         0.00000000
  -V(xc)+E(xc)   XCENC  =        37.84702624
  PAW double counting   =       522.67140982     -524.74429682
  entropy T*S    EENTRO =         0.00115958
  eigenvalues    EBANDS =      -129.61581931
  atomic energy  EATOM  =       579.07123046
  Solvation  Ediel_sol  =         0.00000000
  ---------------------------------------------------
  free energy    TOTEN  =        -9.53120909 eV

  energy without entropy =       -9.53236868  energy(sigma->0) =       -9.53159562


--------------------------------------------------------------------------------------------------------




----------------------------------------- Iteration    2(   9)  ---------------------------------------


    POTLOK:  cpu time    0.0760: real time    0.0760
    SETDIJ:  cpu time    0.0016: real time    0.0016
     EDDAV:  cpu time    0.0496: real time    0.0497
       DOS:  cpu time    0.0002: real time    0.0002
    CHARGE:  cpu time    0.0205: real time    0.0205
    MIXING:  cpu time    0.0044: real time    0.0044
    --------------------------------------------
      LOOP:  cpu time    0.1543: real time    0.1567

 eigenvalue-minimisations  :    32
 total energy-change (2. order) :-0.2604535E-02  (-0.9746933E-04)
 number of electron       9.9999974 magnetization 
 augmentation part        0.4871817 magnetization 

 Broyden mixing:
  rms(total) = 0.24187E-02    rms(broyden)= 0.24184E-02
  rms(prec ) = 0.44464E-02
  weight for this iteration     100.00

 eigenvalues of (default mixing * dielectric matrix)
  average eigenvalue GAMMA=   1.6317
  3.9468  2.6284  0.3407  1.6143  1.6143  0.8760  1.0166  1.0166

 Free energy of the ion-electron system (eV)
  ---------------------------------------------------
  alpha Z        PSCENC =         0.43695755
  Ewald energy   TEWEN  =         6.30762119
  -Hartree energ DENC   =      -501.38119397
  -exchange      EXHF   =         0.00000000
  -V(xc)+E(xc)   XCENC  =        37.83862512
  PAW double counting   =       524.56051990     -526.63600189
  entropy T*S    EENTRO =         0.00115958
  eigenvalues    EBANDS =      -129.73273157
  atomic energy  EATOM  =       579.07123046
  Solvation  Ediel_sol  =         0.00000000
  ---------------------------------------------------
  free energy    TOTEN  =        -9.53381363 eV

  energy without entropy =       -9.53497321  energy(sigma->0) =       -9.53420016


--------------------------------------------------------------------------------------------------------




----------------------------------------- Iteration    2(  10)  ---------------------------------------


    POTLOK:  cpu time    0.0784: real time    0.0785
    SETDIJ:  cpu time    0.0014: real time    0.0014
     EDDAV:  cpu time    0.0480: real time    0.0482
       DOS:  cpu time    0.0001: real time    0.0001
    CHARGE:  cpu time    0.0229: real time    0.0229
    MIXING:  cpu time    0.0045: real time    0.0046
    --------------------------------------------
      LOOP:  cpu time    0.1573: real time    0.1598

 eigenvalue-minimisations  :    32
 total energy-change (2. order) :-0.6022004E-03  (-0.8445141E-05)
 number of electron       9.9999974 magnetization 
 augmentation part        0.4873546 magnetization 

 Broyden mixing:
  rms(total) = 0.22852E-02    rms(broyden)= 0.22851E-02
  rms(prec ) = 0.39644E-02
  weight for this iteration     100.00

 eigenvalues of (default mixing * dielectric matrix)
  average eigenvalue GAMMA=   1.9450
  6.1786  2.7010  2.5564  0.3407  1.6399  1.2298  0.8633  0.9976  0.9976

 Free energy of the ion-electron system (eV)
  ---------------------------------------------------
  alpha Z        PSCENC =         0.43695755
  Ewald energy   TEWEN  =         6.30762119
  -Hartree energ DENC   =      -501.40741082
  -exchange      EXHF   =         0.00000000
  -V(xc)+E(xc)   XCENC  =        37.84033798
  PAW double counting   =       524.09768333     -526.17227870
  entropy T*S    EENTRO =         0.00115958
  eigenvalues    EBANDS =      -129.70971640
  atomic energy  EATOM  =       579.07123046
  Solvation  Ediel_sol  =         0.00000000
  ---------------------------------------------------
  free energy    TOTEN  =        -9.53441583 eV

  energy without entropy =       -9.53557541  energy(sigma->0) =       -9.53480236


--------------------------------------------------------------------------------------------------------




----------------------------------------- Iteration    2(  11)  ---------------------------------------


    POTLOK:  cpu time    0.0718: real time    0.0718
    SETDIJ:  cpu time    0.0014: real time    0.0014
     EDDAV:  cpu time    0.0437: real time    0.0437
       DOS:  cpu time    0.0001: real time    0.0001
    CHARGE:  cpu time    0.0191: real time    0.0191
    MIXING:  cpu time    0.0044: real time    0.0044
    --------------------------------------------
      LOOP:  cpu time    0.1424: real time    0.1449

 eigenvalue-minimisations  :    32
 total energy-change (2. order) :-0.6099177E-03  (-0.2030053E-04)
 number of electron       9.9999974 magnetization 
 augmentation part        0.4867525 magnetization 

 Broyden mixing:
  rms(total) = 0.15443E-02    rms(broyden)= 0.15386E-02
  rms(prec ) = 0.23721E-02
  weight for this iteration     100.00

 eigenvalues of (default mixing * dielectric matrix)
  average eigenvalue GAMMA=   2.0194
  6.6900  2.7939  2.6205  0.3407  1.8901  1.8901  0.8626  1.0694  1.0694  0.9671

 Free energy of the ion-electron system (eV)
  ---------------------------------------------------
  alpha Z        PSCENC =         0.43695755
  Ewald energy   TEWEN  =         6.30762119
  -Hartree energ DENC   =      -501.40267636
  -exchange      EXHF   =         0.00000000
  -V(xc)+E(xc)   XCENC  =        37.84028537
  PAW double counting   =       523.90713353     -525.97984606
  entropy T*S    EENTRO =         0.00115958
  eigenvalues    EBANDS =      -129.71689102
  atomic energy  EATOM  =       579.07123046
  Solvation  Ediel_sol  =         0.00000000
  ---------------------------------------------------
  free energy    TOTEN  =        -9.53502575 eV

  energy without entropy =       -9.53618533  energy(sigma->0) =       -9.53541227


--------------------------------------------------------------------------------------------------------




----------------------------------------- Iteration    2(  12)  ---------------------------------------


    POTLOK:  cpu time    0.0731: real time    0.0731
    SETDIJ:  cpu time    0.0014: real time    0.0014
     EDDAV:  cpu time    0.0436: real time    0.0436
       DOS:  cpu time    0.0001: real time    0.0001
    CHARGE:  cpu time    0.0195: real time    0.0195
    MIXING:  cpu time    0.0046: real time    0.0047
    --------------------------------------------
      LOOP:  cpu time    0.1443: real time    0.1466

 eigenvalue-minimisations  :    32
 total energy-change (2. order) :-0.1951458E-03  (-0.5273959E-05)
 number of electron       9.9999974 magnetization 
 augmentation part        0.4871253 magnetization 

 Broyden mixing:
  rms(total) = 0.75646E-03    rms(broyden)= 0.75423E-03
  rms(prec ) = 0.10453E-02
  weight for this iteration     100.00

 eigenvalues of (default mixing * dielectric matrix)
  average eigenvalue GAMMA=   2.1074
  7.3837  3.7901  2.6363  2.3512  0.3407  1.6341  1.2050  1.0282  1.0282  0.8741
  0.9095

 Free energy of the ion-electron system (eV)
  ---------------------------------------------------
  alpha Z        PSCENC =         0.43695755
  Ewald energy   TEWEN  =         6.30762119
  -Hartree energ DENC   =      -501.37801348
  -exchange      EXHF   =         0.00000000
  -V(xc)+E(xc)   XCENC  =        37.83865498
  PAW double counting   =       523.86162638     -525.93464216
  entropy T*S    EENTRO =         0.00115958
  eigenvalues    EBANDS =      -129.73981538
[...]


--------------------------------------------------------------------------------------------------------



  FREE ENERGIE OF THE ION-ELECTRON SYSTEM (eV)
  ---------------------------------------------------
  free  energy   TOTEN  =       -14.75828229 eV

  energy  without entropy=      -14.75828229  energy(sigma->0) =      -14.75828229
 
 d Force =-0.5542482E-01[-0.125E+00, 0.143E-01]  d Energy =-0.5281964E-01-0.261E-02
 d Force =-0.9029681E+01[-0.930E+01,-0.876E+01]  d Ewald  =-0.9025671E+01-0.401E-02


--------------------------------------------------------------------------------------------------------


    POTLOK:  cpu time    0.0808: real time    0.0810


--------------------------------------------------------------------------------------------------------


 Steepest descent step on ions:
 trial-energy change:    0.052820  1 .order    0.055425   -0.014321    0.125170
  (g-gl).g = 0.255E+00      g.g   = 0.175E-01  gl.gl    = 0.322E+01
 g(Force)  = 0.175E-01   g(Stress)= 0.000E+00 ortho     =-0.238E+00
 gamma     =   0.00000
 trial     =   0.81709
 opt step  =   0.09313  (harmonic =   0.08389) maximal distance =0.00191492
 next E    =   -14.811922   (d E  =  -0.00082)


--------------------------------------------------------------------------------------------------------


    WAVPRE:  cpu time    0.0301: real time    0.0303
 FEWALD executed in parallel
    FEWALD:  cpu time    0.0005: real time    0.0005
    ORTHCH:  cpu time    0.0042: real time    0.0042
     LOOP+:  cpu time    1.0982: real time    1.1247


----------------------------------------- Iteration    7(   1)  ---------------------------------------


    POTLOK:  cpu time    0.0809: real time    0.0811
    SETDIJ:  cpu time    0.0014: real time    0.0014
     EDDAV:  cpu time    0.0319: real time    0.0319
       DOS:  cpu time    0.0001: real time    0.0001
    CHARGE:  cpu time    0.0229: real time    0.0229
    MIXING:  cpu time    0.0034: real time    0.0034
    --------------------------------------------
      LOOP:  cpu time    0.1415: real time    0.1422

 eigenvalue-minimisations  :    16
 total energy-change (2. order) :-0.5759888E-01  (-0.2360970E+00)
 number of electron       9.9999963 magnetization 
 augmentation part        0.6430707 magnetization 

 Broyden mixing:
  rms(total) = 0.72107E-01    rms(broyden)= 0.71779E-01
  rms(prec ) = 0.80613E-01
  weight for this iteration     100.00

 Free energy of the ion-electron system (eV)
  ---------------------------------------------------
  alpha Z        PSCENC =         0.43695755
  Ewald energy   TEWEN  =        98.82949099
  -Hartree energ DENC   =      -582.27506335
  -exchange      EXHF   =         0.00000000
  -V(xc)+E(xc)   XCENC  =        40.47850477
  PAW double counting   =       933.68056318     -936.07135509
  entropy T*S    EENTRO =         0.00000000
  eigenvalues    EBANDS =      -148.96616707
  atomic energy  EATOM  =       579.07123046
  Solvation  Ediel_sol  =         0.00000000
  ---------------------------------------------------
  free energy    TOTEN  =       -14.81583856 eV

  energy without entropy =      -14.81583856  energy(sigma->0) =      -14.81583856


--------------------------------------------------------------------------------------------------------




----------------------------------------- Iteration    7(   2)  ---------------------------------------


    POTLOK:  cpu time    0.0783: real time    0.0784
    SETDIJ:  cpu time    0.0014: real time    0.0014
     EDDAV:  cpu time    0.0304: real time    0.0304
       DOS:  cpu time    0.0001: real time    0.0001
    CHARGE:  cpu time    0.0200: real time    0.0200
    MIXING:  cpu time    0.0030: real time    0.0030
    --------------------------------------------
      LOOP:  cpu time    0.1360: real time    0.1397

 eigenvalue-minimisations  :    16
 total energy-change (2. order) : 0.3221351E-02  (-0.4630845E-02)
 number of electron       9.9999963 magnetization 
 augmentation part        0.6406658 magnetization 

 Broyden mixing:
  rms(total) = 0.32982E-01    rms(broyden)= 0.32941E-01
  rms(prec ) = 0.38174E-01
  weight for this iteration     100.00

 eigenvalues of (default mixing * dielectric matrix)
  average eigenvalue GAMMA=   1.5000
  1.5000

 Free energy of the ion-electron system (eV)
  ---------------------------------------------------
  alpha Z        PSCENC =         0.43695755
  Ewald energy   TEWEN  =        98.82949099
  -Hartree energ DENC   =      -581.37495441
  -exchange      EXHF   =         0.00000000
  -V(xc)+E(xc)   XCENC  =        40.42560738
  PAW double counting   =       908.96591051     -911.34008585
  entropy T*S    EENTRO =         0.00057979
  eigenvalues    EBANDS =      -149.82735363
  atomic energy  EATOM  =       579.07123046
  Solvation  Ediel_sol  =         0.00000000
  ---------------------------------------------------
  free energy    TOTEN  =       -14.81261721 eV

  energy without entropy =      -14.81319700  energy(sigma->0) =      -14.81281047


--------------------------------------------------------------------------------------------------------




----------------------------------------- Iteration    7(   3)  ---------------------------------------


    POTLOK:  cpu time    0.0720: real time    0.0722
    SETDIJ:  cpu time    0.0013: real time    0.0014
     EDDAV:  cpu time    0.0292: real time    0.0293
       DOS:  cpu time    0.0001: real time    0.0001
    CHARGE:  cpu time    0.0203: real time    0.0204
    MIXING:  cpu time    0.0033: real time    0.0033
    --------------------------------------------
      LOOP:  cpu time    0.1299: real time    0.1350

 eigenvalue-minimisations  :    16
 total energy-change (2. order) : 0.1359638E-02  (-0.7274575E-03)
 number of electron       9.9999963 magnetization 
 augmentation part        0.6417075 magnetization 

 Broyden mixing:
  rms(total) = 0.10620E-01    rms(broyden)= 0.10603E-01
  rms(prec ) = 0.11223E-01
  weight for this iteration     100.00

 eigenvalues of (default mixing * dielectric matrix)
  average eigenvalue GAMMA=   1.4853
  0.9628  2.0078

 Free energy of the ion-electron system (eV)
  ---------------------------------------------------
  alpha Z        PSCENC =         0.43695755
  Ewald energy   TEWEN  =        98.82949099
  -Hartree energ DENC   =      -580.59471643
  -exchange      EXHF   =         0.00000000
  -V(xc)+E(xc)   XCENC  =        40.38227950
  PAW double counting   =       889.76384810     -892.11428643
  entropy T*S    EENTRO =         0.00057979
  eigenvalues    EBANDS =      -150.58664109
  atomic energy  EATOM  =       579.07123046
  Solvation  Ediel_sol  =         0.00000000
  ---------------------------------------------------
  free energy    TOTEN  =       -14.81125757 eV

  energy without entropy =      -14.81183736  energy(sigma->0) =      -14.81145084


--------------------------------------------------------------------------------------------------------




----------------------------------------- Iteration    7(   4)  ---------------------------------------


    POTLOK:  cpu time    0.0716: real time    0.0716
    SETDIJ:  cpu time    0.0013: real time    0.0013
     EDDAV:  cpu time    0.0298: real time    0.0298
       DOS:  cpu time    0.0001: real time    0.0001
    CHARGE:  cpu time    0.0205: real time    0.0205
    MIXING:  cpu time    0.0033: real time    0.0033
    --------------------------------------------
      LOOP:  cpu time    0.1296: real time    0.1335

 eigenvalue-minimisations  :    16
 total energy-change (2. order) :-0.7692075E-03  (-0.3523921E-04)
 number of electron       9.9999963 magnetization 
 augmentation part        0.6422294 magnetization 

 Broyden mixing:
  rms(total) = 0.48856E-02    rms(broyden)= 0.48821E-02
  rms(prec ) = 0.54123E-02
  weight for this iteration     100.00

 eigenvalues of (default mixing * dielectric matrix)
  average eigenvalue GAMMA=   1.5771
  2.2497  1.0916  1.3900

 Free energy of the ion-electron system (eV)
  ---------------------------------------------------
  alpha Z        PSCENC =         0.43695755
  Ewald energy   TEWEN  =        98.82949099
  -Hartree energ DENC   =      -580.48666417
  -exchange      EXHF   =         0.00000000
  -V(xc)+E(xc)   XCENC  =        40.37642648
  PAW double counting   =       882.56180216     -884.90683071
  entropy T*S    EENTRO =         0.00000000
  eigenvalues    EBANDS =      -150.69443954
  atomic energy  EATOM  =       579.07123046
  Solvation  Ediel_sol  =         0.00000000
  ---------------------------------------------------
  free energy    TOTEN  =       -14.81202678 eV

  energy without entropy =      -14.81202678  energy(sigma->0) =      -14.81202678


--------------------------------------------------------------------------------------------------------




----------------------------------------- Iteration    7(   5)  ---------------------------------------


    POTLOK:  cpu time    0.0704: real time    0.0704
    SETDIJ:  cpu time    0.0014: real time    0.0014
     EDDAV:  cpu time    0.0294: real time    0.0294
       DOS:  cpu time    0.0001: real time    0.0001
    CHARGE:  cpu time    0.0201: real time    0.0201
    MIXING:  cpu time    0.0036: real time    0.0036
    --------------------------------------------
      LOOP:  cpu time    0.1278: real time    0.1310

 eigenvalue-minimisations  :    16
 total energy-change (2. order) : 0.4777333E-03  (-0.1227096E-04)
 number of electron       9.9999963 magnetization 
 augmentation part        0.6418929 magnetization 

 Broyden mixing:
  rms(total) = 0.17018E-02    rms(broyden)= 0.16992E-02
  rms(prec ) = 0.22295E-02
  weight for this iteration     100.00

 eigenvalues of (default mixing * dielectric matrix)
  average eigenvalue GAMMA=   1.4185
  2.4296  1.5530  1.0583  0.6329

 Free energy of the ion-electron system (eV)
  ---------------------------------------------------
  alpha Z        PSCENC =         0.43695755
  Ewald energy   TEWEN  =        98.82949099
  -Hartree energ DENC   =      -580.56347417
  -exchange      EXHF   =         0.00000000
  -V(xc)+E(xc)   XCENC  =        40.38081723
  PAW double counting   =       879.01150691     -881.35667870
  entropy T*S    EENTRO =         0.00057979
  eigenvalues    EBANDS =      -150.62197912
  atomic energy  EATOM  =       579.07123046
  Solvation  Ediel_sol  =         0.00000000
  ---------------------------------------------------
  free energy    TOTEN  =       -14.81154905 eV

  energy without entropy =      -14.81212884  energy(sigma->0) =      -14.81174231


--------------------------------------------------------------------------------------------------------




----------------------------------------- Iteration    7(   6)  ---------------------------------------


    POTLOK:  cpu time    0.0706: real time    0.0706
    SETDIJ:  cpu time    0.0014: real time    0.0014
     EDDAV:  cpu time    0.0296: real time    0.0296
       DOS:  cpu time    0.0001: real time    0.0001
    --------------------------------------------
      LOOP:  cpu time    0.1054: real time    0.1085

 eigenvalue-minimisations  :    16
 total energy-change (2. order) :-0.1722977E-04  (-0.1849515E-05)
 number of electron       9.9999963 magnetization 
 augmentation part        0.6418929 magnetization 

 Free energy of the ion-electron system (eV)
  ---------------------------------------------------
  alpha Z        PSCENC =         0.43695755
  Ewald energy   TEWEN  =        98.82949099
  -Hartree energ DENC   =      -580.56395711
  -exchange      EXHF   =         0.00000000
  -V(xc)+E(xc)   XCENC  =        40.38083234
  PAW double counting   =       878.07495513     -880.42005120
  entropy T*S    EENTRO =         0.00057979
  eigenvalues    EBANDS =      -150.62160422
  atomic energy  EATOM  =       579.07123046
  Solvation  Ediel_sol  =         0.00000000
  ---------------------------------------------------
  free energy    TOTEN  =       -14.81156628 eV

  energy without entropy =      -14.81214607  energy(sigma->0) =      -14.81175954


--------------------------------------------------------------------------------------------------------




 average (electrostatic) potential at core
  the test charge radii are     0.6991  0.7215
  (the norm of the test charge is              1.0000)
       1 -61.6653       2 -83.6248
 
 
 
 E-fermi :  -8.9147     XC(G=0):  -0.6111     alpha+bet : -0.1751


 k-point     1 :       0.0000    0.0000    0.0000
  band No.  band energies     occupation 
      1     -29.1780      2.00000
      2     -13.9497      2.00000
      3     -11.6300      2.00000
      4     -11.6300      2.00000
      5      -8.9231      2.00000
      6      -2.0066      0.00000
      7      -2.0066      0.00000
      8      -0.1704      0.00000


--------------------------------------------------------------------------------------------------------


 soft charge-density along one line, spin component           1
         0         1         2         3         4         5         6         7         8         9
 total charge-density along one line
 
 pseudopotential strength for first ion, spin component:           1
 10.406  13.843  -0.000   0.000   0.025   0.000  -0.000  -0.083
 13.843  18.415  -0.000   0.000   0.033   0.000  -0.000  -0.110
 -0.000  -0.000  -4.548  -0.000  -0.000   8.906   0.000   0.000
  0.000   0.000  -0.000  -4.548  -0.000   0.000   8.906   0.000
  0.025   0.033  -0.000  -0.000  -4.555   0.000   0.000   8.909
  0.000   0.000   8.906   0.000   0.000 -19.589  -0.000  -0.000
 -0.000  -0.000   0.000   8.906   0.000  -0.000 -19.589  -0.000
 -0.083  -0.110   0.000   0.000   8.909  -0.000  -0.000 -19.569
 total augmentation occupancy for first ion, spin component:           1
  7.142  -3.244   0.000  -0.000   2.110   0.000  -0.000   0.380
 -3.244   1.893  -0.000   0.000  -1.622   0.000  -0.000  -0.238
  0.000  -0.000   0.850   0.000   0.000   0.071   0.000   0.000
 -0.000   0.000   0.000   0.850  -0.000   0.000   0.071   0.000
  2.110  -1.622   0.000  -0.000   2.303   0.000   0.000   0.239
 -0.000   0.000   0.071   0.000   0.000   0.006   0.000   0.000
  0.000  -0.000   0.000   0.071   0.000   0.000   0.006   0.000
  0.380  -0.238   0.000   0.000   0.239  -0.000   0.000   0.031


------------------------ aborting loop because EDIFF is reached ----------------------------------------


    CHARGE:  cpu time    0.0284: real time    0.0284
    FORLOC:  cpu time    0.0109: real time    0.0109
    FORNL :  cpu time    0.0075: real time    0.0075
    STRESS:  cpu time    0.0957: real time    0.0957
    FORCOR:  cpu time    0.0862: real time    0.0862
    FORHAR:  cpu time    0.0223: real time    0.0223
    MIXING:  cpu time    0.0049: real time    0.0049
    OFIELD:  cpu time    0.0001: real time    0.0001

  FORCE on cell =-STRESS in cart. coord.  units (eV):
  Direction    XX          YY          ZZ          XY          YZ          ZX
  --------------------------------------------------------------------------------------
  Alpha Z     0.43696     0.43696     0.43696
  Ewald     235.95036   -68.56046   -68.56046     0.00000     0.00000     0.00000
  Hartree   266.21727   157.15957   157.15957    -0.00000    -0.00000    -0.00000
  E(xc)     -42.85277   -43.96052   -43.96052    -0.00000    -0.00000     0.00000
  Local    -612.92487  -225.56096  -225.56096    -0.00000    -0.00000    -0.00000
  n-local   -30.31746   -18.95986   -18.95986    -0.00000     0.00000     0.00000
  augment     5.71744     6.17274     6.17274    -0.00000     0.00000    -0.00000
  Kinetic   175.23332   190.93595   190.93595    -0.00000    -0.00000    -0.00000
  Fock        0.00000     0.00000     0.00000     0.00000     0.00000     0.00000
  -------------------------------------------------------------------------------------
  Total      -2.53975    -2.33658    -2.33658     0.00000    -0.00000    -0.00000
  in kB      -4.06914    -3.74361    -3.74361     0.00000    -0.00000    -0.00000
  external pressure =       -3.85 kB  Pullay stress =        0.00 kB


 VOLUME and BASIS-vectors are now :
 -----------------------------------------------------------------------------
  energy-cutoff  :      350.00
  volume of cell :     1000.00
      direct lattice vectors                 reciprocal lattice vectors
    10.000000000  0.000000000  0.000000000     0.100000000  0.000000000  0.000000000
     0.000000000 10.000000000  0.000000000     0.000000000  0.100000000  0.000000000
     0.000000000  0.000000000 10.000000000     0.000000000  0.000000000  0.100000000

  length of vectors
    10.000000000 10.000000000 10.000000000     0.100000000  0.100000000  0.100000000


 FORCES acting on ions
    electron-ion (+dipol)            ewald-force                    non-local-force                 convergence-correction
 -----------------------------------------------------------------------------------------------
   0.234E+03 0.973E-15 0.112E-04   -.262E+03 0.110E-16 -.146E-16   0.280E+02 -.268E-26 0.000E+00   -.631E-02 0.317E-13 -.840E-13
   -.203E+03 0.445E-14 -.137E-04   0.262E+03 0.102E-16 -.139E-16   -.596E+02 -.969E-26 0.323E-26   0.133E-01 0.532E-13 -.178E-12
 -----------------------------------------------------------------------------------------------
   0.316E+02 0.542E-14 -.244E-05   0.000E+00 0.212E-16 -.284E-16   -.316E+02 -.124E-25 0.323E-26   0.699E-02 0.849E-13 -.262E-12
 
 
 POSITION                                       TOTAL-FORCE (eV/Angst)
 -----------------------------------------------------------------------------------
     -0.02190     -0.00000      0.00000         0.003452     -0.000000      0.000000
      1.12190      0.00000     -0.00000        -0.003452      0.000000     -0.000000
 -----------------------------------------------------------------------------------
    total drift:                               -0.010854      0.000000     -0.000002


--------------------------------------------------------------------------------------------------------



  FREE ENERGIE OF THE ION-ELECTRON SYSTEM (eV)
  ---------------------------------------------------
  free  energy   TOTEN  =       -14.81156628 eV

  energy  without entropy=      -14.81214607  energy(sigma->0) =      -14.81175954
 
 d Force = 0.5540030E-01[-0.103E-03, 0.111E+00]  d Energy = 0.5328399E-01 0.212E-02
 d Force = 0.8026762E+01[ 0.781E+01, 0.824E+01]  d Ewald  = 0.8023954E+01 0.281E-02


--------------------------------------------------------------------------------------------------------


    POTLOK:  cpu time    0.0765: real time    0.0765


--------------------------------------------------------------------------------------------------------




--------------------------------------------------------------------------------------------------------


  
 reached required accuracy - stopping structural energy minimisation
     LOOP+:  cpu time    1.1112: real time    1.1414
    4ORBIT:  cpu time    0.0000: real time    0.0000

 total amount of memory used by VASP on root node    47596. kBytes
========================================================================

   base      :      30000. kBytes
   nonl-proj :       2368. kBytes
   fftplans  :       4240. kBytes
   grid      :      10745. kBytes
   one-center:          6. kBytes
   wavefun   :        237. kBytes
 
  
  
 General timing and accounting informations for this job:
 ========================================================
  
                  Total CPU time used (sec):       11.143
                            User time (sec):       10.383
                          System time (sec):        0.760
                         Elapsed time (sec):       11.476
  
                   Maximum memory used (kb):       63804.
                   Average memory used (kb):           0.
  
                          Minor page faults:        52853
                          Major page faults:            6
                 Voluntary context switches:         1044
