   4   4   0   0
  0.1710448E+02  0.4090000E-09  0.4090000E-09  0.4090000E-09  0.5000000E-15
  1.000000000000000E-004
  CAR 
 unknown system                          
     39.75125220     -1.22066678  301      8.29189387      1.00000000
     -1.221  0.0000E+00  0.0000E+00
     -1.084  0.0000E+00  0.0000E+00
     -0.948  0.0000E+00  0.0000E+00
     -0.811  0.0000E+00  0.0000E+00
     -0.674  0.0000E+00  0.0000E+00
     -0.538  0.0000E+00  0.0000E+00
     -0.401  0.0000E+00  0.0000E+00
     -0.265 -0.1083E-36 -0.1479E-37
     -0.128 -0.8043E-27 -0.1098E-27
      0.008 -0.1387E-18 -0.1894E-19
      0.145 -0.5251E-12 -0.7172E-13
      0.282 -0.4425E-07 -0.6044E-08
      0.418 -0.7039E-04 -0.9620E-05
      0.555 -0.6077E-03 -0.9262E-04
      0.691  0.1795E-01  0.2358E-02
      0.828  0.1221E+00  0.1903E-01
      0.965  0.2493E+00  0.5307E-01
      1.101  0.1644E+00  0.7552E-01
      1.238  0.2508E+00  0.1098E+00
      1.374  0.6331E+00  0.1962E+00
      1.511  0.1940E+00  0.2227E+00
      1.647  0.3820E+00  0.2749E+00
      1.784  0.6301E+00  0.3609E+00
      1.921  0.7803E+00  0.4675E+00
      2.057  0.1414E+01  0.6607E+00
      2.194  0.5790E+01  0.1451E+01
      2.330  0.8150E+01  0.2565E+01
      2.467  0.1217E+02  0.4227E+01
      2.603  0.1525E+02  0.6309E+01
      2.740  0.1158E+02  0.7890E+01
      2.877  0.1124E+02  0.9425E+01
      3.013  0.6455E+01  0.1031E+02
      3.150  0.1122E+02  0.1184E+02
      3.286  0.1033E+02  0.1325E+02
      3.423  0.9184E+01  0.1451E+02
      3.559  0.1134E+02  0.1605E+02
      3.696  0.1217E+02  0.1772E+02
      3.833  0.1623E+02  0.1993E+02
      3.969  0.1636E+02  0.2217E+02
      4.106  0.1135E+02  0.2372E+02
      4.242  0.1032E+02  0.2513E+02
      4.379  0.1074E+02  0.2659E+02
      4.515  0.1184E+02  0.2821E+02
      4.652  0.1365E+02  0.3008E+02
      4.789  0.1107E+02  0.3159E+02
      4.925  0.1118E+02  0.3311E+02
      5.062  0.1083E+02  0.3459E+02
      5.198  0.1001E+02  0.3596E+02
      5.335  0.1434E+02  0.3792E+02
      5.471  0.1743E+02  0.4030E+02
      5.608  0.7952E+01  0.4139E+02
      5.745  0.9065E+00  0.4151E+02
      5.881 -0.1223E+00  0.4149E+02
      6.018  0.1073E+01  0.4164E+02
      6.154  0.1845E+01  0.4189E+02
      6.291  0.1524E+01  0.4210E+02
      6.427  0.6131E-01  0.4211E+02
      6.564  0.5667E+00  0.4219E+02
      6.701  0.3818E+00  0.4224E+02
      6.837  0.7612E+00  0.4234E+02
      6.974  0.1997E+01  0.4261E+02
      7.110  0.1294E+01  0.4279E+02
      7.247  0.5962E+00  0.4287E+02
      7.383  0.4889E+00  0.4294E+02
      7.520  0.1395E+01  0.4313E+02
      7.657  0.1937E+00  0.4316E+02
      7.793  0.3585E-01  0.4316E+02
      7.930  0.1726E+01  0.4340E+02
      8.066  0.1993E+01  0.4367E+02
      8.203  0.1332E+01  0.4385E+02
      8.339  0.1579E+01  0.4407E+02
      8.476  0.1940E+00  0.4409E+02
      8.613  0.8218E+00  0.4421E+02
      8.749  0.2617E+00  0.4424E+02
      8.886  0.7371E+00  0.4434E+02
      9.022  0.2145E+01  0.4463E+02
      9.159  0.9609E+00  0.4477E+02
      9.295  0.1250E+01  0.4494E+02
      9.432  0.1784E+01  0.4518E+02
      9.569  0.9392E+00  0.4531E+02
      9.705  0.3937E+00  0.4536E+02
      9.842  0.1086E+01  0.4551E+02
      9.978  0.6301E+00  0.4560E+02
     10.115 -0.8745E-01  0.4558E+02
     10.251  0.1852E+01  0.4584E+02
     10.388  0.2321E+01  0.4615E+02
     10.525  0.2858E+00  0.4619E+02
     10.661  0.1410E+01  0.4639E+02
     10.798  0.9437E+00  0.4652E+02
     10.934  0.8835E+00  0.4664E+02
     11.071  0.6002E+00  0.4672E+02
     11.207  0.4756E+00  0.4678E+02
     11.344  0.5512E+00  0.4686E+02
     11.481  0.8128E+00  0.4697E+02
     11.617  0.1561E+01  0.4718E+02
     11.754  0.9227E-01  0.4719E+02
     11.890  0.1186E+01  0.4736E+02
     12.027  0.9036E+00  0.4748E+02
     12.163  0.1075E+01  0.4763E+02
     12.300  0.1270E+01  0.4780E+02
     12.437  0.1161E+01  0.4796E+02
     12.573  0.1918E+01  0.4822E+02
     12.710  0.1522E+01  0.4843E+02
     12.846  0.5643E+00  0.4851E+02
     12.983  0.1094E+01  0.4866E+02
     13.120  0.1345E+01  0.4884E+02
     13.256  0.2634E+01  0.4920E+02
     13.393  0.8269E+00  0.4931E+02
     13.529  0.2257E+00  0.4934E+02
     13.666  0.1076E+01  0.4949E+02
     13.802  0.1708E+01  0.4972E+02
     13.939  0.1666E+01  0.4995E+02
     14.076  0.3505E+00  0.5000E+02
     14.212  0.1817E+01  0.5025E+02
     14.349  0.5266E+00  0.5032E+02
     14.485  0.1359E+01  0.5050E+02
     14.622  0.9645E+00  0.5064E+02
     14.758  0.4859E+00  0.5070E+02
     14.895  0.1571E+01  0.5092E+02
     15.032  0.9817E+00  0.5105E+02
     15.168  0.1794E+01  0.5130E+02
     15.305  0.1810E+01  0.5154E+02
     15.441  0.2248E+01  0.5185E+02
     15.578  0.7383E+00  0.5195E+02
     15.714  0.6995E+00  0.5205E+02
     15.851  0.1977E+01  0.5232E+02
     15.988  0.1809E+01  0.5256E+02
     16.124  0.2155E+01  0.5286E+02
     16.261  0.1605E+01  0.5308E+02
     16.397  0.9972E+00  0.5321E+02
     16.534  0.1526E+01  0.5342E+02
     16.670  0.3342E+01  0.5388E+02
     16.807  0.1732E+01  0.5411E+02
     16.944  0.1009E+01  0.5425E+02
     17.080  0.2633E+01  0.5461E+02
     17.217  0.1702E+01  0.5484E+02
     17.353  0.4652E+00  0.5491E+02
     17.490  0.2430E+01  0.5524E+02
     17.626  0.1447E+01  0.5544E+02
     17.763  0.1227E+01  0.5560E+02
     17.900  0.1528E+01  0.5581E+02
     18.036  0.2655E+01  0.5618E+02
     18.173  0.2464E+01  0.5651E+02
     18.309  0.2118E+01  0.5680E+02
     18.446  0.1207E+01  0.5697E+02
     18.582  0.1489E+01  0.5717E+02
     18.719  0.1189E+01  0.5733E+02
     18.856  0.3372E+01  0.5779E+02
     18.992  0.3918E+01  0.5833E+02
     19.129  0.1276E+01  0.5850E+02
     19.265  0.1519E+01  0.5871E+02
     19.402  0.1258E+01  0.5888E+02
     19.538  0.3087E+01  0.5930E+02
     19.675  0.3111E+01  0.5973E+02
     19.812  0.2583E+01  0.6008E+02
     19.948  0.1131E+01  0.6023E+02
     20.085  0.1453E+01  0.6043E+02
     20.221  0.1715E+01  0.6067E+02
     20.358  0.3110E+01  0.6109E+02
     20.494  0.1023E+01  0.6123E+02
     20.631  0.6807E+00  0.6132E+02
     20.768  0.2251E+01  0.6163E+02
     20.904  0.2955E+01  0.6204E+02
     21.041  0.3988E+01  0.6258E+02
     21.177  0.2331E+01  0.6290E+02
     21.314  0.1052E+01  0.6304E+02
     21.450  0.3099E+01  0.6347E+02
     21.587  0.1813E+01  0.6371E+02
     21.724  0.4716E+00  0.6378E+02
     21.860  0.1395E+01  0.6397E+02
     21.997  0.2832E+01  0.6435E+02
     22.133  0.2619E+01  0.6471E+02
     22.270  0.9908E+00  0.6485E+02
     22.406  0.1791E+01  0.6509E+02
     22.543  0.4893E+00  0.6516E+02
     22.680  0.3013E+01  0.6557E+02
     22.816  0.2177E+01  0.6587E+02
     22.953  0.1780E+01  0.6611E+02
     23.089  0.1032E+01  0.6625E+02
     23.226  0.1739E+01  0.6649E+02
     23.362  0.2933E+01  0.6689E+02
     23.499  0.2111E+01  0.6718E+02
     23.636  0.2009E+01  0.6745E+02
     23.772  0.2965E+01  0.6786E+02
     23.909  0.2025E+01  0.6813E+02
     24.045  0.5097E+00  0.6820E+02
     24.182  0.1599E+01  0.6842E+02
     24.318  0.2910E+01  0.6882E+02
     24.455  0.1256E+01  0.6899E+02
     24.592  0.4736E+00  0.6906E+02
     24.728  0.1881E+01  0.6931E+02
     24.865  0.2694E+01  0.6968E+02
     25.001  0.2094E+01  0.6997E+02
     25.138  0.2872E+01  0.7036E+02
     25.275  0.2082E+01  0.7064E+02
     25.411  0.4477E+01  0.7125E+02
     25.548  0.2853E+01  0.7164E+02
     25.684  0.1982E+01  0.7192E+02
     25.821  0.4947E+01  0.7259E+02
     25.957  0.7416E+01  0.7360E+02
     26.094  0.3937E+01  0.7414E+02
     26.231  0.2100E+01  0.7443E+02
     26.367  0.3379E+01  0.7489E+02
     26.504  0.1845E+01  0.7514E+02
     26.640  0.2294E+01  0.7545E+02
     26.777  0.1061E+01  0.7560E+02
     26.913  0.1058E+01  0.7574E+02
     27.050  0.3412E+01  0.7621E+02
     27.187  0.3613E+01  0.7670E+02
     27.323  0.3817E+01  0.7722E+02
     27.460  0.4700E+01  0.7787E+02
     27.596  0.3960E+01  0.7841E+02
     27.733  0.1723E+01  0.7864E+02
     27.869  0.1108E+01  0.7879E+02
     28.006  0.7234E+00  0.7889E+02
     28.143  0.1533E+01  0.7910E+02
     28.279  0.2141E+01  0.7939E+02
     28.416  0.1960E+01  0.7966E+02
     28.552  0.1472E+01  0.7986E+02
     28.689  0.1435E+01  0.8006E+02
     28.825  0.1172E+01  0.8022E+02
     28.962  0.2550E+01  0.8057E+02
     29.099  0.8051E+00  0.8068E+02
     29.235  0.7863E+00  0.8079E+02
     29.372  0.2327E+01  0.8110E+02
     29.508  0.2495E+01  0.8144E+02
     29.645  0.5005E+00  0.8151E+02
     29.781  0.1550E+01  0.8172E+02
     29.918  0.3066E+00  0.8177E+02
     30.055  0.1178E+01  0.8193E+02
     30.191  0.2297E+01  0.8224E+02
     30.328  0.2239E+01  0.8255E+02
     30.464  0.1111E+01  0.8270E+02
     30.601  0.2288E+01  0.8301E+02
     30.737  0.3227E+01  0.8345E+02
     30.874  0.7211E+00  0.8355E+02
     31.011  0.2263E+01  0.8386E+02
     31.147  0.2622E+01  0.8422E+02
     31.284  0.3438E+01  0.8469E+02
     31.420  0.2344E+01  0.8501E+02
     31.557  0.4614E+01  0.8564E+02
     31.693  0.4120E+01  0.8620E+02
     31.830  0.2303E+01  0.8651E+02
     31.967  0.2545E+01  0.8686E+02
     32.103  0.1958E+01  0.8713E+02
     32.240  0.2981E+01  0.8754E+02
     32.376  0.4233E+01  0.8811E+02
     32.513  0.4092E+01  0.8867E+02
     32.649  0.2962E+01  0.8908E+02
     32.786  0.4374E+00  0.8914E+02
     32.923  0.4009E+00  0.8919E+02
     33.059  0.1762E+01  0.8943E+02
     33.196  0.2494E+01  0.8977E+02
     33.332  0.1983E+01  0.9004E+02
     33.469  0.3587E+01  0.9053E+02
     33.605  0.3503E+01  0.9101E+02
     33.742  0.4832E+01  0.9167E+02
     33.879  0.2912E+01  0.9207E+02
     34.015  0.3769E+01  0.9258E+02
     34.152  0.3894E+01  0.9312E+02
     34.288  0.2750E+01  0.9349E+02
     34.425  0.2434E+01  0.9382E+02
     34.561  0.5232E+01  0.9454E+02
     34.698  0.1739E+01  0.9478E+02
     34.835  0.8326E+00  0.9489E+02
     34.971  0.1479E+01  0.9509E+02
     35.108  0.1011E+01  0.9523E+02
     35.244  0.1977E+01  0.9550E+02
     35.381  0.3956E+00  0.9555E+02
     35.517  0.9961E+00  0.9569E+02
     35.654  0.5137E+00  0.9576E+02
     35.791 -0.4947E-01  0.9575E+02
     35.927  0.1887E+00  0.9578E+02
     36.064  0.1035E+01  0.9592E+02
     36.200  0.3615E-01  0.9593E+02
     36.337  0.1697E+00  0.9595E+02
     36.473  0.1175E+00  0.9596E+02
     36.610  0.7972E-01  0.9598E+02
     36.747 -0.4087E-02  0.9598E+02
     36.883 -0.1245E-03  0.9598E+02
     37.020 -0.2523E-03  0.9598E+02
     37.156 -0.4667E-02  0.9597E+02
     37.293  0.1242E+00  0.9599E+02
     37.430  0.4463E-01  0.9600E+02
     37.566 -0.3206E-02  0.9600E+02
     37.703 -0.2561E-03  0.9600E+02
     37.839  0.2891E-02  0.9600E+02
     37.976  0.1756E-01  0.9600E+02
     38.112 -0.4401E-04  0.9600E+02
     38.249 -0.6994E-04  0.9600E+02
     38.386 -0.4425E-07  0.9600E+02
     38.522 -0.5251E-12  0.9600E+02
     38.659  0.0000E+00  0.9600E+02
     38.795  0.0000E+00  0.9600E+02
     38.932  0.0000E+00  0.9600E+02
     39.068  0.0000E+00  0.9600E+02
     39.205  0.0000E+00  0.9600E+02
     39.342  0.0000E+00  0.9600E+02
     39.478  0.0000E+00  0.9600E+02
     39.615  0.0000E+00  0.9600E+02
     39.751  0.0000E+00  0.9600E+02
