   4   4   0   0
  0.1176147E+02  0.3610000E-09  0.3610000E-09  0.3610000E-09  0.5000000E-15
  1.000000000000000E-004
  CAR 
 unknown system                          
     46.29281022     -4.03604039  301      7.41658097      1.00000000
     -4.036  0.0000E+00  0.0000E+00
     -3.868  0.0000E+00  0.0000E+00
     -3.701  0.0000E+00  0.0000E+00
     -3.533  0.0000E+00  0.0000E+00
     -3.365  0.0000E+00  0.0000E+00
     -3.197  0.0000E+00  0.0000E+00
     -3.029  0.0000E+00  0.0000E+00
     -2.862  0.0000E+00  0.0000E+00
     -2.694 -0.1369E-39 -0.2297E-40
     -2.526 -0.4055E-27 -0.6803E-28
     -2.358 -0.4114E-17 -0.6901E-18
     -2.191 -0.1317E-09 -0.2209E-10
     -2.023 -0.1256E-04 -0.2107E-05
     -1.855 -0.1058E-02 -0.1797E-03
     -1.687  0.3073E-01  0.4976E-02
     -1.520  0.7573E-01  0.1768E-01
     -1.352  0.1350E+00  0.4032E-01
     -1.184  0.3998E+00  0.1074E+00
     -1.016  0.1546E+00  0.1333E+00
     -0.849  0.1540E+00  0.1592E+00
     -0.681  0.1757E+00  0.1886E+00
     -0.513  0.6062E+00  0.2903E+00
     -0.345  0.4438E+00  0.3648E+00
     -0.177  0.6693E+00  0.4771E+00
     -0.010 -0.3915E-01  0.4705E+00
      0.158  0.2577E+00  0.5137E+00
      0.326  0.4716E+00  0.5928E+00
      0.494  0.7759E+00  0.7230E+00
      0.661  0.7714E+00  0.8524E+00
      0.829  0.7493E+00  0.9781E+00
      0.997  0.3704E+00  0.1040E+01
      1.165  0.2511E+00  0.1082E+01
      1.332  0.1282E+01  0.1297E+01
      1.500  0.1028E+01  0.1470E+01
      1.668  0.4925E-01  0.1478E+01
      1.836  0.1249E+01  0.1688E+01
      2.003  0.9215E+00  0.1842E+01
      2.171  0.1538E+01  0.2100E+01
      2.339  0.1373E+01  0.2331E+01
      2.507  0.2523E+01  0.2754E+01
      2.674  0.2314E+01  0.3142E+01
      2.842  0.3973E+01  0.3809E+01
      3.010  0.4742E+01  0.4604E+01
      3.178  0.6099E+01  0.5627E+01
      3.346  0.5836E+01  0.6606E+01
      3.513  0.9419E+01  0.8187E+01
      3.681  0.8672E+01  0.9641E+01
      3.849  0.8886E+01  0.1113E+02
      4.017  0.8329E+01  0.1253E+02
      4.184  0.8658E+01  0.1398E+02
      4.352  0.1388E+02  0.1631E+02
      4.520  0.1305E+02  0.1850E+02
      4.688  0.1434E+02  0.2090E+02
      4.855  0.1804E+02  0.2393E+02
      5.023  0.1230E+02  0.2599E+02
      5.191  0.1048E+02  0.2775E+02
      5.359  0.1171E+02  0.2972E+02
      5.526  0.1700E+02  0.3257E+02
      5.694  0.1066E+02  0.3436E+02
      5.862  0.1502E+02  0.3688E+02
      6.030  0.2298E+02  0.4073E+02
      6.197  0.7737E+01  0.4203E+02
      6.365  0.6212E+00  0.4214E+02
      6.533  0.1759E+01  0.4243E+02
      6.701  0.2533E+01  0.4286E+02
      6.869  0.1207E+01  0.4306E+02
      7.036  0.5022E-01  0.4307E+02
      7.204  0.9920E+00  0.4323E+02
      7.372  0.3671E+01  0.4385E+02
      7.540  0.1102E+01  0.4403E+02
      7.707  0.3230E+00  0.4409E+02
      7.875  0.1181E+01  0.4429E+02
      8.043  0.1231E+01  0.4449E+02
      8.211 -0.5606E-01  0.4448E+02
      8.378  0.1066E+01  0.4466E+02
      8.546  0.1936E+01  0.4499E+02
      8.714  0.7622E+00  0.4511E+02
      8.882  0.6463E+00  0.4522E+02
      9.049  0.3750E+01  0.4585E+02
      9.217  0.7328E+00  0.4598E+02
      9.385 -0.2572E-01  0.4597E+02
      9.553  0.1158E-02  0.4597E+02
      9.721  0.9597E+00  0.4613E+02
      9.888  0.4618E+00  0.4621E+02
     10.056  0.1546E+01  0.4647E+02
     10.224  0.1059E+00  0.4649E+02
     10.392  0.2673E+01  0.4693E+02
     10.559  0.8054E-01  0.4695E+02
     10.727  0.8157E+00  0.4709E+02
     10.895  0.1229E-01  0.4709E+02
     11.063  0.4692E+00  0.4717E+02
     11.230  0.1806E+01  0.4747E+02
     11.398  0.6584E+00  0.4758E+02
     11.566  0.7012E+00  0.4770E+02
     11.734  0.1039E+01  0.4787E+02
     11.901  0.7377E+00  0.4800E+02
     12.069  0.1587E+01  0.4826E+02
     12.237  0.1972E+00  0.4829E+02
     12.405  0.3600E+00  0.4835E+02
     12.572  0.1648E+01  0.4863E+02
     12.740  0.1389E+01  0.4886E+02
     12.908  0.1699E+01  0.4915E+02
     13.076  0.1437E+01  0.4939E+02
     13.244  0.2153E+01  0.4975E+02
     13.411  0.2362E+00  0.4979E+02
     13.579  0.9745E+00  0.4995E+02
     13.747  0.7256E+00  0.5008E+02
     13.915  0.6361E+00  0.5018E+02
     14.082  0.1042E+01  0.5036E+02
     14.250  0.7011E+00  0.5048E+02
     14.418  0.4183E+00  0.5055E+02
     14.586  0.7396E+00  0.5067E+02
     14.753  0.9362E+00  0.5083E+02
     14.921  0.1383E+01  0.5106E+02
     15.089  0.2120E+01  0.5141E+02
     15.257  0.2893E+01  0.5190E+02
     15.424  0.6269E+00  0.5201E+02
     15.592  0.3002E+00  0.5206E+02
     15.760  0.9810E+00  0.5222E+02
     15.928  0.2001E+01  0.5256E+02
     16.095  0.1144E+01  0.5275E+02
     16.263  0.4279E+00  0.5282E+02
     16.431  0.8765E+00  0.5297E+02
     16.599  0.9900E+00  0.5313E+02
     16.767  0.1209E+01  0.5334E+02
     16.934  0.2027E+01  0.5368E+02
     17.102  0.1528E+01  0.5393E+02
     17.270  0.2344E+01  0.5432E+02
     17.438  0.3522E+01  0.5492E+02
     17.605  0.1571E+01  0.5518E+02
     17.773  0.3307E+00  0.5523E+02
     17.941  0.4943E+00  0.5532E+02
     18.109  0.8361E+00  0.5546E+02
     18.276  0.3038E+01  0.5597E+02
     18.444  0.1652E+01  0.5625E+02
     18.612  0.7231E+00  0.5637E+02
     18.780  0.1183E+01  0.5656E+02
     18.947  0.2688E+01  0.5702E+02
     19.115  0.1882E+00  0.5705E+02
     19.283  0.1200E+01  0.5725E+02
     19.451  0.1233E+01  0.5746E+02
     19.619  0.2606E+01  0.5789E+02
     19.786  0.1677E+01  0.5817E+02
     19.954  0.8255E+00  0.5831E+02
     20.122  0.1092E+01  0.5850E+02
     20.290  0.2768E+01  0.5896E+02
     20.457  0.1892E+01  0.5928E+02
     20.625  0.7726E+00  0.5941E+02
     20.793  0.8886E+00  0.5956E+02
     20.961  0.2961E+01  0.6005E+02
     21.128  0.2640E+01  0.6050E+02
     21.296  0.2257E+01  0.6087E+02
     21.464  0.2244E+01  0.6125E+02
     21.632  0.1073E+01  0.6143E+02
     21.799  0.1057E+01  0.6161E+02
     21.967  0.2760E+01  0.6207E+02
     22.135  0.3154E+01  0.6260E+02
     22.303  0.1569E+00  0.6263E+02
     22.470  0.9924E+00  0.6279E+02
     22.638  0.1567E+01  0.6306E+02
     22.806  0.3935E+00  0.6312E+02
     22.974  0.1140E+01  0.6331E+02
     23.142  0.1280E+01  0.6353E+02
     23.309  0.3991E+01  0.6420E+02
     23.477  0.6029E+00  0.6430E+02
     23.645  0.1059E+01  0.6448E+02
     23.813  0.1774E+01  0.6477E+02
     23.980  0.1525E+01  0.6503E+02
     24.148  0.9554E+00  0.6519E+02
     24.316  0.1029E+01  0.6536E+02
     24.484  0.2171E+01  0.6573E+02
     24.651  0.7977E+00  0.6586E+02
     24.819  0.3501E+00  0.6592E+02
     24.987  0.3550E+01  0.6652E+02
     25.155  0.1637E+01  0.6679E+02
     25.322  0.5908E+00  0.6689E+02
     25.490  0.3409E+00  0.6695E+02
     25.658  0.1577E+01  0.6721E+02
     25.826  0.5069E+00  0.6730E+02
     25.994  0.1408E+01  0.6753E+02
     26.161  0.2277E+01  0.6791E+02
     26.329  0.2837E+00  0.6796E+02
     26.497  0.3098E+01  0.6848E+02
     26.665  0.2945E+01  0.6898E+02
     26.832  0.8104E+00  0.6911E+02
     27.000  0.1785E+01  0.6941E+02
     27.168  0.1118E+01  0.6960E+02
     27.336  0.2378E+01  0.7000E+02
     27.503  0.5333E+00  0.7009E+02
     27.671  0.2382E+01  0.7049E+02
     27.839  0.1265E+01  0.7070E+02
     28.007  0.1162E+01  0.7089E+02
     28.174  0.2883E+00  0.7094E+02
     28.342  0.1337E+01  0.7117E+02
     28.510  0.4960E+01  0.7200E+02
     28.678  0.3295E+01  0.7255E+02
     28.845  0.6996E+00  0.7267E+02
     29.013  0.2635E+01  0.7311E+02
     29.181  0.7501E+00  0.7324E+02
     29.349  0.1632E+01  0.7351E+02
     29.517  0.2476E+01  0.7393E+02
     29.684  0.2927E+01  0.7442E+02
     29.852  0.5120E+01  0.7528E+02
     30.020  0.2612E+01  0.7571E+02
     30.188  0.2449E+01  0.7612E+02
     30.355  0.3546E+01  0.7672E+02
     30.523  0.1560E+01  0.7698E+02
     30.691  0.4428E+00  0.7706E+02
     30.859  0.1446E+01  0.7730E+02
     31.026  0.1077E+01  0.7748E+02
     31.194  0.1967E+01  0.7781E+02
     31.362  0.2272E+01  0.7819E+02
     31.530  0.6610E+00  0.7830E+02
     31.697  0.2403E+01  0.7870E+02
     31.865  0.1257E+01  0.7892E+02
     32.033  0.3988E+01  0.7958E+02
     32.201  0.2534E+01  0.8001E+02
     32.368  0.8075E+00  0.8014E+02
     32.536 -0.4804E-01  0.8014E+02
     32.704  0.5614E+00  0.8023E+02
     32.872  0.6814E+00  0.8035E+02
     33.040  0.2825E+01  0.8082E+02
     33.207  0.1216E+01  0.8102E+02
     33.375  0.7172E+00  0.8114E+02
     33.543  0.1955E+01  0.8147E+02
     33.711  0.1159E+01  0.8167E+02
     33.878  0.9306E+00  0.8182E+02
     34.046  0.6840E+00  0.8194E+02
     34.214  0.2870E+01  0.8242E+02
     34.382  0.8317E+00  0.8256E+02
     34.549  0.2080E+01  0.8291E+02
     34.717  0.2772E+01  0.8337E+02
     34.885  0.1346E+01  0.8360E+02
     35.053  0.3727E+01  0.8422E+02
     35.220  0.3468E+01  0.8480E+02
     35.388  0.2373E+01  0.8520E+02
     35.556  0.2200E+01  0.8557E+02
     35.724  0.2679E+01  0.8602E+02
     35.892  0.3520E+01  0.8661E+02
     36.059  0.1494E+01  0.8686E+02
     36.227  0.1406E+01  0.8710E+02
     36.395  0.1743E+01  0.8739E+02
     36.563  0.1764E+01  0.8769E+02
     36.730  0.1737E+01  0.8798E+02
     36.898  0.8973E+00  0.8813E+02
     37.066  0.8360E+00  0.8827E+02
     37.234  0.1528E-01  0.8827E+02
     37.401  0.2891E+00  0.8832E+02
     37.569  0.3604E+01  0.8892E+02
     37.737  0.3162E+01  0.8945E+02
     37.905  0.7015E+00  0.8957E+02
     38.072  0.1382E+01  0.8980E+02
     38.240  0.2688E+01  0.9026E+02
     38.408  0.3019E+01  0.9076E+02
     38.576  0.1907E+01  0.9108E+02
     38.743  0.2049E+01  0.9143E+02
     38.911  0.2627E+01  0.9187E+02
     39.079  0.1639E+01  0.9214E+02
     39.247  0.8054E+00  0.9228E+02
     39.415  0.3034E+01  0.9279E+02
     39.582  0.4875E+01  0.9360E+02
     39.750  0.2169E+01  0.9397E+02
     39.918  0.2928E+01  0.9446E+02
     40.086  0.1960E+00  0.9449E+02
     40.253  0.2302E+01  0.9488E+02
     40.421  0.9261E+00  0.9503E+02
     40.589  0.2931E+00  0.9508E+02
     40.757  0.6655E+00  0.9519E+02
     40.924  0.1805E+00  0.9522E+02
     41.092  0.2263E+00  0.9526E+02
     41.260  0.1034E+01  0.9544E+02
     41.428 -0.2215E-01  0.9543E+02
     41.595  0.8125E+00  0.9557E+02
     41.763  0.1040E+01  0.9574E+02
     41.931  0.4207E-01  0.9575E+02
     42.099 -0.2064E-02  0.9575E+02
     42.267 -0.9601E-02  0.9575E+02
     42.434  0.2860E+00  0.9580E+02
     42.602  0.5741E+00  0.9589E+02
     42.770  0.3774E+00  0.9596E+02
     42.938  0.2415E+00  0.9600E+02
     43.105 -0.9585E-02  0.9599E+02
     43.273 -0.6956E-05  0.9599E+02
     43.441 -0.1058E-10  0.9599E+02
     43.609 -0.5412E-08  0.9599E+02
     43.776 -0.9854E-04  0.9599E+02
     43.944  0.2724E-02  0.9599E+02
     44.112  0.3320E-01  0.9600E+02
     44.280 -0.1058E-02  0.9600E+02
     44.447 -0.1256E-04  0.9600E+02
     44.615 -0.1317E-09  0.9600E+02
     44.783 -0.7718E-17  0.9600E+02
     44.951  0.0000E+00  0.9600E+02
     45.118  0.0000E+00  0.9600E+02
     45.286  0.0000E+00  0.9600E+02
     45.454  0.0000E+00  0.9600E+02
     45.622  0.0000E+00  0.9600E+02
     45.790  0.0000E+00  0.9600E+02
     45.957  0.0000E+00  0.9600E+02
     46.125  0.0000E+00  0.9600E+02
     46.293  0.0000E+00  0.9600E+02
