       N       E                     dE             d eps       ncg     rms          rms(c)
DAV:   1     0.159954868243E+03    0.15995E+03   -0.16372E+04  2256   0.136E+03
DAV:   2    -0.133422708949E+02   -0.17330E+03   -0.15747E+03  1920   0.199E+02
DAV:   3    -0.184875534327E+02   -0.51453E+01   -0.51036E+01  2688   0.404E+01
DAV:   4    -0.185256484188E+02   -0.38095E-01   -0.38094E-01  1944   0.303E+00
DAV:   5    -0.185261706752E+02   -0.52226E-03   -0.52225E-03  2784   0.383E-01    0.153E+01
DAV:   6    -0.163808912248E+02    0.21453E+01   -0.33137E+01  2400   0.708E+01    0.770E+00
DAV:   7    -0.149658223269E+02    0.14151E+01   -0.53941E+00  2376   0.283E+01    0.113E+00
DAV:   8    -0.149240402856E+02    0.41782E-01   -0.24140E-02  2256   0.102E+00    0.598E-01
DAV:   9    -0.149176249171E+02    0.64154E-02   -0.20396E-02  2472   0.161E+00    0.388E-02
DAV:  10    -0.149176645204E+02   -0.39603E-04   -0.15237E-04  1968   0.741E-02
   1 F= -.14917665E+02 E0= -.14917809E+02  d E =0.432781E-03
